Membrane in water
40347
    1TMC1    C1    1   4.234   3.530  11.590 -0.9561 -0.0790 -0.3708
    1TMC1    C2    2   4.282   3.645  11.650 -0.5685  0.3150 -0.0294
    1TMC1    C3    3   4.360   3.729  11.572 -0.6052  0.5268  0.1266
    1TMC1    C4    4   4.251   3.505  11.464  0.3478 -0.1986 -0.2095
    1TMC1    C5    5   4.317   3.590  11.390  0.1077  0.4465  0.7374
    1TMC1    C6    6   4.368   3.704  11.437  0.4044  0.1949  0.1021
    1TMC1     C    7   4.142   3.447  11.665  0.2705  0.8919  0.7701
    1TMC1     O    8   4.052   3.401  11.600 -0.2920  0.0183  0.3518
    1TMC1     H    9   4.275   3.663  11.756 -0.4059 -2.9858  0.5196
    1TMC1    H1   10   4.236   3.402  11.434  0.2762 -0.5593  1.0894
    1TMC1    H2   11   4.425   3.771  11.374 -2.5647  3.5263  0.9430
    1TMC1    C7   12   4.337   3.553  11.254  0.8783  0.3899 -0.0115
    1TMC1    C8   13   4.453   3.829  11.628 -0.7498  0.2410  0.1655
    1TMC1    O1   14   4.436   3.598  11.195 -0.4387  0.5874  0.6385
    1TMC1    O2   15   4.540   3.883  11.562  0.5047  0.2097  0.1300
    1TMC1    O3   16   4.231   3.489  11.200  0.2883  0.4879 -0.1677
    1TMC1    H3   17   4.147   3.506  11.248 -0.1734 -1.3356 -0.3404
    1TMC1    O5   18   4.458   3.821  11.764 -0.0346 -0.0047 -0.0405
    1TMC1    H5   19   4.399   3.756  11.808 -0.7351  0.5841 -0.0887
    2MPD2     C   20   4.002   3.207  12.096  0.4455 -0.2781 -0.1150
    2MPD2    C1   21   3.928   3.244  11.987  0.6591  0.1143 -0.2196
    2MPD2    C2   22   3.991   3.309  11.878 -0.4880  0.5871 -0.1032
    2MPD2    C3   23   4.118   3.345  11.889 -0.2379  0.2186 -0.0582
    2MPD2    C4   24   4.191   3.321  12.002 -0.9617  0.6071 -0.3221
    2MPD2    C5   25   4.136   3.244  12.095  0.5558  0.4420 -0.0140
    2MPD2     H   26   3.934   3.325  11.787 -0.7443 -0.4355 -0.1270
    2MPD2    H1   27   4.299   3.331  12.002 -0.8978 -0.0116 -1.7494
    2MPD2    H2   28   3.976   3.136  12.174  0.1649 -0.1306 -0.0744
    2MPD2    H3   29   4.199   3.208  12.175  0.8504  0.9501 -0.0153
    2MPD2     N   30   4.186   3.419  11.788  0.1581  0.7410 -0.3149
    2MPD2    H5   31   4.280   3.452  11.806  0.7079 -0.8094 -0.4113
    2MPD2    N1   32   3.794   3.222  11.974  0.8929 -0.2734  0.0431
    2MPD2    H7   33   3.755   3.267  11.892  2.3856  2.7850  1.0404
    3TMC1    C1   34   3.936   1.516   9.935  0.3065  0.3999  0.1360
    3TMC1    C2   35   3.864   1.627   9.913  0.1187  0.2620 -0.1239
    3TMC1    C3   36   3.909   1.716   9.816 -0.4708 -0.2383  0.8866
    3TMC1    C4   37   4.046   1.482   9.860  0.3406  1.1153  0.4443
    3TMC1    C5   38   4.091   1.578   9.776 -0.4968  0.0843  0.1196
    3TMC1    C6   39   4.023   1.692   9.746 -0.7225  0.5193  0.1129
    3TMC1     C   40   3.879   1.418  10.024  0.6200  0.2351 -0.1854
    3TMC1     O   41   3.956   1.339  10.077  0.0091 -0.2604 -0.0904
    3TMC1     H   42   3.796   1.669   9.986  0.8093  1.0752  0.0501
    3TMC1    H1   43   4.110   1.396   9.877  0.7459  1.2905 -0.2290
    3TMC1    H2   44   4.069   1.776   9.696  2.7143 -0.4219  1.7286
    3TMC1    C7   45   4.147   1.520   9.659  0.5450  0.3305 -0.7880
    3TMC1    C8   46   3.876   1.851   9.826  0.4992  0.3366 -0.0985
    3TMC1    O1   47   4.107   1.549   9.551 -0.2768  0.5512 -0.4609
    3TMC1    O2   48   3.939   1.923   9.899  1.0957  0.1998  0.1912
    3TMC1    O3   49   4.277   1.511   9.697 -0.1625  0.3067  0.5647
    3TMC1    H3   50   4.297   1.507   9.792  1.2080  2.6849  0.3689
    3TMC1    O5   51   3.831   1.892   9.701 -0.6116 -0.1203 -0.5676
    3TMC1    H5   52   3.776   1.826   9.653 -1.5018 -0.4703  0.9237
    4MPD2     C   53   3.466   1.194  10.265  0.0443  0.0030 -0.4115
    4MPD2    C1   54   3.437   1.319  10.217 -0.1916 -0.2234 -0.2227
    4MPD2    C2   55   3.527   1.394  10.139 -0.7176  0.2894 -0.1007
    4MPD2    C3   56   3.660   1.353  10.119 -0.0037  0.5248  0.6034
    4MPD2    C4   57   3.689   1.230  10.180  0.4047 -1.0294  0.6377
    4MPD2    C5   58   3.592   1.150  10.250  0.5962  0.2649  0.7212
    4MPD2     H   59   3.489   1.482  10.089 -1.6945  0.6507  1.2966
    4MPD2    H1   60   3.790   1.189  10.175  0.3276 -1.1633  0.2015
    4MPD2    H2   61   3.400   1.126  10.316  0.0188  0.9121  0.7682
    4MPD2    H3   62   3.623   1.049  10.275 -0.4523 -0.3349 -0.3788
    4MPD2     N   63   3.745   1.436  10.044  0.1256 -0.5802  0.2750
    4MPD2    H5   64   3.703   1.508   9.986  1.5618 -0.0458 -0.1112
    4MPD2    N1   65   3.312   1.382  10.232 -0.6448  0.1748 -0.7741
    4MPD2    H7   66   3.290   1.442  10.153  1.3670  1.6573 -0.2284
    5TCq1    O1   67   2.141   2.202  10.364 -0.2620  0.1943  0.3146
    5TCq1    C1   68   2.206   2.198  10.246 -0.4815 -0.7419  0.1624
    5TCq1    O2   69   2.154   2.179  10.138 -0.3354  0.1665  0.2319
    5TCq1    C2   70   2.340   2.152  10.286 -0.8411  0.5104  0.9360
    5TCq1    C3   71   2.388   2.038  10.224  0.2456  0.5731 -0.6595
    5TCq1    C4   72   2.499   1.973  10.278  0.0732  0.0381 -0.3045
    5TCq1    C5   73   2.556   2.023  10.393 -0.4189  0.1630  0.1153
    5TCq1    C6   74   2.498   2.132  10.454 -0.5181 -0.2557  0.5101
    5TCq1    C7   75   2.386   2.200  10.403  0.1126  0.0126 -0.7281
    5TCq1    C8   76   2.558   2.176  10.580 -0.6284 -0.4857  0.0474
    5TCq1    O4   77   2.483   2.226  10.660 -0.4288  0.4290 -0.4036
    5TCq1    C9   78   2.552   1.849  10.214  0.4770 -0.0622 -0.0377
    5TCq1    O5   79   2.488   1.811  10.108 -0.2748 -0.3330  0.5018
    5TCq1    O6   80   2.628   1.776  10.289  0.0273  0.3601  0.0543
    5TCq1    H1   81   2.182   2.171  10.447  1.8652 -1.1337 -1.2333
    5TCq1    H2   82   2.343   2.003  10.132  0.4977  0.1783 -0.6289
    5TCq1    H3   83   2.637   1.963  10.433  0.6061  0.4262 -1.5164
    5TCq1    H4   84   2.346   2.288  10.452  1.1374  1.4760 -2.4875
    6MPD2     C   85   2.670   2.129  10.841 -0.3805  0.6163 -0.1788
    6MPD2    C1   86   2.746   2.123  10.726 -0.2001 -0.1098 -0.9053
    6MPD2    C2   87   2.883   2.092  10.734 -0.7016 -1.0206 -0.8356
    6MPD2    C3   88   2.944   2.072  10.858  0.1206  0.1041  0.2062
    6MPD2    C4   89   2.873   2.073  10.972 -0.1028  0.5882 -0.0438
    6MPD2    C5   90   2.737   2.101  10.962 -0.7596  0.3738 -0.1723
    6MPD2     H   91   2.940   2.095  10.642  0.1177 -0.9956 -0.3284
    6MPD2    H1   92   2.912   2.027  11.062  1.2051  2.0989  0.1795
    6MPD2    H2   93   2.563   2.142  10.844 -0.4336  0.3954 -1.2926
    6MPD2    H3   94   2.671   2.090  11.048 -0.4365  0.2111  0.0540
    6MPD2     N   95   3.091   2.057  10.860 -0.3304  0.2945 -0.2917
    6MPD2    H5   96   3.141   2.058  10.772  0.8712  1.6857  0.3951
    6MPD2    N1   97   2.686   2.135  10.600  0.5183 -0.1329  0.3696
    6MPD2    H7   98   2.742   2.103  10.522 -1.3279  2.3670 -2.0106
    7TCq1    O1   99   1.095   1.595  13.253  0.0828  0.6363 -0.0947
    7TCq1    C1  100   0.978   1.604  13.314 -0.2478 -1.0708 -0.9050
    7TCq1    O2  101   0.923   1.705  13.364  0.2557 -0.5313  0.3327
    7TCq1    C2  102   0.902   1.491  13.257 -0.5008 -0.0815 -0.8378
    7TCq1    C3  103   0.777   1.513  13.212  0.0408  0.3474 -0.9600
    7TCq1    C4  104   0.705   1.407  13.166 -0.9272 -0.4066 -0.8630
    7TCq1    C5  105   0.756   1.284  13.162  0.0869  0.5349  0.0218
    7TCq1    C6  106   0.885   1.263  13.214 -0.4449  0.8025 -0.2178
    7TCq1    C7  107   0.961   1.365  13.262 -0.6149  0.5572 -0.1710
    7TCq1    C8  108   0.952   1.136  13.203  0.4596 -0.7966  0.1013
    7TCq1    O4  109   0.875   1.047  13.173 -0.3714  0.1628 -0.4453
    7TCq1    C9  110   0.564   1.431  13.126  0.5645  0.8329  0.8772
    7TCq1    O5  111   0.533   1.551  13.102 -0.2256  0.1183 -0.1140
    7TCq1    O6  112   0.493   1.328  13.109  0.4464 -0.5595 -0.6049
    7TCq1    H1  113   1.112   1.510  13.206  1.0953  1.6971 -1.6334
    7TCq1    H2  114   0.733   1.612  13.219  2.6372  1.2393  2.4461
    7TCq1    H3  115   0.695   1.211  13.110  0.6122 -0.7830  1.2618
    7TCq1    H4  116   1.050   1.355  13.323  1.0195  0.3765 -2.5653
    8MPD2     C  117   1.389   0.854  13.246  0.2789  0.0004 -0.1643
    8MPD2    C1  118   1.260   0.810  13.234 -0.1059  0.5154 -0.2043
    8MPD2    C2  119   1.158   0.906  13.232  0.3643  0.5028 -0.4667
    8MPD2    C3  120   1.183   1.042  13.221 -0.0181 -0.0907 -0.4651
    8MPD2    C4  121   1.314   1.086  13.219 -0.5584  0.1075 -0.7765
    8MPD2    C5  122   1.410   0.988  13.240  0.2049  0.2971  0.4089
    8MPD2     H  123   1.055   0.872  13.225  0.7529 -0.2555 -2.7345
    8MPD2    H1  124   1.332   1.192  13.202 -1.4046  0.4487  0.4474
    8MPD2    H2  125   1.469   0.783  13.259  0.5937  0.7023  1.7684
    8MPD2    H3  126   1.513   1.021  13.244 -0.2717  2.0119 -1.1410
    8MPD2     N  127   1.088   1.143  13.219  0.0647 -0.0142 -0.2893
    8MPD2    H5  128   1.118   1.239  13.205  0.5044 -0.3283 -1.5024
    8MPD2    N1  129   1.241   0.671  13.248  0.2395 -0.1867  0.1135
    8MPD2    H7  130   1.326   0.615  13.238 -0.4177 -0.6237 -2.8026
    9TMC1    C1  131   3.991   4.378  10.659  0.5860 -0.1937  0.4698
    9TMC1    C2  132   4.100   4.374  10.743  0.5091  0.7090 -0.0370
    9TMC1    C3  133   4.197   4.467  10.719 -0.4345  0.1518  0.0360
    9TMC1    C4  134   3.981   4.464  10.555  0.1765 -0.0521 -0.1586
    9TMC1    C5  135   4.091   4.548  10.538  0.7565 -0.2808  0.0738
    9TMC1    C6  136   4.194   4.559  10.621  0.4977  0.5563  0.2270
    9TMC1     C  137   3.871   4.293  10.686  0.0911 -0.2988 -0.0762
    9TMC1     O  138   3.807   4.264  10.587 -0.6622  0.2583 -0.0330
    9TMC1     H  139   4.122   4.315  10.831 -1.6149  1.5920  1.0846
    9TMC1    H1  140   3.890   4.452  10.498  0.0122 -0.5014  0.1916
    9TMC1    H2  141   4.278   4.626  10.606  0.8167  0.1427  0.1592
    9TMC1    C7  142   4.075   4.669  10.462 -0.3247  0.1211  0.6095
    9TMC1    C8  143   4.313   4.459  10.800  0.1958 -1.0019 -0.8246
    9TMC1    O1  144   4.123   0.041  10.496 -0.6506 -0.3779 -0.7372
    9TMC1    O2  145   4.427   4.486  10.769  0.0663 -0.7213  0.0739
    9TMC1    O3  146   3.994   4.650  10.361 -0.4353 -0.2965  0.5151
    9TMC1    H3  147   3.962   4.558  10.348  2.1666 -1.0858 -0.3031
    9TMC1    O5  148   4.272   4.453  10.925  0.3242 -0.5463 -0.1852
    9TMC1    H5  149   4.174   4.443  10.933 -0.0588  2.0604 -1.7029
   10MPD2     C  150   3.670   4.113  10.815  0.5455  0.1387  0.2939
   10MPD2    C1  151   3.768   4.183  10.888 -0.8658 -0.3316 -0.0517
   10MPD2    C2  152   3.786   4.171  11.025 -0.0116 -0.5499 -0.6848
   10MPD2    C3  153   3.688   4.098  11.096  0.5586 -0.3434  0.2901
   10MPD2    C4  154   3.594   4.028  11.020 -0.0590  0.1629  0.1383
   10MPD2    C5  155   3.591   4.033  10.884  0.4412 -0.6459  0.1683
   10MPD2     H  156   3.865   4.224  11.077 -2.0060  0.0734  1.6985
   10MPD2    H1  157   3.511   3.973  11.063  0.3466 -0.3556  0.2593
   10MPD2    H2  158   3.649   4.127  10.709  1.0337  2.6802  0.5457
   10MPD2    H3  159   3.520   3.973  10.827 -2.2980  0.8833  1.9904
   10MPD2     N  160   3.683   4.089  11.239  0.7432  0.7038 -0.7291
   10MPD2    H5  161   3.602   4.040  11.276  0.5856  1.3998 -0.1488
   10MPD2    N1  162   3.864   4.262  10.819 -0.0851  0.2423 -0.3858
   10MPD2    H7  163   3.928   4.316  10.876 -1.5552  1.5666  0.0078
   11TCq1    O1  164   4.338   4.638  14.132 -0.1381  0.0161 -0.5948
   11TCq1    C1  165   4.301   4.655  14.264  0.0758  0.8387 -0.1547
   11TCq1    O2  166   4.367   4.711  14.350 -0.0543 -0.6248  0.2753
   11TCq1    C2  167   4.152   4.670  14.262  0.1688 -0.1433 -0.4557
   11TCq1    C3  168   4.100   0.034  14.340  0.7582  0.2978  0.2797
   11TCq1    C4  169   3.975   0.042  14.370 -0.3925  0.5365 -0.7823
   11TCq1    C5  170   3.891   4.683  14.325 -0.2042  0.2326 -0.4261
   11TCq1    C6  171   3.937   4.590  14.232  0.2070 -0.5983  0.1373
   11TCq1    C7  172   4.072   4.572  14.209  0.1717 -0.1709 -0.9042
   11TCq1    C8  173   3.842   4.541  14.139 -0.5525  1.0403 -0.2547
   11TCq1    O4  174   3.726   4.543  14.175  0.0204  0.1322  0.5932
   11TCq1    C9  175   3.917   0.157  14.444  0.0649  0.2095 -0.6040
   11TCq1    O5  176   3.994   0.257  14.452  0.1528 -0.4830  0.4773
   11TCq1    O6  177   3.806   0.148  14.497  0.0955 -0.3846  0.3603
   11TCq1    H1  178   4.262   4.633  14.070 -1.2489 -0.2236  0.7817
   11TCq1    H2  179   4.166   0.111  14.379  3.4743 -1.5228 -0.7068
   11TCq1    H3  180   3.786   4.711  14.332 -0.0877  0.8903 -1.3099
   11TCq1    H4  181   4.112   4.495  14.144  3.2020 -1.5074  2.5414
   12MPD2     C  182   3.707   4.427  13.906  1.0343  0.1765  1.0698
   12MPD2    C1  183   3.838   4.461  13.905  0.0269  0.1315 -0.0517
   12MPD2    C2  184   3.909   4.452  13.787  0.1619  0.0856  0.1193
   12MPD2    C3  185   3.850   4.400  13.669 -0.0029 -0.9620  0.4715
   12MPD2    C4  186   3.715   4.381  13.672  0.2051  0.8117 -0.3213
   12MPD2    C5  187   3.643   4.390  13.790 -0.3404 -0.1998 -0.4808
   12MPD2     H  188   4.015   4.471  13.775 -0.4678  0.9338 -4.3680
   12MPD2    H1  189   3.660   4.355  13.582  0.0277  0.9921 -0.2664
   12MPD2    H2  190   3.639   4.444  13.988 -1.4251 -1.6806 -0.5841
   12MPD2    H3  191   3.537   4.369  13.781 -0.2636 -0.0727 -1.6507
   12MPD2     N  192   3.924   4.357  13.552 -0.2082  0.1175 -0.0538
   12MPD2    H5  193   3.872   4.297  13.489 -0.6078 -1.7085  1.9947
   12MPD2    N1  194   3.904   4.505  14.018  0.5729 -0.6731 -0.1410
   12MPD2    H7  195   4.004   4.516  14.006 -0.0140  2.6679 -2.1112
   13TCq1    O1  196   3.728   0.684  10.489  0.0645 -0.0746  0.2903
   13TCq1    C1  197   3.795   0.619  10.391 -0.0802 -0.3503  0.4161
   13TCq1    O2  198   3.821   0.673  10.283  0.1113 -0.5745 -0.2876
   13TCq1    C2  199   3.761   0.477  10.412  0.4163  0.2338 -0.0131
   13TCq1    C3  200   3.729   0.386  10.315  0.7563  0.1641 -0.6629
   13TCq1    C4  201   3.692   0.257  10.348  0.0508 -0.3230 -0.6431
   13TCq1    C5  202   3.681   0.218  10.474 -0.7371 -0.5251  0.2946
   13TCq1    C6  203   3.711   0.308  10.574  0.5269  0.5441 -0.8850
   13TCq1    C7  204   3.756   0.431  10.539 -0.0600 -0.3618  0.8957
   13TCq1    C8  205   3.691   0.275  10.715  0.6472 -0.0248  0.0370
   13TCq1    O4  206   3.703   0.359  10.804  0.0327  0.0939  0.7291
   13TCq1    C9  207   3.649   0.160  10.247 -0.6837  0.4483  0.4169
   13TCq1    O5  208   3.612   0.199  10.130 -0.2468  0.3578  0.5318
   13TCq1    O6  209   3.630   0.044  10.289  0.4311 -0.3269 -0.0208
   13TCq1    H1  210   3.697   0.641  10.571  0.5357 -2.3682 -0.7469
   13TCq1    H2  211   3.739   0.415  10.210 -1.1302 -0.0691 -0.9079
   13TCq1    H3  212   3.621   0.131  10.499 -0.6285 -0.4440  0.8407
   13TCq1    H4  213   3.809   0.486  10.616  0.2075  0.6506 -0.0246
   14MPD2     C  214   3.677   4.678  10.859  0.4534 -0.6420 -0.8226
   14MPD2    C1  215   3.644   0.075  10.851 -0.0231  0.1168  0.1981
   14MPD2    C2  216   3.592   0.133  10.964  0.0172  0.5961 -0.6589
   14MPD2    C3  217   3.565   0.068  11.078  0.6967 -0.4729 -0.1240
   14MPD2    C4  218   3.588   4.671  11.077  0.0632 -0.2841  0.0797
   14MPD2    C5  219   3.645   4.614  10.969  0.8882 -0.0093  0.3763
   14MPD2     H  220   3.566   0.238  10.970  0.9254  0.7884 -0.0864
   14MPD2    H1  221   3.550   4.608  11.156 -1.6160 -0.3724 -0.8051
   14MPD2    H2  222   3.712   4.628  10.770  0.6874  0.7674 -1.5244
   14MPD2    H3  223   3.679   4.510  10.968  1.6124  0.2116  1.7554
   14MPD2     N  224   3.486   0.133  11.175 -0.3618 -0.1701 -0.0104
   14MPD2    H5  225   3.465   0.231  11.158  0.4284  0.4426  2.6364
   14MPD2    N1  226   3.671   0.142  10.735 -0.0194  0.1884  0.0494
   14MPD2    H7  227   3.712   0.082  10.664  0.2955 -0.4634  0.7675
   15TCq1    O1  228   0.691   4.219   1.429 -0.0404 -0.3275 -0.0681
   15TCq1    C1  229   0.780   4.282   1.350 -0.6814  0.0902 -0.3793
   15TCq1    O2  230   0.751   4.317   1.237  0.2793 -0.0963 -0.2861
   15TCq1    C2  231   0.909   4.217   1.377  0.6647 -0.1532  0.8297
   15TCq1    C3  232   0.999   4.270   1.469  0.3162  0.4229 -0.3432
   15TCq1    C4  233   1.122   4.206   1.490  0.4072  0.3013  0.2302
   15TCq1    C5  234   1.144   4.088   1.424 -0.1144 -0.5376 -0.1998
   15TCq1    C6  235   1.049   4.031   1.341  0.2032 -0.2606  0.1672
   15TCq1    C7  236   0.935   4.095   1.316  0.5260 -0.2718  0.3622
   15TCq1    C8  237   1.091   3.917   1.258  0.3396 -0.4367 -0.5226
   15TCq1    O4  238   1.161   3.832   1.315  0.3058  0.1969  0.5269
   15TCq1    C9  239   1.230   4.281   1.557 -0.1018  0.7564 -0.2494
   15TCq1    O5  240   1.199   4.386   1.615  0.2893 -0.3078  0.8602
   15TCq1    O6  241   1.340   4.219   1.564  0.3116 -0.2625  0.0736
   15TCq1    H1  242   0.731   4.193   1.515  1.8692  1.7381 -0.3233
   15TCq1    H2  243   0.978   4.364   1.519 -2.2966 -1.1413  1.5330
   15TCq1    H3  244   1.233   4.030   1.447  0.8072 -0.1429 -2.7336
   15TCq1    H4  245   0.864   4.040   1.255  1.1979 -1.9586  1.0971
   16MPD2     C  246   1.014   3.867   0.906 -0.2564  0.2191 -0.1807
   16MPD2    C1  247   1.063   3.838   1.029 -0.0373 -0.4439 -0.5110
   16MPD2    C2  248   1.134   3.721   1.038  0.4742 -0.2449  0.6976
   16MPD2    C3  249   1.139   3.631   0.931  0.5740 -0.7471  0.6197
   16MPD2    C4  250   1.082   3.660   0.811  0.0273 -0.3749 -0.2243
   16MPD2    C5  251   1.023   3.781   0.801  0.3283 -0.8704  0.0101
   16MPD2     H  252   1.183   3.698   1.132  1.6158 -2.8981 -0.5470
   16MPD2    H1  253   1.084   3.598   0.721 -0.7694  0.1650 -0.6143
   16MPD2    H2  254   0.981   3.969   0.891 -1.4058  0.1490  1.9293
   16MPD2    H3  255   0.973   3.805   0.707 -1.1430  0.0655  1.0205
   16MPD2     N  256   1.216   3.513   0.948  0.1300  0.1738  0.0401
   16MPD2    H5  257   1.270   3.508   1.033 -0.4932  0.6434  0.4672
   16MPD2    N1  258   1.039   3.925   1.135 -0.2334 -0.1785  0.5116
   16MPD2    H7  259   0.987   4.009   1.112  0.1095 -0.3766 -1.0289
   17TMC1    C1  260   3.411   3.202   9.884  0.6452  0.1709 -0.1339
   17TMC1    C2  261   3.353   3.215  10.008  0.3914 -0.6814 -0.4269
   17TMC1    C3  262   3.265   3.120  10.049 -0.0322  0.0315 -0.6746
   17TMC1    C4  263   3.378   3.096   9.802 -0.0639 -0.3916 -0.1514
   17TMC1    C5  264   3.301   3.000   9.852 -0.1575  0.0005 -0.0393
   17TMC1    C6  265   3.237   3.009   9.972  0.1356  0.2542  0.6619
   17TMC1     C  266   3.487   3.308   9.827 -0.1017  0.1567  1.1902
   17TMC1     O  267   3.496   3.294   9.704 -0.8492  0.3009 -0.0644
   17TMC1     H  268   3.360   3.310  10.060  0.4183 -0.5167 -0.7284
   17TMC1    H1  269   3.443   3.073   9.718  1.7462 -0.7590  1.3735
   17TMC1    H2  270   3.198   2.917  10.017  2.6653 -0.9587  0.3640
   17TMC1    C7  271   3.273   2.881   9.775  0.3375 -0.8089  0.3172
   17TMC1    C8  272   3.219   3.132  10.188 -0.0120  0.1395 -0.1802
   17TMC1    O1  273   3.297   2.766   9.815  0.0394  0.8144  0.2042
   17TMC1    O2  274   3.282   3.175  10.282  0.1712  0.1381  0.2485
   17TMC1    O3  275   3.274   2.916   9.643 -0.2976  0.1411 -0.2939
   17TMC1    H3  276   3.230   3.002   9.631  0.4154  0.5975  0.3701
   17TMC1    O5  277   3.102   3.071  10.189 -0.2577 -0.3436 -0.1467
   17TMC1    H5  278   3.058   3.052  10.103 -2.4462 -0.6466  1.0267
   18MPD2     C  279   3.657   3.538   9.752  0.3543 -0.3512  0.2011
   18MPD2    C1  280   3.623   3.506   9.882  0.1467 -0.2613 -0.6525
   18MPD2    C2  281   3.682   3.575   9.987 -0.2267  0.2076  0.2505
   18MPD2    C3  282   3.756   3.690   9.965  0.3830  0.1182 -0.2620
   18MPD2    C4  283   3.789   3.715   9.837 -0.0023  0.1600  0.0349
   18MPD2    C5  284   3.735   3.647   9.735  1.1264 -0.2486 -0.0385
   18MPD2     H  285   3.649   3.552  10.088  0.2498  0.0929  0.3797
   18MPD2    H1  286   3.859   3.794   9.812 -0.9805  0.2362 -2.4482
   18MPD2    H2  287   3.616   3.484   9.668 -0.5364  1.5772 -0.6039
   18MPD2    H3  288   3.768   3.673   9.635  0.4437 -1.7413 -0.6650
   18MPD2     N  289   3.822   3.758  10.060 -0.2239  0.2536 -0.6703
   18MPD2    H5  290   3.876   3.838  10.028  0.0787 -1.4256 -4.3545
   18MPD2    N1  291   3.539   3.395   9.916  0.3867 -0.5137  0.2057
   18MPD2    H7  292   3.508   3.379  10.011 -2.8936 -0.3330 -0.8060
   19TMC2    C1  293   0.395   0.127  14.409  0.5816 -1.5460 -0.0625
   19TMC2    C2  294   0.342   0.253  14.390 -0.5097  0.1991  0.3450
   19TMC2    C3  295   0.231   0.254  14.311  0.4876  0.5450  0.1775
   19TMC2    C4  296   0.352   0.018  14.346  0.6906 -0.3924 -0.2921
   19TMC2    C5  297   0.245   0.027  14.257  0.3857 -0.1940  0.7900
   19TMC2    C6  298   0.179   0.147  14.239  0.9076 -0.1847 -0.1158
   19TMC2     C  299   0.530   0.127  14.469 -0.2510 -0.4633  0.4365
   19TMC2     O  300   0.594   0.231  14.466  0.2818  0.1555  0.1088
   19TMC2     H  301   0.380   0.336  14.447  1.5771  0.4784 -1.4510
   19TMC2    H1  302   0.400   4.658  14.353 -2.0039 -1.8904 -2.7732
   19TMC2    H2  303   0.107   0.162  14.160  0.6246  1.8323  0.5218
   19TMC2    C7  304   0.238   4.652  14.162 -0.3104 -0.9860 -1.1677
   19TMC2    C8  305   0.167   0.383  14.276 -0.1525 -0.1903 -0.4564
   19TMC2    O1  306   0.325   4.573  14.179  0.6662  0.1797 -0.2511
   19TMC2    O2  307   0.053   0.381  14.229  0.2334 -0.3693 -0.8382
   19TMC2    O5  308   0.247   0.486  14.298  0.0319  0.3202  0.4618
   19TMC2    H5  309   0.339   0.458  14.317 -0.3811 -1.3941 -0.0673
   20MPD2     C  310   0.826   0.019  14.456 -0.5239 -0.1560 -0.4177
   20MPD2    C1  311   0.718   4.696  14.519 -0.3273  0.2750  0.0761
   20MPD2    C2  312   0.748   4.588  14.597 -0.1475 -0.2093 -0.2281
   20MPD2    C3  313   0.876   4.546  14.622  0.1895  0.5175  0.4258
   20MPD2    C4  314   0.979   4.592  14.547  0.8431 -0.4417  1.0686
   20MPD2    C5  315   0.950   4.698  14.465 -0.1352  0.0625  0.0147
   20MPD2     H  316   0.668   4.530  14.641  2.1974 -2.4165  1.1528
   20MPD2    H1  317   1.073   4.539  14.542 -0.7592 -2.9967 -1.6102
   20MPD2    H2  318   0.811   0.089  14.375  2.2365  0.2938 -0.5632
   20MPD2    H3  319   1.020   4.729  14.388 -0.1831  0.3708  0.0946
   20MPD2     N  320   0.907   4.443  14.710  0.0064  0.6234 -0.6827
   20MPD2    H5  321   1.004   4.416  14.719 -0.1755  0.2881  0.2907
   20MPD2    N1  322   0.576   0.001  14.510 -0.1285  0.3685 -0.0368
   20MPD2    H7  323   0.508   4.669  14.541 -1.9278  1.7706 -0.9094
   21TMC2    C1  324   2.938   4.235  14.666  0.2244  0.7875 -0.1386
   21TMC2    C2  325   2.935   4.117  14.728  0.6725  0.2569 -0.2730
   21TMC2    C3  326   2.896   4.112  14.857  0.3189 -0.1028  1.1732
   21TMC2    C4  327   2.874   4.347  14.708 -0.1866  0.4301 -0.6092
   21TMC2    C5  328   2.827   4.336  14.837  0.3753 -1.1548  0.1760
   21TMC2    C6  329   2.831   4.218  14.913  0.4902 -0.3169  0.3735
   21TMC2     C  330   2.984   4.238  14.532  0.4096 -0.6032  0.5307
   21TMC2     O  331   3.058   4.147  14.499 -0.0405  0.0772  0.0263
   21TMC2     H  332   2.990   4.035  14.684  1.7987  0.2569  1.1526
   21TMC2    H1  333   2.884   4.446  14.664 -0.0562  0.1221 -1.2755
   21TMC2    H2  334   2.766   4.210  14.999  1.0999  0.6771  0.9120
   21TMC2    C7  335   2.753   4.444  14.893 -0.3562 -0.1122  0.0499
   21TMC2    C8  336   2.935   3.990  14.933 -0.0311 -0.5507 -0.7817
   21TMC2    O1  337   2.748   4.463  15.013 -0.0439  0.1021 -0.2835
   21TMC2    O2  338   2.989   3.896  14.877 -0.1728 -0.2940  0.1520
   21TMC2    O5  339   2.959   4.037  15.063 -0.0434 -0.1433 -0.2854
   21TMC2    H5  340   2.941   4.133  15.074 -0.2993 -0.3630  1.2030
   22MPD2     C  341   2.970   4.323  14.040 -0.3614 -0.2834 -0.6361
   22MPD2    C1  342   3.076   4.290  14.128  0.0026 -0.0397 -0.0249
   22MPD2    C2  343   3.048   4.298  14.260  0.0601 -0.3654 -0.3405
   22MPD2    C3  344   2.929   4.333  14.316 -0.9502 -0.2328  0.1837
   22MPD2    C4  345   2.827   4.370  14.231  0.0662  0.4628 -0.0192
   22MPD2    C5  346   2.850   4.365  14.100 -0.4383  0.0036 -0.8824
   22MPD2     H  347   3.135   4.269  14.319  0.9450 -2.4237 -2.6612
   22MPD2    H1  348   2.730   4.404  14.265  0.4224  1.9232 -0.5080
   22MPD2    H2  349   2.983   4.318  13.933  3.0575  0.5604 -0.2630
   22MPD2    H3  350   2.767   4.382  14.033 -0.1310 -0.8158 -1.4717
   22MPD2     N  351   2.903   4.317  14.449 -0.0596  0.1273  0.1379
   22MPD2    H5  352   2.819   4.361  14.487 -0.1204  2.1722 -2.3945
   22MPD2    N1  353   3.210   4.256  14.099 -1.1802  0.3554  0.5186
   22MPD2    H7  354   3.262   4.235  14.183 -1.4944  0.2092  0.6786
   23TMC2    C1  355   3.910   0.596  14.748  0.6650 -0.4112 -0.1209
   23TMC2    C2  356   3.962   0.617  14.622 -0.4382  0.0219  0.1069
   23TMC2    C3  357   3.909   0.540  14.523  0.8277  0.1493 -0.6671
   23TMC2    C4  358   3.803   0.516  14.779 -0.0376  0.3546  0.3406
   23TMC2    C5  359   3.742   0.460  14.670 -0.4018  0.0390 -0.1239
   23TMC2    C6  360   3.798   0.461  14.546 -0.2065  0.6392 -0.2735
   23TMC2     C  361   3.985   0.632  14.864  0.2129  0.9211  0.8489
   23TMC2     O  362   3.939   0.589  14.971 -0.2934 -0.1297  0.0630
   23TMC2     H  363   4.046   0.679  14.595 -1.7675  1.2011 -1.3109
   23TMC2    H1  364   3.759   0.505  14.878 -0.9542 -0.4643 -0.1663
   23TMC2    H2  365   3.752   0.421  14.456  2.2296 -0.6235 -0.9372
   23TMC2    C7  366   3.609   0.409  14.678  0.0107 -0.2819  0.4490
   23TMC2    C8  367   3.928   0.585  14.390 -0.6311  0.1167 -0.9461
   23TMC2    O1  368   3.519   0.473  14.738 -0.4089 -0.0045  0.5172
   23TMC2    O2  369   3.993   0.689  14.366  0.2709  0.1567 -0.0784
   23TMC2    O5  370   3.973   0.474  14.337 -0.3553 -0.3464  0.1618
   23TMC2    H5  371   3.946   0.397  14.392 -2.1621  0.8716  0.9613
   24MPD2     C  372   4.328   0.905  15.118 -0.1971 -0.2069  0.0767
   24MPD2    C1  373   4.250   0.799  15.156  0.1679 -0.1061  0.4554
   24MPD2    C2  374   4.168   0.737  15.067 -0.7626  0.1898  0.2530
   24MPD2    C3  375   4.159   0.788  14.936 -0.3789  0.0681 -0.3405
   24MPD2    C4  376   4.234   0.897  14.896  0.1251  0.1177  0.1778
   24MPD2    C5  377   4.322   0.948  14.992  0.5805  0.0121  0.0430
   24MPD2     H  378   4.107   0.658  15.108  1.4393 -0.3236  2.5540
   24MPD2    H1  379   4.243   0.932  14.794  0.4376  0.0899  0.1964
   24MPD2    H2  380   4.401   0.955  15.181 -0.8686  1.4457 -0.4749
   24MPD2    H3  381   4.387   1.029  14.960 -0.9956  1.2661  0.0392
   24MPD2     N  382   4.078   0.731  14.837  0.3850  0.3002 -0.5626
   24MPD2    H5  383   4.087   0.750  14.737  2.1545 -0.1718 -0.4939
   24MPD2    N1  384   4.258   0.751  15.292 -0.2565 -0.7593  0.4458
   24MPD2    H7  385   4.221   0.658  15.310 -0.2122 -0.9363 -0.3850
   25TMC2    C1  386   3.591   2.864  11.861  0.9977 -0.2739  1.3315
   25TMC2    C2  387   3.698   2.849  11.942  0.4062 -0.7460 -0.3301
   25TMC2    C3  388   3.677   2.788  12.062  0.2045 -0.5820  0.0387
   25TMC2    C4  389   3.460   2.850  11.909 -0.7042 -0.4580 -0.9306
   25TMC2    C5  390   3.443   2.803  12.032 -0.1147 -0.5808 -0.8531
   25TMC2    C6  391   3.548   2.768  12.112  0.6653  0.3599 -0.1984
   25TMC2     C  392   3.606   2.948  11.746 -0.8027 -0.3597 -0.4568
   25TMC2     O  393   3.706   3.022  11.743 -0.3537 -0.4522 -0.1325
   25TMC2     H  394   3.800   2.847  11.905  1.4194  2.1258  2.3800
   25TMC2    H1  395   3.372   2.875  11.850 -1.6216 -1.3469  0.0522
   25TMC2    H2  396   3.534   2.697  12.193  0.9689  1.5504  0.8977
   25TMC2    C7  397   3.333   2.857  12.116  0.4633 -0.4731  0.5886
   25TMC2    C8  398   3.781   2.752  12.152 -1.0321 -0.0236  0.4124
   25TMC2    O1  399   3.351   2.863  12.239 -0.2765 -0.7241 -0.6189
   25TMC2    O2  400   3.748   2.674  12.241 -0.3493 -0.7308  0.3962
   25TMC2    O5  401   3.905   2.795  12.125  0.4168 -0.1034  0.0338
   25TMC2    H5  402   3.899   2.870  12.061 -2.5918 -1.8036 -1.7046
   26MPD2     C  403   3.420   3.129  11.303  0.2190  0.8721  0.2014
   26MPD2    C1  404   3.339   3.028  11.349 -0.6986  0.5292 -0.6243
   26MPD2    C2  405   3.368   2.969  11.470 -0.4823 -0.7946 -0.7276
   26MPD2    C3  406   3.473   3.014  11.542 -0.2924 -0.5832  0.9489
   26MPD2    C4  407   3.556   3.108  11.492 -0.2389  0.2271 -0.6049
   26MPD2    C5  408   3.531   3.168  11.371 -0.3330  0.9149 -0.1354
   26MPD2     H  409   3.321   2.879  11.507 -0.0955 -0.7824 -0.1955
   26MPD2    H1  410   3.648   3.137  11.540 -1.1695  0.4337  1.0457
   26MPD2    H2  411   3.401   3.181  11.210  2.1692  1.6499  0.2428
   26MPD2    H3  412   3.593   3.247  11.329  0.0289  2.6307  3.5862
   26MPD2     N  413   3.498   2.940  11.664 -0.3501 -0.0141 -0.0923
   26MPD2    H5  414   3.433   2.866  11.689 -1.0481 -0.1771 -2.4135
   26MPD2    N1  415   3.230   2.986  11.264  0.4625  0.5477  0.7761
   26MPD2    H7  416   3.220   3.044  11.181  0.7702 -0.0564  0.3191
   27TMC2    C1  417   2.033   0.840  11.821 -0.1880 -0.2775  0.5505
   27TMC2    C2  418   2.034   0.827  11.689  0.1930 -1.4536  0.4117
   27TMC2    C3  419   2.000   0.936  11.607 -0.7558  0.1948 -0.5584
   27TMC2    C4  420   1.983   0.958  11.874 -0.8836  0.2762 -0.3025
   27TMC2    C5  421   1.942   1.057  11.786 -0.2886  0.3577 -0.8559
   27TMC2    C6  422   1.968   1.052  11.655  0.2496  0.0341 -0.0921
   27TMC2     C  423   2.045   0.718  11.897  1.0072  0.1970  0.5653
   27TMC2     O  424   2.096   0.618  11.848 -0.3852  0.0199 -0.4902
   27TMC2     H  425   2.081   0.742  11.642  1.0442 -0.0178 -1.3234
   27TMC2    H1  426   1.982   0.977  11.981 -1.6484  1.7121 -0.5647
   27TMC2    H2  427   1.938   1.135  11.592  4.5812  1.2991 -0.4988
   27TMC2    C7  428   1.934   1.196  11.834 -0.6889 -0.2303  0.4695
   27TMC2    C8  429   2.026   0.933  11.469 -0.4218  0.0072  0.2394
   27TMC2    O1  430   1.945   1.292  11.758  0.3531  0.4564  0.1593
   27TMC2    O2  431   2.049   1.041  11.414  0.3436 -0.4937  0.0554
   27TMC2    O5  432   1.971   0.824  11.414 -0.6983 -0.0760  0.1263
   27TMC2    H5  433   1.957   0.752  11.479 -2.0948 -0.4916 -0.6372
   28MPD2     C  434   1.911   0.424  12.309  0.3082 -0.3785  0.6681
   28MPD2    C1  435   1.845   0.548  12.312 -0.0225  0.4386  0.3923
   28MPD2    C2  436   1.875   0.638  12.209 -0.0337 -0.6038 -0.0956
   28MPD2    C3  437   1.967   0.622  12.114  0.3540 -0.5576  0.0573
   28MPD2    C4  438   2.028   0.500  12.107 -0.8878 -0.3201 -0.3094
   28MPD2    C5  439   1.997   0.404  12.203 -0.3724  0.1461  0.4747
   28MPD2     H  440   1.829   0.735  12.194 -0.2562 -0.6867  0.0481
   28MPD2    H1  441   2.094   0.468  12.027  1.2030  0.2826  1.1762
   28MPD2    H2  442   1.899   0.352  12.390 -3.3741 -0.2303  0.2445
   28MPD2    H3  443   2.059   0.315  12.201  0.5236  0.8102 -0.9102
   28MPD2     N  444   1.975   0.727  12.017  0.3825 -0.2727  0.3792
   28MPD2    H5  445   1.919   0.809  12.036 -1.1219 -1.5598  1.4583
   28MPD2    N1  446   1.745   0.564  12.412  0.1584  0.6291 -0.0060
   28MPD2    H7  447   1.736   0.495  12.486  1.4687 -0.9404 -1.3319
   29TMC2    C1  448   1.749   2.967  14.374 -0.1847 -0.8164  0.1433
   29TMC2    C2  449   1.685   3.039  14.471 -0.6587 -0.6232  0.0122
   29TMC2    C3  450   1.748   3.153  14.514 -0.4035  0.4646  0.7420
   29TMC2    C4  451   1.867   3.013  14.328  1.3096 -0.8031  0.3289
   29TMC2    C5  452   1.931   3.118  14.387 -0.0814 -0.3694  0.6965
   29TMC2    C6  453   1.866   3.196  14.476  0.3757 -0.4012 -0.1900
   29TMC2     C  454   1.695   2.840  14.328  0.0769  0.6937 -0.5122
   29TMC2     O  455   1.762   2.759  14.267 -0.3257  0.0223  0.5251
   29TMC2     H  456   1.587   3.010  14.506 -1.6150  4.3297  1.4654
   29TMC2    H1  457   1.917   2.953  14.252  2.1568 -0.6568  0.7652
   29TMC2    H2  458   1.914   3.288  14.507 -0.2437 -0.9227  2.4002
   29TMC2    C7  459   2.059   3.151  14.326 -0.9229 -0.4729  0.4774
   29TMC2    C8  460   1.679   3.206  14.631 -0.1493 -0.7510  0.0748
   29TMC2    O1  461   2.081   3.096  14.218 -0.0807 -0.1141 -0.0291
   29TMC2    O2  462   1.598   3.138  14.692  0.2019  0.1331  0.3589
   29TMC2    O5  463   1.710   3.335  14.650 -0.4841  0.2841 -0.2626
   29TMC2    H5  464   1.760   3.382  14.580  0.0556  0.6928  0.3968
   30MPD2     C  465   1.307   2.545  14.194  0.7900 -0.3117 -0.2146
   30MPD2    C1  466   1.439   2.515  14.202  0.2694  0.3951 -0.5946
   30MPD2    C2  467   1.526   2.615  14.245 -0.3681  0.6267 -0.6743
   30MPD2    C3  468   1.477   2.731  14.304  0.3505  0.2250  0.0544
   30MPD2    C4  469   1.342   2.754  14.305  0.1780  0.4776  0.0716
   30MPD2    C5  470   1.263   2.666  14.241 -0.1249  0.7533 -0.0344
   30MPD2     H  471   1.632   2.594  14.248 -0.2398  1.3323 -0.3351
   30MPD2    H1  472   1.299   2.838  14.359 -0.0195 -0.0905  0.7920
   30MPD2    H2  473   1.230   2.494  14.138  2.1454 -1.2697 -1.2276
   30MPD2    H3  474   1.156   2.675  14.243 -0.2511 -1.0990  1.7465
   30MPD2     N  475   1.565   2.832  14.351 -0.8548 -0.1750 -0.3840
   30MPD2    H5  476   1.519   2.908  14.400  0.7933  0.9906 -0.6256
   30MPD2    N1  477   1.491   2.382  14.178 -0.8205  0.1120  0.3415
   30MPD2    H7  478   1.590   2.373  14.162 -0.6428 -0.9748  2.0647
   31TMC2    C1  479   3.974   1.214  15.264  0.2545 -0.0384  1.1414
   31TMC2    C2  480   3.848   1.175  15.235  0.2984  0.4559 -0.2751
   31TMC2    C3  481   3.778   1.096  15.320  0.5953  0.4729 -0.5158
   31TMC2    C4  482   4.039   1.158  15.376 -0.1017 -0.4447 -0.2783
   31TMC2    C5  483   3.967   1.077  15.454  0.7363 -0.0071  0.1835
   31TMC2    C6  484   3.835   1.048  15.433 -0.5510  0.0473 -0.1243
   31TMC2     C  485   4.035   1.317  15.176  0.3333  0.5950 -1.0349
   31TMC2     O  486   3.965   1.379  15.100 -0.2402 -0.3782  0.3163
   31TMC2     H  487   3.796   1.212  15.148  0.8403  3.7894  0.8131
   31TMC2    H1  488   4.131   1.204  15.409 -1.3895  2.8225 -1.2384
   31TMC2    H2  489   3.763   0.987  15.487 -0.6598 -0.7379 -1.1578
   31TMC2    C7  490   4.025   1.063  15.592  0.8397  0.1626  0.6938
   31TMC2    C8  491   3.637   1.070  15.295  0.2829 -0.6918  0.3803
   31TMC2    O1  492   4.148   1.085  15.603  0.1605  0.2359 -0.6444
   31TMC2    O2  493   3.579   0.968  15.317  0.5571 -0.3217 -0.3169
   31TMC2    O5  494   3.578   1.190  15.266  0.2348  0.6857 -0.1623
   31TMC2    H5  495   3.634   1.266  15.293 -3.7773  3.2879  0.9128
   32MPD2     C  496   4.425   1.583  14.994 -0.0664  0.5386 -0.2549
   32MPD2    C1  497   4.291   1.604  14.975  0.0951 -0.6594 -0.3144
   32MPD2    C2  498   4.206   1.519  15.039  0.8980 -0.1464 -0.7468
   32MPD2    C3  499   4.250   1.412  15.121  0.0466  1.6153  0.1618
   32MPD2    C4  500   4.386   1.404  15.145  0.3571  0.8327  0.4403
   32MPD2    C5  501   4.476   1.485  15.074  0.1762  0.7967  0.2773
   32MPD2     H  502   4.100   1.536  15.027  0.7936  0.0837  0.5536
   32MPD2    H1  503   4.431   1.337  15.217 -1.2263  0.5171  1.1310
   32MPD2    H2  504   4.497   1.652  14.950  1.6001 -3.2136 -3.4290
   32MPD2    H3  505   4.580   1.484  15.104  0.6613 -0.0791 -1.4307
   32MPD2     N  506   4.173   1.321  15.192 -0.3189  0.1845  0.1936
   32MPD2    H5  507   4.226   1.253  15.246  0.2268  2.1213  2.0782
   32MPD2    N1  508   4.258   1.699  14.881  0.7239  0.4176 -0.3419
   32MPD2    H7  509   4.339   1.744  14.840  0.2037  1.0944 -0.6218
   33TMC2    C1  510   4.085   4.685   9.795  1.0222  0.2573 -0.4260
   33TMC2    C2  511   4.019   4.653   9.677 -0.0642 -0.2127  0.2706
   33TMC2    C3  512   4.041   4.716   9.558  0.1078 -0.4235  0.1600
   33TMC2    C4  513   4.175   0.050   9.797 -0.5245 -0.1161 -0.3648
   33TMC2    C5  514   4.196   0.114   9.678 -0.2452 -0.2204 -0.2697
   33TMC2    C6  515   4.136   0.075   9.557  0.0778  0.3127  0.2474
   33TMC2     C  516   4.095   4.583   9.903  0.1980 -0.2225 -0.5304
   33TMC2     O  517   4.031   4.476   9.886 -0.0022 -0.3499 -0.0406
   33TMC2     H  518   3.934   4.586   9.684 -1.0500  1.3203  3.4036
   33TMC2    H1  519   4.217   0.105   9.880 -1.3488  0.4082 -0.3035
   33TMC2    H2  520   4.152   0.123   9.461 -0.5501 -1.1896 -0.6138
   33TMC2    C7  521   4.287   0.229   9.687  0.3332 -0.1717 -0.2947
   33TMC2    C8  522   3.975   4.688   9.435 -0.2934 -0.3089  0.9008
   33TMC2    O1  523   4.390   0.213   9.757  0.5878 -0.3688  0.2369
   33TMC2    O2  524   3.925   0.046   9.370 -0.6822  0.0751 -0.1239
   33TMC2    O5  525   3.955   4.553   9.426 -0.0328 -0.4073  0.3238
   33TMC2    H5  526   4.009   4.506   9.493  0.2602  0.6556  0.8351
   34MPD2     C  527   4.334   4.394  10.322 -0.5236 -0.2274 -0.7276
   34MPD2    C1  528   4.230   4.335  10.245 -0.0275 -0.8015  0.6399
   34MPD2    C2  529   4.181   4.411  10.142 -0.1995  0.1342  0.0040
   34MPD2    C3  530   4.221   4.546  10.119  0.5145 -0.7910 -0.4480
   34MPD2    C4  531   4.316   4.604  10.202  0.2965 -0.2757 -0.7365
   34MPD2    C5  532   4.367   4.523  10.303  0.0389  0.1984  0.3537
   34MPD2     H  533   4.109   4.362  10.077 -0.0354  1.4671 -1.1768
   34MPD2    H1  534   4.354   4.704  10.184 -1.0048  0.0766 -1.5137
   34MPD2    H2  535   4.382   4.338  10.402  2.4100  1.6725 -1.1622
   34MPD2    H3  536   4.435   4.572  10.373  0.1831  1.3710 -0.6091
   34MPD2     N  537   4.187   4.617  10.002  0.2194  0.0133  0.5139
   34MPD2    H5  538   4.233   4.708  10.005  0.8342 -0.2793 -0.0271
   34MPD2    N1  539   4.182   4.208  10.283  0.3802 -0.1541 -0.4333
   34MPD2    H7  540   4.225   4.165  10.364 -0.2911 -0.6893 -0.3580
   35TMC2    C1  541   1.038   0.627  11.248  0.0003 -0.0927 -0.0053
   35TMC2    C2  542   1.016   0.692  11.127  0.3853 -0.3473  0.1758
   35TMC2    C3  543   0.891   0.713  11.092  0.2959 -0.1423  0.2177
   35TMC2    C4  544   0.944   0.561  11.321  0.1128 -0.5369  0.1854
   35TMC2    C5  545   0.815   0.586  11.272 -0.2980  0.9052  0.5093
   35TMC2    C6  546   0.787   0.664  11.162 -0.4787  0.2471  0.1094
   35TMC2     C  547   1.175   0.608  11.287  0.0802  0.0253  0.4830
   35TMC2     O  548   1.255   0.598  11.198  0.1190  0.0280  0.2334
   35TMC2     H  549   1.103   0.729  11.075  0.2317 -0.9197 -0.4958
   35TMC2    H1  550   0.955   0.498  11.409 -0.9213 -1.7002 -0.5084
   35TMC2    H2  551   0.696   0.650  11.105 -0.1339  3.2036 -1.1291
   35TMC2    C7  552   0.707   0.509  11.327 -0.6866  0.4203 -0.8899
   35TMC2    C8  553   0.875   0.775  10.961 -0.2391 -0.3171 -0.6516
   35TMC2    O1  554   0.737   0.396  11.375  0.3384 -0.6446  0.0470
   35TMC2    O2  555   0.970   0.816  10.892  0.3420 -0.1563 -0.3261
   35TMC2    O5  556   0.744   0.801  10.943  0.3013 -0.3569 -0.0441
   35TMC2    H5  557   0.679   0.784  11.015  0.7431  2.1466  0.9556
   36MPD2     C  558   1.520   0.495  11.637  0.1565 -0.7832  0.8332
   36MPD2    C1  559   1.428   0.586  11.686  0.9071 -0.4242 -0.4146
   36MPD2    C2  560   1.316   0.611  11.616  0.0239  0.3182 -0.2528
   36MPD2    C3  561   1.309   0.571  11.483 -0.0749 -0.4317 -0.1919
   36MPD2    C4  562   1.409   0.497  11.425 -0.9376  0.6356  0.2556
   36MPD2    C5  563   1.509   0.457  11.507 -1.1038  0.4080 -0.0641
   36MPD2     H  564   1.237   0.677  11.650  0.4905 -0.1800  1.7620
   36MPD2    H1  565   1.409   0.467  11.321  1.7415  1.9019 -0.1188
   36MPD2    H2  566   1.602   0.456  11.697 -0.4290  1.8012  3.3281
   36MPD2    H3  567   1.580   0.384  11.469 -0.9972  0.0715  0.7871
   36MPD2     N  568   1.195   0.600  11.418  0.2115  0.5709  0.2948
   36MPD2    H5  569   1.126   0.642  11.480  0.9773 -0.7524  2.0414
   36MPD2    N1  570   1.436   0.632  11.820  0.0372  0.8785  0.1865
   36MPD2    H7  571   1.488   0.583  11.892  0.5015 -0.0258 -0.7502
   37TMC2    C1  572   2.718   1.142  11.666  0.2478  1.1595 -0.2918
   37TMC2    C2  573   2.671   1.258  11.615 -0.2205  0.8959  0.6125
   37TMC2    C3  574   2.753   1.321  11.527 -0.3138 -0.4706 -0.4803
   37TMC2    C4  575   2.846   1.092  11.625  0.1960  0.2232 -0.1093
   37TMC2    C5  576   2.924   1.159  11.533  0.2879 -0.4733 -0.2889
   37TMC2    C6  577   2.874   1.280  11.485  0.7961 -0.0874 -0.2153
   37TMC2     C  578   2.704   1.129  11.804  0.9091  0.3643  0.3040
   37TMC2     O  579   2.678   1.233  11.866 -0.2315 -0.0603  0.1699
   37TMC2     H  580   2.590   1.311  11.663  0.0586  0.2282  1.8280
   37TMC2    H1  581   2.880   0.997  11.665 -0.2470  0.1639  0.1325
   37TMC2    H2  582   2.938   1.350  11.433 -0.6018  1.8363  0.6133
   37TMC2    C7  583   3.058   1.116  11.517  0.0564  0.2529 -1.0088
   37TMC2    C8  584   2.687   1.428  11.455 -0.0882  0.6096 -0.0950
   37TMC2    O1  585   3.089   1.008  11.567  0.0006  0.9189  0.2168
   37TMC2    O2  586   2.580   1.476  11.482  0.4394  0.1458  0.1347
   37TMC2    O5  587   2.736   1.406  11.326  0.3622  0.1022  0.3881
   37TMC2    H5  588   2.801   1.334  11.314  0.5943  0.2742  0.6055
   38MPD2     C  589   2.807   0.905  12.244 -0.2503  0.4341 -0.5619
   38MPD2    C1  590   2.852   0.822  12.143  0.1455 -0.2987  0.5649
   38MPD2    C2  591   2.815   0.855  12.016 -0.8231 -0.0022 -0.6589
   38MPD2    C3  592   2.747   0.977  11.985 -0.9111  0.1097  0.7308
   38MPD2    C4  593   2.722   1.068  12.088  0.1895 -0.4167  0.1043
   38MPD2    C5  594   2.752   1.025  12.220  0.2845 -0.0662 -0.6829
   38MPD2     H  595   2.836   0.794  11.929  1.6118  0.2180 -0.2327
   38MPD2    H1  596   2.661   1.157  12.079 -0.9307 -1.1210  0.7067
   38MPD2    H2  597   2.831   0.876  12.346 -1.1453  0.2517 -0.4075
   38MPD2    H3  598   2.722   1.085  12.305  1.9509 -1.0854  0.6121
   38MPD2     N  599   2.736   1.003  11.849  0.0618  0.2996 -0.6487
   38MPD2    H5  600   2.742   0.928  11.782 -0.3869  0.6275 -1.0547
   38MPD2    N1  601   2.931   0.702  12.149 -0.1590  0.7053 -0.7772
   38MPD2    H7  602   2.967   0.664  12.062  0.1158  2.3060 -1.3623
   39TMC2    C1  603   1.941   2.683   1.366  0.2742 -0.1939 -0.3116
   39TMC2    C2  604   1.931   2.792   1.444 -0.3241  0.2521  0.3293
   39TMC2    C3  605   2.024   2.802   1.544  0.2323 -0.2410 -0.5018
   39TMC2    C4  606   2.037   2.590   1.382 -0.2203 -0.1764  0.5107
   39TMC2    C5  607   2.128   2.609   1.475 -0.7343  0.6292  0.2119
   39TMC2    C6  608   2.121   2.708   1.563 -0.1159 -0.4056 -0.2056
   39TMC2     C  609   1.835   2.666   1.278  0.0011  0.8918  0.2801
   39TMC2     O  610   1.757   2.756   1.244  0.1205 -0.0301 -0.3628
   39TMC2     H  611   1.865   2.873   1.415  2.0799  1.9327 -0.5248
   39TMC2    H1  612   2.035   2.502   1.318 -2.7015  0.9174 -0.9251
   39TMC2    H2  613   2.188   2.709   1.649 -1.1559 -0.3535  0.5957
   39TMC2    C7  614   2.231   2.502   1.497 -0.0717 -0.8085  0.2811
   39TMC2    C8  615   2.011   2.905   1.646  0.2495 -0.2972 -0.4405
   39TMC2    O1  616   2.206   2.385   1.482 -0.3427 -0.2157 -0.7638
   39TMC2    O2  617   1.919   2.985   1.647  0.1715 -0.1034 -0.5377
   39TMC2    O5  618   2.143   2.943   1.672  0.3053 -0.8157  0.8541
   39TMC2    H5  619   2.213   2.914   1.610  0.5547 -0.8592  1.1564
   40MPD2     C  620   1.704   2.333   1.172 -0.1950 -0.2114 -0.4088
   40MPD2    C1  621   1.704   2.471   1.182 -0.0491 -0.7469  0.0206
   40MPD2    C2  622   1.602   2.549   1.131 -0.4398 -0.0069 -0.9736
   40MPD2    C3  623   1.501   2.481   1.060  0.4653 -0.6390 -0.7411
   40MPD2    C4  624   1.505   2.346   1.047 -0.2775 -0.2384 -0.3979
   40MPD2    C5  625   1.602   2.270   1.097  0.2529 -0.0133 -0.0893
   40MPD2     H  626   1.602   2.657   1.134  2.8351 -0.0258  0.1249
   40MPD2    H1  627   1.429   2.289   0.994  0.8952 -1.6479 -0.5641
   40MPD2    H2  628   1.769   2.273   1.234 -0.9432 -1.0175 -0.4079
   40MPD2    H3  629   1.599   2.162   1.093 -0.2756 -0.0528  1.4934
   40MPD2     N  630   1.389   2.544   1.000  0.0289 -0.3083  0.0044
   40MPD2    H5  631   1.333   2.480   0.945 -1.4109  0.5501  0.4584
   40MPD2    N1  632   1.810   2.527   1.252  0.5039 -0.3805 -0.2175
   40MPD2    H7  633   1.883   2.464   1.284 -0.0785  0.1027  2.0265
   41TMC2    C1  634   0.036   0.885  14.113 -0.5377 -0.7331  0.0248
   41TMC2    C2  635   0.159   0.835  14.153  0.3042 -0.1376  0.2016
   41TMC2    C3  636   0.276   0.889  14.096 -0.3086 -0.1500  0.1987
   41TMC2    C4  637   0.025   0.973  14.009  0.1728  0.2804  0.5159
   41TMC2    C5  638   0.138   1.022  13.950 -0.3303  0.6071  0.3782
   41TMC2    C6  639   0.262   0.982  13.997  0.6882 -0.4254 -0.1592
   41TMC2     C  640   4.649   0.852  14.183 -0.3113 -0.3903 -0.1114
   41TMC2     O  641   4.542   0.851  14.120  0.2237  0.2581 -0.0253
   41TMC2     H  642   0.159   0.738  14.200 -0.3497 -0.9030 -1.3583
   41TMC2    H1  643   4.662   0.991  13.967 -0.4196 -1.7845  1.0301
   41TMC2    H2  644   0.348   1.035  13.957  0.1398  0.0804 -0.6780
   41TMC2    C7  645   0.128   1.118  13.843 -0.2053 -0.4427  0.0024
   41TMC2    C8  646   0.412   0.843  14.124  0.0746 -0.3022 -0.5167
   41TMC2    O1  647   0.015   1.169  13.828 -0.0863  0.2737  0.1672
   41TMC2    O2  648   0.509   0.890  14.066  0.3621  0.3421 -0.2224
   41TMC2    O5  649   0.395   0.720  14.180 -0.6947  0.3270  0.8237
   41TMC2    H5  650   0.310   0.706  14.227 -0.1251 -0.8963  1.4982
   42MPD2     C  651   4.444   0.777  14.381 -0.4742  0.0653  0.1693
   42MPD2    C1  652   4.576   0.810  14.419 -0.0587  0.0649 -0.2333
   42MPD2    C2  653   4.613   0.817  14.557 -0.1196  0.5765 -0.0185
   42MPD2    C3  654   4.518   0.780  14.654  0.1645  0.0601 -0.0875
   42MPD2    C4  655   4.384   0.752  14.615 -0.4188 -0.0276  0.0936
   42MPD2    C5  656   4.355   0.742  14.479 -0.3131 -0.2774 -0.7832
   42MPD2     H  657   4.717   0.819  14.588 -0.4743 -0.3029  1.2206
   42MPD2    H1  658   4.315   0.713  14.689 -2.6301 -0.2291 -2.0733
   42MPD2    H2  659   4.408   0.767  14.279 -0.5069 -0.5574  0.2441
   42MPD2    H3  660   4.259   0.704  14.445 -1.0887 -0.5472  1.7663
   42MPD2     N  661   4.555   0.773  14.787  0.3066  0.1283 -0.1452
   42MPD2    H5  662   4.482   0.748  14.852  0.5738  0.1998  0.1793
   42MPD2    N1  663   4.668   0.850  14.317 -0.3310 -0.2559  0.2713
   42MPD2    H7  664   0.030   0.869  14.337  0.5050 -2.4529 -1.6934
   43TMC2    C1  665   1.786   4.177   0.413  0.4372  0.0481 -0.0064
   43TMC2    C2  666   1.701   4.278   0.439 -0.0341 -0.3245 -0.0992
   43TMC2    C3  667   1.701   4.336   0.567 -0.1976 -0.1159  0.2255
   43TMC2    C4  668   1.871   4.126   0.514 -0.2061  0.0974  0.0462
   43TMC2    C5  669   1.874   4.187   0.645  0.1367 -0.3652  0.2274
   43TMC2    C6  670   1.784   4.288   0.664  0.5316  0.9333  0.2279
   43TMC2     C  671   1.792   4.128   0.280 -0.0667  0.3975  0.5472
   43TMC2     O  672   1.703   4.169   0.207 -0.1657 -0.5218  0.5618
   43TMC2     H  673   1.625   4.301   0.364 -0.6677 -0.3884  0.5193
   43TMC2    H1  674   1.922   4.031   0.498  0.8168  0.4695  1.0870
   43TMC2    H2  675   1.761   4.335   0.759  1.1625  1.6344  0.0369
   43TMC2    C7  676   2.002   4.176   0.714  1.1086  0.2005  0.3070
   43TMC2    C8  677   1.668   4.480   0.577  0.1400 -0.1178  0.3444
   43TMC2    O1  678   2.084   4.093   0.678 -0.2649  0.2095  0.1025
   43TMC2    O2  679   1.708   4.543   0.669  0.0863  0.3922 -0.3771
   43TMC2    O5  680   1.561   4.501   0.498  0.1151  0.9726 -0.6187
   43TMC2    H5  681   1.524   4.418   0.460  0.0366  0.9861 -0.5717
   44MPD2     C  682   1.973   3.808  17.665 -0.1263 -0.5924  0.1878
   44MPD2    C1  683   2.049   3.787   0.040 -0.2906  0.1405  0.3863
   44MPD2    C2  684   2.025   3.882   0.145  0.1570 -0.0618  0.0809
   44MPD2    C3  685   1.930   3.986   0.136  0.4640  0.2505  0.0032
   44MPD2    C4  686   1.860   3.999   0.014  0.7052  0.3776  0.2114
   44MPD2    C5  687   1.881   3.912  17.662 -0.9287  0.0868  0.7924
   44MPD2     H  688   2.083   3.861   0.234 -0.8316  0.7213  0.9184
   44MPD2    H1  689   1.791   4.080  17.735 -0.4055 -0.9802 -1.3146
   44MPD2    H2  690   1.976   3.744  17.578  0.9575 -1.1432  0.6352
   44MPD2    H3  691   1.823   3.921  17.571 -0.6764  0.8229  0.7048
   44MPD2     N  692   1.902   4.052   0.258  0.2872  0.7359 -0.2449
   44MPD2    H5  693   1.971   4.044   0.333  1.3569  1.5214 -1.1427
   44MPD2    N1  694   2.146   3.687   0.052 -0.0145 -0.0568 -0.1866
   44MPD2    H7  695   2.191   3.685   0.143  0.5671  0.1498 -0.4753
   45TMC2    C1  696   2.735   1.165   9.586 -0.2176 -0.0471  0.4645
   45TMC2    C2  697   2.677   1.184   9.465  0.1647  0.5202  0.0460
   45TMC2    C3  698   2.681   1.309   9.407  0.7682  0.2090  0.7454
   45TMC2    C4  699   2.808   1.265   9.646 -0.3937  0.2863  0.0932
   45TMC2    C5  700   2.817   1.388   9.586 -0.7548 -0.0059 -0.6262
   45TMC2    C6  701   2.749   1.409   9.467 -0.5784  0.0928 -0.6374
   45TMC2     C  702   2.695   1.054   9.674  0.1868  0.1385  0.2529
   45TMC2     O  703   2.750   1.065   9.784  0.7262 -0.2870  0.3877
   45TMC2     H  704   2.614   1.111   9.415  2.4637 -2.2742  1.2253
   45TMC2    H1  705   2.837   1.262   9.751  0.8834  1.3071 -0.2376
   45TMC2    H2  706   2.733   1.504   9.417 -0.5238 -0.2293 -1.2661
   45TMC2    C7  707   2.877   1.501   9.650 -0.1976 -0.6322 -0.3302
   45TMC2    C8  708   2.616   1.319   9.278  0.3227 -0.3472 -0.5396
   45TMC2    O1  709   2.899   1.490   9.766 -0.2243 -1.0039 -0.2630
   45TMC2    O2  710   2.520   1.248   9.254  0.3173  0.1663 -0.0653
   45TMC2    O5  711   2.700   1.382   9.188  0.3230 -0.0105  0.9176
   45TMC2    H5  712   2.774   1.436   9.223 -0.1830  0.9729  0.4833
   46MPD2     C  713   2.604   0.815   9.817  0.3755 -1.0701  0.3492
   46MPD2    C1  714   2.555   0.850   9.695  0.0443  0.6944  0.8949
   46MPD2    C2  715   2.452   0.780   9.635 -0.2864  1.2311  0.8622
   46MPD2    C3  716   2.400   0.677   9.704 -0.1648  0.1110 -0.5502
   46MPD2    C4  717   2.459   0.630   9.823 -1.2637 -0.0925  0.5426
   46MPD2    C5  718   2.561   0.703   9.879 -0.1327  0.1915 -0.6465
   46MPD2     H  719   2.411   0.824   9.545  1.6377 -1.1006 -1.1434
   46MPD2    H1  720   2.422   0.551   9.888 -1.1992  0.5524  1.3527
   46MPD2    H2  721   2.694   0.861   9.856  0.9215 -1.4572 -0.4636
   46MPD2    H3  722   2.608   0.678   9.974 -0.0722  2.0446 -0.1899
   46MPD2     N  723   2.284   0.620   9.640 -0.2755  0.1628 -0.3046
   46MPD2    H5  724   2.262   0.652   9.547 -1.3835 -1.0382 -0.4484
   46MPD2    N1  725   2.599   0.967   9.625  0.7690 -0.7282  0.5148
   46MPD2    H7  726   2.560   0.990   9.534  0.6153  1.5310  1.1615
   47TMC2    C1  727   0.417   2.524   9.708 -0.7799 -0.4057 -0.3850
   47TMC2    C2  728   0.392   2.660   9.736  0.2363 -0.0209  0.0727
   47TMC2    C3  729   0.269   2.713   9.701 -0.3532 -0.6359  0.0716
   47TMC2    C4  730   0.335   2.443   9.644 -0.0536  0.1019  0.4607
   47TMC2    C5  731   0.212   2.502   9.611  0.2398 -0.1492  0.3739
   47TMC2    C6  732   0.177   2.634   9.629  1.1134 -0.5049  0.1031
   47TMC2     C  733   0.544   2.477   9.757  0.7354  0.2102  0.2670
   47TMC2     O  734   0.614   2.559   9.810  0.0259  0.3675 -0.3619
   47TMC2     H  735   0.459   2.724   9.791 -0.1877  1.0279 -0.6261
   47TMC2    H1  736   0.359   2.340   9.622 -0.2426  0.3641 -0.9527
   47TMC2    H2  737   0.096   2.682   9.576  1.3929 -0.5046 -0.3233
   47TMC2    C7  738   0.110   2.411   9.557  0.2348 -1.2685 -0.2991
   47TMC2    C8  739   0.236   2.845   9.731 -0.3792 -0.0547  0.2454
   47TMC2    O1  740   0.160   2.314   9.504 -0.2366 -0.0130 -0.2278
   47TMC2    O2  741   0.283   2.948   9.689 -0.2141  0.2017  0.3260
   47TMC2    O5  742   0.106   2.835   9.771  0.4743  0.2025 -0.2844
   47TMC2    H5  743   0.076   2.744   9.793 -0.7522  0.8199  0.5434
   48MPD2     C  744   0.809   2.356   9.814 -0.1702 -0.6219  0.4214
   48MPD2    C1  745   0.699   2.281   9.770 -0.0802 -0.0697  0.2289
   48MPD2    C2  746   0.721   2.143   9.749  0.9649  0.3920  0.6451
   48MPD2    C3  747   0.841   2.090   9.793 -0.4855 -0.3546 -0.9079
   48MPD2    C4  748   0.933   2.168   9.851 -0.2955  0.3225  0.8301
   48MPD2    C5  749   0.920   2.300   9.862  0.1255  0.0680 -0.5911
   48MPD2     H  750   0.646   2.083   9.699  0.7087  0.8305  0.5023
   48MPD2    H1  751   1.034   2.139   9.879  0.2742  1.7667  0.2951
   48MPD2    H2  752   0.811   2.465   9.819 -0.3520 -0.5708 -0.6636
   48MPD2    H3  753   1.004   2.352   9.908 -0.0116 -0.4640  0.2607
   48MPD2     N  754   0.855   1.954   9.774  0.3407 -0.1296  1.4074
   48MPD2    H5  755   0.784   1.912   9.715 -0.5543  1.6859  1.1946
   48MPD2    N1  756   0.571   2.344   9.736 -0.1588  0.4612 -0.1964
   48MPD2    H7  757   0.499   2.289   9.689  0.9931  0.3059 -1.7680
   49TMC2    C1  758   2.747   3.195  10.357  0.3978  0.8219  0.1769
   49TMC2    C2  759   2.689   3.088  10.291 -0.1289 -0.1674  0.6113
   49TMC2    C3  760   2.633   2.991  10.365 -0.4177  0.0021  0.5759
   49TMC2    C4  761   2.791   3.181  10.492  1.1195 -0.5774 -0.4707
   49TMC2    C5  762   2.736   3.073  10.560  0.5338  0.2738  0.2459
   49TMC2    C6  763   2.653   2.982  10.501 -0.6114 -0.4827  0.6942
   49TMC2     C  764   2.772   3.314  10.282 -0.5028  0.8334 -0.7918
   49TMC2     O  765   2.768   3.300  10.158  0.5592  0.0952 -0.1038
   49TMC2     H  766   2.672   3.090  10.184  1.0213  0.7020  0.4430
   49TMC2    H1  767   2.848   3.262  10.536 -1.5563  0.6077  0.7535
   49TMC2    H2  768   2.625   2.897  10.562 -1.4132 -0.4617  0.3580
   49TMC2    C7  769   2.738   3.084  10.707 -0.2741 -0.1107  0.9121
   49TMC2    C8  770   2.623   2.863  10.298 -0.1485 -0.6487  0.4015
   49TMC2    O1  771   2.634   3.055  10.762 -0.1005  0.3895  0.1652
   49TMC2    O2  772   2.647   2.755  10.351 -0.6739  0.6165 -0.1775
   49TMC2    O5  773   2.592   2.876  10.167  0.1043  0.0424  0.6012
   49TMC2    H5  774   2.540   2.959  10.155  1.5013  0.8197 -0.0895
   50MPD2     C  775   2.884   3.570  10.183 -0.4283  0.0646  0.8964
   50MPD2    C1  776   2.857   3.546  10.317 -0.6339 -0.4567 -0.1398
   50MPD2    C2  777   2.896   3.631  10.413  0.1975 -0.1551 -0.5871
   50MPD2    C3  778   2.972   3.742  10.376 -0.3498 -0.0992 -0.4297
   50MPD2    C4  779   2.994   3.774  10.245  0.1791 -0.4255  0.2247
   50MPD2    C5  780   2.941   3.692  10.153  0.2284  0.3291 -0.1997
   50MPD2     H  781   2.877   3.618  10.519  1.3499  1.2602 -0.2038
   50MPD2    H1  782   3.037   3.870  10.219  0.3935 -1.0222 -1.6040
   50MPD2    H2  783   2.843   3.505  10.106  1.9674 -0.1719 -0.2040
   50MPD2    H3  784   2.955   3.722  10.049 -1.9861  0.0217 -0.5723
   50MPD2     N  785   3.035   3.833  10.474 -0.2816  0.8499 -0.2121
   50MPD2    H5  786   3.073   3.917  10.431 -1.0057  2.2137  1.8087
   50MPD2    N1  787   2.795   3.428  10.359 -0.1716  0.2699  0.0771
   50MPD2    H7  788   2.777   3.431  10.459 -1.3382 -2.1880 -0.0703
   51TMC2    C1  789   3.576   3.740   1.243 -0.5035  0.3627 -0.2882
   51TMC2    C2  790   3.599   3.684   1.117 -0.5428  0.4424 -0.0087
   51TMC2    C3  791   3.718   3.704   1.053  0.2719  0.5039  0.1109
   51TMC2    C4  792   3.671   3.821   1.307  0.1739  0.0619  0.6081
   51TMC2    C5  793   3.785   3.840   1.232  0.7763  0.3952  0.2655
   51TMC2    C6  794   3.811   3.780   1.114  0.0291 -0.8748 -0.2456
   51TMC2     C  795   3.498   3.658   1.333  0.3007  0.0337  0.2702
   51TMC2     O  796   3.465   3.550   1.281  0.0115  0.1863  0.4654
   51TMC2     H  797   3.518   3.626   1.075  0.6398 -0.6483 -0.7864
   51TMC2    H1  798   3.661   3.839   1.413 -0.5794 -1.9701  0.8969
   51TMC2    H2  799   3.910   3.800   1.073  0.5300 -1.7048  0.5552
   51TMC2    C7  800   3.890   3.918   1.296  0.6043 -0.2782 -0.4624
   51TMC2    C8  801   3.734   3.648   0.921 -0.5683 -0.3277 -0.0444
   51TMC2    O1  802   4.003   3.917   1.256  0.2368  0.8426 -0.4512
   51TMC2    O2  803   3.660   3.555   0.885 -0.1383  0.6132  0.6078
   51TMC2    O5  804   3.852   3.693   0.864  0.8892 -0.3868  0.0736
   51TMC2    H5  805   3.878   3.784   0.886  0.9434 -0.4103  0.1054
   52MPD2     C  806   3.220   3.539   1.746 -0.5689 -0.7702  0.4051
   52MPD2    C1  807   3.299   3.454   1.665 -0.4183 -0.2026 -0.0153
   52MPD2    C2  808   3.368   3.514   1.558 -0.0789 -0.4410 -0.3404
   52MPD2    C3  809   3.359   3.653   1.530  0.0824  0.2128  0.5767
   52MPD2    C4  810   3.280   3.726   1.612  0.1212 -0.1045  0.1356
   52MPD2    C5  811   3.199   3.665   1.709  0.4996  0.4850  0.0041
   52MPD2     H  812   3.438   3.452   1.502  1.7655  1.8371 -0.5514
   52MPD2    H1  813   3.259   3.829   1.583 -0.2435  0.2135  1.5369
   52MPD2    H2  814   3.155   3.495   1.821 -1.0787 -1.7507 -0.6250
   52MPD2    H3  815   3.128   3.731   1.757  0.2647 -1.2172  1.9907
   52MPD2     N  816   3.439   3.725   1.437  0.6248  0.1787 -0.2304
   52MPD2    H5  817   3.453   3.825   1.435  1.9276  0.0128  0.3548
   52MPD2    N1  818   3.326   3.321   1.693  0.0907  0.1397  0.0526
   52MPD2    H7  819   3.358   3.268   1.612  0.2296  0.2881  0.0112
   53TMC2    C1  820   3.738   0.866  11.638  0.7160 -0.3413 -0.6851
   53TMC2    C2  821   3.849   0.791  11.616  0.2651 -0.3621  1.3969
   53TMC2    C3  822   3.894   0.705  11.718  0.4374 -0.0216 -0.0593
   53TMC2    C4  823   3.663   0.843  11.751  0.6571  0.9665  0.3088
   53TMC2    C5  824   3.699   0.746  11.835 -0.3499  0.7935 -0.4392
   53TMC2    C6  825   3.817   0.681  11.828  0.3225  0.4992 -0.0284
   53TMC2     C  826   3.688   0.967  11.540  0.5563 -0.1357 -0.2019
   53TMC2     O  827   3.776   1.000  11.457 -0.1424 -0.0019  0.5242
   53TMC2     H  828   3.916   0.809  11.532 -1.0256 -4.9711 -0.6174
   53TMC2    H1  829   3.581   0.907  11.782  0.5513  1.6573 -1.4487
   53TMC2    H2  830   3.847   0.600  11.893 -1.6210  0.8892  1.3684
   53TMC2    C7  831   3.614   0.719  11.952  0.3183  0.3962  0.3700
   53TMC2    C8  832   4.028   0.638  11.704  0.4654  0.0216 -1.3192
   53TMC2    O1  833   3.525   0.796  11.972  0.6171  0.4252  0.6272
   53TMC2    O2  834   4.080   0.618  11.594 -0.2138 -0.3901  0.1073
   53TMC2    O5  835   4.091   0.656  11.821  0.5354  0.0170  0.4342
   53TMC2    H5  836   4.040   0.681  11.900 -0.3999 -2.2212  0.5547
   54MPD2     C  837   3.552   1.172  11.378 -0.3010  0.3885  0.5568
   54MPD2    C1  838   3.492   1.093  11.474 -0.6717 -0.4281 -0.4473
   54MPD2    C2  839   3.356   1.108  11.496  0.3211  0.8234  0.4696
   54MPD2    C3  840   3.278   1.191  11.426 -0.8279 -0.1589  0.0802
   54MPD2    C4  841   3.335   1.280  11.340 -0.1722 -0.5289  0.8387
   54MPD2    C5  842   3.465   1.269  11.321  0.0430 -0.0049 -0.1373
   54MPD2     H  843   3.310   1.038  11.565  0.7454  1.5998  1.5303
   54MPD2    H1  844   3.283   1.353  11.278 -1.2002 -0.1967  2.0931
   54MPD2    H2  845   3.658   1.187  11.362 -0.0952 -3.7938 -2.0027
   54MPD2    H3  846   3.517   1.329  11.247 -0.5393 -3.2895 -3.1650
   54MPD2     N  847   3.139   1.195  11.439 -0.3627  0.1601 -0.5570
   54MPD2    H5  848   3.100   1.271  11.384 -1.8490  0.3057  0.6856
   54MPD2    N1  849   3.561   0.999  11.556 -0.6222 -0.2729 -0.4255
   54MPD2    H7  850   3.511   0.955  11.632  2.0241  1.4603  2.2994
   55TMC2    C1  851   0.227   4.174   0.154 -0.0438 -0.5631  0.1712
   55TMC2    C2  852   0.328   4.237   0.086 -0.1193 -0.3010 -0.1951
   55TMC2    C3  853   0.450   4.187   0.101 -0.0803 -0.9015  0.2312
   55TMC2    C4  854   0.248   4.061   0.226  0.3611 -0.1177 -0.0396
   55TMC2    C5  855   0.370   4.011   0.229  0.5561  0.5123  0.2036
   55TMC2    C6  856   0.474   4.075   0.174 -0.0701  0.4494 -0.5735
   55TMC2     C  857   0.097   4.234   0.179  0.4281  0.0013  0.2059
   55TMC2     O  858   0.029   4.181   0.265 -0.2249  0.6432  0.1957
   55TMC2     H  859   0.314   4.329   0.029  1.1754  0.9834  1.5648
   55TMC2    H1  860   0.159   4.013   0.263  0.8539 -0.2536  0.9719
   55TMC2    H2  861   0.573   4.035   0.188 -0.1560  0.3839 -0.1665
   55TMC2    C7  862   0.400   3.872   0.261 -0.8780 -0.1480  0.4334
   55TMC2    C8  863   0.562   4.261   0.046  0.2438 -0.6125  0.0842
   55TMC2    O1  864   0.505   3.830   0.212 -0.2384  0.4493 -0.0015
   55TMC2    O2  865   0.574   4.380   0.060 -0.6953 -0.8063 -0.3781
   55TMC2    O5  866   0.653   4.171  17.743  0.0250  0.2979  0.4021
   55TMC2    H5  867   0.612   4.083  17.727 -1.1864  1.1948 -1.4966
   56MPD2     C  868   4.709   4.569   0.070  0.5855 -0.1680  0.2260
   56MPD2    C1  869   4.708   4.443   0.137 -0.6018  1.0219  0.1088
   56MPD2    C2  870   4.600   4.405   0.210 -0.1226 -0.6040  0.5044
   56MPD2    C3  871   4.491   4.502   0.224 -0.2871  0.4090 -0.0298
   56MPD2    C4  872   4.496   4.623   0.159  0.2198 -0.0336 -0.3595
   56MPD2    C5  873   4.602   4.655   0.082 -0.5867  0.3305 -0.3856
   56MPD2     H  874   4.583   4.311   0.262  0.1411  0.1454  1.9308
   56MPD2    H1  875   4.419   4.698   0.172 -1.2821 -1.3766 -1.5970
   56MPD2    H2  876   0.049   4.605   0.003 -0.2250  0.9572 -0.0880
   56MPD2    H3  877   4.607   0.017   0.037  0.2372  0.5365  0.1669
   56MPD2     N  878   4.381   4.453   0.297 -0.5049 -0.4875  0.2212
   56MPD2    H5  879   4.400   4.361   0.335 -0.2356 -0.6396 -0.2775
   56MPD2    N1  880   0.081   4.359   0.117  0.0477  0.0058  0.4231
   56MPD2    H7  881   0.149   4.397   0.051 -1.0119  0.3932 -0.4343
   57TMC2    C1  882   3.551   4.327  12.875  0.0647  0.1620  0.1575
   57TMC2    C2  883   3.503   4.348  12.747  0.3549 -0.1945 -0.3326
   57TMC2    C3  884   3.583   4.409  12.656  0.5849  0.2894  0.0552
   57TMC2    C4  885   3.686   4.340  12.913  0.6089 -0.0627 -0.2930
   57TMC2    C5  886   3.758   4.415  12.820  0.0051 -0.9212 -0.0361
   57TMC2    C6  887   3.705   4.460  12.698  0.2570 -0.0028  0.7756
   57TMC2     C  888   3.458   4.320  12.992 -0.5455  0.6338 -0.3338
   57TMC2     O  889   3.512   4.330  13.106  0.3664  0.1515 -0.3392
   57TMC2     H  890   3.397   4.340  12.726  0.5256  0.0260 -1.2930
   57TMC2    H1  891   3.715   4.314  13.014 -0.0252 -1.5691 -0.4978
   57TMC2    H2  892   3.758   4.532  12.637  0.1753  1.2176  2.1364
   57TMC2    C7  893   3.873   4.490  12.865 -0.2721  0.5308 -0.5613
   57TMC2    C8  894   3.524   4.478  12.548  0.4878 -0.8952 -0.0842
   57TMC2    O1  895   3.893   4.598  12.814  0.1979 -0.2508  0.0891
   57TMC2    O2  896   3.463   4.429  12.456 -0.0506 -0.3184 -0.5735
   57TMC2    O5  897   3.528   4.609  12.575 -0.0229  0.2238 -0.5991
   57TMC2    H5  898   3.552   4.628  12.668 -1.0890 -0.4751 -0.1764
   58MPD2     C  899   3.041   4.153  13.243  0.2288 -0.3079 -0.7183
   58MPD2    C1  900   3.145   4.235  13.281 -0.9869 -0.7021 -0.4909
   58MPD2    C2  901   3.245   4.266  13.190 -0.1569  0.2875 -0.6498
   58MPD2    C3  902   3.234   4.226  13.058  0.5854 -0.9324 -0.4712
   58MPD2    C4  903   3.120   4.159  13.019 -0.5520 -0.2387  0.1142
   58MPD2    C5  904   3.026   4.123  13.111 -0.3601  0.4916 -0.1101
   58MPD2     H  905   3.331   4.325  13.220  0.2205  0.9324 -3.0376
   58MPD2    H1  906   3.098   4.145  12.914 -2.4476  1.3061  0.2978
   58MPD2    H2  907   2.962   4.112  13.305  1.3190 -0.7651  0.3618
   58MPD2    H3  908   2.934   4.071  13.088  0.3400 -0.2183 -1.3036
   58MPD2     N  909   3.334   4.268  12.960  0.2323  0.2241 -0.4458
   58MPD2    H5  910   3.322   4.227  12.868 -0.3231 -0.7034  0.0436
   58MPD2    N1  911   3.159   4.288  13.410  0.0334 -0.2679 -0.0445
   58MPD2    H7  912   3.249   4.328  13.433 -0.6860 -0.1135  2.5319
   59TMC2    C1  913   1.169   4.517  12.859 -0.3640 -0.6073  0.1613
   59TMC2    C2  914   1.043   4.555  12.823 -0.3425  0.6471  0.3161
   59TMC2    C3  915   1.022   4.633  12.709 -0.1054 -0.2184  0.1770
   59TMC2    C4  916   1.274   4.578  12.795 -0.5615  0.7457 -0.2308
   59TMC2    C5  917   1.250   4.653  12.680  0.8747  0.2493  0.6572
   59TMC2    C6  918   1.122   4.689  12.639  0.3052 -0.3000  0.4960
   59TMC2     C  919   1.180   4.455  12.989  0.0958 -0.3919 -0.5583
   59TMC2     O  920   1.087   4.477  13.061  0.1359 -0.1622  0.1619
   59TMC2     H  921   0.960   4.526  12.886  1.2843  0.2109  2.2611
   59TMC2    H1  922   1.377   4.553  12.816 -0.1516  2.0763 -0.6200
   59TMC2    H2  923   1.101   4.724  12.539  1.1694 -1.0093  0.0643
   59TMC2    C7  924   1.361   4.714  12.611  0.3893 -0.0911  0.2722
   59TMC2    C8  925   0.889   4.683  12.684  0.2303  0.1406 -0.2095
   59TMC2    O1  926   1.471   4.671  12.643  0.1454 -0.1495  0.3078
   59TMC2    O2  927   0.782   4.621  12.709 -0.0424 -0.2579 -0.5939
   59TMC2    O5  928   0.886   0.078  12.659 -0.0895 -0.5413  0.2297
   59TMC2    H5  929   0.975   0.120  12.663 -0.0534 -0.6649  0.7122
   60MPD2     C  930   1.249   4.313  13.242 -0.2938 -0.0854  0.1956
   60MPD2    C1  931   1.344   4.352  13.144 -0.0181 -0.2525 -0.6142
   60MPD2    C2  932   1.479   4.347  13.176  0.2200 -0.0874  0.6693
   60MPD2    C3  933   1.513   4.312  13.307  0.2442  0.4587 -0.6216
   60MPD2    C4  934   1.421   4.280  13.399 -0.2874 -0.1018  0.4090
   60MPD2    C5  935   1.292   4.273  13.362  0.1410 -0.5075 -1.2952
   60MPD2     H  936   1.554   4.377  13.104 -0.3774 -0.0148  0.0804
   60MPD2    H1  937   1.443   4.256  13.502 -2.3450 -1.0899  0.5975
   60MPD2    H2  938   1.145   4.300  13.216 -0.7921  0.0773  2.1270
   60MPD2    H3  939   1.217   4.236  13.431  0.5819  1.3565  0.2064
   60MPD2     N  940   1.644   4.329  13.358  0.0468  0.0359 -0.5487
   60MPD2    H5  941   1.646   4.328  13.459 -0.8528  0.9412 -0.5197
   60MPD2    N1  942   1.305   4.391  13.016 -0.0214 -0.1055  0.2724
   60MPD2    H7  943   1.375   4.401  12.943  1.2530  1.1614  1.6702
   61TMC2    C1  944   0.528   1.004  15.628  0.1786  0.0508  0.2917
   61TMC2    C2  945   0.523   0.920  15.742  0.3281  0.2745  0.3833
   61TMC2    C3  946   0.503   0.978  15.868 -0.2710 -0.0501 -0.1993
   61TMC2    C4  947   0.499   1.139  15.634  0.2203 -0.5116 -0.4999
   61TMC2    C5  948   0.474   1.184  15.761 -0.5956  0.4580  0.1108
   61TMC2    C6  949   0.474   1.117  15.878  0.1637  0.0478  0.5548
   61TMC2     C  950   0.523   0.932  15.498  0.2376  0.0970 -0.5015
   61TMC2     O  951   0.505   0.811  15.497 -0.1809 -0.2433 -0.0485
   61TMC2     H  952   0.534   0.813  15.728  0.7104  0.2491  0.8567
   61TMC2    H1  953   0.476   1.197  15.545  0.6693 -0.7744 -0.7865
   61TMC2    H2  954   0.456   1.156  15.978  3.0900  0.4045  0.9316
   61TMC2    C7  955   0.456   1.327  15.761  0.1362  0.3920  0.4579
   61TMC2    C8  956   0.501   0.893  15.980  0.4636 -0.1878 -0.1244
   61TMC2    O1  957   0.501   1.395  15.672  0.4233 -0.1049 -0.3223
   61TMC2    O2  958   0.552   0.783  15.977  0.0926 -0.7875  0.3618
   61TMC2    O5  959   0.425   0.941  16.081  0.2770  0.5230  0.0920
   61TMC2    H5  960   0.375   1.025  16.069  1.4443  1.4023  1.2744
   62MPD2     C  961   0.416   0.901  15.227  0.5840 -0.0255  0.0465
   62MPD2    C1  962   0.509   0.997  15.263  0.4253 -0.0717 -0.0554
   62MPD2    C2  963   0.573   1.075  15.161 -0.1771  0.4301 -0.1103
   62MPD2    C3  964   0.540   1.054  15.031  0.1017 -0.9142 -0.4059
   62MPD2    C4  965   0.438   0.965  14.996 -0.1943  0.0364  0.9513
   62MPD2    C5  966   0.378   0.884  15.095  0.1076  0.3748  0.5608
   62MPD2     H  967   0.651   1.149  15.178 -1.1699  1.0716  1.6226
   62MPD2    H1  968   0.404   0.956  14.893 -1.3213 -1.8513  1.4885
   62MPD2    H2  969   0.355   0.848  15.299 -2.9960  4.9474  0.6731
   62MPD2    H3  970   0.298   0.816  15.069  1.5859 -1.0728 -0.1854
   62MPD2     N  971   0.602   1.124  14.926 -0.2913 -0.0817 -0.3379
   62MPD2    H5  972   0.548   1.123  14.840  2.5240  0.1918 -2.0949
   62MPD2    N1  973   0.547   1.019  15.397 -0.4743  0.5739 -0.3829
   62MPD2    H7  974   0.614   1.091  15.423 -0.2468 -0.1409  0.9997
   63TMC2    C1  975   0.737   1.799  10.952  0.2636 -0.3758  0.5121
   63TMC2    C2  976   0.853   1.830  11.013 -0.1574  0.0934  0.4171
   63TMC2    C3  977   0.944   1.901  10.939 -0.5793  0.0744  0.1306
   63TMC2    C4  978   0.712   1.822  10.822 -0.2367 -0.3280 -0.5350
   63TMC2    C5  979   0.812   1.882  10.751 -1.2610 -0.0241 -0.0144
   63TMC2    C6  980   0.932   1.930  10.808  0.1127  0.5174  0.3879
   63TMC2     C  981   0.661   1.692  11.018 -0.8006  0.6837 -0.1857
   63TMC2     O  982   0.682   1.682  11.136 -0.1700 -0.3301 -0.3466
   63TMC2     H  983   0.873   1.815  11.119 -1.5894  0.2672  0.7144
   63TMC2    H1  984   0.616   1.798  10.778  0.4537 -2.4881 -0.8508
   63TMC2    H2  985   1.012   1.979  10.754  0.1580 -0.3929 -0.3872
   63TMC2    C7  986   0.773   1.922  10.613  0.2110  0.0698 -0.2241
   63TMC2    C8  987   1.052   1.955  11.013 -0.2601  0.3230 -0.3608
   63TMC2    O1  988   0.654   1.910  10.582 -0.1970  0.5420  0.0993
   63TMC2    O2  989   1.165   1.966  10.972 -0.3238 -0.3207 -0.4133
   63TMC2    O5  990   0.993   2.039  11.103 -0.2224  0.3336  0.0328
   63TMC2    H5  991   0.896   2.020  11.097  0.2640 -2.0274 -0.4055
   64MPD2     C  992   0.329   1.295  11.046  0.0100  0.2006  0.7702
   64MPD2    C1  993   0.339   1.340  10.916 -0.0321  0.3486  0.3880
   64MPD2    C2  994   0.413   1.448  10.885 -0.0584 -0.2528  0.2450
   64MPD2    C3  995   0.487   1.512  10.982  0.1097 -0.2542  0.8003
   64MPD2    C4  996   0.477   1.467  11.110 -0.2029  0.6875  0.1900
   64MPD2    C5  997   0.398   1.357  11.145  0.6378  0.4894 -0.1429
   64MPD2     H  998   0.427   1.481  10.783  0.2121 -3.4720 -0.7241
   64MPD2    H1  999   0.526   1.524  11.189  0.9355 -2.5162  1.7991
   64MPD2    H2 1000   0.265   1.213  11.078 -1.5583 -0.0875 -3.1345
   64MPD2    H3 1001   0.402   1.328  11.249  0.7819  1.8254  0.2150
   64MPD2     N 1002   0.567   1.625  10.939  0.8584  0.1222  0.0097
   64MPD2    H5 1003   0.582   1.635  10.839  1.5277 -0.2506  0.0727
   64MPD2    N1 1004   0.302   1.273  10.801 -0.1784  0.1817 -0.4732
   64MPD2    H7 1005   0.331   1.313  10.713 -1.7360 -0.9849 -1.5184
   65TMC2    C1 1006   1.275   1.023  15.596 -0.3696 -0.5354 -0.1569
   65TMC2    C2 1007   1.323   1.011  15.465 -0.4416 -0.8339  0.1214
   65TMC2    C3 1008   1.301   1.119  15.382 -0.0346  0.8620  0.3524
   65TMC2    C4 1009   1.206   1.141  15.641 -0.1342 -0.2097 -0.4030
   65TMC2    C5 1010   1.210   1.245  15.553 -0.1053 -0.1772 -0.0317
   65TMC2    C6 1011   1.265   1.240  15.429  0.1129 -0.3759  0.0657
   65TMC2     C 1012   1.264   0.902  15.675 -0.2551  0.3860 -0.2673
   65TMC2     O 1013   1.190   0.900  15.771  0.3323  0.0420 -0.1666
   65TMC2     H 1014   1.333   0.919  15.407  0.7334 -1.4956  1.3655
   65TMC2    H1 1015   1.168   1.153  15.741  0.6978  1.8107 -0.3257
   65TMC2    H2 1016   1.275   1.333  15.373 -2.8826 -0.0601  0.0261
   65TMC2    C7 1017   1.178   1.373  15.604 -0.8166  0.7511 -0.0270
   65TMC2    C8 1018   1.375   1.123  15.259 -0.2165  0.6738 -0.3469
   65TMC2    O1 1019   1.244   1.466  15.558 -0.5860  0.7012 -0.7024
   65TMC2    O2 1020   1.468   1.039  15.245  0.4145  0.4528 -0.3786
   65TMC2    O5 1021   1.316   1.199  15.165  0.3073  0.3355 -0.0605
   65TMC2    H5 1022   1.234   1.248  15.185 -1.1527 -1.4250 -1.8176
   66MPD2     C 1023   1.326   0.653  15.819 -0.2635 -0.5796 -0.4714
   66MPD2    C1 1024   1.365   0.672  15.688  1.0032  0.0389 -0.3025
   66MPD2    C2 1025   1.415   0.569  15.613  0.1777  0.7891  0.2427
   66MPD2    C3 1026   1.436   0.445  15.667  0.1152  0.0066  0.0943
   66MPD2    C4 1027   1.390   0.424  15.795  0.3801  0.3552  0.3101
   66MPD2    C5 1028   1.334   0.529  15.878  0.2200  0.1388  0.7141
   66MPD2     H 1029   1.467   0.599  15.522 -0.2257 -2.0855 -0.9508
   66MPD2    H1 1030   1.396   0.324  15.835  0.1126  0.1161 -0.2659
   66MPD2    H2 1031   1.303   0.735  15.886 -2.8036 -0.4669 -1.4476
   66MPD2    H3 1032   1.308   0.507  15.981 -0.7590  1.1756  0.6821
   66MPD2     N 1033   1.484   0.335  15.593  0.2170 -0.0047  0.8109
   66MPD2    H5 1034   1.491   0.247  15.643 -0.8016 -0.6903 -0.2397
   66MPD2    N1 1035   1.342   0.797  15.620 -0.7061  0.1320 -0.3575
   66MPD2    H7 1036   1.401   0.815  15.539 -1.7728 -0.0541 -1.1747
   67TMC2    C1 1037   1.552   0.329  14.578  0.8844  0.1583 -0.3414
   67TMC2    C2 1038   1.490   0.452  14.575  0.3712  0.9473 -0.5181
   67TMC2    C3 1039   1.521   0.549  14.665  0.0230  0.1826  0.1658
   67TMC2    C4 1040   1.650   0.305  14.670  0.2688 -0.1837 -0.3698
   67TMC2    C5 1041   1.665   0.400  14.770  0.3449  0.2425  0.1525
   67TMC2    C6 1042   1.596   0.514  14.779  0.8352 -0.3541  0.4510
   67TMC2     C 1043   1.544   0.239  14.460 -0.3398 -0.7512  0.5509
   67TMC2     O 1044   1.646   0.184  14.418 -0.6297  0.4857 -0.2904
   67TMC2     H 1045   1.421   0.483  14.498 -1.3042 -1.8107 -0.1517
   67TMC2    H1 1046   1.699   0.208  14.673 -0.7105 -0.6856 -0.4837
   67TMC2    H2 1047   1.628   0.595  14.844 -1.0552  0.2958  0.5743
   67TMC2    C7 1048   1.766   0.375  14.871  0.0384  0.0033 -0.0307
   67TMC2    C8 1049   1.489   0.692  14.643  0.6000  0.0915 -0.1711
   67TMC2    O1 1050   1.854   0.299  14.833  0.6523 -0.2990 -0.2255
   67TMC2    O2 1051   1.494   0.769  14.735  0.2932  0.1396  0.0799
   67TMC2    O5 1052   1.523   0.715  14.517 -0.4867  0.6243 -0.3673
   67TMC2    H5 1053   1.526   0.637  14.457  1.2550 -0.9298  1.7592
   68MPD2     C 1054   1.492   0.163  14.174 -0.5659  0.1773  0.5810
   68MPD2    C1 1055   1.396   0.213  14.256 -0.1275 -0.3461  0.2997
   68MPD2    C2 1056   1.267   0.225  14.217 -0.9658 -0.2212  0.2657
   68MPD2    C3 1057   1.236   0.187  14.090  0.1213 -1.1654 -0.1041
   68MPD2    C4 1058   1.327   0.132  14.003  0.0900 -0.5999 -0.1084
   68MPD2    C5 1059   1.454   0.123  14.047 -0.2375 -0.2249  0.5598
   68MPD2     H 1060   1.197   0.253  14.294  0.3511  2.3408  0.5274
   68MPD2    H1 1061   1.301   0.089  13.907  0.6074 -1.4847  0.1458
   68MPD2    H2 1062   1.598   0.165  14.194 -0.2819 -0.6918 -0.8889
   68MPD2    H3 1063   1.535   0.087  13.985 -0.5371 -0.8936  0.5621
   68MPD2     N 1064   1.098   0.194  14.052 -0.3434 -0.6099  0.1803
   68MPD2    H5 1065   1.077   0.197  13.953  0.6340  0.8909  0.0180
   68MPD2    N1 1066   1.424   0.254  14.391 -0.3320  0.4578  0.2192
   68MPD2    H7 1067   1.345   0.287  14.446 -0.8612 -1.7955  0.8452
   69TMC2    C1 1068   3.036   1.535  12.531 -0.4022  0.8567  0.6855
   69TMC2    C2 1069   2.906   1.594  12.526  0.7963  0.0759  0.0921
   69TMC2    C3 1070   2.876   1.673  12.426  0.2138 -0.3266 -0.5351
   69TMC2    C4 1071   3.130   1.560  12.443 -0.6886 -0.5616  0.2636
   69TMC2    C5 1072   3.098   1.642  12.337  0.3843  0.8814  0.3123
   69TMC2    C6 1073   2.969   1.696  12.327 -0.0345  0.4821 -0.0610
   69TMC2     C 1074   3.057   1.443  12.636 -0.0831  0.2228 -0.8418
   69TMC2     O 1075   2.971   1.367  12.671 -0.1545 -0.7127  0.1953
   69TMC2     H 1076   2.837   1.576  12.607  0.9398 -1.2414 -0.0805
   69TMC2    H1 1077   3.215   1.494  12.428  1.1477  1.5284  1.4194
   69TMC2    H2 1078   2.940   1.761  12.244 -0.9931  0.9073  0.6089
   69TMC2    C7 1079   3.197   1.667  12.236  0.7650 -0.4507  0.7419
   69TMC2    C8 1080   2.736   1.685  12.388 -1.0702 -0.5810 -0.2938
   69TMC2    O1 1081   3.308   1.628  12.267 -0.9053  0.1716  0.1099
   69TMC2    O2 1082   2.651   1.704  12.470 -0.3462 -0.1390 -0.5883
   69TMC2    O5 1083   2.721   1.637  12.265 -0.1213 -0.4015 -0.4281
   69TMC2    H5 1084   2.797   1.586  12.229  0.0323  1.1867 -2.3787
   70MPD2     C 1085   3.394   1.400  12.770  0.1708  0.2635  0.0694
   70MPD2    C1 1086   3.265   1.374  12.756 -0.0433 -0.2636 -0.3650
   70MPD2    C2 1087   3.211   1.270  12.831 -0.1793  0.8864  0.0495
   70MPD2    C3 1088   3.291   1.180  12.906  0.5826  0.5646  0.1609
   70MPD2    C4 1089   3.422   1.212  12.922 -0.1623  0.0807  0.2590
   70MPD2    C5 1090   3.474   1.320  12.849  0.0074  0.7396 -0.4151
   70MPD2     H 1091   3.106   1.251  12.813  0.2529 -2.0657  0.6584
   70MPD2    H1 1092   3.491   1.152  12.980 -1.0734 -0.1804  1.0629
   70MPD2    H2 1093   3.434   1.490  12.723  2.7590  1.0391  3.7201
   70MPD2    H3 1094   3.578   1.349  12.860 -0.6775  2.8694  0.4051
   70MPD2     N 1095   3.238   1.062  12.956  0.3420  0.5542  0.1803
   70MPD2    H5 1096   3.302   0.996  12.999 -0.4829 -0.4514 -0.1516
   70MPD2    N1 1097   3.191   1.461  12.669  0.0419 -0.0640  0.3126
   70MPD2    H7 1098   3.233   1.546  12.632  1.1706 -0.0252  1.6893
   71TMC2    C1 1099   1.265   1.888   1.053 -0.0854 -0.2623 -0.5687
   71TMC2    C2 1100   1.384   1.933   1.107  0.1370  0.0615 -0.1823
   71TMC2    C3 1101   1.450   1.863   1.203 -0.2179  0.3628  0.1503
   71TMC2    C4 1102   1.205   1.780   1.109 -0.4148 -0.3902  0.0418
   71TMC2    C5 1103   1.260   1.719   1.214  0.2520  0.3238  0.7573
   71TMC2    C6 1104   1.384   1.758   1.259 -0.4324  0.4090  0.1268
   71TMC2     C 1105   1.220   1.948   0.927 -0.7533  0.0351  0.0116
   71TMC2     O 1106   1.286   2.046   0.897  0.6740 -0.3492 -0.4702
   71TMC2     H 1107   1.439   2.018   1.069  1.6887 -0.0734  1.7588
   71TMC2    H1 1108   1.104   1.758   1.076 -1.1093  0.3154  1.6546
   71TMC2    H2 1109   1.431   1.693   1.331 -0.5106 -1.0978 -1.1720
   71TMC2    C7 1110   1.195   1.613   1.292  0.3261 -0.3039 -0.1978
   71TMC2    C8 1111   1.594   1.861   1.172  0.5909 -0.1239  0.0582
   71TMC2    O1 1112   1.267   1.556   1.375  0.2511 -0.4201  0.1580
   71TMC2    O2 1113   1.635   1.864   1.059 -0.4526  0.5557 -0.5075
   71TMC2    O5 1114   1.660   1.925   1.264 -0.1210 -0.5086 -0.5172
   71TMC2    H5 1115   1.607   1.929   1.346  0.3703  1.2829 -0.2899
   72MPD2     C 1116   0.921   1.963   0.510 -0.8399 -0.4653 -0.1184
   72MPD2    C1 1117   1.019   2.050   0.556 -0.4694 -0.4213  0.4992
   72MPD2    C2 1118   1.103   2.016   0.663 -0.0326  0.2372 -0.1684
   72MPD2    C3 1119   1.071   1.898   0.730  0.2191  0.4746  0.5662
   72MPD2    C4 1120   0.971   1.812   0.687  0.5195  0.2590 -0.4334
   72MPD2    C5 1121   0.888   1.848   0.583  0.4319  0.3749 -0.0918
   72MPD2     H 1122   1.191   2.072   0.693 -0.3413 -0.0713  1.3453
   72MPD2    H1 1123   0.949   1.722   0.742  1.5300  1.2178  1.5423
   72MPD2    H2 1124   0.857   1.975   0.423 -0.7870  1.1702  0.0716
   72MPD2    H3 1125   0.800   1.790   0.561 -0.0860  0.8035  0.8197
   72MPD2     N 1126   1.131   1.868   0.855  0.0685  0.4227 -0.1255
   72MPD2    H5 1127   1.101   1.780   0.896  2.8304  0.0957  1.1706
   72MPD2    N1 1128   1.043   2.165   0.485 -0.0818  0.0621  0.0437
   72MPD2    H7 1129   1.117   2.223   0.522  1.0069 -1.0679 -0.3428
   73TMC2    C1 1130   0.528   4.288  14.323 -0.1801  0.0124 -0.1015
   73TMC2    C2 1131   0.467   4.369  14.414 -0.1389 -0.0419 -0.4917
   73TMC2    C3 1132   0.464   4.329  14.543 -0.0204  0.0890 -0.1414
   73TMC2    C4 1133   0.580   4.170  14.362  0.7288  0.2208  0.7903
   73TMC2    C5 1134   0.576   4.136  14.497  0.1936  0.0257  0.3844
   73TMC2    C6 1135   0.522   4.213  14.590 -0.3516  0.0079  0.5669
   73TMC2     C 1136   0.632   4.362  14.258  0.4075  0.2821 -0.0094
   73TMC2     O 1137   0.740   4.307  14.253  0.2139 -0.1185  0.0239
   73TMC2     H 1138   0.426   4.466  14.388  1.7675  0.7904 -0.3937
   73TMC2    H1 1139   0.610   4.095  14.290  2.2138  0.5698  1.0324
   73TMC2    H2 1140   0.540   4.185  14.693 -1.6165  1.3675  1.1670
   73TMC2    C7 1141   0.695   4.071  14.545 -0.0239 -0.0850  0.1515
   73TMC2    C8 1142   0.421   4.427  14.637 -0.0444 -0.5345  0.1958
   73TMC2    O1 1143   0.688   3.987  14.631  0.5460  0.1852 -0.1825
   73TMC2    O2 1144   0.407   4.544  14.599 -0.0857  0.0869  0.2929
   73TMC2    O5 1145   0.402   4.368  14.754 -0.3433  0.0231  0.0509
   73TMC2    H5 1146   0.427   4.273  14.756  0.8625  0.3447  0.3648
   74MPD2     C 1147   0.834   4.695  13.957 -0.0769  0.5595 -0.1222
   74MPD2    C1 1148   0.898   4.609  14.048  0.1143  0.5397  0.4989
   74MPD2    C2 1149   0.824   4.558  14.144  0.0109 -0.3925 -0.3030
   74MPD2    C3 1150   0.682   4.567  14.129  0.6254 -0.0041 -0.0606
   74MPD2    C4 1151   0.622   4.647  14.036 -0.0010 -0.0248 -0.1913
   74MPD2    C5 1152   0.698   4.721  13.957  0.6483 -0.2590  0.9970
   74MPD2     H 1153   0.864   4.484  14.212  0.4953  0.1091 -0.0425
   74MPD2    H1 1154   0.514   4.649  14.039 -0.0110  1.4066 -1.3161
   74MPD2    H2 1155   0.882   0.012  13.876 -1.4201 -0.9322 -1.8975
   74MPD2    H3 1156   0.656   0.060  13.892  1.0918 -1.6705 -0.9154
   74MPD2     N 1157   0.592   4.487  14.210  0.0615  1.0109  0.9347
   74MPD2    H5 1158   0.494   4.511  14.213 -0.0213  0.9650 -1.3460
   74MPD2    N1 1159   1.033   4.588  14.040  0.3549  0.0310 -0.6223
   74MPD2    H7 1160   1.088   4.614  13.958  2.1545 -0.2011  0.5003
   75TMC2    C1 1161   0.868   0.274  14.077 -0.8001 -0.1850 -0.1883
   75TMC2    C2 1162   0.758   0.306  14.154 -0.7489 -0.4227  0.4480
   75TMC2    C3 1163   0.647   0.349  14.090 -0.6505 -0.5250  0.8982
   75TMC2    C4 1164   0.867   0.292  13.935 -0.3715  0.9965  0.3562
   75TMC2    C5 1165   0.757   0.351  13.883 -0.5796 -0.2007  0.4109
   75TMC2    C6 1166   0.644   0.379  13.959 -0.4008  0.3500  0.4909
   75TMC2     C 1167   0.990   0.227  14.136  0.8257  0.2311  0.0094
   75TMC2     O 1168   0.978   0.211  14.255 -0.3102 -0.1943  0.0259
   75TMC2     H 1169   0.763   0.312  14.262 -2.0433  1.3302  0.4194
   75TMC2    H1 1170   0.951   0.260  13.875 -1.0094 -1.2477  0.6598
   75TMC2    H2 1171   0.556   0.428  13.917 -1.6819 -1.3393  1.1779
   75TMC2    C7 1172   0.757   0.391  13.741  0.5463  0.0647  0.4909
   75TMC2    C8 1173   0.546   0.427  14.163 -0.2439  1.3164  0.5078
   75TMC2    O1 1174   0.821   0.313  13.666  0.3229 -0.2487 -0.9823
   75TMC2    O2 1175   0.552   0.479  14.275 -0.7024  0.1938 -0.3572
   75TMC2    O5 1176   0.432   0.387  14.106 -0.0226  0.1721 -0.4153
   75TMC2    H5 1177   0.441   0.336  14.023  0.5684  0.1548 -0.3403
   76TMC2    C1 1178   4.714   1.449  12.154  0.0269 -0.3135 -1.4832
   76TMC2    C2 1179   0.100   1.512  12.133  0.4252 -0.2181 -0.2356
   76TMC2    C3 1180   0.207   1.435  12.157 -0.0936 -0.1494 -0.2827
   76TMC2    C4 1181   4.694   1.323  12.199 -0.0249 -0.3455 -0.5738
   76TMC2    C5 1182   0.065   1.249  12.215  0.1174  0.0394 -0.3985
   76TMC2    C6 1183   0.193   1.306  12.205 -0.1387  0.1607  0.5638
   76TMC2     C 1184   4.599   1.539  12.156 -1.0253  0.5307 -0.1279
   76TMC2     O 1185   4.486   1.494  12.174  0.1228  0.4763 -0.0345
   76TMC2     H 1186   0.115   1.614  12.101  2.2869 -0.4954 -0.2101
   76TMC2    H1 1187   4.594   1.285  12.215 -0.4573  2.1355  2.7546
   76TMC2    H2 1188   0.279   1.242  12.225 -0.9489 -0.8282  0.9195
   76TMC2    C7 1189   0.054   1.119  12.282  0.3712  0.3012 -0.1718
   76TMC2    C8 1190   0.337   1.486  12.120  0.7802 -0.6396  0.1088
   76TMC2    O1 1191   4.702   1.047  12.243  0.1055 -0.2273 -0.3404
   76TMC2    O2 1192   0.427   1.490  12.204 -0.2248 -0.0068 -0.3198
   76TMC2    O5 1193   0.355   1.480  11.989  0.8197  0.2931 -0.2974
   76TMC2    H5 1194   0.268   1.467  11.945 -0.0542 -0.4501  1.6504
   77MPD2     C 1195   4.376   1.981  12.036  0.3309  0.5006 -0.6799
   77MPD2    C1 1196   4.320   1.856  12.050  0.4112  0.4804 -0.2842
   77MPD2    C2 1197   4.402   1.751  12.079  0.4449  0.4616  0.1573
   77MPD2    C3 1198   4.535   1.769  12.109 -0.1036  0.7228  0.9566
   77MPD2    C4 1199   4.578   1.900  12.116  0.0969  0.0060  1.4991
   77MPD2    C5 1200   4.503   2.004  12.080 -0.2012 -0.8091 -0.6111
   77MPD2     H 1201   4.356   1.653  12.072  0.5576  0.1323  3.6002
   77MPD2    H1 1202   4.681   1.923  12.142  0.2504 -0.9387  1.7231
   77MPD2    H2 1203   4.316   2.059  11.990 -0.9967  1.3794  2.5403
   77MPD2    H3 1204   4.551   2.101  12.067 -0.1545 -1.1191 -2.6731
   77MPD2     N 1205   4.634   1.675  12.139  0.0821 -0.8890 -0.3325
   77MPD2    H5 1206   4.730   1.704  12.156  0.3742 -1.7083 -0.5896
   77MPD2    N1 1207   4.183   1.850  12.027  0.4383  0.4810  0.4517
   77MPD2    H7 1208   4.134   1.935  11.998  0.6312  0.2777 -0.4510
   78TMC2    C1 1209   1.186   2.405   1.328 -0.6661 -0.8010  0.4055
   78TMC2    C2 1210   1.165   2.535   1.311 -0.4381 -0.0691  0.2066
   78TMC2    C3 1211   1.258   2.628   1.347 -0.9323 -0.3302 -0.0283
   78TMC2    C4 1212   1.297   2.354   1.393  0.1981  0.2251  0.3214
   78TMC2    C5 1213   1.394   2.450   1.420 -0.2328 -0.3448  0.7838
   78TMC2    C6 1214   1.367   2.588   1.414 -0.3097  0.2576  0.1418
   78TMC2     C 1215   1.090   2.314   1.270 -0.3609  0.2033 -0.3601
   78TMC2     O 1216   1.013   2.362   1.189 -0.1003 -0.0798 -0.3436
   78TMC2     H 1217   1.078   2.569   1.257 -1.7217  0.2624  2.4958
   78TMC2    H1 1218   1.321   2.249   1.386 -0.7931  0.0439 -0.3170
   78TMC2    H2 1219   1.445   2.663   1.413 -0.6487  0.6841  3.6198
   78TMC2    C7 1220   1.521   2.402   1.468  0.2328  0.1380  0.1603
   78TMC2    C8 1221   1.215   2.766   1.353  0.1148  0.8050 -0.7091
   78TMC2    O1 1222   1.544   2.281   1.451 -0.1477  0.2617  0.0049
   78TMC2    O2 1223   1.135   2.814   1.279  0.0987 -0.2275  0.6162
   78TMC2    O5 1224   1.238   2.808   1.480  0.3135  0.3340 -0.7275
   78TMC2    H5 1225   1.313   2.763   1.525 -0.0844 -0.5316 -0.9233
   79MPD1     C 1226   0.865   1.857   1.207 -0.5294 -0.8083  0.0633
   79MPD1    C1 1227   0.891   1.961   1.115 -0.0030 -0.2492  0.7190
   79MPD1    C2 1228   0.959   2.073   1.159  0.7382  0.0945 -0.0587
   79MPD1    C3 1229   1.010   2.084   1.290 -0.2253  0.4697  0.0868
   79MPD1    C4 1230   0.987   1.979   1.371 -0.1186  0.1552  0.5953
   79MPD1    C5 1231   0.912   1.871   1.339  0.2754 -0.2438 -0.1598
   79MPD1     H 1232   0.966   2.165   1.101  0.0803 -0.9892 -1.8256
   79MPD1    H1 1233   1.010   1.984   1.477  1.6354 -0.6142  0.2602
   79MPD1    H2 1234   0.806   1.775   1.168 -0.4893 -0.6267 -0.3736
   79MPD1    H3 1235   0.899   1.790   1.409  0.2127  0.2332  0.3754
   79MPD1     N 1236   1.091   2.191   1.336 -0.1194  0.3866 -0.4803
   79MPD1    H5 1237   1.138   2.169   1.424 -1.1559  1.3523  0.3086
   79MPD1    N1 1238   0.833   1.960   0.991 -0.0365  0.4144  0.5823
   79MPD1    H6 1239   0.800   1.868   0.964 -2.8969  1.6413 -0.1727
   79MPD1    H7 1240   0.904   1.987   0.923  0.4504  0.1110  0.9739
   80TMC2    C1 1241   3.731   0.119  11.479 -0.0196 -0.0432 -0.5111
   80TMC2    C2 1242   3.814   0.137  11.374  0.0259 -0.2504 -0.0316
   80TMC2    C3 1243   3.849   0.020  11.308  0.2903  0.2618  0.1922
   80TMC2    C4 1244   3.686   4.729  11.517  0.5547  0.2120 -0.0286
   80TMC2    C5 1245   3.722   4.622  11.451 -0.2104 -0.1687 -0.2266
   80TMC2    C6 1246   3.809   4.629  11.346  0.1944 -0.1975  0.0257
   80TMC2     C 1247   3.655   0.244  11.502  0.4394 -0.0006 -0.6799
   80TMC2     O 1248   3.640   0.318  11.406  0.3055 -0.2642 -0.0548
   80TMC2     H 1249   3.856   0.236  11.356  0.6788 -0.5383 -0.0771
   80TMC2    H1 1250   3.595   4.715  11.573  1.5994  0.7159  1.8069
   80TMC2    H2 1251   3.835   4.545  11.282  0.8090 -1.0864  1.4579
   80TMC2    C7 1252   3.656   4.491  11.467 -0.1563  0.5445  0.3428
   80TMC2    C8 1253   3.937   0.018  11.190 -0.1383 -0.3572  0.0760
   80TMC2    O1 1254   3.665   4.415  11.372  0.0722 -0.0201 -0.0922
   80TMC2    O2 1255   4.003   4.656  11.160 -0.1236 -0.1490 -0.5604
   80TMC2    O5 1256   3.915   0.130  11.115 -0.5419  0.1155 -0.0068
   80TMC2    H5 1257   3.867   0.207  11.151  1.9628  0.8665  1.7424
   81MPD2     C 1258   3.541   0.491  11.620  0.1185  0.1631  0.5349
   81MPD2    C1 1259   3.522   0.364  11.674  0.4425 -0.2336 -0.0487
   81MPD2    C2 1260   3.439   0.351  11.785 -0.1728  0.4394 -0.7589
   81MPD2    C3 1261   3.355   0.457  11.824 -0.1331  0.3772 -0.3359
   81MPD2    C4 1262   3.368   0.577  11.753 -0.6511  0.3379  0.2465
   81MPD2    C5 1263   3.463   0.590  11.657  0.0280 -0.5878  0.0249
   81MPD2     H 1264   3.435   0.254  11.835 -1.5554  1.7676  1.7334
   81MPD2    H1 1265   3.304   0.659  11.782 -0.0513  0.8567  0.0879
   81MPD2    H2 1266   3.616   0.516  11.546  1.3560 -0.3381  1.6106
   81MPD2    H3 1267   3.477   0.684  11.604  0.5643  0.3243  1.7643
   81MPD2     N 1268   3.274   0.459  11.934 -0.0322  0.4980 -0.0070
   81MPD2    H5 1269   3.227   0.548  11.945 -0.8984 -0.0538  0.7279
   81MPD2    N1 1270   3.587   0.248  11.621  0.0977  0.3111 -0.4756
   81MPD2    H7 1271   3.582   0.170  11.687  1.6394 -0.0547 -0.7881
   82TMC2    C1 1272   1.980   4.349  11.455 -0.3221  0.5606  0.1849
   82TMC2    C2 1273   2.087   4.432  11.439  0.4248 -0.3080  0.2045
   82TMC2    C3 1274   2.185   4.422  11.528 -0.3499  1.2242  0.3919
   82TMC2    C4 1275   1.984   4.257  11.557  0.1723  0.3143 -0.1375
   82TMC2    C5 1276   2.086   4.250  11.647  0.1214 -0.7531  0.6697
   82TMC2    C6 1277   2.199   4.327  11.626  0.6938 -0.2010  0.4709
   82TMC2     C 1278   1.866   4.365  11.366  0.8652  1.1742 -0.6771
   82TMC2     O 1279   1.874   4.443  11.272  0.0557  0.2212 -0.1417
   82TMC2     H 1280   2.087   4.512  11.365  0.5881  1.2471  1.9042
   82TMC2    H1 1281   1.906   4.181  11.560 -2.1834  2.7862  1.1593
   82TMC2    H2 1282   2.300   4.312  11.663  1.6470  0.6389 -1.7867
   82TMC2    C7 1283   2.095   4.122  11.723  0.6072 -0.3454  0.3206
   82TMC2    C8 1284   2.306   4.506  11.518 -0.8946  0.1666  0.3008
   82TMC2    O1 1285   2.002   4.046  11.720  0.0317  0.7059 -0.8593
   82TMC2    O2 1286   2.349   4.559  11.416 -0.0927  0.2203  0.0914
   82TMC2    O5 1287   2.291   4.580  11.628  0.2593 -0.2548 -0.1197
   82TMC2    H5 1288   2.231   4.536  11.692 -0.9418  0.7447 -0.5686
   83MPD2     C 1289   1.402   4.244  11.181 -0.2579 -0.6354  0.6248
   83MPD2    C1 1290   1.468   4.362  11.166 -0.9647 -0.2917  0.8319
   83MPD2    C2 1291   1.586   4.386  11.245 -0.1762 -0.6249  0.4832
   83MPD2    C3 1292   1.636   4.286  11.328 -0.0304 -0.1854 -0.1025
   83MPD2    C4 1293   1.558   4.177  11.346 -0.6689 -0.3607 -0.2578
   83MPD2    C5 1294   1.439   4.161  11.282 -0.0963  0.0963 -0.3245
   83MPD2     H 1295   1.643   4.478  11.236 -1.1460 -0.1848 -1.2289
   83MPD2    H1 1296   1.598   4.102  11.413  0.6491  0.9910  0.4917
   83MPD2    H2 1297   1.305   4.219  11.139  0.6970 -1.2233 -1.2458
   83MPD2    H3 1298   1.377   4.076  11.308  2.2597 -1.4844  0.0775
   83MPD2     N 1299   1.754   4.283  11.398  0.2095  0.2834  0.1147
   83MPD2    H5 1300   1.754   4.223  11.480  0.7824  1.7312  1.1703
   83MPD2    N1 1301   1.418   4.445  11.070 -0.2359  0.0999  0.9323
   83MPD2    H7 1302   1.325   4.436  11.031 -0.0628 -0.7599  0.7315
   84TMC2    C1 1303   3.121   4.032  10.884  0.6297 -0.5090  0.0371
   84TMC2    C2 1304   3.193   4.130  10.819  0.6521 -0.3299  0.0118
   84TMC2    C3 1305   3.220   4.117  10.683 -1.1240 -0.0844  0.1802
   84TMC2    C4 1306   3.068   3.928  10.811  0.0246 -0.2391 -0.3721
   84TMC2    C5 1307   3.098   3.922  10.676  0.3473 -0.6939 -0.1704
   84TMC2    C6 1308   3.179   4.014  10.608 -0.0480  0.3419 -0.3482
   84TMC2     C 1309   3.043   4.094  10.989 -0.1108 -0.2611  0.5472
   84TMC2     O 1310   3.072   4.210  11.008  0.1046  0.7504 -1.1131
   84TMC2     H 1311   3.244   4.206  10.878  0.5948 -1.0975  1.0400
   84TMC2    H1 1312   3.010   3.846  10.851  0.9785 -0.8640 -0.2434
   84TMC2    H2 1313   3.208   4.003  10.504  0.4540 -1.4763 -0.0108
   84TMC2    C7 1314   3.041   3.806  10.607  0.4580  0.0460 -0.2416
   84TMC2    C8 1315   3.316   4.211  10.619 -0.4943 -0.9234  0.0282
   84TMC2    O1 1316   3.003   3.711  10.673  0.2046  0.2222  0.3208
   84TMC2    O2 1317   3.345   4.192  10.501  0.3315  0.1722  0.1977
   84TMC2    O5 1318   3.332   4.325  10.675  0.0677 -0.2225  0.0290
   84TMC2    H5 1319   3.342   4.328  10.773  2.3536  2.6447 -0.2971
   85TMC2    C1 1320   3.249   1.956  16.039  0.6404  0.0423  0.4217
   85TMC2    C2 1321   3.146   1.993  15.963  0.6231  0.3266  0.1964
   85TMC2    C3 1322   3.168   2.065  15.850 -0.2685 -0.3975 -0.6555
   85TMC2    C4 1323   3.376   1.992  16.014  0.2992 -0.0603  0.8220
   85TMC2    C5 1324   3.397   2.062  15.899 -0.0968  0.2804  0.0228
   85TMC2    C6 1325   3.299   2.104  15.814  0.4578 -0.9053 -0.4548
   85TMC2     C 1326   3.220   1.901  16.173  0.4098  0.1535 -0.3682
   85TMC2     O 1327   3.261   1.963  16.269 -0.1231  0.8116  0.2563
   85TMC2     H 1328   3.045   1.986  16.000  1.3567 -2.1768  1.6868
   85TMC2    H1 1329   3.448   1.950  16.083  2.1302 -1.6620 -2.0871
   85TMC2    H2 1330   3.315   2.155  15.719 -1.1316 -1.1516 -0.8519
   85TMC2    C7 1331   3.532   2.100  15.862  0.1526 -0.0924 -0.0505
   85TMC2    C8 1332   3.060   2.088  15.749  0.3741  0.2255  0.6468
   85TMC2    O1 1333   3.613   2.021  15.911 -0.2007 -0.7953 -0.7078
   85TMC2    O2 1334   3.067   2.159  15.651  0.2968  0.3012  0.2838
   85TMC2    O5 1335   3.014   1.957  15.744 -0.8908 -0.2557  0.0232
   85TMC2    H5 1336   3.037   1.896  15.818 -1.1234 -3.1383 -2.2769
   86MPD2     C 1337   2.961   1.575  16.471  0.0281  0.0976  0.3620
   86MPD2    C1 1338   2.918   1.548  16.344  0.4602 -0.2228  0.0507
   86MPD2    C2 1339   2.982   1.615  16.246 -0.5452  0.3510 -0.0254
   86MPD2    C3 1340   3.066   1.729  16.269 -0.1706 -0.3521  0.5401
   86MPD2    C4 1341   3.093   1.762  16.398 -0.1776 -0.0806  0.3380
   86MPD2    C5 1342   3.043   1.687  16.495 -0.5507 -0.5344 -0.1504
   86MPD2     H 1343   2.960   1.593  16.142  0.5621  0.6390 -0.3269
   86MPD2    H1 1344   3.168   1.834  16.429  0.2177 -0.0034 -0.8306
   86MPD2    H2 1345   2.945   1.506  16.553 -2.4060  0.1173 -0.1131
   86MPD2    H3 1346   3.091   1.690  16.592 -0.2237  0.1668 -0.3347
   86MPD2     N 1347   3.120   1.806  16.160 -0.0097  0.0606 -0.0775
   86MPD2    H5 1348   3.103   1.769  16.067 -1.0984 -1.4557  0.7110
   86MPD2    N1 1349   2.821   1.454  16.306  0.3405  1.0534 -0.8633
   86MPD2    H7 1350   2.792   1.449  16.209  0.6984  0.1167 -0.9330
   87TMC2    C1 1351   2.022   0.568   1.159  0.6536 -0.3822  0.2340
   87TMC2    C2 1352   2.100   0.662   1.224 -0.1296 -0.2906  0.4145
   87TMC2    C3 1353   2.034   0.751   1.295 -0.1762 -0.4004  0.6635
   87TMC2    C4 1354   1.886   0.569   1.161  0.7686 -0.3066  0.4621
   87TMC2    C5 1355   1.821   0.662   1.234 -0.0325  0.0030  0.0454
   87TMC2    C6 1356   1.896   0.753   1.304 -0.4727 -0.3208  0.5302
   87TMC2     C 1357   2.084   0.473   1.070  0.3276 -0.2066  0.6965
   87TMC2     O 1358   2.005   0.387   1.031  0.3541 -0.1939  0.3918
   87TMC2     H 1359   2.206   0.643   1.240  0.6357  2.7327 -1.1016
   87TMC2    H1 1360   1.831   0.513   1.086 -0.4854 -0.3107  1.3877
   87TMC2    H2 1361   1.853   0.822   1.377 -1.7386 -0.3493 -0.1966
   87TMC2    C7 1362   1.679   0.672   1.231 -0.0093  0.3284  0.5829
   87TMC2    C8 1363   2.117   0.829   1.379  0.2926 -0.1036  0.1787
   87TMC2    O1 1364   1.635   0.781   1.262  0.2077 -0.0015  0.3681
   87TMC2    O2 1365   2.089   0.869   1.495  0.2359 -0.0958 -0.2558
   87TMC2    O5 1366   2.211   0.880   1.312 -0.0742  0.1812  0.4821
   87TMC2    H5 1367   2.206   0.863   1.215 -1.3985 -0.1894  0.6223
   88MPD2     C 1368   1.442   0.442   1.055 -0.1747 -0.3816  0.0213
   88MPD2    C1 1369   1.486   0.551   1.118 -0.4344  0.5435 -0.3531
   88MPD2    C2 1370   1.401   0.665   1.132  0.5922  0.0295  0.5249
   88MPD2    C3 1371   1.279   0.668   1.067  0.8144 -0.3712 -0.5905
   88MPD2    C4 1372   1.240   0.555   0.996  0.3721  0.2377  0.1286
   88MPD2    C5 1373   1.319   0.443   0.996  0.4247  0.3326 -0.0842
   88MPD2     H 1374   1.433   0.744   1.200  0.2442 -1.9094  2.9340
   88MPD2    H1 1375   1.141   0.549   0.953 -0.2061 -0.2490  1.5287
   88MPD2    H2 1376   1.500   0.350   1.056 -1.3240 -1.0976  1.0220
   88MPD2    H3 1377   1.280   0.350   0.955  0.0947  0.5616 -0.2833
   88MPD2     N 1378   1.192   0.779   1.067 -0.1238 -0.0473  0.4510
   88MPD2    H5 1379   1.100   0.763   1.025  0.1409 -1.0634  0.2530
   88MPD2    N1 1380   1.617   0.562   1.174 -0.1915  0.8861  0.2328
   88MPD2    H7 1381   1.673   0.478   1.164 -0.1610  0.9887 -0.4329
   89TMC2    C1 1382   3.034   2.690   1.632  0.3848  0.6183  0.1855
   89TMC2    C2 1383   3.138   2.696   1.542  0.0493 -0.3191  0.0192
   89TMC2    C3 1384   3.185   2.822   1.509  0.1162 -0.5221 -0.7984
   89TMC2    C4 1385   2.980   2.803   1.690  0.1528  0.3299 -0.5104
   89TMC2    C5 1386   3.028   2.923   1.662 -0.3351  0.0971 -0.1874
   89TMC2    C6 1387   3.136   2.935   1.581  0.8693  0.4636  0.1301
   89TMC2     C 1388   2.942   2.579   1.603  0.7794 -0.6346  0.2741
   89TMC2     O 1389   2.999   2.471   1.593 -0.6109  0.4387 -0.2208
   89TMC2     H 1390   3.167   2.611   1.480 -2.3632 -1.3080  0.2348
   89TMC2    H1 1391   2.885   2.794   1.741  0.5179  0.5398  0.2030
   89TMC2    H2 1392   3.182   3.032   1.565 -2.3234  1.5260 -2.5570
   89TMC2    C7 1393   2.957   3.041   1.716  0.4476  0.5621  0.2134
   89TMC2    C8 1394   3.298   2.849   1.422  0.0400  0.8678 -0.2541
   89TMC2    O1 1395   2.909   3.027   1.830 -0.0439  0.0871 -0.3708
   89TMC2    O2 1396   3.384   2.930   1.448 -0.0935 -0.2088  0.6353
   89TMC2    O5 1397   3.285   2.774   1.309 -0.0831  0.0097 -0.2628
   89TMC2    H5 1398   3.205   2.718   1.303  0.6165 -1.0551  0.3111
   90MPD2     C 1399   2.484   2.365   1.521 -0.3633  0.4665 -0.3026
   90MPD2    C1 1400   2.468   2.499   1.542  0.0207  0.7656  0.5164
   90MPD2    C2 1401   2.575   2.574   1.579 -0.0692  0.6383 -0.6704
   90MPD2    C3 1402   2.701   2.521   1.586  0.5430  0.0132 -0.1516
   90MPD2    C4 1403   2.715   2.382   1.570 -0.5388  0.0865  1.1826
   90MPD2    C5 1404   2.603   2.310   1.546 -0.4408 -0.9623 -0.5825
   90MPD2     H 1405   2.554   2.678   1.601  0.6045  0.2205  2.0238
   90MPD2    H1 1406   2.804   2.320   1.566  0.7642  2.0744 -0.3686
   90MPD2    H2 1407   2.403   2.293   1.512 -0.6817  0.5218  2.1870
   90MPD2    H3 1408   2.605   2.202   1.550  0.4272 -1.1258 -5.0180
   90MPD2     N 1409   2.812   2.610   1.596  0.1799  0.6704  0.1231
   90MPD2    H5 1410   2.773   2.703   1.608 -2.5640 -0.6102  1.3609
   90MPD2    N1 1411   2.345   2.563   1.531  0.1122  0.2170  0.4539
   90MPD2    H7 1412   2.340   2.664   1.533 -3.6714  0.0277  1.1320
   91TMC2    C1 1413   2.883   2.785  16.659  0.1781  0.2511  0.1662
   91TMC2    C2 1414   2.864   2.800  16.799  0.4615  0.3121 -0.4641
   91TMC2    C3 1415   2.749   2.744  16.851 -0.0856  0.1670  0.4061
   91TMC2    C4 1416   2.784   2.717  16.592  0.1119  0.4141 -0.1279
   91TMC2    C5 1417   2.672   2.665  16.646 -0.4071  0.3162  0.6531
   91TMC2    C6 1418   2.660   2.669  16.777 -0.0503  0.0242 -0.3180
   91TMC2     C 1419   2.982   2.867  16.587 -0.4346  0.1673  0.3910
   91TMC2     O 1420   2.959   2.904  16.473 -0.1563 -0.1731 -0.3206
   91TMC2     H 1421   2.935   2.848  16.865  0.4822 -1.3678  0.7376
   91TMC2    H1 1422   2.796   2.721  16.484  1.5394  1.9976  0.0873
   91TMC2    H2 1423   2.576   2.626  16.830  0.0838  0.3096  0.1276
   91TMC2    C7 1424   2.608   2.549  16.578  0.3249 -0.1151  0.8702
   91TMC2    C8 1425   2.729   2.753  16.996  0.8853  0.0090  0.0799
   91TMC2    O1 1426   2.592   2.448  16.647 -0.0014  0.4525  0.0036
   91TMC2    O2 1427   2.820   2.779  17.072 -0.3434 -0.7069 -0.0060
   91TMC2    O5 1428   2.604   2.807  17.000  0.3198  0.1498  0.4859
   91TMC2    H5 1429   2.584   2.832  16.907 -1.1540  0.4811  0.8797
   92MPD2     C 1430   3.203   3.058  16.539 -0.3678 -0.4932  0.3856
   92MPD2    C1 1431   3.206   2.960  16.632  0.2144  0.2881  0.3488
   92MPD2    C2 1432   3.325   2.929  16.704  0.9141 -0.8633  0.0009
   92MPD2    C3 1433   3.445   2.989  16.670  0.3138  0.6553  0.1171
   92MPD2    C4 1434   3.443   3.090  16.571 -0.0369  0.1277 -0.6481
   92MPD2    C5 1435   3.322   3.128  16.516 -0.5961 -0.3850  0.4486
   92MPD2     H 1436   3.326   2.858  16.786 -3.4411  0.0236  0.8068
   92MPD2    H1 1437   3.535   3.132  16.535 -0.6772  0.8115 -1.4838
   92MPD2    H2 1438   3.115   3.086  16.483 -1.0480 -2.8290  0.3115
   92MPD2    H3 1439   3.326   3.214  16.451 -1.5632  0.0799  1.0054
   92MPD2     N 1440   3.566   2.951  16.729  0.7474  0.1981  0.1064
   92MPD2    H5 1441   3.552   2.863  16.779 -3.1156  0.4910 -0.4402
   92MPD2    N1 1442   3.093   2.888  16.666 -0.0403 -0.1666 -0.1989
   92MPD2    H7 1443   3.107   2.823  16.743 -1.1400 -0.3539 -0.1565
   93TMC2    C1 1444   0.712   3.022  14.243  1.1585  0.4353  0.5269
   93TMC2    C2 1445   0.676   3.098  14.350 -0.5519  0.4680  0.5479
   93TMC2    C3 1446   0.777   3.126  14.440 -0.3047  0.5994  0.6114
   93TMC2    C4 1447   0.843   2.990  14.224 -0.0789 -0.5740  0.0345
   93TMC2    C5 1448   0.943   3.023  14.314 -0.4919 -0.7920 -0.4027
   93TMC2    C6 1449   0.910   3.087  14.433 -0.3624  0.0515 -0.2399
   93TMC2     C 1450   0.618   2.924  14.186 -0.1940  0.2810  0.0465
   93TMC2     O 1451   0.658   2.826  14.124 -0.4447  0.4968 -0.0416
   93TMC2     H 1452   0.573   3.128  14.364 -0.8071 -0.3509  0.3940
   93TMC2    H1 1453   0.864   2.936  14.132  1.6389 -0.5808  0.4331
   93TMC2    H2 1454   0.977   3.099  14.517 -1.8111 -0.8672  1.0641
   93TMC2    C7 1455   1.078   3.042  14.256  0.9561 -0.0692  0.5984
   93TMC2    C8 1456   0.738   3.177  14.564  0.1422  0.2012  0.5033
   93TMC2    O1 1457   1.103   2.982  14.154 -0.0022  0.7080  0.6481
   93TMC2    O2 1458   0.818   3.235  14.637 -0.4261 -0.4923  0.4030
   93TMC2    O5 1459   0.640   3.101  14.609 -0.8457 -0.1506 -0.0060
   93TMC2    H5 1460   0.622   3.025  14.549 -0.3611 -0.2887  0.0253
   94MPD2     C 1461   0.373   2.758  14.132 -0.0146  0.3283  0.3278
   94MPD2    C1 1462   0.375   2.893  14.163  0.0629 -0.3977 -0.8732
   94MPD2    C2 1463   0.257   2.959  14.154  0.5157  0.2208 -0.7750
   94MPD2    C3 1464   0.148   2.902  14.088 -0.1115  0.0064 -0.4144
   94MPD2    C4 1465   0.146   2.764  14.056 -0.1804  0.9331 -0.2205
   94MPD2    C5 1466   0.262   2.697  14.080  0.7952  0.3745  0.2812
   94MPD2     H 1467   0.261   3.060  14.193 -0.7660 -0.9799  2.4751
   94MPD2    H1 1468   0.066   2.713  14.005  0.2530 -0.8064  0.8474
   94MPD2    H2 1469   0.459   2.694  14.137 -0.9640 -1.1069 -2.0230
   94MPD2    H3 1470   0.278   2.594  14.051  1.4429  1.1079 -1.9086
   94MPD2     N 1471   0.036   2.984  14.042  0.3619 -0.2205  0.4158
   94MPD2    H5 1472   4.691   2.937  14.003  0.1914 -1.2939  2.0643
   94MPD2    N1 1473   0.487   2.966  14.190 -0.3971  0.3145  0.4627
   94MPD2    H7 1474   0.467   3.058  14.226 -0.5824  0.7194 -0.6772
   95TMC2    C1 1475   1.096   4.111  15.758  0.4229 -0.0762  0.2195
   95TMC2    C2 1476   1.120   3.998  15.692  0.1334 -0.2284  0.5524
   95TMC2    C3 1477   1.131   3.879  15.764 -0.5904  0.8768 -0.2839
   95TMC2    C4 1478   1.069   4.109  15.892 -0.2170  0.4263  0.1989
   95TMC2    C5 1479   1.058   3.986  15.955  0.8706 -0.6099 -0.1267
   95TMC2    C6 1480   1.098   3.872  15.894  0.2230  1.1690 -0.0177
   95TMC2     C 1481   1.083   4.234  15.677 -0.1274  0.6410  0.6784
   95TMC2     O 1482   1.107   4.338  15.741 -0.4283 -0.3759  0.7719
   95TMC2     H 1483   1.148   4.002  15.588 -0.1530  0.1921  0.4892
   95TMC2    H1 1484   1.049   4.196  15.954  0.0277  2.0141 -1.9092
   95TMC2    H2 1485   1.085   3.773  15.937  0.5387  0.7844 -0.8002
   95TMC2    C7 1486   0.972   3.976  16.072  0.0019  0.1103  0.7041
   95TMC2    C8 1487   1.114   3.753  15.686  0.0053 -0.4399  0.6879
   95TMC2    O1 1488   0.999   3.892  16.153  0.0984  0.4164 -0.3439
   95TMC2    O2 1489   1.066   3.757  15.573 -0.2560  0.8360 -0.1179
   95TMC2    O5 1490   1.207   3.661  15.724 -0.2020 -0.2061  0.3143
   95TMC2    H5 1491   1.266   3.693  15.796 -0.0508  0.0926  0.0599
   96MPD2     C 1492   0.971   4.513  15.281  0.1430 -0.4672 -0.1047
   96MPD2    C1 1493   1.055   4.548  15.388  0.4042 -0.5115 -0.0513
   96MPD2    C2 1494   1.075   4.449  15.479  0.2661  0.9991  0.5578
   96MPD2    C3 1495   0.999   4.330  15.471 -0.3089  0.5024 -0.1136
   96MPD2    C4 1496   0.919   4.301  15.365 -0.5432 -0.6660 -0.4868
   96MPD2    C5 1497   0.906   4.394  15.268 -0.7274 -0.1640  0.4310
   96MPD2     H 1498   1.150   4.465  15.556  1.5985  1.1476 -0.7670
   96MPD2    H1 1499   0.877   4.202  15.350 -3.9834  0.7897 -0.5502
   96MPD2    H2 1500   0.957   4.585  15.201  0.2493  1.0652  1.2452
   96MPD2    H3 1501   0.839   4.378  15.184 -0.3101 -0.0961  0.0817
   96MPD2     N 1502   1.020   4.221  15.559 -0.0296 -0.5184 -0.7482
   96MPD2    H5 1503   0.990   4.131  15.524 -0.1703 -0.3434 -1.0787
   96MPD2    N1 1504   1.130   4.666  15.368  0.8174 -0.2311  0.1617
   96MPD2    H7 1505   1.101   4.725  15.291  0.5843 -0.8383 -0.2134
   97TMC2    C1 1506   3.579   2.197   0.273 -0.4538 -0.2763 -0.1673
   97TMC2    C2 1507   3.699   2.132   0.255 -0.4185 -0.0843  0.1129
   97TMC2    C3 1508   3.811   2.207   0.240  0.6136 -0.2387  0.4662
   97TMC2    C4 1509   3.571   2.336   0.278  0.3728  1.2809  0.3724
   97TMC2    C5 1510   3.681   2.405   0.248 -0.5711  0.3007  0.3053
   97TMC2    C6 1511   3.808   2.347   0.234 -0.0589  0.0800  0.4316
   97TMC2     C 1512   3.460   2.119   0.296  0.1496  0.0483 -0.1687
   97TMC2     O 1513   3.362   2.169   0.351 -0.5680 -0.1277 -0.3911
   97TMC2     H 1514   3.708   2.024   0.249  0.2416 -0.1914  2.7294
   97TMC2    H1 1515   3.472   2.379   0.279  0.4089  1.3441  1.3054
   97TMC2    H2 1516   3.892   2.415   0.225 -1.3687  1.5672 -0.6386
   97TMC2    C7 1517   3.681   2.550   0.249  0.7801  0.2708  0.4222
   97TMC2    C8 1518   3.937   2.133   0.251  0.1369 -0.2050 -0.2729
   97TMC2    O1 1519   3.785   2.608   0.277 -0.1962  0.1243 -0.8217
   97TMC2    O2 1520   3.963   2.028   0.199  0.3969 -0.4430 -0.3499
   97TMC2    O5 1521   4.021   2.221   0.298 -0.7781  0.7893 -0.1153
   97TMC2    H5 1522   3.977   2.300   0.337  2.7475  1.5292  2.3351
   98MPD2     C 1523   3.152   1.719   0.187  0.7088  0.0051  0.8195
   98MPD2    C1 1524   3.137   1.819   0.276 -0.2521 -0.6774 -0.7764
   98MPD2    C2 1525   3.237   1.914   0.291 -0.2797  0.4641  0.8351
   98MPD2    C3 1526   3.351   1.910   0.213 -0.3387  0.4024  0.0645
   98MPD2    C4 1527   3.356   1.812   0.112  0.0156 -0.2994 -0.0659
   98MPD2    C5 1528   3.260   1.723   0.098 -0.1631  0.1529  0.2992
   98MPD2     H 1529   3.237   1.985   0.373 -1.9251 -0.1280  1.3397
   98MPD2    H1 1530   3.439   1.797   0.044  2.0966  0.2363  2.3767
   98MPD2    H2 1531   3.079   1.639   0.191  0.2356  0.5070  2.1519
   98MPD2    H3 1532   3.266   1.644   0.024 -2.2355  1.6594 -1.4987
   98MPD2     N 1533   3.460   1.997   0.229  0.5588 -0.1256 -0.0899
   98MPD2    H5 1534   3.542   1.973   0.175 -0.0078 -2.5833  0.1196
   98MPD2    N1 1535   3.021   1.817   0.350 -0.0372 -0.2109  0.0209
   98MPD2    H7 1536   2.956   1.750   0.312 -0.5969  0.0392  0.5272
   99TMC2    C1 1537   2.346   4.544   1.385  0.4772  0.5300 -0.2809
   99TMC2    C2 1538   2.447   4.558   1.469  0.1367 -0.6903  1.2753
   99TMC2    C3 1539   2.415   4.612   1.596  0.1942 -0.5318 -0.3204
   99TMC2    C4 1540   2.225   4.612   1.402 -0.1593 -0.0356  0.0327
   99TMC2    C5 1541   2.202   4.674   1.522 -0.0509  0.6912  0.3493
   99TMC2    C6 1542   2.295   4.680   1.618  0.4919  0.7732 -0.3310
   99TMC2     C 1543   2.374   4.460   1.269  0.9698  0.5736  0.7432
   99TMC2     O 1544   2.473   4.388   1.275 -0.3345  0.1605  0.0710
   99TMC2     H 1545   2.545   4.516   1.448 -0.3383 -1.0066 -0.3011
   99TMC2    H1 1546   2.157   4.617   1.317 -1.3365 -1.3322  0.8922
   99TMC2    H2 1547   2.275   4.721   1.716  2.8808  1.4340 -0.1186
   99TMC2    C7 1548   2.070   4.732   1.553 -0.0142 -0.3811 -0.4311
   99TMC2    C8 1549   2.521   4.643   1.689  0.3813  0.2923  0.0802
   99TMC2    O1 1550   2.055   0.085   1.635  0.6200 -0.7920  0.3634
   99TMC2    O2 1551   2.524   0.016   1.741  0.0830 -0.3967  0.2024
   99TMC2    O5 1552   2.623   4.552   1.679 -0.0068 -0.0117  0.0355
   99TMC2    H5 1553   2.594   4.472   1.629  2.0562  0.5389 -2.0259
  100MPD2     C 1554   2.387   4.342   1.005 -0.3423  0.3689  0.9315
  100MPD2    C1 1555   2.271   4.374   1.070  0.6132  0.2972 -0.2718
  100MPD2    C2 1556   2.153   4.357   0.999 -0.4624  0.4295 -0.2322
  100MPD2    C3 1557   2.148   4.294   0.874  0.1755 -0.4442  0.2779
  100MPD2    C4 1558   2.264   4.261   0.816  0.4581  0.2204  0.4495
  100MPD2    C5 1559   2.385   4.273   0.885 -0.5780 -0.3064 -0.6307
  100MPD2     H 1560   2.061   4.386   1.050 -0.2875 -0.6988  0.7171
  100MPD2    H1 1561   2.272   4.220   0.716  2.1600  1.3532  0.1213
  100MPD2    H2 1562   2.484   4.366   1.047 -0.5064  0.0963  1.4656
  100MPD2    H3 1563   2.476   4.248   0.830  0.9542  1.7184  0.9945
  100MPD2     N 1564   2.017   4.267   0.813 -0.4518  0.7058 -0.5484
  100MPD2    H5 1565   1.936   4.318   0.848 -1.0697  1.2128 -2.7564
  100MPD2    N1 1566   2.267   4.443   1.189 -0.0479  0.0557  0.4494
  100MPD2    H7 1567   2.179   4.474   1.230 -1.1149 -1.7238 -0.4820
  101TMC2    C1 1568   2.286   0.367  13.082 -0.3570 -0.1426 -0.2735
  101TMC2    C2 1569   2.169   0.423  13.129 -0.1431 -0.2255 -0.5048
  101TMC2    C3 1570   2.122   0.519  13.048  0.1686  0.4724  0.7533
  101TMC2    C4 1571   2.353   0.408  12.972 -0.5254  1.2168 -0.5018
  101TMC2    C5 1572   2.308   0.513  12.903  0.1504 -0.9010  0.2074
  101TMC2    C6 1573   2.189   0.571  12.937  0.6200  0.1227 -0.1402
  101TMC2     C 1574   2.325   0.236  13.142 -0.0976  0.0008 -0.0698
  101TMC2     O 1575   2.323   0.223  13.262 -0.1168 -0.2207 -0.0799
  101TMC2     H 1576   2.120   0.398  13.222  2.4961 -2.9312  0.1559
  101TMC2    H1 1577   2.454   0.369  12.959 -0.6568  0.5762  0.4044
  101TMC2    H2 1578   2.151   0.651  12.875 -1.2031  0.3966  1.3308
  101TMC2    C7 1579   2.407   0.588  12.824 -0.0910 -0.1231  0.1551
  101TMC2    C8 1580   2.001   0.573  13.088  0.3928  0.2202  0.5345
  101TMC2    O1 1581   2.517   0.537  12.807 -0.3977 -0.1460 -0.1038
  101TMC2    O2 1582   1.973   0.691  13.069 -0.8860 -0.4831  0.1023
  101TMC2    O5 1583   1.914   0.470  13.127  0.3729 -0.2224 -0.5561
  101TMC2    H5 1584   1.951   0.379  13.122 -0.8381 -0.9012  2.9642
  102MPD2     C 1585   2.435   4.682  12.949 -0.4202  0.2565 -0.2650
  102MPD2    C1 1586   2.379   0.012  13.055 -0.3271  0.5950 -0.2818
  102MPD2    C2 1587   2.329   4.679  13.162 -0.1585 -1.0687  0.5782
  102MPD2    C3 1588   2.335   4.539  13.162 -0.5638 -0.4266 -0.2569
  102MPD2    C4 1589   2.399   4.473  13.059  0.4999 -0.3018 -0.7142
  102MPD2    C5 1590   2.453   4.546  12.954 -0.2625 -0.1654 -0.0113
  102MPD2     H 1591   2.272   4.731  13.238 -0.5291 -1.1431  0.3544
  102MPD2    H1 1592   2.410   4.366  13.048 -1.6611 -0.6273  0.2889
  102MPD2    H2 1593   2.467   4.734  12.860 -2.6139  0.4329 -0.9691
  102MPD2    H3 1594   2.501   4.497  12.870  2.2762  2.6395 -0.1976
  102MPD2     N 1595   2.255   4.474  13.264  0.1575  0.2348  0.5103
  102MPD2    H5 1596   2.212   4.528  13.338  2.8454  1.2583  1.3084
  102MPD2    N1 1597   2.365   0.150  13.040  1.0481  0.1526  0.0722
  102MPD2    H7 1598   2.385   0.189  12.948 -0.2589  0.3844 -0.1215
  103TMC2    C1 1599   0.443   0.943  12.965  0.0663 -0.4492  0.1693
  103TMC2    C2 1600   0.530   0.840  12.962  0.4920  0.6415  0.0253
  103TMC2    C3 1601   0.631   0.828  13.050 -0.3601  0.1551  0.7171
  103TMC2    C4 1602   0.443   1.025  13.070  0.7656 -0.1091  0.5209
  103TMC2    C5 1603   0.535   1.002  13.170  0.1903 -0.1525  0.5005
  103TMC2    C6 1604   0.626   0.904  13.158 -0.6362  0.2099 -0.2724
  103TMC2     C 1605   0.350   0.972  12.856  0.2603  0.1567  0.1830
  103TMC2     O 1606   0.276   1.072  12.866 -0.0582  0.5119  0.4336
  103TMC2     H 1607   0.519   0.760  12.889  0.9992 -0.4059  1.0969
  103TMC2    H1 1608   0.375   1.109  13.074  1.2849  0.3557 -0.4743
  103TMC2    H2 1609   0.692   0.880  13.241 -2.1590  2.0243  1.4648
  103TMC2    C7 1610   0.513   1.043  13.312  0.1133 -0.0645 -0.0486
  103TMC2    C8 1611   0.744   0.743  13.021 -0.5748  0.3249  0.4096
  103TMC2    O1 1612   0.547   0.973  13.407  0.6921  0.1654 -0.1358
  103TMC2    O2 1613   0.737   0.643  12.952  0.1963 -0.0134  0.4151
  103TMC2    O5 1614   0.862   0.797  13.069  0.2011  0.1758  0.0712
  103TMC2    H5 1615   0.838   0.881  13.113 -0.8312 -2.2331  4.1405
  104MPD2     C 1616   0.173   0.757  12.629  0.1775  0.0953  0.0215
  104MPD2    C1 1617   0.241   0.872  12.664 -0.6027 -0.1462  0.6151
  104MPD2    C2 1618   0.225   0.982  12.586  0.3485  0.3346  0.4998
  104MPD2    C3 1619   0.145   0.985  12.471  0.0186 -0.2449  0.1256
  104MPD2    C4 1620   0.074   0.877  12.449 -0.2875  0.6837 -0.7664
  104MPD2    C5 1621   0.095   0.758  12.522  0.5335 -0.3192 -0.5796
  104MPD2     H 1622   0.288   1.065  12.616  1.8256 -0.2281 -1.0068
  104MPD2    H1 1623   4.734   0.867  12.372 -0.5633 -1.5951 -0.1780
  104MPD2    H2 1624   0.179   0.666  12.687 -2.8051  0.5917  1.1234
  104MPD2    H3 1625   0.030   0.676  12.493  0.3204 -0.9745  1.8173
  104MPD2     N 1626   0.147   1.096  12.385  0.8141 -0.2822  0.1725
  104MPD2    H5 1627   0.203   1.178  12.409  0.2263  0.5295 -1.2437
  104MPD2    N1 1628   0.325   0.861  12.779  0.3110 -0.3813  0.2433
  104MPD2    H7 1629   0.357   0.767  12.803  0.4487 -0.3708  0.1020
  105TMC2    C1 1630   2.159   0.003   0.236  0.1557  0.5613  0.2051
  105TMC2    C2 1631   2.027   0.013   0.244  0.6852 -0.0925 -0.1084
  105TMC2    C3 1632   1.976   0.056   0.363 -0.1778 -0.3342 -0.2580
  105TMC2    C4 1633   2.239   0.058   0.327  0.4510  0.5040 -0.5780
  105TMC2    C5 1634   2.189   0.106   0.443 -0.0880 -0.3071  0.1379
  105TMC2    C6 1635   2.052   0.114   0.464 -0.0197 -0.1372 -0.8607
  105TMC2     C 1636   2.224   4.671   0.131 -0.0578 -0.0557  0.4355
  105TMC2     O 1637   2.335   4.625   0.154  0.9243 -0.0795  0.2300
  105TMC2     H 1638   1.962   4.687   0.184  1.0938  1.3980 -2.1318
  105TMC2    H1 1639   2.346   0.044   0.315  0.6704  2.8697 -1.3828
  105TMC2    H2 1640   2.007   0.180   0.538 -0.3109  0.7659 -1.8329
  105TMC2    C7 1641   2.285   0.179   0.524 -0.0851 -0.1075 -0.6794
  105TMC2    C8 1642   1.835   0.058   0.360  0.3784 -0.0232 -0.5065
  105TMC2    O1 1643   2.391   0.205   0.468  0.3677 -0.2430  0.4077
  105TMC2    O2 1644   1.761   0.077   0.457 -0.0075 -0.0391 -0.1447
  105TMC2    O5 1645   1.798   0.105   0.240 -0.6943  0.3134  0.6813
  105TMC2    H5 1646   1.872   0.125   0.179  0.3276  0.7437  2.0630
  106MPD2     C 1647   2.241   4.559  17.370 -0.4244  0.4750  0.2971
  106MPD2    C1 1648   2.158   4.664  17.387  0.5848 -0.2429 -0.2417
  106MPD2    C2 1649   2.122   4.703  17.517 -0.6511  0.5282 -0.6893
  106MPD2    C3 1650   2.186   4.647  17.624  0.1900  0.1832 -0.2781
  106MPD2    C4 1651   2.256   4.535  17.606 -0.4048  0.3684 -0.0586
  106MPD2    C5 1652   2.296   4.507  17.476  0.5005 -0.5806 -0.6147
  106MPD2     H 1653   2.071   0.056  17.553 -0.5082  1.2311 -2.2239
  106MPD2    H1 1654   2.297   4.471  17.683 -1.9811 -1.4070 -0.7085
  106MPD2    H2 1655   2.253   4.502  17.279 -2.8230 -0.8721  0.8206
  106MPD2    H3 1656   2.360   4.420  17.466  0.4084 -0.7902  0.6793
  106MPD2     N 1657   2.163   4.703   0.007  0.7159  0.5742  0.1600
  106MPD2    H5 1658   2.094   0.040   0.003 -0.6269 -0.6721  0.4698
  106MPD2    N1 1659   2.083   4.718  17.289 -0.2225  0.7834 -0.0737
  106MPD2    H7 1660   2.037   0.069  17.313 -1.5232  0.1714 -0.3759
  107TMC2    C1 1661   2.670   4.596  11.757 -0.5341 -0.2668  0.6549
  107TMC2    C2 1662   2.752   4.696  11.700  0.0405  0.4974  0.1993
  107TMC2    C3 1663   2.788   4.680  11.571  0.0848  0.1909  0.3273
  107TMC2    C4 1664   2.654   4.482  11.687 -0.1438  0.3000  0.4391
  107TMC2    C5 1665   2.706   4.467  11.566  0.1761  0.3471 -0.2161
  107TMC2    C6 1666   2.780   4.564  11.505  0.4944 -0.9533  0.3633
  107TMC2     C 1667   2.604   4.614  11.878  0.7653  0.5468  0.1875
  107TMC2     O 1668   2.557   4.513  11.924 -0.2896 -0.8646  0.0556
  107TMC2     H 1669   2.772   0.045  11.763  1.6198 -0.3469  0.8271
  107TMC2    H1 1670   2.598   4.404  11.738  0.3859 -0.4486 -0.1218
  107TMC2    H2 1671   2.800   4.564  11.398 -0.8834 -2.4244  0.1042
  107TMC2    C7 1672   2.673   4.344  11.492 -0.0559  0.6855 -0.0846
  107TMC2    C8 1673   2.885   0.030  11.515  0.4969 -0.5513  1.0156
  107TMC2    O1 1674   2.579   4.281  11.539  0.2127  0.3473 -0.2399
  107TMC2    O2 1675   2.972   4.721  11.444  0.1192  0.6136  0.5922
  107TMC2    O5 1676   2.843   0.156  11.523  0.1422 -0.2796  0.7428
  107TMC2    H5 1677   2.758   0.162  11.571  0.3990  1.1205  1.0011
  108MPD2     C 1678   2.446   0.196  11.971  0.1160  0.3167  0.2639
  108MPD2    C1 1679   2.484   0.067  11.993  0.3266 -0.2472 -0.1822
  108MPD2    C2 1680   2.464   0.001  12.119  0.6104 -0.1768  0.4146
  108MPD2    C3 1681   2.399   0.080  12.223 -0.0941 -0.5945 -0.6285
  108MPD2    C4 1682   2.358   0.215  12.199  0.3679 -0.2683 -0.2938
  108MPD2    C5 1683   2.380   0.264  12.071  0.4669 -0.1580  0.0442
  108MPD2     H 1684   2.500   4.638  12.142  0.6064 -0.1123  0.7008
  108MPD2    H1 1685   2.299   0.272  12.269  0.9035 -1.1624  0.8939
  108MPD2    H2 1686   2.473   0.240  11.876  0.1773  1.9682  1.0587
  108MPD2    H3 1687   2.349   0.367  12.056  3.9809  1.6117  4.6899
  108MPD2     N 1688   2.364   0.028  12.353  0.0147 -0.0635  0.1669
  108MPD2    H5 1689   2.307   0.088  12.412  0.7031  2.3987 -1.6478
  108MPD2    N1 1690   2.566   0.012  11.892  0.0783  0.1064 -0.4220
  108MPD2    H7 1691   2.591   0.079  11.821  0.2383 -0.3346 -0.7840
  109TMC2    C1 1692   1.820   1.293   0.726 -0.1454 -0.2878 -0.5488
  109TMC2    C2 1693   1.781   1.186   0.662 -0.7320  0.0664  0.2157
  109TMC2    C3 1694   1.836   1.141   0.546  0.2166  0.3678 -0.5170
  109TMC2    C4 1695   1.938   1.349   0.684  0.3682  0.1822 -0.2464
  109TMC2    C5 1696   1.997   1.299   0.569 -0.4849  0.3051 -0.4793
  109TMC2    C6 1697   1.949   1.194   0.500  0.6403  0.3410  0.2883
  109TMC2     C 1698   1.769   1.320   0.857  0.4810 -0.5578  0.1942
  109TMC2     O 1699   1.662   1.261   0.888 -0.2640 -0.3347  0.2275
  109TMC2     H 1700   1.698   1.128   0.702  0.3356 -0.8133  1.1276
  109TMC2    H1 1701   1.996   1.425   0.735  0.8701 -0.4972  0.1969
  109TMC2    H2 1702   1.998   1.147   0.416 -0.3206  1.4600 -0.8963
  109TMC2    C7 1703   2.121   1.364   0.526 -1.1016  0.4104  0.2795
  109TMC2    C8 1704   1.795   1.018   0.480  0.1187  0.5398 -0.5192
  109TMC2    O1 1705   2.152   1.462   0.595 -0.0886 -0.1001  0.1198
  109TMC2    O2 1706   1.875   0.946   0.426 -0.3454  0.4625 -0.1740
  109TMC2    O5 1707   1.681   0.969   0.531 -0.0110  0.0525  0.4471
  109TMC2    H5 1708   1.622   1.040   0.562 -2.2679 -0.2960 -2.9983
  110MPD2     C 1709   1.705   1.561   1.301 -0.0338  0.5757 -0.0255
  110MPD2    C1 1710   1.818   1.607   1.244 -0.5872 -0.4900 -0.9995
  110MPD2    C2 1711   1.843   1.567   1.111 -0.5997  0.3847 -0.1895
  110MPD2    C3 1712   1.771   1.467   1.051 -0.1526 -0.2733 -0.4988
  110MPD2    C4 1713   1.661   1.420   1.112  0.4239 -0.5878 -0.3666
  110MPD2    C5 1714   1.626   1.468   1.238  0.6336  0.2705 -0.1643
  110MPD2     H 1715   1.940   1.594   1.070 -0.6642  0.4622 -0.2938
  110MPD2    H1 1716   1.600   1.338   1.076 -1.8372  1.4479 -1.1250
  110MPD2    H2 1717   1.680   1.596   1.401 -0.1905  0.6488 -0.0894
  110MPD2    H3 1718   1.544   1.424   1.294 -0.6814  1.7198 -0.9410
  110MPD2     N 1719   1.828   1.420   0.929  0.0233 -0.6986  0.2724
  110MPD2    H5 1720   1.909   1.470   0.894 -1.0401  1.1467  0.4500
  110MPD2    N1 1721   1.887   1.697   1.322 -0.5447  0.5677 -0.0875
  110MPD2    H7 1722   1.863   1.720   1.418 -1.0833 -1.8462  0.3598
  111TMC2    C1 1723   3.270   1.446  11.713  0.4888 -0.5084 -0.1027
  111TMC2    C2 1724   3.390   1.423  11.650  0.4285  0.2872  0.1405
  111TMC2    C3 1725   3.492   1.378  11.730  0.3786 -0.4918 -0.9633
  111TMC2    C4 1726   3.254   1.430  11.849 -0.5571  0.3088 -0.5194
  111TMC2    C5 1727   3.354   1.377  11.923  0.5811  0.2064 -0.8914
  111TMC2    C6 1728   3.473   1.349  11.862 -0.6103 -0.9044 -0.5878
  111TMC2     C 1729   3.164   1.507  11.636  0.5024  0.4529  0.7976
  111TMC2     O 1730   3.193   1.543  11.521 -0.1622  0.3143 -0.2939
  111TMC2     H 1731   3.403   1.441  11.544  0.0815 -1.1681 -0.1441
  111TMC2    H1 1732   3.163   1.463  11.897 -0.6914 -0.0759 -0.5077
  111TMC2    H2 1733   3.553   1.310  11.923 -0.3313  0.7214  0.0846
  111TMC2    C7 1734   3.333   1.345  12.056  0.2650 -0.2657  0.7625
  111TMC2    C8 1735   3.619   1.352  11.681 -0.3948  0.5216  0.1650
  111TMC2    O1 1736   3.223   1.320  12.093 -0.6384 -0.1629  0.1358
  111TMC2    O2 1737   3.707   1.297  11.744  0.1445  0.1730  0.1878
  111TMC2    O5 1738   3.649   1.445  11.586 -0.2862  0.3591 -0.7718
  111TMC2    H5 1739   3.581   1.512  11.562 -1.2900  0.0558  1.2135
  112MPD2     C 1740   2.700   1.729  11.600  0.3350  0.0144 -0.2776
  112MPD2    C1 1741   2.801   1.718  11.502  0.1765  0.3492 -0.8584
  112MPD2    C2 1742   2.921   1.660  11.537 -0.3967 -0.4141  0.4359
  112MPD2    C3 1743   2.944   1.606  11.666 -0.2722 -0.0827  0.4448
  112MPD2    C4 1744   2.850   1.627  11.759 -0.3611 -0.0288  0.8061
  112MPD2    C5 1745   2.729   1.683  11.728  0.3939  0.1322 -0.2229
  112MPD2     H 1746   2.999   1.651  11.461 -1.9669 -0.1977 -1.1896
  112MPD2    H1 1747   2.870   1.589  11.858  0.3233 -1.6984  0.0352
  112MPD2    H2 1748   2.601   1.767  11.575 -0.5090 -1.7741  0.3662
  112MPD2    H3 1749   2.659   1.691  11.811  0.3992 -0.1556 -0.1922
  112MPD2     N 1750   3.048   1.522  11.703  0.1047  0.5919 -0.0871
  112MPD2    H5 1751   3.033   1.473  11.791 -1.6796  0.8468 -0.2427
  112MPD2    N1 1752   2.779   1.748  11.367  0.5842 -0.4311  0.5801
  112MPD2    H7 1753   2.866   1.747  11.315  0.6183  1.2836  0.5919
  113TMC2    C1 1754   0.978   4.545   0.480 -0.6110 -0.2387  0.2594
  113TMC2    C2 1755   0.906   4.634   0.412 -0.6838  0.3787  0.3190
  113TMC2    C3 1756   0.809   4.592   0.326  0.3835  0.3538  0.6707
  113TMC2    C4 1757   0.954   4.411   0.471  0.2090  0.5406  0.4012
  113TMC2    C5 1758   0.851   4.369   0.395 -0.3798  0.3835 -0.2353
  113TMC2    C6 1759   0.775   4.456   0.321 -0.3316 -0.4530 -0.0702
  113TMC2     C 1760   1.081   4.593   0.566  0.3076 -0.2107  0.1219
  113TMC2     O 1761   1.071   4.711   0.589 -0.7519  0.2587  0.6111
  113TMC2     H 1762   0.942   4.736   0.410  2.7212 -0.7304  4.7977
  113TMC2    H1 1763   1.010   4.333   0.522  0.3834 -0.7680 -1.7863
  113TMC2    H2 1764   0.691   4.420   0.262  2.2069 -1.4196 -3.1323
  113TMC2    C7 1765   0.800   4.231   0.399 -0.4196  0.2366 -0.4521
  113TMC2    C8 1766   0.741   4.691   0.234 -0.1810 -0.0828 -0.3268
  113TMC2    O1 1767   0.736   4.189   0.304 -0.2819 -0.5234 -0.1356
  113TMC2    O2 1768   0.739   0.069   0.278 -0.1415  0.3739 -0.2943
  113TMC2    O5 1769   0.641   4.635   0.163  0.3581 -0.5204  0.9039
  113TMC2    H5 1770   0.662   4.548   0.122  2.5553 -0.0754  1.0881
  114MPD2     C 1771   1.454   4.576   0.907  0.5802  0.2217  0.1218
  114MPD2    C1 1772   1.352   4.664   0.899  0.2989 -0.1013  0.2122
  114MPD2    C2 1773   1.255   4.639   0.804 -0.3854 -0.2237 -0.4254
  114MPD2    C3 1774   1.256   4.527   0.725  0.1240  0.4850  0.3623
  114MPD2    C4 1775   1.355   4.435   0.757 -0.3345 -0.0203  0.8989
  114MPD2    C5 1776   1.443   4.451   0.857  0.3031 -0.3885  0.3128
  114MPD2     H 1777   1.173   4.711   0.804 -0.2884 -0.1134  1.7420
  114MPD2    H1 1778   1.369   4.344   0.699  0.5025 -0.3226  1.5639
  114MPD2    H2 1779   1.539   4.595   0.971 -0.1083  2.6622  0.3039
  114MPD2    H3 1780   1.519   4.375   0.871  1.6708  1.0336  0.5945
  114MPD2     N 1781   1.164   4.498   0.624  0.1993  0.3396 -0.1588
  114MPD2    H5 1782   1.168   4.405   0.585  0.6408  1.4088 -2.6867
  114MPD2    N1 1783   1.316   0.018   1.000 -0.2313  0.1933  0.0373
  114MPD2    H7 1784   1.219   0.050   0.997 -0.3973 -0.0064  3.2111
  115TMC2    C1 1785   1.705   2.161  17.683 -0.3099  0.7366  0.4058
  115TMC2    C2 1786   1.789   2.059  17.713  0.5228 -0.6312  0.9627
  115TMC2    C3 1787   1.917   2.088  17.741  0.6604 -0.1638 -0.2494
  115TMC2    C4 1788   1.745   2.292  17.676 -0.7987 -0.4370 -0.4312
  115TMC2    C5 1789   1.880   2.315  17.702 -0.0742  0.9558 -0.3695
  115TMC2    C6 1790   1.970   2.213  17.727  0.3962 -0.0417  0.0541
  115TMC2     C 1791   1.576   2.118  17.631  0.9007 -0.0434  0.2896
  115TMC2     O 1792   1.539   2.012  17.680  0.2528  0.5592  0.1602
  115TMC2     H 1793   1.755   1.958  17.728 -1.8801 -0.1108 -1.0587
  115TMC2    H1 1794   1.678   2.371  17.644 -0.0769  0.2123 -0.3374
  115TMC2    H2 1795   2.073   2.221   0.016 -0.2764 -0.0714  2.1806
  115TMC2    C7 1796   1.934   2.448  17.714 -0.1270  0.2160  0.2883
  115TMC2    C8 1797   2.003   1.979   0.028  0.4218 -0.5472  0.0070
  115TMC2    O1 1798   2.026   2.461   0.048 -1.0582 -0.6513  0.1952
  115TMC2    O2 1799   2.118   1.982  17.728  0.3082 -0.8574 -0.5075
  115TMC2    O5 1800   1.974   1.937   0.151  0.3087  0.3394  0.0414
  115TMC2    H5 1801   1.886   1.977   0.170 -0.2650 -0.6880 -0.4211
  116MPD2     C 1802   1.226   2.087  17.253 -0.8566  0.9354  0.8273
  116MPD2    C1 1803   1.242   2.009  17.365 -0.4072  0.7913 -0.0753
  116MPD2    C2 1804   1.341   2.044  17.458 -0.1355  0.5196  0.4605
  116MPD2    C3 1805   1.422   2.154  17.439  0.2101  1.0127  0.3938
  116MPD2    C4 1806   1.406   2.223  17.319  0.2181 -0.7391  0.0619
  116MPD2    C5 1807   1.310   2.193  17.228 -0.9523 -0.4709  0.1667
  116MPD2     H 1808   1.346   1.985  17.549 -0.5563 -0.8399 -0.4043
  116MPD2    H1 1809   1.465   2.309  17.289 -1.6853  0.0226 -1.4752
  116MPD2    H2 1810   1.154   2.068  17.174  0.3037  1.8836 -0.4567
  116MPD2    H3 1811   1.293   2.253  17.140 -2.1548 -0.0614  0.6782
  116MPD2     N 1812   1.534   2.185  17.518 -0.1200  0.2044 -0.2643
  116MPD2    H5 1813   1.583   2.268  17.485 -2.2507  1.2155 -0.8676
  116MPD2    N1 1814   1.163   1.887  17.374 -0.1221  0.3261  0.1058
  116MPD2    H7 1815   1.089   1.869  17.308 -1.5337  0.2257  1.7065
  117TMC2    C1 1816   0.303   3.894  13.677  0.5621  0.6099  0.8605
  117TMC2    C2 1817   0.375   3.800  13.746  0.1949  0.3537  0.0259
  117TMC2    C3 1818   0.409   3.831  13.876  0.2888  0.3100 -0.2027
  117TMC2    C4 1819   0.272   4.020  13.727  0.1988  0.0110 -0.2656
  117TMC2    C5 1820   0.310   4.046  13.856  0.0362 -1.0767  0.1461
  117TMC2    C6 1821   0.377   3.960  13.931  0.8654  0.7419 -0.5715
  117TMC2     C 1822   0.235   3.841  13.562  0.9856  0.5465  0.7448
  117TMC2     O 1823   0.291   3.755  13.502 -0.4488 -0.1117 -0.4634
  117TMC2     H 1824   0.396   3.702  13.705  0.4722  1.0959 -1.6274
  117TMC2    H1 1825   0.243   4.095  13.654  1.3270  1.8828  1.1944
  117TMC2    H2 1826   0.397   3.979  14.035  0.7214  0.8962 -0.5730
  117TMC2    C7 1827   0.285   4.174  13.910  0.3499 -0.6694  0.4793
  117TMC2    C8 1828   0.480   3.730  13.960  0.2587  0.4027  0.2074
  117TMC2    O1 1829   0.337   4.199  14.018  0.2040 -0.1228 -0.0372
  117TMC2    O2 1830   0.522   3.757  14.070 -0.1470 -0.0724 -0.3657
  117TMC2    O5 1831   0.481   3.603  13.909  0.0360  0.3191 -0.0015
  117TMC2    H5 1832   0.439   3.577  13.824 -2.7075 -0.1144  1.4861
  118MPD2     C 1833   0.031   4.407  13.759 -0.3291  0.2475 -0.6925
  118MPD2    C1 1834   0.136   4.372  13.840 -0.1735  0.0828  0.0197
  118MPD2    C2 1835   0.182   4.446  13.947 -0.0978  0.5292  0.2221
  118MPD2    C3 1836   0.110   4.565  13.971  0.3448 -0.0444 -1.2187
  118MPD2    C4 1837   4.736   4.593  13.891  0.3281 -0.5282  0.5833
  118MPD2    C5 1838   4.689   4.510  13.799  0.2894  0.8542 -0.8556
  118MPD2     H 1839   0.272   4.418  14.001  0.4420  1.1377 -0.3380
  118MPD2    H1 1840   4.670   4.677  13.904  0.1998 -0.3789 -0.9979
  118MPD2    H2 1841   0.002   4.357  13.667  1.9755  0.8152 -1.7283
  118MPD2    H3 1842   4.600   4.533  13.740  0.5063  1.9858 -0.7290
  118MPD2     N 1843   0.138   4.659  14.075 -0.6421 -0.0433  0.5278
  118MPD2    H5 1844   0.066   4.731  14.085 -0.2655  0.5218 -0.8828
  118MPD2    N1 1845   0.184   4.235  13.829  0.0461 -0.0058  0.5292
  118MPD2    H7 1846   0.145   4.179  13.754  1.9168  0.5846 -0.8849
  119TMC2    C1 1847   2.851   4.493  13.220  0.4740  0.3086  0.9667
  119TMC2    C2 1848   2.855   4.458  13.090  0.2929  0.6675 -0.3629
  119TMC2    C3 1849   2.746   4.382  13.055  0.3876  0.3842  0.3594
  119TMC2    C4 1850   2.775   4.424  13.315  0.1354  0.6897 -0.6261
  119TMC2    C5 1851   2.691   4.326  13.269 -0.2929  0.2802 -0.5646
  119TMC2    C6 1852   2.672   4.304  13.136  0.3745 -0.2221  0.0650
  119TMC2     C 1853   2.964   4.561  13.281  0.1894  0.1809 -0.2325
  119TMC2     O 1854   2.944   4.592  13.399 -0.1002  0.1702 -0.3035
  119TMC2     H 1855   2.923   4.502  13.018  1.0870 -0.9254 -0.5717
  119TMC2    H1 1856   2.777   4.446  13.421 -3.5570 -0.7341 -0.2763
  119TMC2    H2 1857   2.597   4.237  13.096  0.8603 -0.8978  0.2883
  119TMC2    C7 1858   2.609   4.254  13.363  0.1144  0.9689 -0.3040
  119TMC2    C8 1859   2.736   4.350  12.911 -0.5848 -0.0881  0.1300
  119TMC2    O1 1860   2.497   4.224  13.324 -0.2865  0.5799  0.8916
  119TMC2    O2 1861   2.732   4.237  12.864 -0.0965  0.1813  0.5070
  119TMC2    O5 1862   2.766   4.463  12.844  0.1976 -0.1593  0.5230
  119TMC2    H5 1863   2.771   4.541  12.903 -0.1196 -1.0929  1.7755
  120MPD2     C 1864   3.468   4.658  13.322  0.4279 -0.4193  0.1842
  120MPD2    C1 1865   3.370   4.649  13.423 -0.6233 -0.0920 -0.1123
  120MPD2    C2 1866   3.236   4.644  13.383  0.4898  0.2906 -0.2548
  120MPD2    C3 1867   3.207   4.618  13.252  0.3127 -0.8592  0.9278
  120MPD2    C4 1868   3.305   4.613  13.157 -0.2616 -0.6119 -0.7116
  120MPD2    C5 1869   3.432   4.641  13.192  0.9320 -0.1253  0.3616
  120MPD2     H 1870   3.156   4.678  13.449  0.8259 -0.2365  0.4245
  120MPD2    H1 1871   3.281   4.595  13.053 -0.2329  1.3900 -1.0710
  120MPD2    H2 1872   3.571   4.677  13.351  0.9205 -1.0129 -1.1608
  120MPD2    H3 1873   3.509   4.643  13.116  0.3932 -1.4471 -0.2249
  120MPD2     N 1874   3.076   4.577  13.202 -0.9631  0.4066  0.0766
  120MPD2    H5 1875   3.073   4.545  13.106  1.5230  0.5847 -0.0559
  120MPD2    N1 1876   3.414   4.660  13.554 -0.1416 -0.0341  0.7552
  120MPD2    H7 1877   3.513   4.679  13.565 -0.2908  1.1143  0.1579
  121TMC2    C1 1878   4.531   1.438  14.114 -0.0083 -0.0087  0.0589
  121TMC2    C2 1879   4.595   1.360  14.210 -0.1254  0.0130 -0.7324
  121TMC2    C3 1880   4.539   1.246  14.245  0.2199  0.0693  0.5871
  121TMC2    C4 1881   4.407   1.392  14.065  0.1114 -0.5478 -0.2413
  121TMC2    C5 1882   4.347   1.281  14.108  0.2196 -0.1073  0.3662
  121TMC2    C6 1883   4.412   1.204  14.197 -0.2416  0.1257  0.2185
  121TMC2     C 1884   4.559   1.581  14.117 -0.2032  0.4648 -0.2098
  121TMC2     O 1885   4.637   1.618  14.210  0.2484  0.4706 -0.3887
  121TMC2     H 1886   4.688   1.396  14.251 -0.7784 -0.2964  1.0475
  121TMC2    H1 1887   4.361   1.458  13.992  0.6163 -2.1491 -2.0344
  121TMC2    H2 1888   4.354   1.119  14.231 -1.1991  0.8830  0.4741
  121TMC2    C7 1889   4.205   1.255  14.073 -0.1292 -0.0082  0.5629
  121TMC2    C8 1890   4.611   1.181  14.353  0.2412  0.1204  0.0460
  121TMC2    O1 1891   4.159   1.144  14.094 -0.1454  0.3238  0.1722
  121TMC2    O2 1892   4.731   1.191  14.372 -0.1848  0.1426 -0.1217
  121TMC2    O5 1893   4.521   1.143  14.447 -0.0293 -0.4354 -0.4159
  121TMC2    H5 1894   4.429   1.173  14.427  0.1430  0.8852  0.7601
  122MPD2     C 1895   4.578   1.874  14.086 -0.3448 -0.3818  0.4631
  122MPD2    C1 1896   4.518   1.793  13.996 -0.0386  0.4593  0.6479
  122MPD2    C2 1897   4.470   1.838  13.872 -0.3548 -0.5993 -0.3815
  122MPD2    C3 1898   4.476   1.972  13.842 -0.1552  0.0815 -0.0147
  122MPD2    C4 1899   4.525   2.059  13.939 -0.2693  0.0459 -0.5131
  122MPD2    C5 1900   4.577   2.008  14.059  0.1702 -0.3519  0.4866
  122MPD2     H 1901   4.433   1.773  13.794 -0.4918  0.5737 -1.2844
  122MPD2    H1 1902   4.538   2.166  13.926  1.2504 -0.0426  0.3431
  122MPD2    H2 1903   4.629   1.841  14.176  0.3175 -2.8770 -0.8130
  122MPD2    H3 1904   4.629   2.083  14.119 -0.1722 -0.6916  1.2071
  122MPD2     N 1905   4.427   2.033  13.725  0.6358 -0.3906 -0.5259
  122MPD2    H5 1906   4.424   2.134  13.723  0.8181 -0.3708  0.1898
  122MPD2    N1 1907   4.507   1.653  14.013 -0.4158  0.2663 -0.5958
  122MPD2    H7 1908   4.469   1.599  13.935 -1.3997 -1.3683  1.0152
  123TMC2    C1 1909   3.042   0.777  11.013 -0.8721  0.7846 -0.4297
  123TMC2    C2 1910   3.015   0.908  11.017 -0.5908 -0.4870  0.8721
  123TMC2    C3 1911   3.068   0.988  10.916 -0.3226  0.0008  0.1361
  123TMC2    C4 1912   3.128   0.717  10.931  0.0871 -0.2915 -0.2057
  123TMC2    C5 1913   3.194   0.798  10.842 -0.0041  0.3019 -0.3605
  123TMC2    C6 1914   3.161   0.933  10.828  0.0427 -0.3015  0.0166
  123TMC2     C 1915   2.961   0.690  11.088  0.1410  0.0987 -0.7273
  123TMC2     O 1916   2.912   0.730  11.194  0.1294 -0.2535 -0.0342
  123TMC2     H 1917   2.931   0.949  11.073 -3.3706 -0.0077 -3.6151
  123TMC2    H1 1918   3.154   0.612  10.939  1.1918 -0.1668 -2.1705
  123TMC2    H2 1919   3.222   0.996  10.765 -0.9932  0.9601  0.2918
  123TMC2    C7 1920   3.250   0.721  10.731 -0.0077 -0.2606  0.8859
  123TMC2    C8 1921   3.019   1.127  10.896  1.0605  0.4877 -0.1365
  123TMC2    O1 1922   3.266   0.598  10.747 -0.3047  0.0918  0.3002
  123TMC2    O2 1923   2.979   1.192  10.988 -0.6480  0.3780 -0.0310
  123TMC2    O5 1924   3.062   1.177  10.780  0.0576 -0.0628 -0.2168
  123TMC2    H5 1925   3.094   1.122  10.705 -0.0157  0.5559 -0.7043
  124MPD2     C 1926   2.860   0.184  11.159 -0.2857 -0.8482  0.1108
  124MPD2    C1 1927   2.859   0.213  11.025 -0.2250  0.3322  0.6352
  124MPD2    C2 1928   2.893   0.341  10.977 -0.1101 -0.7155  0.2732
  124MPD2    C3 1929   2.913   0.445  11.069 -0.7886 -0.0072  0.0885
  124MPD2    C4 1930   2.913   0.414  11.207  1.1183 -0.2189  0.0386
  124MPD2    C5 1931   2.884   0.286  11.241 -0.0869 -0.0204  0.5614
  124MPD2     H 1932   2.896   0.385  10.878  0.8656 -0.5040  0.3931
  124MPD2    H1 1933   2.918   0.485  11.288  4.3752 -1.8630  1.3105
  124MPD2    H2 1934   2.852   0.081  11.190  0.2178 -0.4873  1.4462
  124MPD2    H3 1935   2.891   0.260  11.346 -0.8973 -2.5039  0.0062
  124MPD2     N 1936   2.943   0.574  11.017 -0.4469 -0.2873  0.5004
  124MPD2    H5 1937   2.949   0.584  10.916 -1.2046 -1.8523  0.3087
  124MPD2    N1 1938   2.828   0.099  10.945 -0.1518 -0.2021  0.4331
  124MPD2    H7 1939   2.789   0.018  10.992  0.3345 -0.0901  1.0180
  125TMC2    C1 1940   4.625   1.762   9.137  0.3219  0.2639 -0.3935
  125TMC2    C2 1941   4.532   1.690   9.061 -1.3799  0.3679  0.8064
  125TMC2    C3 1942   4.404   1.739   9.048  0.2875 -0.7960  0.6762
  125TMC2    C4 1943   4.589   1.882   9.184 -1.2326  0.9775 -0.1359
  125TMC2    C5 1944   4.462   1.927   9.167  0.9280 -0.1121 -0.0012
  125TMC2    C6 1945   4.368   1.852   9.106  0.1799 -0.7192 -0.0032
  125TMC2     C 1946   0.023   1.722   9.123 -0.2959  0.5071  0.0743
  125TMC2     O 1947   0.103   1.816   9.129  0.5570  0.6937 -0.7209
  125TMC2     H 1948   4.566   1.603   9.005  1.1961 -0.9931  4.5283
  125TMC2    H1 1949   4.665   1.923   9.250 -2.2932  1.3707  0.8324
  125TMC2    H2 1950   4.268   1.891   9.088 -0.1156 -0.9133  1.2693
  125TMC2    C7 1951   4.416   2.014   9.271 -0.1197 -0.1626 -0.3683
  125TMC2    C8 1952   4.299   1.660   8.988  0.1110  0.3028  0.1329
  125TMC2    O1 1953   4.297   2.022   9.297 -0.1306 -0.4484 -0.2861
  125TMC2    O2 1954   4.184   1.657   9.012 -0.0628 -0.3196  0.2990
  125TMC2    O5 1955   4.365   1.575   8.903 -0.0049 -0.0422  0.5258
  125TMC2    H5 1956   4.454   1.604   8.875  0.3927 -0.3988  1.3979
  126MPD1     C 1957   0.384   1.373   9.019 -0.1033 -0.3392 -0.0331
  126MPD1    C1 1958   0.281   1.301   9.082 -0.0636  0.2027 -0.5572
  126MPD1    C2 1959   0.175   1.381   9.114  0.1138 -0.3309 -0.2116
  126MPD1    C3 1960   0.169   1.522   9.099  0.7016 -0.4218  1.1544
  126MPD1    C4 1961   0.283   1.586   9.056  0.0991 -0.6350  0.1126
  126MPD1    C5 1962   0.386   1.512   9.013 -0.4803 -0.4375  0.0158
  126MPD1     H 1963   0.095   1.327   9.163 -1.2042  0.3508 -1.6078
  126MPD1    H1 1964   0.280   1.694   9.043  1.1958 -0.5615  0.5187
  126MPD1    H2 1965   0.461   1.313   8.972  0.1587 -0.8063  0.9901
  126MPD1    H3 1966   0.467   1.557   8.956 -0.1135 -0.2639  0.6743
  126MPD1     N 1967   0.046   1.584   9.121 -0.7376 -0.0747 -0.2034
  126MPD1    H5 1968   4.701   1.530   9.149  1.0859 -1.4810  2.4220
  126MPD1    N1 1969   0.269   1.159   9.076  0.0782 -0.0326  0.5104
  126MPD1    H6 1970   0.354   1.107   9.097  0.9372  0.7504 -1.0196
  126MPD1    H7 1971   0.212   1.133   9.156 -0.2601  1.4247  0.7401
  127TMC2    C1 1972   0.374   0.756   9.719 -0.4389 -0.3886  0.1881
  127TMC2    C2 1973   0.383   0.686   9.832  0.4713 -0.0198 -0.0957
  127TMC2    C3 1974   0.280   0.598   9.855 -0.5087  1.0873 -0.7913
  127TMC2    C4 1975   0.264   0.738   9.633 -0.3863 -0.4370 -0.1990
  127TMC2    C5 1976   0.166   0.643   9.658 -0.5609  0.4322  0.3423
  127TMC2    C6 1977   0.168   0.582   9.778  0.2928  0.1176 -0.3869
  127TMC2     C 1978   0.441   0.879   9.715 -0.4473 -0.1819 -0.4429
  127TMC2     O 1979   0.510   0.914   9.809  0.5016  0.0723  0.1816
  127TMC2     H 1980   0.468   0.701   9.898  0.4898 -1.5869  0.2375
  127TMC2    H1 1981   0.257   0.773   9.531 -0.6068 -0.8651 -0.3317
  127TMC2    H2 1982   0.081   0.540   9.828 -0.1902  0.2760 -1.1106
  127TMC2    C7 1983   0.045   0.647   9.584 -0.0844  0.0652 -0.9548
  127TMC2    C8 1984   0.302   0.510   9.975 -0.6596 -0.0811 -0.7563
  127TMC2    O1 1985   0.039   0.739   9.500 -0.7396  0.2682  0.4447
  127TMC2    O2 1986   0.396   0.527  10.050 -0.2791  0.1498 -0.0732
  127TMC2    O5 1987   0.225   0.393   9.973 -0.0291 -0.0660  0.7565
  127TMC2    H5 1988   0.160   0.384   9.901 -1.1160  1.1206  1.5904
  128MPD2     C 1989   0.449   1.102   9.429  0.5066 -0.2876 -0.2749
  128MPD2    C1 1990   0.479   1.067   9.556  0.2490  0.4723 -0.0650
  128MPD2    C2 1991   0.557   1.151   9.633 -0.4082  0.1411  0.6802
  128MPD2    C3 1992   0.596   1.275   9.586 -0.0599  0.2303 -0.2870
  128MPD2    C4 1993   0.568   1.303   9.454 -0.3246 -0.5385 -0.1060
  128MPD2    C5 1994   0.496   1.217   9.376 -0.3994 -0.2491  0.2588
  128MPD2     H 1995   0.581   1.120   9.734 -2.4607 -2.5296  0.3652
  128MPD2    H1 1996   0.606   1.392   9.406  1.0904 -0.1091  1.8090
  128MPD2    H2 1997   0.380   1.042   9.369  0.7091 -0.7288 -0.0621
  128MPD2    H3 1998   0.475   1.240   9.272 -0.2981 -2.1301 -0.1762
  128MPD2     N 1999   0.677   1.359   9.667  0.4613  0.1901 -0.1021
  128MPD2    H5 2000   0.710   1.331   9.759  1.1523 -0.1642 -0.4575
  128MPD2    N1 2001   0.418   0.944   9.599  0.3669  0.2131  0.5993
  128MPD2    H7 2002   0.378   0.890   9.523  1.8610  1.1948 -0.9049
  129TMC2    C1 2003   2.675   2.330   1.961 -1.1421  0.1885  0.5629
  129TMC2    C2 2004   2.548   2.320   1.920 -0.2525 -0.0128 -0.1115
  129TMC2    C3 2005   2.506   2.217   1.837  0.0814  0.3961 -0.3696
  129TMC2    C4 2006   2.768   2.229   1.927 -0.5078  0.2585 -0.3499
  129TMC2    C5 2007   2.727   2.128   1.846  0.3137  0.5034  0.0180
  129TMC2    C6 2008   2.599   2.119   1.797 -0.4461 -0.2711  0.2217
  129TMC2     C 2009   2.721   2.451   2.031  0.4711 -0.0829  0.2289
  129TMC2     O 2010   2.632   2.517   2.091  0.4190  0.0782 -0.0375
  129TMC2     H 2011   2.477   2.394   1.956 -0.4863  0.2836 -1.1755
  129TMC2    H1 2012   2.865   2.224   1.975 -1.2747 -0.1911  1.1428
  129TMC2    H2 2013   2.566   2.021   1.768 -0.0781 -1.0520  2.4696
  129TMC2    C7 2014   2.797   2.010   1.860  0.8539 -0.0040  0.0018
  129TMC2    C8 2015   2.365   2.182   1.875  0.7409  0.1539 -0.0196
  129TMC2    O1 2016   2.733   1.908   1.865 -0.4168  0.4652  0.7917
  129TMC2    O2 2017   2.303   2.214   1.978 -0.3028 -0.4474  0.3113
  129TMC2    O5 2018   2.332   2.067   1.808  0.0765  0.3733 -0.0510
  129TMC2    H5 2019   2.386   2.055   1.727 -0.4496  0.4336 -0.4068
  130MPD2     C 2020   2.863   2.628   2.203  0.4006 -0.0970  0.6734
  130MPD2    C1 2021   2.919   2.573   2.087 -0.0935  0.5733  0.1856
  130MPD2    C2 2022   3.029   2.636   2.031  0.1499 -0.6632  0.1874
  130MPD2    C3 2023   3.076   2.752   2.089 -0.1817  0.9750  0.1313
  130MPD2    C4 2024   3.030   2.795   2.207  0.0029  0.0584  0.3661
  130MPD2    C5 2025   2.923   2.737   2.263 -0.1992 -0.7933 -0.7749
  130MPD2     H 2026   3.053   2.608   1.929  2.0218 -2.2405  1.0517
  130MPD2    H1 2027   3.068   2.883   2.259 -0.3661  0.7758 -0.5760
  130MPD2    H2 2028   2.774   2.587   2.250 -0.1547  1.8505  1.3294
  130MPD2    H3 2029   2.884   2.776   2.356  3.2507 -1.6290  1.0390
  130MPD2     N 2030   3.178   2.827   2.025  0.0233  0.3843 -0.2892
  130MPD2    H5 2031   3.196   2.914   2.075 -2.3814  0.7829 -0.1295
  130MPD2    N1 2032   2.854   2.473   2.017  0.1450  0.6362  0.4886
  130MPD2    H7 2033   2.900   2.427   1.939 -0.3095 -0.9008  1.1297
  131TMC2    C1 2034   3.011   0.602  10.088  0.0488 -0.5697  0.1589
  131TMC2    C2 2035   3.032   0.703  10.174 -0.3168  0.3775  0.2602
  131TMC2    C3 2036   3.059   0.828  10.130 -0.0492  0.0283 -0.3674
  131TMC2    C4 2037   2.987   0.632   9.952  0.3546  0.9481 -0.1244
  131TMC2    C5 2038   2.993   0.766   9.917 -0.3413  0.2203 -0.2500
  131TMC2    C6 2039   3.028   0.864  10.008  0.2135  0.5482 -0.3610
  131TMC2     C 2040   2.969   0.473  10.145 -0.2183 -0.4223  0.6356
  131TMC2     O 2041   2.934   0.474  10.262 -0.2969  0.3186  0.5563
  131TMC2     H 2042   3.038   0.677  10.279  1.6034 -1.3780 -0.3058
  131TMC2    H1 2043   2.966   0.553   9.881  1.2269 -0.8774  1.6414
  131TMC2    H2 2044   3.028   0.967   9.975  0.9179  0.0243 -2.0679
  131TMC2    C7 2045   2.991   0.788   9.776 -0.4596 -0.3715  0.4772
  131TMC2    C8 2046   3.059   0.923  10.237  0.0610 -0.5608 -0.2155
  131TMC2    O1 2047   2.960   0.689   9.708 -0.4565  0.2311  0.4757
  131TMC2    O2 2048   3.019   0.902  10.353 -0.2384  0.7315 -0.5240
  131TMC2    O5 2049   3.056   1.051  10.176  0.2099  0.1982  0.5132
  131TMC2    H5 2050   3.082   1.057  10.081  1.0341  1.4996  0.8252
  132MPD2     C 2051   2.961   0.150   9.983 -0.2912 -0.5180  0.9525
  132MPD2    C1 2052   2.942   0.236  10.087  0.3276  1.2865 -0.8073
  132MPD2    C2 2053   2.888   0.192  10.201 -0.5489 -0.2034 -0.7639
  132MPD2    C3 2054   2.848   0.064  10.223 -0.0065  0.3234  0.1262
  132MPD2    C4 2055   2.858   4.714  10.115  0.3586 -0.3664  0.1454
  132MPD2    C5 2056   2.912   0.021   9.997  0.0483  0.1141  0.3632
  132MPD2     H 2057   2.869   0.256  10.287  2.9018 -1.0669  0.6457
  132MPD2    H1 2058   2.822   4.612  10.125  0.7631 -0.1372  3.9187
  132MPD2    H2 2059   3.010   0.173   9.889  0.7156 -2.2539  1.0481
  132MPD2    H3 2060   2.924   4.685   9.917 -2.2234  1.2860 -1.0208
  132MPD2     N 2061   2.784   0.030  10.348  0.3604 -0.2216 -0.1070
  132MPD2    H5 2062   2.773   0.112  10.407 -1.2193 -1.3855  1.1873
  132MPD2    N1 2063   2.978   0.366  10.059  0.1225 -0.1068 -0.2519
  132MPD2    H7 2064   3.020   0.385   9.968 -0.0362  0.7577 -0.1485
  133TMC2    C1 2065   1.038   0.137   9.622 -0.4345 -0.5189  1.0274
  133TMC2    C2 2066   0.979   0.214   9.521  0.3538 -0.4037  0.0777
  133TMC2    C3 2067   0.844   0.199   9.512  0.6303 -0.3011  0.4952
  133TMC2    C4 2068   0.967   0.051   9.698  0.3504  0.4296  0.0610
  133TMC2    C5 2069   0.828   0.046   9.682  0.4860  0.8013  0.3623
  133TMC2    C6 2070   0.761   0.121   9.591  0.6480  0.4750 -0.8911
  133TMC2     C 2071   1.176   0.162   9.648 -0.2912  0.3888 -0.6583
  133TMC2     O 2072   1.229   0.256   9.589 -0.9437 -0.3391 -0.9319
  133TMC2     H 2073   1.029   0.290   9.463 -0.8234  0.1510 -0.2057
  133TMC2    H1 2074   1.011   4.727   9.777  0.4621  1.0262  0.4550
  133TMC2    H2 2075   0.653   0.132   9.595  0.3900 -1.9283 -1.5576
  133TMC2    C7 2076   0.758   4.687   9.772 -0.0160  0.1417 -0.4922
  133TMC2    C8 2077   0.784   0.271   9.404  0.6065  0.1172  0.8000
  133TMC2    O1 2078   0.822   4.640   9.867 -0.3714 -0.3153 -0.5694
  133TMC2    O2 2079   0.849   0.343   9.333  0.0377 -0.3685  0.0862
  133TMC2    O5 2080   0.684   0.196   9.365 -0.0520 -0.0429  0.1884
  133TMC2    H5 2081   0.659   0.123   9.425 -1.8522  1.3432  1.1037
  134MPD2     C 2082   1.407   4.724   9.874 -0.1477 -0.6716 -0.3869
  134MPD2    C1 2083   1.367   0.075   9.780 -0.4931  0.2153 -0.1176
  134MPD2    C2 2084   1.466   0.150   9.712  1.0346  0.0733 -0.7122
  134MPD2    C3 2085   1.600   0.137   9.737 -0.6338 -0.6492  0.1484
  134MPD2    C4 2086   1.639   0.049   9.835 -0.5525 -0.1243  0.2512
  134MPD2    C5 2087   1.541   4.710   9.902 -0.1682 -0.1959 -0.0697
  134MPD2     H 2088   1.442   0.211   9.626 -0.3680 -0.0225 -0.4040
  134MPD2    H1 2089   1.745   0.033   9.853 -0.4866 -0.4330 -0.4049
  134MPD2    H2 2090   1.331   4.663   9.922 -0.9954 -0.4163 -1.3932
  134MPD2    H3 2091   1.566   4.630   9.971  2.0093  0.1426 -0.4575
  134MPD2     N 2092   1.698   0.221   9.675 -0.5821 -0.2191  0.6283
  134MPD2    H5 2093   1.655   0.289   9.613 -0.8813 -1.7081 -0.7870
  134MPD2    N1 2094   1.226   0.085   9.752  0.3195 -0.1352  0.6857
  134MPD2    H7 2095   1.166   0.025   9.808 -0.0554  1.5746  2.0959
  135TMC2    C1 2096   3.982   2.847   9.943 -0.1239  0.5760 -0.2985
  135TMC2    C2 2097   4.088   2.937   9.928  0.5042 -0.3179  0.0360
  135TMC2    C3 2098   4.133   2.995  10.043  0.0370  0.0291  0.5871
  135TMC2    C4 2099   3.916   2.810  10.059 -0.0225 -0.8115  0.2147
  135TMC2    C5 2100   3.981   2.862  10.169  0.3850 -0.3145 -0.2737
  135TMC2    C6 2101   4.084   2.955  10.165 -0.0964  0.1182 -0.0928
  135TMC2     C 2102   3.933   2.766   9.831 -0.7406 -0.6817  0.9487
  135TMC2     O 2103   3.824   2.719   9.833  0.0451 -0.3588  0.2529
  135TMC2     H 2104   4.104   2.991   9.835 -0.6090 -3.1392 -1.7794
  135TMC2    H1 2105   3.841   2.732  10.066 -0.5890 -0.2145  0.6764
  135TMC2    H2 2106   4.133   2.990  10.255 -0.7407  1.4044 -0.2561
  135TMC2    C7 2107   3.958   2.805  10.302 -0.6932 -0.5925 -0.5374
  135TMC2    C8 2108   4.232   3.095  10.037  0.3313  0.1989  0.5290
  135TMC2    O1 2109   3.969   2.885  10.396 -0.2228 -0.4668 -0.3185
  135TMC2    O2 2110   4.255   3.166  10.131 -0.3511  0.1547  0.4317
  135TMC2    O5 2111   4.317   3.071   9.930  0.1578 -0.5498 -0.3848
  135TMC2    H5 2112   4.299   2.987   9.882 -0.8598 -1.3395  1.3940
  136MPD2     C 2113   3.900   2.591   9.592  0.0114 -0.3224  0.1735
  136MPD2    C1 2114   4.010   2.671   9.619 -0.1616  0.5184  0.0005
  136MPD2    C2 2115   4.100   2.682   9.518 -0.3972 -0.3407 -0.1055
  136MPD2    C3 2116   4.094   2.613   9.399 -0.0988  0.1719 -0.1132
  136MPD2    C4 2117   3.973   2.552   9.367  0.0798 -0.1885  0.6564
  136MPD2    C5 2118   3.879   2.532   9.470 -0.4143 -0.0115 -0.8482
  136MPD2     H 2119   4.194   2.726   9.549 -0.2098 -0.8260  0.0094
  136MPD2    H1 2120   3.963   2.485   9.283  0.2531 -1.9246  2.0164
  136MPD2    H2 2121   3.818   2.588   9.663 -0.5007 -1.0250 -0.4432
  136MPD2    H3 2122   3.789   2.479   9.443  0.4087 -2.2109  0.6914
  136MPD2     N 2123   4.204   2.599   9.307 -0.7924  0.5084 -0.1814
  136MPD2    H5 2124   4.192   2.541   9.224 -0.3064 -1.7620  1.3533
  136MPD2    N1 2125   4.036   2.736   9.742 -0.2398  0.5840 -0.1055
  136MPD2    H7 2126   4.132   2.769   9.751 -0.3405  0.0065  3.2428
  137TMC2    C1 2127   4.251   1.245   9.334  0.7431  0.4819 -0.2470
  137TMC2    C2 2128   4.377   1.255   9.287 -0.1427  0.5141 -0.7639
  137TMC2    C3 2129   4.389   1.273   9.153  0.1766  0.0490 -0.3865
  137TMC2    C4 2130   4.149   1.222   9.248  0.5832 -0.4708  0.3415
  137TMC2    C5 2131   4.158   1.238   9.113 -0.4252  0.4744 -0.6923
  137TMC2    C6 2132   4.282   1.270   9.061 -0.2386  0.6470 -0.3329
  137TMC2     C 2133   4.239   1.214   9.474  0.8283 -0.2410  0.1528
  137TMC2     O 2134   4.343   1.194   9.536 -0.3607  0.7677 -0.1135
  137TMC2     H 2135   4.452   1.269   9.364 -1.4461  0.5959  0.4778
  137TMC2    H1 2136   4.047   1.209   9.285  0.5177 -0.4086  0.1831
  137TMC2    H2 2137   4.286   1.313   8.961 -0.7270  1.5006  0.0179
  137TMC2    C7 2138   4.037   1.232   9.035 -0.4875  0.0612 -0.2641
  137TMC2    C8 2139   4.516   1.327   9.110  0.1122  0.3365 -0.0491
  137TMC2    O1 2140   4.048   1.179   8.923 -0.4780 -0.1612 -0.1923
  137TMC2    O2 2141   4.591   1.378   9.189  0.0804 -0.3840  0.1436
  137TMC2    O5 2142   4.554   1.300   8.982 -0.1415 -0.0926  0.6349
  137TMC2    H5 2143   4.483   1.248   8.940 -0.4125  0.7608  0.0354
  138MPD2     C 2144   3.960   1.097   9.675 -0.1793  0.2889 -0.2112
  138MPD2    C1 2145   4.086   1.135   9.648 -0.0919 -0.4982  0.0857
  138MPD2    C2 2146   4.183   1.137   9.756  0.1537  0.3851  0.0645
  138MPD2    C3 2147   4.155   1.076   9.873 -0.2542  0.1639  0.9805
  138MPD2    C4 2148   4.031   1.029   9.898  0.0210  0.1812 -0.5173
  138MPD2    C5 2149   3.935   1.044   9.797 -1.0844 -0.1356  0.8004
  138MPD2     H 2150   4.282   1.179   9.744  0.2276 -0.1484 -1.2066
  138MPD2    H1 2151   4.011   0.983   9.994 -0.6704  1.8972  0.1761
  138MPD2    H2 2152   3.879   1.104   9.604 -0.6167  1.3045  0.3772
  138MPD2    H3 2153   3.837   1.001   9.811 -0.1123 -0.7937  5.5492
  138MPD2     N 2154   4.267   1.076   9.972 -0.1635 -0.1656  0.6241
  138MPD2    H5 2155   4.349   1.135   9.956 -1.5763  1.1366 -1.9237
  138MPD2    N1 2156   4.113   1.178   9.519  0.1506  0.3220  0.1359
  138MPD2    H7 2157   4.037   1.179   9.452  1.2173  0.3109 -1.0875
  139TMC2    C1 2158   0.300   4.644  13.662 -0.1259 -1.2714 -0.2223
  139TMC2    C2 2159   0.358   4.730  13.754  0.5436  0.1672 -0.3971
  139TMC2    C3 2160   0.293   0.107  13.770  0.9588  0.0806 -0.1929
  139TMC2    C4 2161   0.191   4.676  13.587  0.2697 -0.0540  0.2714
  139TMC2    C5 2162   0.134   0.057  13.612  0.2374  0.1876 -0.0785
  139TMC2    C6 2163   0.183   0.145  13.703 -0.4711 -0.1382  0.3522
  139TMC2     C 2164   0.361   4.517  13.631 -0.1631 -0.5163 -0.6805
  139TMC2     O 2165   0.305   4.453  13.546 -0.4376 -0.2207 -0.3928
  139TMC2     H 2166   0.454   4.722  13.805  0.7265  1.1532 -0.5720
  139TMC2    H1 2167   0.155   4.607  13.512 -0.0532 -0.3158  0.6683
  139TMC2    H2 2168   0.140   0.243  13.722 -0.1333 -0.1553  1.1789
  139TMC2    C7 2169   0.001   0.080  13.571  0.2034  0.2561 -0.1349
  139TMC2    C8 2170   0.357   0.206  13.846 -0.3250  0.3333 -0.5707
  139TMC2    O1 2171   4.685   0.181  13.612  0.0628  0.7329 -0.2935
  139TMC2    O2 2172   0.388   0.170  13.959  0.0175 -0.0387  0.2758
  139TMC2    O5 2173   0.372   0.320  13.772  0.0739 -0.0804 -0.2647
  139TMC2    H5 2174   0.347   0.302  13.679 -2.5145  0.3476  0.3349
  140MPD2     C 2175   0.596   4.322  13.850 -0.1022 -0.0295 -0.2694
  140MPD2    C1 2176   0.527   4.358  13.737 -0.2549  0.2138 -0.7199
  140MPD2    C2 2177   0.519   4.262  13.631 -0.1519 -0.8059 -0.2422
  140MPD2    C3 2178   0.587   4.144  13.642  0.2194 -0.1503  0.1896
  140MPD2    C4 2179   0.674   4.117  13.749  1.3215 -0.2810  0.4444
  140MPD2    C5 2180   0.667   4.208  13.850  0.2636  0.5245  0.6187
  140MPD2     H 2181   0.487   4.294  13.533 -0.1663  2.3514  0.7912
  140MPD2    H1 2182   0.739   4.030  13.755  3.4528  1.3331  0.6051
  140MPD2    H2 2183   0.603   4.383  13.939 -2.0516 -0.7851  0.3899
  140MPD2    H3 2184   0.735   4.200  13.934 -0.4059  1.1145  1.2105
  140MPD2     N 2185   0.597   4.056  13.525  0.2293 -1.2302  0.5468
  140MPD2    H5 2186   0.550   4.091  13.442  2.2550 -2.1211 -0.9632
  140MPD2    N1 2187   0.457   4.485  13.729  0.3959  0.5971  0.2273
  140MPD2    H7 2188   0.494   4.556  13.791  0.9143 -0.4268  1.0812
  141TMC2    C1 2189   4.672   0.795  14.981 -0.5402  0.2239 -0.3932
  141TMC2    C2 2190   4.599   0.689  15.040  0.0797  0.0456  0.4208
  141TMC2    C3 2191   4.625   0.675  15.172  0.3164  0.6585  0.4207
  141TMC2    C4 2192   4.732   0.895  15.053 -0.4423 -0.5306 -0.1459
  141TMC2    C5 2193   4.731   0.883  15.190  0.2995 -0.3138  0.0837
  141TMC2    C6 2194   4.695   0.768  15.247  0.0346  0.3801  0.1004
  141TMC2     C 2195   4.675   0.817  14.842 -0.5758 -0.5320  0.3397
  141TMC2     O 2196   0.030   0.880  14.792 -0.0851  0.0908 -0.3709
  141TMC2     H 2197   4.545   0.612  14.987  1.3457 -0.4582 -0.1405
  141TMC2    H1 2198   0.062   0.963  15.001 -1.1262  0.4277  0.2163
  141TMC2    H2 2199   4.708   0.754  15.354 -0.2969  1.4081  0.2745
  141TMC2    C7 2200   0.072   0.975  15.262 -0.2153  0.4712  0.0647
  141TMC2    C8 2201   4.563   0.563  15.237 -0.4158 -0.1797  0.2438
  141TMC2    O1 2202   0.128   0.936  15.363 -0.2794 -0.1243  0.0078
  141TMC2    O2 2203   4.465   0.506  15.194 -0.0906  0.6896 -0.8174
  141TMC2    O5 2204   4.655   0.510  15.318 -0.0016 -0.3687 -0.0770
  141TMC2    H5 2205   0.009   0.549  15.307 -0.2739  0.3864  0.3589
  142TMC2    C1 2206   3.221   4.689  10.333  0.3741 -0.8484  0.0586
  142TMC2    C2 2207   3.271   4.668  10.214  1.1168 -0.4382  0.2109
  142TMC2    C3 2208   3.328   0.038  10.150  0.9078 -0.0167 -0.6855
  142TMC2    C4 2209   3.233   0.077  10.393  0.1756  0.3549  0.3753
  142TMC2    C5 2210   3.273   0.185  10.321  0.6353 -0.1751  0.0222
  142TMC2    C6 2211   3.317   0.168  10.193  0.6094 -0.5287 -0.0754
  142TMC2     C 2212   3.170   4.569  10.407 -0.8345 -0.2788  0.4501
  142TMC2     O 2213   3.179   4.464  10.352 -0.0122  0.6206 -0.4603
  142TMC2     H 2214   3.269   4.572  10.165 -0.1797  0.5724 -1.6965
  142TMC2    H1 2215   3.184   0.095  10.488  1.1785 -0.6018  1.0741
  142TMC2    H2 2216   3.345   0.243  10.120  0.5357 -0.4298 -0.0024
  142TMC2    C7 2217   3.253   0.315  10.376 -0.7283 -0.6337 -0.1311
  142TMC2    C8 2218   3.357   0.010  10.007  0.0813  0.2845  0.3294
  142TMC2    O1 2219   3.215   0.323  10.491 -0.1212  0.0243 -0.2534
  142TMC2    O2 2220   3.303   4.659   9.946  0.0501 -0.0837 -0.8413
  142TMC2    O5 2221   3.467   0.077   9.967 -0.3489 -0.0639 -0.1696
  142TMC2    H5 2222   3.505   0.121  10.046  1.6111  1.2023 -1.8092
  143MPD2     C 2223   2.931   4.362  10.805 -0.8637 -0.1626 -0.0344
  143MPD2    C1 2224   2.924   4.327  10.671 -0.1690 -0.1745 -0.0739
  143MPD2    C2 2225   2.994   4.402  10.579 -0.0346 -0.4111 -0.2530
  143MPD2    C3 2226   3.066   4.503  10.621 -0.6306  0.5612  0.1930
  143MPD2    C4 2227   3.064   4.547  10.751  0.3160  0.0355  0.4461
  143MPD2    C5 2228   3.004   4.469  10.848  0.6334  0.4028 -0.1796
  143MPD2     H 2229   2.989   4.370  10.476 -0.3193  0.6138 -0.5572
  143MPD2    H1 2230   3.113   4.639  10.780  2.2867  0.2558 -3.6561
  143MPD2    H2 2231   2.874   4.310  10.882 -1.0988 -1.0879 -0.8253
  143MPD2    H3 2232   2.990   4.487  10.954  0.2640 -1.5206  0.0920
  143MPD2     N 2233   3.144   4.594  10.538  0.2202 -0.5266 -0.1818
  143MPD2    H5 2234   3.194   4.669  10.584  1.2046 -1.6494  0.5604
  143MPD2    N1 2235   2.847   4.215  10.630 -0.1996  0.5977 -0.0403
  143MPD2    H7 2236   2.791   4.167  10.700 -1.3854  1.4830 -0.3732
  144TMC2    C1 2237   1.357   3.306   0.494 -0.0706  0.6950  0.1548
  144TMC2    C2 2238   1.458   3.228   0.449 -0.3719  0.5862  0.1487
  144TMC2    C3 2239   1.590   3.264   0.462  0.2339  0.2928  0.1902
  144TMC2    C4 2240   1.378   3.414   0.570  0.2075 -0.0402  0.2750
  144TMC2    C5 2241   1.509   3.448   0.598  0.4360 -0.8270 -0.5948
  144TMC2    C6 2242   1.614   3.376   0.540 -0.4362 -0.2660  0.4698
  144TMC2     C 2243   1.222   3.271   0.447 -0.2181  0.1156  0.3259
  144TMC2     O 2244   1.227   3.160   0.398  0.4042  0.5007 -0.7386
  144TMC2     H 2245   1.441   3.135   0.396  1.8989 -0.1606  0.7175
  144TMC2    H1 2246   1.302   3.463   0.630  1.2958  0.4412  1.2713
  144TMC2    H2 2247   1.716   3.386   0.575 -0.1049 -1.7792 -0.0719
  144TMC2    C7 2248   1.542   3.510   0.727 -0.2626 -0.1711 -1.0064
  144TMC2    C8 2249   1.681   3.149   0.484 -0.2112  0.5237 -0.7188
  144TMC2    O1 2250   1.647   3.483   0.783  0.1852 -0.8562  0.0063
  144TMC2    O2 2251   1.766   3.144   0.574 -0.3204 -0.1737  0.1028
  144TMC2    O5 2252   1.675   3.075   0.371 -0.2186  0.0932  0.1548
  144TMC2    H5 2253   1.625   3.111   0.294 -0.5144 -2.3567 -0.7968
  145MPD2     C 2254   0.730   3.327   0.339 -0.5413  0.8850 -0.6065
  145MPD2    C1 2255   0.817   3.226   0.306  1.2324 -0.0439 -0.1384
  145MPD2    C2 2256   0.949   3.238   0.350 -0.2018 -0.4001  0.3939
  145MPD2    C3 2257   0.998   3.355   0.420 -0.4093  0.0183  0.4121
  145MPD2    C4 2258   0.907   3.461   0.433 -0.3347  0.9205 -0.0035
  145MPD2    C5 2259   0.777   3.446   0.388 -0.0275  0.4485  0.1726
  145MPD2     H 2260   1.014   3.159   0.315 -1.1716 -1.3344  0.6972
  145MPD2    H1 2261   0.941   3.551   0.481  0.4532  0.9521 -0.6192
  145MPD2    H2 2262   0.625   3.320   0.313  0.1736 -0.8137 -3.0356
  145MPD2    H3 2263   0.703   3.519   0.418  0.7498  0.6600  1.5735
  145MPD2     N 2264   1.130   3.371   0.463  0.9290 -0.2877  0.0859
  145MPD2    H5 2265   1.147   3.456   0.515  0.7449 -0.1333 -0.1034
  145MPD2    N1 2266   0.781   3.107   0.234  0.1421 -0.2215  0.3334
  145MPD2    H7 2267   0.856   3.043   0.214  0.3559  0.3882 -0.8206
  146TMC2    C1 2268   2.526   2.050  12.795  0.6773 -0.6222  0.1769
  146TMC2    C2 2269   2.522   2.074  12.655 -0.5508 -0.1178  0.4353
  146TMC2    C3 2270   2.629   2.025  12.586 -0.9129 -0.9594  0.0888
  146TMC2    C4 2271   2.613   1.953  12.844  0.0314  0.8409  0.3001
  146TMC2    C5 2272   2.709   1.907  12.763  1.0479 -0.0457 -0.6407
  146TMC2    C6 2273   2.726   1.945  12.630  0.3272  0.1665 -0.2946
  146TMC2     C 2274   2.421   2.104  12.880  0.3606  0.1594 -0.2884
  146TMC2     O 2275   2.327   2.156  12.824 -0.3966 -0.3809 -0.0183
  146TMC2     H 2276   2.449   2.147  12.621 -0.8159 -1.1887 -1.2869
  146TMC2    H1 2277   2.616   1.922  12.948 -1.4205 -0.6154 -0.0931
  146TMC2    H2 2278   2.807   1.912  12.566 -1.4239  0.6112 -2.7337
  146TMC2    C7 2279   2.829   1.864  12.824 -0.1146 -0.4874 -0.0942
  146TMC2    C8 2280   2.626   2.040  12.440 -0.8222 -0.2642  0.9959
  146TMC2    O1 2281   2.930   1.932  12.802  0.5907  0.8543  0.1329
  146TMC2    O2 2282   2.723   2.014  12.367  0.1858  0.4947  0.0722
  146TMC2    O5 2283   2.494   2.024  12.411  0.1586  0.2304 -0.7621
  146TMC2    H5 2284   2.443   1.997  12.490  0.1567  0.0278 -0.8325
  147MPD2     C 2285   3.110   1.508  13.060 -0.2878 -0.9921 -0.6228
  147MPD2    C1 2286   2.978   1.483  13.087 -0.0734  0.5493 -0.4188
  147MPD2    C2 2287   2.884   1.565  13.042  0.0752 -0.0963 -0.4573
  147MPD2    C3 2288   2.918   1.678  12.968  0.4743  0.4715  0.5250
  147MPD2    C4 2289   3.056   1.703  12.938  0.4329 -0.6138  0.2290
  147MPD2    C5 2290   3.147   1.607  12.977  0.1834 -0.1269 -1.1879
  147MPD2     H 2291   2.780   1.551  13.066 -0.0574  1.7154 -0.0012
  147MPD2    H1 2292   3.098   1.781  12.876  2.2999 -0.7731  1.2797
  147MPD2    H2 2293   3.194   1.448  13.094  0.0552 -0.0357  0.2301
  147MPD2    H3 2294   3.251   1.617  12.947 -0.5358 -0.2136 -3.6768
  147MPD2     N 2295   2.814   1.760  12.908 -0.0512  0.7143 -0.6383
  147MPD2    H5 2296   2.720   1.722  12.919  1.4164 -2.5803  0.7686
  147MPD2    N1 2297   2.946   1.373  13.175 -0.0976  0.4770 -0.6045
  147MPD2    H7 2298   3.024   1.317  13.207 -0.5890 -1.0954 -2.1635
  148TMC2    C1 2299   2.438   0.804  10.579 -0.5697  0.5876  0.4812
  148TMC2    C2 2300   2.503   0.906  10.647  1.1072  0.3314 -0.6456
  148TMC2    C3 2301   2.579   0.874  10.757 -0.5913 -1.0551 -0.1188
  148TMC2    C4 2302   2.465   0.672  10.612  0.6089  0.5805 -0.3307
  148TMC2    C5 2303   2.554   0.648  10.714  0.5857 -1.0871 -0.4777
  148TMC2    C6 2304   2.606   0.749  10.793 -1.3968 -0.7312 -0.6056
  148TMC2     C 2305   2.331   0.849  10.489  0.1670 -0.7177 -0.1087
  148TMC2     O 2306   2.317   0.964  10.449 -0.3308 -0.2670 -0.2045
  148TMC2     H 2307   2.482   1.010  10.625 -0.0699  0.3137  0.4019
  148TMC2    H1 2308   2.405   0.592  10.569  2.3520  0.6147 -2.8778
  148TMC2    H2 2309   2.672   0.734  10.877  0.3383  1.2561 -1.6089
  148TMC2    C7 2310   2.547   0.517  10.759  0.2444  0.2748  0.5272
  148TMC2    C8 2311   2.625   0.986  10.839  0.2173 -0.3685  0.1378
  148TMC2    O1 2312   2.515   0.433  10.673  0.1639  0.2876  0.2645
  148TMC2    O2 2313   2.720   0.987  10.913  0.4892  0.2706 -0.2792
  148TMC2    O5 2314   2.506   1.055  10.867 -0.1689 -0.0148 -0.1880
  148TMC2    H5 2315   2.426   1.036  10.815  0.6012 -0.5733 -1.1460
  149MPD2     C 2316   2.070   0.864  10.345  0.2488  0.1620  0.8092
  149MPD2    C1 2317   2.111   0.759  10.418 -0.1487  0.0128 -0.3302
  149MPD2    C2 2318   2.021   0.653  10.424 -0.7463  0.0721  0.1323
  149MPD2    C3 2319   1.893   0.662  10.356 -0.3915  0.3002 -0.7534
  149MPD2    C4 2320   1.865   0.772  10.282 -0.5634 -0.3850 -0.3707
  149MPD2    C5 2321   1.953   0.868  10.276  0.2553 -0.1210 -0.6898
  149MPD2     H 2322   2.043   0.570  10.490  0.5287 -0.1083 -0.5178
  149MPD2    H1 2323   1.773   0.777  10.224 -1.3844 -5.2968  0.4707
  149MPD2    H2 2324   2.127   0.956  10.344  0.0413  0.3011  1.5198
  149MPD2    H3 2325   1.922   0.958  10.225 -0.7169 -0.1537 -0.1419
  149MPD2     N 2326   1.799   0.560  10.356 -0.1854  0.3926 -0.1943
  149MPD2    H5 2327   1.714   0.558  10.301 -1.3784 -1.7576  1.7184
  149MPD2    N1 2328   2.237   0.750  10.484 -0.8727 -0.5079 -0.4641
  149MPD2    H7 2329   2.264   0.659  10.522 -0.9920 -0.7348 -0.9174
  150TMC2    C1 2330   4.356   4.663  12.172 -0.7312 -0.0195  0.5102
  150TMC2    C2 2331   4.287   0.011  12.090  0.1957  0.1755  0.2352
  150TMC2    C3 2332   4.337   0.135  12.068 -0.6791 -0.2460  0.0047
  150TMC2    C4 2333   4.473   4.695  12.233 -0.8121  0.0837  0.3830
  150TMC2    C5 2334   4.521   0.083  12.210 -0.1556  0.0657  0.4711
  150TMC2    C6 2335   4.458   0.168  12.124  1.0946 -0.4934  0.1567
  150TMC2     C 2336   4.308   4.531  12.192  0.0861 -0.1252  0.3335
  150TMC2     O 2337   4.381   4.456  12.260  0.0231 -0.5584  0.2841
  150TMC2     H 2338   4.183   4.732  12.063  0.8434 -0.4951 -1.8867
  150TMC2    H1 2339   4.520   4.630  12.306 -1.0798  1.2395  1.5711
  150TMC2    H2 2340   4.506   0.261  12.093  0.1244  0.3906  1.2777
  150TMC2    C7 2341   4.663   0.111  12.229 -0.3028  0.2666 -0.0965
  150TMC2    C8 2342   4.258   0.227  11.990 -0.8552 -0.4749  0.4522
  150TMC2    O1 2343   4.693   0.222  12.195 -0.6006 -0.4278 -0.3468
  150TMC2    O2 2344   4.173   0.181  11.919  0.0209 -0.1000  0.4416
  150TMC2    O5 2345   4.258   0.345  12.061  0.2953 -0.4985 -0.3528
  150TMC2    H5 2346   4.338   0.367  12.112 -1.6344  2.0431  1.6010
  151MPD2     C 2347   3.984   4.142  12.113 -0.4537 -0.1790 -0.1193
  151MPD2    C1 2348   3.996   4.218  11.993 -0.0736 -0.1914 -0.4277
  151MPD2    C2 2349   4.071   4.333  11.998  0.1405 -0.3478  0.8730
  151MPD2    C3 2350   4.143   4.366  12.110 -1.0699  0.0960 -0.2202
  151MPD2    C4 2351   4.129   4.295  12.231  0.4148 -0.4493  0.8813
  151MPD2    C5 2352   4.047   4.179  12.225  0.1527 -0.2700 -0.4809
  151MPD2     H 2353   4.084   4.395  11.910 -0.9362 -1.2211  0.0990
  151MPD2    H1 2354   4.190   4.313  12.319  0.8955  0.7555  0.3128
  151MPD2    H2 2355   3.932   4.047  12.104  0.8316 -0.6938 -2.1756
  151MPD2    H3 2356   4.033   4.118  12.313  3.0540 -0.2291  0.0034
  151MPD2     N 2357   4.205   4.492  12.105 -0.0333  1.0101  0.3879
  151MPD2    H5 2358   4.193   4.559  12.029  4.0920  0.5786 -0.6651
  151MPD2    N1 2359   3.906   4.185  11.891  0.1809 -0.4501  0.2052
  151MPD2    H7 2360   3.857   4.097  11.900 -1.9242  0.4748 -1.9743
  152TMC2    C1 2361   4.303   4.390  12.631  0.9115 -0.7590 -0.1124
  152TMC2    C2 2362   4.394   4.285  12.650  0.0926  0.2368 -0.1528
  152TMC2    C3 2363   4.524   4.309  12.649 -0.1454  0.0054 -0.4356
  152TMC2    C4 2364   4.350   4.516  12.617 -0.0599  0.0654 -0.2032
  152TMC2    C5 2365   4.478   4.543  12.628 -0.1641 -0.0503  0.2175
  152TMC2    C6 2366   4.569   4.440  12.644 -0.2062  0.1628  0.1193
  152TMC2     C 2367   4.167   4.365  12.599 -0.3520 -0.5682 -0.2424
  152TMC2     O 2368   4.097   4.444  12.533 -0.3180  0.5596  0.1389
  152TMC2     H 2369   4.366   4.182  12.632  2.7504 -0.2848 -1.2944
  152TMC2    H1 2370   4.279   4.598  12.613 -1.2257 -0.9335  0.1305
  152TMC2    H2 2371   4.675   4.463  12.651 -0.5941  1.5873  1.2714
  152TMC2    C7 2372   4.525   4.680  12.618  0.0530 -0.1555  0.3837
  152TMC2    C8 2373   4.598   4.212  12.718  0.5823 -0.3835  0.1825
  152TMC2    O1 2374   4.442   0.024  12.577  0.2445 -0.3397  0.7709
  152TMC2    O2 2375   4.555   4.101  12.735 -0.5107  0.5330 -0.2113
  152TMC2    O5 2376   4.648   4.274  12.822 -0.3531 -0.1278  0.1324
  152TMC2    H5 2377   4.668   4.369  12.815 -0.0761 -0.3001 -1.3195
  153MPD2     C 2378   4.031   4.048  12.723 -0.0317  0.1372  0.1277
  153MPD2    C1 2379   4.028   4.166  12.651 -0.0322 -0.0122 -0.2107
  153MPD2    C2 2380   3.922   4.186  12.569 -0.7000 -0.3466 -0.5583
  153MPD2    C3 2381   3.817   4.093  12.557 -0.2668 -0.0563 -0.4212
  153MPD2    C4 2382   3.824   3.979  12.629 -0.4098  0.2889 -0.1375
  153MPD2    C5 2383   3.935   3.950  12.703 -0.3279  0.7929  0.0964
  153MPD2     H 2384   3.896   4.275  12.512 -0.9540  0.6704  1.1296
  153MPD2    H1 2385   3.752   3.898  12.619  0.5149 -0.3774 -1.3146
  153MPD2    H2 2386   4.111   4.019  12.791 -0.6525 -1.6615  0.0900
  153MPD2    H3 2387   3.940   3.852  12.749  0.2672  0.6430 -0.2879
  153MPD2     N 2388   3.709   4.123  12.467  0.2635 -0.2980  0.1744
  153MPD2    H5 2389   3.722   4.199  12.400 -0.4145 -0.8995 -0.6374
  153MPD2    N1 2390   4.132   4.255  12.672 -0.0557  0.3017  0.4605
  153MPD2    H7 2391   4.201   4.223  12.740 -0.0166  0.9172  0.7111
  154TMC2    C1 2392   1.347   4.578   0.139 -0.1236 -0.7257 -0.7519
  154TMC2    C2 2393   1.475   4.625   0.101  1.0129 -0.1290 -0.0281
  154TMC2    C3 2394   1.565   4.521   0.072  0.7201 -0.7278 -0.2484
  154TMC2    C4 2395   1.308   4.452   0.135 -0.3160  0.3369 -0.5481
  154TMC2    C5 2396   1.404   4.356   0.102  0.0794  0.2111  0.9944
  154TMC2    C6 2397   1.533   4.388   0.072 -0.3017 -0.4288 -0.3291
  154TMC2     C 2398   1.245   4.676   0.140  0.1517 -0.2836  0.0106
  154TMC2     O 2399   1.135   4.638   0.177  0.1968 -0.3351 -0.0532
  154TMC2     H 2400   1.497   4.731   0.103  0.2902 -0.0171  1.8016
  154TMC2    H1 2401   1.205   4.421   0.149  0.2089 -1.7888 -1.2795
  154TMC2    H2 2402   1.612   4.319   0.043 -2.0231 -2.2685 -0.6238
  154TMC2    C7 2403   1.356   4.224   0.075 -0.0349 -0.3037 -0.2149
  154TMC2    C8 2404   1.702   4.556   0.094 -0.4559 -0.0200  0.3176
  154TMC2    O1 2405   1.241   4.224   0.033  0.3302 -0.0393  0.3803
  154TMC2    O2 2406   1.791   4.488   0.135 -0.2012 -0.0821  0.7122
  154TMC2    O5 2407   1.725   4.662   0.011  0.1343  0.6308  0.4019
  154TMC2    H5 2408   1.640   4.691  17.715  0.0648  1.8225  1.4264
  155MPD2     C 2409   1.206   0.262  17.693  0.1084  0.0407 -0.3739
  155MPD2    C1 2410   1.184   0.164   0.040  0.4627  0.8731  0.3551
  155MPD2    C2 2411   1.072   0.180   0.122 -0.1760 -0.1917 -1.1632
  155MPD2    C3 2412   0.994   0.298   0.114 -1.1045  0.3572 -0.1145
  155MPD2    C4 2413   1.028   0.403   0.028  0.3486  0.1291  0.5609
  155MPD2    C5 2414   1.134   0.380  17.693 -0.2769  0.2319 -0.4449
  155MPD2     H 2415   1.046   0.104   0.194  1.2213 -0.2858 -0.7609
  155MPD2    H1 2416   0.979   0.500   0.033 -0.6778 -0.2201 -3.3581
  155MPD2    H2 2417   1.288   0.261  17.622  0.3569 -0.3634 -0.0802
  155MPD2    H3 2418   1.170   0.454  17.622 -1.6801  1.7676  0.4423
  155MPD2     N 2419   0.881   0.316   0.196 -0.1775  0.1329 -0.0614
  155MPD2    H5 2420   0.850   0.234   0.246 -2.1057  0.8972 -0.0198
  155MPD2    N1 2421   1.266   0.048   0.048 -0.5658  0.5813  0.8787
  155MPD2    H7 2422   1.354   0.048  17.740 -1.4953 -0.5474 -0.7212
  156TMC2    C1 2423   3.884   2.252  11.545 -1.2819 -0.1215 -0.7264
  156TMC2    C2 2424   3.775   2.288  11.470 -0.2301  0.3410 -0.0334
  156TMC2    C3 2425   3.767   2.422  11.429 -0.6302 -0.2104 -0.7375
  156TMC2    C4 2426   3.993   2.339  11.558  0.5224  0.6628 -0.4134
  156TMC2    C5 2427   3.976   2.474  11.516 -0.1287 -1.1184  0.3611
  156TMC2    C6 2428   3.860   2.515  11.457 -0.0232 -0.2727 -0.5349
  156TMC2     C 2429   3.853   2.183  11.669 -0.1718 -0.1072 -0.4279
  156TMC2     O 2430   3.955   2.160  11.732  0.1537 -0.1892 -0.4895
  156TMC2     H 2431   3.695   2.218  11.451  0.6050 -0.4998 -0.4511
  156TMC2    H1 2432   4.085   2.315  11.610  0.5771 -0.7982 -1.1845
  156TMC2    H2 2433   3.851   2.612  11.408  0.7090  0.0847  0.0260
  156TMC2    C7 2434   4.080   2.572  11.536 -0.1991  0.5091  0.2525
  156TMC2    C8 2435   3.642   2.451  11.361 -0.0597 -0.7206  0.4977
  156TMC2    O1 2436   4.193   2.550  11.503  0.1136 -0.2212 -0.3163
  156TMC2    O2 2437   3.564   2.366  11.330 -0.1924 -0.3409  0.4028
  156TMC2    O5 2438   3.600   2.561  11.428 -0.1923 -0.6324 -0.3761
  156TMC2    H5 2439   3.667   2.630  11.447  1.7240 -3.2912  2.3661
  157MPD2     C 2440   3.538   2.105  11.847 -0.4028 -0.3751 -0.5236
  157MPD2    C1 2441   3.673   2.109  11.828  0.4394 -0.8675  0.2644
  157MPD2    C2 2442   3.761   2.077  11.933 -0.1638  0.2631  0.1268
  157MPD2    C3 2443   3.706   2.042  12.054  0.0711  0.2513  0.0784
  157MPD2    C4 2444   3.571   2.029  12.076 -0.5501 -0.5858 -0.5378
  157MPD2    C5 2445   3.488   2.063  11.968  0.2241 -0.0386  0.1702
  157MPD2     H 2446   3.869   2.084  11.919 -0.2525  2.8226  0.8540
  157MPD2    H1 2447   3.517   1.984  12.159 -0.9010  0.5453 -0.1517
  157MPD2    H2 2448   3.465   2.123  11.768  0.2970 -0.1826 -1.1247
  157MPD2    H3 2449   3.381   2.051  11.968  0.4437 -1.9078 -0.0477
  157MPD2     N 2450   3.796   2.024  12.162  0.4080 -0.1669  0.2478
  157MPD2    H5 2451   3.893   2.045  12.138  0.4867 -1.0444 -0.2078
  157MPD2    N1 2452   3.716   2.163  11.703  0.2273  0.0461 -0.0111
  157MPD2    H7 2453   3.650   2.187  11.631 -2.3207  0.1465  2.3574
  158TMC2    C1 2454   4.697   0.948  13.449 -0.4726 -0.3405  0.0958
  158TMC2    C2 2455   0.020   1.036  13.366 -0.1060 -0.3217  0.1129
  158TMC2    C3 2456   4.677   1.139  13.310 -0.5501  0.0264 -0.2719
  158TMC2    C4 2457   4.556   0.936  13.462 -0.9739  0.1675  0.2298
  158TMC2    C5 2458   4.483   1.028  13.386  0.7775  0.2131  0.5892
  158TMC2    C6 2459   4.543   1.141  13.322 -0.2473 -0.4127  0.0634
  158TMC2     C 2460   0.044   0.854  13.526 -0.2632 -0.2139 -0.2402
  158TMC2     O 2461   0.160   0.837  13.498 -0.3491  0.0595 -0.4314
  158TMC2     H 2462   0.126   1.030  13.343 -0.4314  1.0616 -1.8187
  158TMC2    H1 2463   4.513   0.845  13.503 -1.9702  0.1062 -0.9480
  158TMC2    H2 2464   4.484   1.198  13.251  1.8029  1.4456 -0.1438
  158TMC2    C7 2465   4.338   0.997  13.359 -0.0151 -0.8034  0.1057
  158TMC2    C8 2466   0.009   1.232  13.220 -0.5750 -0.5264 -0.3330
  158TMC2    O1 2467   4.282   1.057  13.271  0.1672 -0.6260 -0.2547
  158TMC2    O2 2468   0.091   1.198  13.139 -0.3482 -0.2650 -0.1378
  158TMC2    O5 2469   4.677   1.352  13.225  0.8104  0.0125 -0.3051
  158TMC2    H5 2470   4.633   1.370  13.310 -0.6279 -3.1639 -0.3678
  159MPD2     C 2471   0.118   0.553  13.942  0.8829  0.0261 -0.1249
  159MPD2    C1 2472   4.722   0.572  13.925  0.8116  0.5650 -0.4667
  159MPD2    C2 2473   4.675   0.655  13.813 -0.3736  0.2729  0.1689
  159MPD2    C3 2474   0.033   0.704  13.723 -0.5059 -0.3937  0.5539
  159MPD2    C4 2475   0.165   0.672  13.741  0.4962  0.0309  0.2496
  159MPD2    C5 2476   0.209   0.603  13.853  0.7170  0.0418 -0.3946
  159MPD2     H 2477   4.575   0.695  13.806  0.5569  2.1028 -2.5296
  159MPD2    H1 2478   0.243   0.719  13.682  0.5282 -0.3555 -0.0179
  159MPD2    H2 2479   0.148   0.482  14.018  2.3609 -0.3058 -1.0183
  159MPD2    H3 2480   0.315   0.582  13.864  0.6536  0.4747  1.0001
  159MPD2     N 2481   4.715   0.792  13.626  0.7530  0.0620 -0.7908
  159MPD2    H5 2482   4.616   0.813  13.629  1.3000  2.3613  0.7618
  159MPD2    N1 2483   4.635   0.494  14.006  0.1194 -0.1778 -0.1601
  159MPD2    H7 2484   4.671   0.427  14.073  0.7219 -0.6028 -0.8984
  160TMC2    C1 2485   0.109   4.049   1.250 -0.9107  0.3456 -0.2193
  160TMC2    C2 2486   0.043   3.934   1.277 -0.0936  0.8179 -0.0100
  160TMC2    C3 2487   0.082   3.830   1.197 -0.1795 -0.4892 -0.0496
  160TMC2    C4 2488   0.210   4.062   1.162  0.2811 -0.2173 -0.3741
  160TMC2    C5 2489   0.245   3.952   1.083  0.4779 -0.4788 -0.0531
  160TMC2    C6 2490   0.184   3.835   1.113 -0.4594  0.3983 -0.1480
  160TMC2     C 2491   0.046   4.173   1.288 -0.4623 -0.0495  0.3056
  160TMC2     O 2492   0.127   4.265   1.300 -0.2618  0.7704 -0.0523
  160TMC2     H 2493   4.714   3.920   1.362 -2.8609  2.2439 -1.8667
  160TMC2    H1 2494   0.243   4.160   1.129 -0.2630  0.2866  0.5874
  160TMC2    H2 2495   0.201   3.748   1.051 -1.0227  0.1304  0.0715
  160TMC2    C7 2496   0.323   3.961   0.962  0.0435  0.1233 -0.2887
  160TMC2    C8 2497   0.038   3.695   1.246  0.7657 -0.3098  0.3910
  160TMC2    O1 2498   0.298   3.877   0.879  0.6441 -0.2950  0.0594
  160TMC2    O2 2499   0.105   3.593   1.235 -0.3404 -0.6926 -0.2447
  160TMC2    O5 2500   4.646   3.713   1.293  0.1925  0.2743  0.1083
  160TMC2    H5 2501   4.596   3.795   1.272 -0.3830 -0.0076  0.3801
  161MPD2     C 2502   4.597   4.389   1.387 -0.0612  0.5163 -0.6217
  161MPD2    C1 2503   4.562   4.278   1.311 -0.1419  0.7200 -0.5175
  161MPD2    C2 2504   4.429   4.266   1.261 -0.5088 -0.6549  0.1766
  161MPD2    C3 2505   4.336   4.361   1.297  0.2388 -0.7965 -0.2899
  161MPD2    C4 2506   4.370   4.455   1.390  0.0284 -0.2534  0.2782
  161MPD2    C5 2507   4.496   4.473   1.436 -0.6823  0.2638 -0.2857
  161MPD2     H 2508   4.406   4.177   1.205 -2.4910  0.6839 -1.1320
  161MPD2    H1 2509   4.294   4.528   1.416  0.3226  0.5327 -1.1339
  161MPD2    H2 2510   4.698   4.397   1.425 -0.6799  2.2204  0.6623
  161MPD2    H3 2511   4.515   4.554   1.506 -0.2511  0.6480 -0.8440
  161MPD2     N 2512   4.192   4.351   1.264 -0.2584 -0.6600 -0.2046
  161MPD2    H5 2513   4.124   4.414   1.306  0.6560  0.6648 -0.7166
  161MPD2    N1 2514   4.644   4.168   1.288  0.0612 -0.3566 -0.2656
  161MPD2    H7 2515   4.589   4.086   1.263 -0.4175 -0.5048  1.2543
  162TMC2    C1 2516   1.937   1.155   1.292 -0.3400  0.1128 -0.1865
  162TMC2    C2 2517   1.821   1.134   1.357  0.4388 -0.2920 -0.1146
  162TMC2    C3 2518   1.780   1.226   1.448 -0.2442 -0.2631  0.1053
  162TMC2    C4 2519   2.022   1.254   1.337  0.2699 -0.4489 -0.2665
  162TMC2    C5 2520   1.978   1.353   1.417  0.3738 -0.7796  0.0915
  162TMC2    C6 2521   1.853   1.341   1.475 -0.5139  0.4526 -0.8311
  162TMC2     C 2522   1.966   1.093   1.173  0.0960 -0.0389  0.6522
  162TMC2     O 2523   2.086   1.091   1.137  0.3589 -0.2631 -0.0555
  162TMC2     H 2524   1.764   1.041   1.352  0.1454 -0.0753 -0.7731
  162TMC2    H1 2525   2.119   1.269   1.293  0.1310 -1.4829 -0.9227
  162TMC2    H2 2526   1.803   1.422   1.527  2.2423  3.2151 -2.4702
  162TMC2    C7 2527   2.067   1.430   1.495 -0.0736 -0.0313  0.2158
  162TMC2    C8 2528   1.660   1.216   1.523 -0.9031  0.2677 -0.2409
  162TMC2    O1 2529   2.010   1.500   1.578 -0.2411 -0.4385 -0.0202
  162TMC2    O2 2530   1.643   1.270   1.631  0.4836 -0.0024  0.0734
  162TMC2    O5 2531   1.574   1.145   1.450  0.5036  0.6687  0.5030
  162TMC2    H5 2532   1.598   1.128   1.357 -0.2302 -1.4827  0.6870
  163MPD2     C 2533   1.848   0.797   0.782  0.1729 -0.6046 -0.2351
  163MPD2    C1 2534   1.966   0.847   0.811  0.2466  0.1727 -1.2326
  163MPD2    C2 2535   1.974   0.930   0.918 -0.1034 -0.0994 -0.6402
  163MPD2    C3 2536   1.860   0.953   0.995  0.3687  0.7792 -0.3344
  163MPD2    C4 2537   1.740   0.892   0.967 -0.2356 -0.1904 -0.3663
  163MPD2    C5 2538   1.734   0.825   0.852 -0.4272  0.2769  0.5688
  163MPD2     H 2539   2.059   0.995   0.935  0.6615 -1.5299  1.0859
  163MPD2    H1 2540   1.653   0.908   1.030  0.4015  0.1547  0.4214
  163MPD2    H2 2541   1.835   0.746   0.688 -2.1178  0.6316 -0.6028
  163MPD2    H3 2542   1.640   0.784   0.814 -0.5020 -0.6536  1.7427
  163MPD2     N 2543   1.857   1.032   1.111 -0.5351  0.5320  0.0945
  163MPD2    H5 2544   1.771   1.055   1.160  0.3382  2.1276  0.8829
  163MPD2    N1 2545   2.069   0.823   0.724 -0.4857  0.1225  0.2940
  163MPD2    H7 2546   2.053   0.763   0.644  0.3705 -0.0798  0.2722
  164TMC2    C1 2547   3.088   1.424  10.320 -0.3647  0.4145 -0.2434
  164TMC2    C2 2548   3.066   1.519  10.223  0.0306 -0.1427 -0.2962
  164TMC2    C3 2549   2.945   1.586  10.222 -0.4821  0.5319 -0.8957
  164TMC2    C4 2550   3.003   1.392  10.416 -0.2049 -0.0693 -0.2838
  164TMC2    C5 2551   2.881   1.445  10.394  0.4939 -0.2090 -0.3998
  164TMC2    C6 2552   2.850   1.547  10.308 -0.2322  0.3095 -0.2352
  164TMC2     C 2553   3.212   1.348  10.323  0.4549 -0.0867  0.3307
  164TMC2     O 2554   3.231   1.279  10.418  0.2289  0.8319  0.3858
  164TMC2     H 2555   3.146   1.546  10.155  0.8526 -0.0004  0.7252
  164TMC2    H1 2556   3.010   1.304  10.478  1.1756 -1.1879 -2.0130
  164TMC2    H2 2557   2.747   1.580  10.305 -0.1690  0.5865  0.6802
  164TMC2    C7 2558   2.768   1.407  10.480 -0.3323  0.8847 -0.3513
  164TMC2    C8 2559   2.928   1.692  10.120  0.4710 -0.2917 -0.1369
  164TMC2    O1 2560   2.657   1.412  10.430 -0.3419  0.0668 -0.0151
  164TMC2    O2 2561   3.019   1.710  10.043  0.0863 -0.1528  0.1357
  164TMC2    O5 2562   2.828   1.783  10.142  0.2334  0.3572  0.1432
  164TMC2    H5 2563   2.768   1.764  10.218 -0.5708 -0.6794 -0.7408
  165TMC2    C1 2564   4.437   4.190   1.652  0.5440 -0.3305 -1.0121
  165TMC2    C2 2565   4.453   4.323   1.690 -0.3703 -0.0463  0.2478
  165TMC2    C3 2566   4.577   4.360   1.745 -0.2640 -0.2921  0.2273
  165TMC2    C4 2567   4.545   4.107   1.655  0.8034  0.5366 -0.1289
  165TMC2    C5 2568   4.665   4.152   1.704  0.4426  0.5093 -0.5529
  165TMC2    C6 2569   4.687   4.275   1.753  0.7580 -0.2098  0.8411
  165TMC2     C 2570   4.321   4.142   1.579 -0.7538 -0.2943  0.2015
  165TMC2     O 2571   4.334   4.038   1.516  0.5800 -0.0420  0.1554
  165TMC2     H 2572   4.369   4.391   1.695  1.8051  2.6261  0.4093
  165TMC2    H1 2573   4.530   4.007   1.615  1.8424  0.1293  0.5079
  165TMC2    H2 2574   0.047   4.312   1.783  1.4421 -1.0113 -0.3636
  165TMC2    C7 2575   0.048   4.072   1.673  0.7058 -0.6451 -0.3275
  165TMC2    C8 2576   4.578   4.485   1.813  0.2635  0.2472  0.0639
  165TMC2    O1 2577   0.038   3.996   1.577  0.4491  0.6803  0.1061
  165TMC2    O2 2578   4.497   4.572   1.777  0.2651  0.1131  0.5417
  165TMC2    O5 2579   4.616   4.454   1.938 -0.6515  0.4471  0.1131
  165TMC2    H5 2580   4.664   4.368   1.945  1.2098  1.5371  0.6132
  166MPD2     C 2581   3.810   4.174   1.557  0.3566  0.0473 -0.0158
  166MPD2    C1 2582   3.892   4.099   1.469 -0.5895 -0.0480  0.1023
  166MPD2    C2 2583   4.033   4.110   1.480  0.4210  0.0958  0.2713
  166MPD2    C3 2584   4.074   4.196   1.580  0.3798  0.3027 -0.9819
  166MPD2    C4 2585   3.992   4.270   1.660 -0.0228 -0.3018 -0.2427
  166MPD2    C5 2586   3.859   4.262   1.649  0.2368  0.0375 -0.4885
  166MPD2     H 2587   4.101   4.055   1.417 -0.7988  0.7877 -1.6681
  166MPD2    H1 2588   4.024   4.337   1.739 -0.3011 -1.1611  0.5898
  166MPD2    H2 2589   3.702   4.166   1.559  0.4938 -1.5899  1.2540
  166MPD2    H3 2590   3.795   4.319   1.715 -0.3599  0.4812 -1.4449
  166MPD2     N 2591   4.212   4.219   1.612  0.2706  0.0830  0.6831
  166MPD2    H5 2592   4.219   4.292   1.682 -1.1911  1.5829 -0.7190
  166MPD2    N1 2593   3.828   4.007   1.385 -0.3142  0.0706  0.2557
  166MPD2    H7 2594   3.729   3.989   1.399 -0.2990 -0.5665 -0.4940
  167TMC2    C1 2595   1.718   1.284  12.642  0.1018 -0.3990 -0.3340
  167TMC2    C2 2596   1.629   1.325  12.734 -0.3945  0.1437 -0.5567
  167TMC2    C3 2597   1.596   1.242  12.840 -0.2456  0.5546 -0.6550
  167TMC2    C4 2598   1.775   1.162  12.653 -0.0135  0.1184 -0.3341
  167TMC2    C5 2599   1.738   1.078  12.754  0.1205 -0.4161  0.2847
  167TMC2    C6 2600   1.645   1.114  12.849 -0.2081 -0.5059  0.4462
  167TMC2     C 2601   1.748   1.377  12.529 -0.1624 -0.8758  0.3318
  167TMC2     O 2602   1.712   1.491  12.547  0.2332 -0.2064  0.1096
  167TMC2     H 2603   1.581   1.422  12.731  0.0092  0.4017  1.5213
  167TMC2    H1 2604   1.855   1.142  12.583  1.1786  2.9606  0.1941
  167TMC2    H2 2605   1.632   1.056  12.939  1.7081 -0.5470  0.6923
  167TMC2    C7 2606   1.795   0.941  12.760 -0.0211 -0.4332 -0.3788
  167TMC2    C8 2607   1.484   1.270  12.920  0.8193 -0.1741  0.2995
  167TMC2    O1 2608   1.752   0.865  12.847 -0.3051 -0.1122 -0.3615
  167TMC2    O2 2609   1.394   1.341  12.883 -0.1532  0.0844  0.1667
  167TMC2    O5 2610   1.527   1.256  13.044 -0.7705 -0.1458 -0.2091
  167TMC2    H5 2611   1.617   1.219  13.044  0.3201  2.4692  1.0652
  168MPD2     C 2612   1.852   1.490  12.266  0.0642  0.2358 -0.0404
  168MPD2    C1 2613   1.827   1.359  12.293 -0.6144 -1.0502  0.6829
  168MPD2    C2 2614   1.848   1.273  12.187  0.5448  0.6409 -0.5331
  168MPD2    C3 2615   1.881   1.308  12.055  0.6730  0.0241  0.2127
  168MPD2    C4 2616   1.886   1.447  12.027  0.1177  0.7145  0.5800
  168MPD2    C5 2617   1.872   1.530  12.134 -0.6049 -0.1127 -0.3110
  168MPD2     H 2618   1.840   1.168  12.211  2.6993  0.3911 -0.9002
  168MPD2    H1 2619   1.914   1.485  11.929  0.1956 -2.7577 -0.7654
  168MPD2    H2 2620   1.851   1.566  12.344 -0.3785 -0.8962  1.0462
  168MPD2    H3 2621   1.892   1.635  12.117 -0.5889  0.0263  0.5635
  168MPD2     N 2622   1.903   1.196  11.969 -0.4661  0.0161 -0.0228
  168MPD2    H5 2623   1.890   1.107  12.015 -0.7996  0.1983  0.2305
  168MPD2    N1 2624   1.793   1.304  12.415  0.0269 -0.2446 -0.8646
  168MPD2    H7 2625   1.787   1.203  12.424  3.2819 -0.5679 -2.4026
  169MPD1     C 2626   0.184   0.894   8.674  0.3660  0.0846 -0.1984
  169MPD1    C1 2627   0.223   0.937   8.798 -0.5805 -1.0555  0.2654
  169MPD1    C2 2628   0.186   0.858   8.904 -0.3690  0.0959  0.4807
  169MPD1    C3 2629   0.104   0.753   8.888  0.1003 -0.3364  0.6246
  169MPD1    C4 2630   0.055   0.725   8.769  0.4647 -0.0766  0.3298
  169MPD1    C5 2631   0.115   0.780   8.660 -0.4868 -0.3440 -0.3648
  169MPD1     H 2632   0.204   0.895   9.004  3.0300 -1.6408  0.4964
  169MPD1    H1 2633   4.728   0.639   8.749  1.3577 -0.2331 -1.8202
  169MPD1    H2 2634   0.222   0.937   8.582  0.0098  0.2410 -0.2716
  169MPD1    H3 2635   0.084   0.744   8.562 -0.8070  2.0548 -1.1671
  169MPD1     N 2636   0.064   0.692   9.001 -0.6741 -0.6533 -0.1935
  169MPD1    H5 2637   0.118   0.707   9.086 -2.0617  0.1385  0.5630
  169MPD1    N1 2638   0.318   1.036   8.813 -0.2240  0.0230  0.1137
  169MPD1    H6 2639   0.305   1.111   8.745  1.6571 -0.5034 -0.8105
  169MPD1    H7 2640   0.303   1.081   8.903 -1.6108 -1.8728  0.8364
  170MPD1     C 2641   2.595   2.780  12.820 -0.0472 -0.2298  0.2543
  170MPD1    C1 2642   2.733   2.774  12.804  0.2250  0.1487  0.3106
  170MPD1    C2 2643   2.811   2.801  12.921  0.3815 -0.0023  0.2567
  170MPD1    C3 2644   2.745   2.811  13.048 -0.2397  0.2261 -0.1561
  170MPD1    C4 2645   2.610   2.813  13.059  0.9102  0.7284  0.2930
  170MPD1    C5 2646   2.536   2.792  12.945 -0.4603 -0.6800 -0.6055
  170MPD1     H 2647   2.918   2.807  12.903  0.4414  0.2905  0.7021
  170MPD1    H1 2648   2.554   2.828  13.150 -0.8607  3.0211 -1.1687
  170MPD1    H2 2649   2.532   2.777  12.732 -2.0177  0.9953  1.6167
  170MPD1    H3 2650   2.428   2.797  12.945 -0.3396  2.0903 -0.1088
  170MPD1     N 2651   2.830   2.834  13.157 -0.0907  0.1142 -0.3259
  170MPD1    H5 2652   2.927   2.828  13.130  0.1845 -3.2724  1.5314
  170MPD1    N1 2653   2.786   2.760  12.678  0.4516  0.3287  0.5516
  170MPD1    H6 2654   2.884   2.732  12.676 -0.4372 -2.5133 -3.4935
  170MPD1    H7 2655   2.727   2.693  12.630 -0.0615  1.0240  0.2135
  171MPD1     C 2656   1.826   3.944  15.391 -0.3512  0.0961 -0.0967
  171MPD1    C1 2657   1.900   3.837  15.345 -0.0110  0.2196  0.5403
  171MPD1    C2 2658   1.881   3.711  15.410  0.3085  0.1270 -0.5228
  171MPD1    C3 2659   1.803   3.705  15.521 -0.0863 -0.0185 -0.5724
  171MPD1    C4 2660   1.735   3.816  15.566 -0.0960 -0.1477  0.4195
  171MPD1    C5 2661   1.753   3.933  15.504 -0.0056 -0.0538 -0.5188
  171MPD1     H 2662   1.942   3.628  15.375  0.8251  0.7290 -1.0538
  171MPD1    H1 2663   1.670   3.815  15.652 -0.2253  1.0721  0.3212
  171MPD1    H2 2664   1.834   4.039  15.339  2.0033 -0.8273 -1.4481
  171MPD1    H3 2665   1.700   4.020  15.542 -1.1235 -1.3334  0.8656
  171MPD1     N 2666   1.777   3.591  15.596  0.2223 -0.1944  0.1854
  171MPD1    H5 2667   1.725   3.607  15.681 -2.7545 -1.3463 -1.4031
  171MPD1    N1 2668   1.968   3.855  15.221 -0.8644  0.2930 -0.3202
  171MPD1    H6 2669   2.007   3.947  15.202  1.8633 -0.4905  1.4552
  171MPD1    H7 2670   2.037   3.785  15.196  0.2526  1.9205 -1.8141
  172MPD1     C 2671   1.050   2.991  17.125 -0.0844 -0.0781  0.1534
  172MPD1    C1 2672   0.959   3.069  17.186 -1.0597  0.7733  0.2375
  172MPD1    C2 2673   0.970   3.073  17.326 -0.1984  0.1086 -0.5988
  172MPD1    C3 2674   1.080   3.010  17.386 -0.3069 -0.6478 -0.6161
  172MPD1    C4 2675   1.159   2.923  17.323 -0.2583 -0.4044  0.4702
  172MPD1    C5 2676   1.148   2.926  17.193  0.3882 -0.4004  0.3219
  172MPD1     H 2677   0.897   3.128  17.384 -1.3638 -1.5732 -0.4739
  172MPD1    H1 2678   1.239   2.870  17.372 -0.2322 -1.5719 -0.8153
  172MPD1    H2 2679   1.052   2.979  17.018  1.3961  0.3303  0.1341
  172MPD1    H3 2680   1.213   2.862  17.134  1.5280  1.8674 -0.9187
  172MPD1     N 2681   1.114   3.030  17.527 -0.3499  0.0136  0.0797
  172MPD1    H5 2682   1.178   2.964  17.570 -1.0544 -1.2293 -0.7957
  172MPD1    N1 2683   0.851   3.125  17.112  0.5318  0.2255 -0.1808
  172MPD1    H6 2684   0.814   3.209  17.154 -0.3037  1.1330 -2.6988
  172MPD1    H7 2685   0.882   3.141  17.016 -1.0719  1.5426 -0.4823
  173MPD1     C 2686   2.392   3.280  13.815  0.2703  0.1419  0.5191
  173MPD1    C1 2687   2.262   3.287  13.864 -0.4367  0.4556 -0.0011
  173MPD1    C2 2688   2.221   3.177  13.936  0.3473 -0.2652  0.1708
  173MPD1    C3 2689   2.296   3.058  13.948 -0.0958 -0.2950 -0.0959
  173MPD1    C4 2690   2.418   3.047  13.888  0.5022 -0.5557  0.6430
  173MPD1    C5 2691   2.467   3.165  13.831 -0.4665 -0.3386  0.0160
  173MPD1     H 2692   2.130   3.197  13.993 -0.3203 -0.0127 -0.9909
  173MPD1    H1 2693   2.495   2.972  13.879  1.4575  0.6288 -1.1241
  173MPD1    H2 2694   2.432   3.365  13.760 -0.8032  1.2682  1.5009
  173MPD1    H3 2695   2.573   3.163  13.812 -0.6635 -1.4878 -0.9291
  173MPD1     N 2696   2.256   2.962  14.044 -0.3546 -0.4650 -0.3120
  173MPD1    H5 2697   2.177   2.983  14.103  1.4147  0.0277  1.8927
  173MPD1    N1 2698   2.190   3.406  13.850 -0.6277  0.0214 -0.1679
  173MPD1    H6 2699   2.092   3.381  13.835 -0.2172 -0.8283 -1.4290
  173MPD1    H7 2700   2.218   3.434  13.756  2.2365 -1.7883  0.1551
  174MPD1     C 2701   2.640   2.169  14.627  0.7799 -0.4354  0.4509
  174MPD1    C1 2702   2.687   2.250  14.518  0.4069  0.1165  0.5275
  174MPD1    C2 2703   2.590   2.310  14.444  0.2314 -0.0765  0.3082
  174MPD1    C3 2704   2.450   2.292  14.463 -0.3617  0.6518 -0.3392
  174MPD1    C4 2705   2.415   2.196  14.555 -0.1956 -1.3294  0.2884
  174MPD1    C5 2706   2.506   2.129  14.633  0.5349 -0.1572 -0.3503
  174MPD1     H 2707   2.627   2.378  14.369 -0.6169  2.0636  1.8147
  174MPD1    H1 2708   2.308   2.180  14.560 -0.4944 -0.1915 -2.3977
  174MPD1    H2 2709   2.706   2.138  14.707  1.0347 -2.6322 -0.6108
  174MPD1    H3 2710   2.469   2.055  14.703  3.3663  0.5154  1.8693
  174MPD1     N 2711   2.353   2.356  14.381 -0.0501 -0.1491  0.4291
  174MPD1    H5 2712   2.255   2.346  14.404  0.1456 -1.3196  0.7700
  174MPD1    N1 2713   2.820   2.303  14.528  0.0712 -0.5141  0.2225
  174MPD1    H6 2714   2.879   2.236  14.577  3.6375  2.6326  0.1428
  174MPD1    H7 2715   2.863   2.333  14.441  0.8098  2.7962  1.7645
  175MPD1     C 2716   0.677   4.085  15.527  0.0732  0.0596  0.2789
  175MPD1    C1 2717   0.772   3.987  15.550  0.1704  0.1596  0.5086
  175MPD1    C2 2718   0.760   3.899  15.661 -0.1989 -0.4623  0.0675
  175MPD1    C3 2719   0.646   3.898  15.734 -0.8579 -0.1850  0.3556
  175MPD1    C4 2720   0.548   3.995  15.704  0.0384 -0.5122  0.2005
  175MPD1    C5 2721   0.565   4.087  15.600  0.5101  0.3406  0.1218
  175MPD1     H 2722   0.844   3.833  15.679  0.3293  0.2874  0.3358
  175MPD1    H1 2723   0.459   3.999  15.767 -0.5692 -1.2628 -0.6074
  175MPD1    H2 2724   0.681   4.155  15.443 -2.4245 -0.2301 -0.0961
  175MPD1    H3 2725   0.491   4.159  15.569 -0.0523 -0.4973 -0.4782
  175MPD1     N 2726   0.621   3.808  15.842 -0.3446  0.1907 -0.0397
  175MPD1    H5 2727   0.536   3.827  15.894  0.8079  0.2750  1.8525
  175MPD1    N1 2728   0.877   3.975  15.457  0.1100  0.7658 -0.4092
  175MPD1    H6 2729   0.850   3.998  15.361 -0.9410  1.6264  0.0814
  175MPD1    H7 2730   0.929   3.888  15.465 -1.9002 -0.4935 -0.9167
  176MPD1     C 2731   1.642   1.551   0.502 -1.1760  0.7332  0.1518
  176MPD1    C1 2732   1.733   1.642   0.552  0.0256 -0.1760 -0.1361
  176MPD1    C2 2733   1.826   1.691   0.461 -0.2911  0.1718 -0.0652
  176MPD1    C3 2734   1.870   1.610   0.358  0.0612  0.2006 -0.0973
  176MPD1    C4 2735   1.798   1.499   0.327  0.5085  0.2242  0.0959
  176MPD1    C5 2736   1.679   1.475   0.392  0.4520  0.7177  0.8803
  176MPD1     H 2737   1.885   1.778   0.486  0.0915  0.0439 -0.5113
  176MPD1    H1 2738   1.810   1.444   0.234  0.6579 -3.3837  2.2124
  176MPD1    H2 2739   1.550   1.521   0.553 -1.7070  1.1746 -0.5456
  176MPD1    H3 2740   1.616   1.392   0.364  2.4309 -1.2541  2.2911
  176MPD1     N 2741   1.985   1.654   0.287 -0.8355  0.2977 -0.2574
  176MPD1    H5 2742   2.033   1.741   0.306  0.2174 -0.3241 -0.0896
  176MPD1    N1 2743   1.699   1.701   0.675 -0.4685  0.4335 -0.3396
  176MPD1    H6 2744   1.777   1.739   0.727 -0.4337 -0.9144  0.6023
  176MPD1    H7 2745   1.667   1.620   0.728 -0.5602  0.5336 -0.2418
  177MPD1     C 2746   1.334   1.035  10.138 -0.2928  0.2541  0.1628
  177MPD1    C1 2747   1.310   1.017  10.005  0.0395  0.1418  0.1532
  177MPD1    C2 2748   1.241   1.120   9.936 -0.2019 -0.4482 -0.2234
  177MPD1    C3 2749   1.173   1.216  10.013  0.3978 -0.1233  0.0278
  177MPD1    C4 2750   1.187   1.221  10.149 -0.7433 -0.3227  0.3517
  177MPD1    C5 2751   1.273   1.135  10.207 -0.3739 -0.5303  0.5257
  177MPD1     H 2752   1.223   1.121   9.829  1.6425 -1.5516 -0.5332
  177MPD1    H1 2753   1.126   1.288  10.208 -1.1582 -0.0764 -0.3694
  177MPD1    H2 2754   1.387   0.962  10.199 -2.1740 -1.3393 -0.1238
  177MPD1    H3 2755   1.287   1.120  10.313 -0.3747 -1.3074  0.4170
  177MPD1     N 2756   1.102   1.312   9.930  0.0059 -0.0769  0.0130
  177MPD1    H5 2757   1.080   1.289   9.834  0.0982 -0.6831  0.1367
  177MPD1    N1 2758   1.363   0.917   9.930 -0.4443 -0.6816 -0.1364
  177MPD1    H6 2759   1.391   0.834   9.982 -0.7853  0.8498  2.4618
  177MPD1    H7 2760   1.295   0.881   9.863 -0.7254 -0.5105  0.0530
  178MPD1     C 2761   3.013   1.283   0.337  0.4014 -0.1451  0.0619
  178MPD1    C1 2762   2.911   1.365   0.383  0.2417  0.0185 -0.4068
  178MPD1    C2 2763   2.856   1.454   0.297  0.8397 -0.6720 -0.2930
  178MPD1    C3 2764   2.892   1.455   0.161 -0.4758  0.4719 -0.9535
  178MPD1    C4 2765   2.982   1.361   0.114  0.2811 -0.8298  0.2942
  178MPD1    C5 2766   3.042   1.277   0.204  0.2571  0.4697  0.3646
  178MPD1     H 2767   2.787   1.523   0.346  1.2727 -1.0607  0.8746
  178MPD1    H1 2768   2.999   1.350   0.008  0.7700 -2.2870  0.5192
  178MPD1    H2 2769   3.075   1.228   0.407  0.8620 -0.8873 -0.9411
  178MPD1    H3 2770   3.121   1.208   0.178 -0.7052 -0.6329  0.3324
  178MPD1     N 2771   2.847   1.544   0.060 -0.3758 -0.7065 -0.3476
  178MPD1    H5 2772   2.880   1.529  17.708  0.6859 -2.5616  0.3218
  178MPD1    N1 2773   2.892   1.380   0.521  0.0076  0.1418  0.1050
  178MPD1    H6 2774   2.905   1.288   0.565  1.2585  0.6942  0.8927
  178MPD1    H7 2775   2.798   1.413   0.539  0.1845  0.3868  0.5795
  179MPD1     C 2776   2.044   0.898  15.875  0.1460  0.2828 -0.2854
  179MPD1    C1 2777   2.030   0.851  16.008  0.1523 -0.1502  0.1328
  179MPD1    C2 2778   2.072   0.723  16.051 -0.6077 -0.4149  0.1850
  179MPD1    C3 2779   2.132   0.641  15.955  0.8698  0.1944  0.6122
  179MPD1    C4 2780   2.137   0.684  15.826 -0.6051  0.5698 -0.4287
  179MPD1    C5 2781   2.089   0.806  15.792  0.2868  0.1568 -0.3751
  179MPD1     H 2782   2.066   0.694  16.155  0.1123  1.4409  0.7363
  179MPD1    H1 2783   2.183   0.628  15.747 -1.0298 -2.8866  1.7812
  179MPD1    H2 2784   2.011   0.998  15.848  0.4630  0.9129  1.7101
  179MPD1    H3 2785   2.090   0.843  15.690 -0.2015 -1.7483 -1.0740
  179MPD1     N 2786   2.196   0.517  15.984 -0.0889 -0.1701 -0.8031
  179MPD1    H5 2787   2.227   0.457  15.908  1.2243 -0.6447  0.1050
  179MPD1    N1 2788   1.994   0.940  16.112 -0.0990 -0.5833 -0.1951
  179MPD1    H6 2789   1.929   0.888  16.171 -1.2213 -1.2416 -1.9944
  179MPD1    H7 2790   1.955   1.023  16.067 -0.3688  0.6575  2.3567
  180MPD1     C 2791   2.811   1.269  14.845 -0.4069 -0.1001 -0.2881
  180MPD1    C1 2792   2.852   1.224  14.722 -0.2246 -0.2163  0.8487
  180MPD1    C2 2793   2.761   1.241  14.614  0.5729 -0.0161 -0.0755
  180MPD1    C3 2794   2.632   1.294  14.624 -0.5588  0.0492 -0.0219
  180MPD1    C4 2795   2.595   1.333  14.745  0.3474  0.2308  0.5806
  180MPD1    C5 2796   2.682   1.311  14.853 -0.4400 -0.8611  0.6196
  180MPD1     H 2797   2.794   1.199  14.520 -0.8891 -1.2563 -0.0498
  180MPD1    H1 2798   2.502   1.379  14.775  0.5262 -1.7471  4.1883
  180MPD1    H2 2799   2.873   1.261  14.934 -0.2194 -2.4810 -0.6168
  180MPD1    H3 2800   2.652   1.336  14.954 -0.3330  0.5152  0.3116
  180MPD1     N 2801   2.538   1.305  14.516 -0.2249 -0.5593  0.1191
  180MPD1    H5 2802   2.585   1.294  14.427  1.0166 -0.5751  0.7832
  180MPD1    N1 2803   2.981   1.176  14.695 -0.7528 -0.0718  0.5661
  180MPD1    H6 2804   2.977   1.098  14.629 -0.9085 -1.1787  1.8735
  180MPD1    H7 2805   3.027   1.138  14.778  2.9869 -0.4838 -1.6683
  181MPD1     C 2806   4.683   3.167   9.945 -0.2067 -0.3841  0.6362
  181MPD1    C1 2807   4.629   3.282  10.000  0.0351  0.5052 -0.8941
  181MPD1    C2 2808   4.715   3.383  10.038 -0.3372  0.6927 -0.2185
  181MPD1    C3 2809   0.118   3.371  10.036  0.1392  0.1407 -0.7439
  181MPD1    C4 2810   0.167   3.250   9.981  0.1982  0.4300 -0.2422
  181MPD1    C5 2811   0.079   3.157   9.929 -0.1902  0.4471  0.5106
  181MPD1     H 2812   4.675   3.474  10.080 -0.0527  1.5909 -1.8969
  181MPD1    H1 2813   0.271   3.238   9.953  0.3717 -0.7542  0.9073
  181MPD1    H2 2814   4.623   3.082   9.916  1.0188 -0.5595 -1.3089
  181MPD1    H3 2815   0.125   3.063   9.900  0.7634 -0.3181  4.4764
  181MPD1     N 2816   0.198   3.473  10.079 -0.4924  0.1595 -0.4554
  181MPD1    H5 2817   0.296   3.446  10.075  0.4064  3.3092  0.0692
  181MPD1    N1 2818   4.489   3.304   9.997 -0.9923  0.1835 -0.7894
  181MPD1    H6 2819   4.464   3.355  10.082 -0.7286  1.6223 -1.5685
  181MPD1    H7 2820   4.432   3.220   9.992  0.8885 -1.2653  2.0411
  182MPD1     C 2821   3.848   1.411  17.379  0.4846 -0.3557  0.0074
  182MPD1    C1 2822   3.826   1.290  17.440  0.4639  0.2309  0.3861
  182MPD1    C2 2823   3.925   1.253  17.528 -0.3928  0.8920  0.6574
  182MPD1    C3 2824   4.047   1.321  17.552  0.1201  0.0576 -0.1711
  182MPD1    C4 2825   4.064   1.439  17.488 -0.5294 -0.0521 -0.6622
  182MPD1    C5 2826   3.970   1.478  17.394 -0.0723  0.2945  0.5688
  182MPD1     H 2827   3.898   1.161  17.579 -2.9666  1.9833  1.2754
  182MPD1    H1 2828   4.152   1.503  17.493 -1.6566  1.5858 -1.7920
  182MPD1    H2 2829   3.788   1.439  17.293 -2.1133  0.5656  2.1046
  182MPD1    H3 2830   3.989   1.563  17.329 -1.5586  1.5157  1.7091
  182MPD1     N 2831   4.148   1.273  17.647 -0.3592 -0.0906 -0.1436
  182MPD1    H5 2832   4.236   1.324  17.650 -0.5521  0.1625  1.1795
  182MPD1    N1 2833   3.705   1.216  17.418 -0.2048  0.0196 -0.4716
  182MPD1    H6 2834   3.714   1.118  17.443 -0.8916  0.0546 -0.0820
  182MPD1    H7 2835   3.660   1.224  17.327 -1.3253 -1.2973 -0.0445
  183MPD1     C 2836   0.902   2.951   8.783  0.3152 -0.4234 -0.0751
  183MPD1    C1 2837   1.028   2.907   8.827 -0.1868  0.5653 -0.2791
  183MPD1    C2 2838   1.109   2.990   8.903 -0.2082  0.2550 -0.1235
  183MPD1    C3 2839   1.072   3.120   8.935  0.1178 -0.9740  1.0578
  183MPD1    C4 2840   0.948   3.162   8.893  0.5748 -0.4975 -0.0759
  183MPD1    C5 2841   0.870   3.082   8.819 -0.0700  0.6302 -1.0677
  183MPD1     H 2842   1.210   2.965   8.933 -0.7656 -2.4220 -0.4678
  183MPD1    H1 2843   0.901   3.256   8.921 -2.8374 -2.3552  0.4719
  183MPD1    H2 2844   0.840   2.890   8.719 -0.7060 -1.6320  2.0912
  183MPD1    H3 2845   0.771   3.119   8.795 -0.5495 -0.1135 -0.2610
  183MPD1     N 2846   1.158   3.181   9.028 -0.3330  0.0463  0.2611
  183MPD1    H5 2847   1.246   3.136   9.049 -0.5173 -1.3298 -1.8937
  183MPD1    N1 2848   1.065   2.783   8.780  0.3849  0.2165  0.2716
  183MPD1    H6 2849   1.139   2.742   8.837 -0.5589 -1.7091  0.1088
  183MPD1    H7 2850   0.989   2.715   8.776  2.1862 -1.7585 -0.6484
  184MPD1     C 2851   4.623   0.571  10.067  0.2602 -0.6591 -0.3639
  184MPD1    C1 2852   4.711   0.661  10.113  0.1149 -0.1872 -0.3161
  184MPD1    C2 2853   4.728   0.771  10.034  0.5723 -0.3074 -0.4239
  184MPD1    C3 2854   4.651   0.801   9.923 -0.3412  0.3110 -0.1729
  184MPD1    C4 2855   4.549   0.713   9.888  0.5180  0.0122  0.1568
  184MPD1    C5 2856   4.536   0.599   9.966  0.4181 -0.3970 -0.4526
  184MPD1     H 2857   0.069   0.836  10.075 -1.5570  1.5946  0.6319
  184MPD1    H1 2858   4.480   0.736   9.807  1.9563 -1.3103 -1.4416
  184MPD1    H2 2859   4.608   0.477  10.120  2.1455 -0.7101  0.0730
  184MPD1    H3 2860   4.466   0.518   9.950 -0.4047 -0.2898  2.6366
  184MPD1     N 2861   4.671   0.910   9.840  1.0097  0.7106  0.3351
  184MPD1    H5 2862   4.603   0.929   9.766  2.5509  5.1719  0.0789
  184MPD1    N1 2863   0.062   0.630  10.222 -0.3212 -0.2240 -0.1067
  184MPD1    H6 2864   0.069   0.713  10.281 -0.5802 -0.5723  0.4166
  184MPD1    H7 2865   0.027   0.549  10.273 -0.0779 -1.0302 -1.2158
  185MPD1     C 2866   4.422   0.894   9.041 -0.9096 -0.6512 -0.1201
  185MPD1    C1 2867   4.353   0.896   9.163  0.0395  0.3515  0.3624
  185MPD1    C2 2868   4.428   0.940   9.272 -0.5208  0.1151 -0.2271
  185MPD1    C3 2869   4.560   0.985   9.264  0.2382  0.2461 -0.2696
  185MPD1    C4 2870   4.619   0.984   9.141 -0.3130 -0.0771  0.5562
  185MPD1    C5 2871   4.553   0.934   9.036 -0.2363 -1.0784 -0.5388
  185MPD1     H 2872   4.380   0.943   9.370 -0.4298  4.1578 -0.2863
  185MPD1    H1 2873   4.717   1.025   9.117 -0.7810  1.1302  0.7178
  185MPD1    H2 2874   4.382   0.864   8.945 -3.1997 -0.8767  0.9168
  185MPD1    H3 2875   4.605   0.928   8.941  2.1971 -0.5916  0.7696
  185MPD1     N 2876   4.625   1.036   9.374  0.0188 -0.0025 -0.2430
  185MPD1    H5 2877   4.572   1.036   9.461 -0.8904  0.4378 -0.7888
  185MPD1    N1 2878   4.230   0.844   9.174 -0.2549  0.3858 -0.4345
  185MPD1    H6 2879   4.168   0.853   9.093 -0.2839  3.2175 -0.0771
  185MPD1    H7 2880   4.170   0.876   9.249 -0.3629 -0.4722 -0.1500
  186MPD1     C 2881   2.546   0.038  15.735 -0.3514 -0.0633 -0.1014
  186MPD1    C1 2882   2.629   4.705  15.817  0.7008  0.2304  0.1794
  186MPD1    C2 2883   2.675   0.034  15.933 -0.3365 -0.3778 -0.0117
  186MPD1    C3 2884   2.655   0.168  15.955 -0.0072  0.1243 -0.4057
  186MPD1    C4 2885   2.579   0.235  15.868  0.1344 -0.3316  0.1838
  186MPD1    C5 2886   2.515   0.168  15.768  0.2222  0.1604 -0.5169
  186MPD1     H 2887   2.740   4.722  16.006 -1.6164  0.0374  1.3947
  186MPD1    H1 2888   2.576   0.343  15.869  0.4349 -0.3244  0.3986
  186MPD1    H2 2889   2.497   4.722  15.653  0.2482 -1.1952  0.2661
  186MPD1    H3 2890   2.446   0.223  15.704 -0.1695  0.2661 -0.0067
  186MPD1     N 2891   2.710   0.247  16.055 -0.1285 -0.2527  0.7466
  186MPD1    H5 2892   2.676   0.343  16.057  0.1863 -0.1078 -0.8956
  186MPD1    N1 2893   2.642   4.570  15.800 -0.0166  0.4652 -0.5721
  186MPD1    H6 2894   2.634   4.550  15.700  0.1355  1.9835 -0.8850
  186MPD1    H7 2895   2.723   4.520  15.836 -0.4189  0.8961  0.9244
  187MPD1     C 2896   2.816   2.753   0.121 -0.2076  1.0243 -0.1014
  187MPD1    C1 2897   2.698   2.694   0.139  0.0291 -0.5286  0.0291
  187MPD1    C2 2898   2.610   2.684   0.032  0.2448 -0.1256 -0.3518
  187MPD1    C3 2899   2.643   2.727  17.650  0.6782 -0.0614 -0.0504
  187MPD1    C4 2900   2.770   2.777  17.630 -0.4987 -0.1475 -0.0194
  187MPD1    C5 2901   2.858   2.782  17.735  0.4574 -0.0662  0.0180
  187MPD1     H 2902   2.515   2.636   0.052  0.3419  0.1341  0.7329
  187MPD1    H1 2903   2.801   2.826  17.539 -3.4705  0.5690 -0.6440
  187MPD1    H2 2904   2.894   2.765   0.196  1.0762  0.9977 -1.4218
  187MPD1    H3 2905   2.959   2.815  17.716  1.5207 -2.2661  1.9224
  187MPD1     N 2906   2.554   2.727  17.540  0.4354  0.5722  0.3959
  187MPD1    H5 2907   2.593   2.754  17.450 -0.1118  0.1627  0.0395
  187MPD1    N1 2908   2.656   2.672   0.272  0.4007 -0.2292  0.4836
  187MPD1    H6 2909   2.604   2.585   0.281  0.8818 -0.5455  0.2558
  187MPD1    H7 2910   2.736   2.677   0.335 -0.4774 -0.8895  1.6331
  188MPD1     C 2911   2.807   2.272   9.920  0.1271 -0.3305 -0.6767
  188MPD1    C1 2912   2.805   2.214   9.794 -1.1035  0.2866 -0.0659
  188MPD1    C2 2913   2.751   2.090   9.777 -0.4151 -0.1607  0.0754
  188MPD1    C3 2914   2.716   2.016   9.886 -0.0291  0.4768 -0.0250
  188MPD1    C4 2915   2.723   2.074  10.007  0.0668  0.1232  0.8034
  188MPD1    C5 2916   2.753   2.206  10.022 -0.1768  0.5057 -0.3310
  188MPD1     H 2917   2.764   2.045   9.679  0.7109 -1.4864  0.8426
  188MPD1    H1 2918   2.684   2.034  10.100  0.7100 -0.3259  0.8805
  188MPD1    H2 2919   2.836   2.377   9.922 -2.7108  0.4085  1.4601
  188MPD1    H3 2920   2.747   2.251  10.120  0.8319 -2.1756  0.9714
  188MPD1     N 2921   2.652   1.889   9.875 -0.0397 -0.4060  0.0745
  188MPD1    H5 2922   2.629   1.841   9.961 -0.8922  0.3291  0.2460
  188MPD1    N1 2923   2.851   2.288   9.683 -0.6994 -0.1136  0.0903
  188MPD1    H6 2924   2.855   2.248   9.589  1.7077  0.3689 -0.0183
  188MPD1    H7 2925   2.942   2.330   9.701  0.8185 -2.4258 -2.1446
  189MPD1     C 2926   4.694   3.205   0.374  0.2106 -0.2371  0.5723
  189MPD1    C1 2927   4.629   3.090   0.337  0.5461  1.1478  0.3008
  189MPD1    C2 2928   4.499   3.100   0.297 -0.6414  0.7200  0.1322
  189MPD1    C3 2929   4.442   3.220   0.265 -0.6073  0.5043 -0.3332
  189MPD1    C4 2930   4.510   3.336   0.295 -0.1063  0.5826 -0.1535
  189MPD1    C5 2931   4.638   3.330   0.346 -0.1432  0.5688  1.4019
  189MPD1     H 2932   4.444   3.010   0.274  1.7876  0.0519 -3.0019
  189MPD1    H1 2933   4.470   3.437   0.289  2.6047  1.7737  1.3035
  189MPD1    H2 2934   0.050   3.211   0.432 -0.0726  0.9420  0.9119
  189MPD1    H3 2935   4.691   3.422   0.365 -1.0350  0.6589  3.4033
  189MPD1     N 2936   4.315   3.221   0.205  0.2023  0.5995  0.5747
  189MPD1    H5 2937   4.273   3.130   0.189 -0.7955  1.2832 -0.6838
  189MPD1    N1 2938   4.671   2.965   0.381 -0.3816  0.0916  0.3280
  189MPD1    H6 2939   0.036   2.957   0.370 -0.7241 -1.9101 -1.3853
  189MPD1    H7 2940   4.633   2.898   0.315  1.0919 -0.4429  0.0203
  190MPD1     C 2941   2.650   2.168  15.405  0.1296 -0.5681 -0.2309
  190MPD1    C1 2942   2.751   2.087  15.444 -0.3750 -0.2655 -0.0926
  190MPD1    C2 2943   2.717   1.964  15.498  0.8696 -0.2337 -0.2036
  190MPD1    C3 2944   2.588   1.924  15.520 -0.0397  0.0151 -0.3037
  190MPD1    C4 2945   2.493   2.019  15.494  0.4308 -0.3326  0.1831
  190MPD1    C5 2946   2.520   2.138  15.431 -0.3055 -0.0923 -0.4157
  190MPD1     H 2947   2.791   1.885  15.498  1.0441 -0.0680 -1.6096
  190MPD1    H1 2948   2.393   1.998  15.529  0.7486 -1.8587  0.2097
  190MPD1    H2 2949   2.664   2.262  15.353 -1.5354 -1.4342 -2.2153
  190MPD1    H3 2950   2.438   2.207  15.415 -0.0766  0.2326 -0.1731
  190MPD1     N 2951   2.561   1.788  15.550  0.1556  0.1111 -0.0528
  190MPD1    H5 2952   2.644   1.730  15.547 -0.9704 -1.5247  0.9850
  190MPD1    N1 2953   2.880   2.113  15.402 -0.1866 -0.6444 -0.1189
  190MPD1    H6 2954   2.900   2.213  15.405 -1.8227 -0.3322  0.4416
  190MPD1    H7 2955   2.956   2.064  15.450  0.3284  0.8469  0.5873
  191MPD1     C 2956   2.788   3.188  13.482  0.3436  0.1052  0.1068
  191MPD1    C1 2957   2.770   3.247  13.357 -0.0393 -0.2677 -0.2860
  191MPD1    C2 2958   2.670   3.192  13.276  0.5188  0.7703 -0.2286
  191MPD1    C3 2959   2.586   3.096  13.320 -0.1698  1.1440 -0.0013
  191MPD1    C4 2960   2.599   3.050  13.452  0.6347 -0.5100 -0.1664
  191MPD1    C5 2961   2.700   3.092  13.528 -0.3408 -0.1531  0.2191
  191MPD1     H 2962   2.650   3.238  13.180 -0.5608 -2.7850 -1.7334
  191MPD1    H1 2963   2.534   2.977  13.499 -0.5499  0.1674 -0.7621
  191MPD1    H2 2964   2.857   3.215  13.562  1.3644  0.9648 -1.0775
  191MPD1    H3 2965   2.712   3.052  13.628  1.6460  2.5861  1.0805
  191MPD1     N 2966   2.473   3.069  13.240 -0.1354  0.8108  0.2169
  191MPD1    H5 2967   2.466   3.123  13.155 -0.0485 -1.3033 -1.1428
  191MPD1    N1 2968   2.859   3.336  13.291 -0.2097  0.5442  0.6156
  191MPD1    H6 2969   2.813   3.402  13.228 -1.0501  2.4342  3.2174
  191MPD1    H7 2970   2.920   3.387  13.355 -1.2505  1.1438  1.1305
  192MPD1     C 2971   1.395   3.042  13.336 -0.2570 -0.3836  0.1404
  192MPD1    C1 2972   1.494   2.941  13.359 -1.2143 -0.4365 -0.3675
  192MPD1    C2 2973   1.628   2.976  13.346 -0.1646 -0.0213 -0.3853
  192MPD1    C3 2974   1.664   3.102  13.306 -0.4359  0.7935  0.6419
  192MPD1    C4 2975   1.571   3.204  13.286 -0.4829  0.5047 -0.1428
  192MPD1    C5 2976   1.436   3.175  13.298  0.0197  1.2603  0.2390
  192MPD1     H 2977   1.691   2.894  13.379 -1.0502 -0.7354 -0.4638
  192MPD1    H1 2978   1.606   3.302  13.255 -0.3692 -0.8866 -4.4128
  192MPD1    H2 2979   1.287   3.032  13.337 -0.0727 -2.3229 -2.6441
  192MPD1    H3 2980   1.360   3.249  13.273 -1.2076 -0.5648 -1.4104
  192MPD1     N 2981   1.801   3.133  13.291  0.3498  0.7440 -0.4695
  192MPD1    H5 2982   1.824   3.228  13.262  1.2154  0.6859  0.0528
  192MPD1    N1 2983   1.450   2.821  13.409 -0.2203  0.0561 -0.0183
  192MPD1    H6 2984   1.360   2.789  13.373 -0.4132 -2.9948  3.1753
  192MPD1    H7 2985   1.522   2.750  13.413 -0.2552  0.1954  3.0996
  193MPD1     C 2986   1.338   3.184  16.951 -0.3342  0.1378 -0.1329
  193MPD1    C1 2987   1.257   3.298  16.930 -1.1055  0.7235 -0.1425
  193MPD1    C2 2988   1.307   3.423  16.944  0.4587 -0.3721 -0.5415
  193MPD1    C3 2989   1.427   3.454  17.007  0.0026 -0.2384 -0.8218
  193MPD1    C4 2990   1.494   3.342  17.049  0.4993 -0.2207 -0.4669
  193MPD1    C5 2991   1.458   3.214  17.013 -0.4133 -0.1621 -0.1227
  193MPD1     H 2992   1.244   3.501  16.906 -2.0091 -2.2188 -0.2240
  193MPD1    H1 2993   1.593   3.345  17.091  0.1029 -0.8974  0.5164
  193MPD1    H2 2994   1.314   3.080  16.931  0.5231 -0.5380  2.4722
  193MPD1    H3 2995   1.533   3.137  17.028  0.3991  0.4246 -1.1315
  193MPD1     N 2996   1.488   3.585  17.012  0.3843  0.2731  0.1113
  193MPD1    H5 2997   1.585   3.593  17.039 -0.0745 -1.2972  2.2534
  193MPD1    N1 2998   1.132   3.276  16.855  0.5746  0.1993 -0.0601
  193MPD1    H6 2999   1.055   3.341  16.867 -0.2567 -0.5786 -1.1827
  193MPD1    H7 3000   1.090   3.184  16.866  0.8846  0.2203  1.2360
  194MPD1     C 3001   3.908   0.889  16.930 -0.0040 -0.8184 -0.7380
  194MPD1    C1 3002   3.960   0.895  16.808 -1.1081  0.1612 -0.1908
  194MPD1    C2 3003   4.045   0.791  16.774 -0.1539 -0.0389  0.0946
  194MPD1    C3 3004   4.067   0.683  16.852 -0.3650 -0.3725 -0.1295
  194MPD1    C4 3005   3.994   0.670  16.970  0.7076 -0.6992  1.0010
  194MPD1    C5 3006   3.924   0.777  17.010 -0.1069 -0.4324 -1.2342
  194MPD1     H 3007   4.100   0.784  16.681  0.5798 -0.0841  0.5360
  194MPD1    H1 3008   3.994   0.583  17.034 -0.8503 -0.1033  1.8048
  194MPD1    H2 3009   3.843   0.967  16.967  1.3560  0.1762 -0.4641
  194MPD1    H3 3010   3.888   0.770  17.112  0.4604  2.9544 -0.8310
  194MPD1     N 3011   4.149   0.577  16.803 -0.3640  0.3212 -0.6082
  194MPD1    H5 3012   4.165   0.506  16.874  0.1069  2.4708  1.4428
  194MPD1    N1 3013   3.953   1.010  16.732  0.1564  0.7929 -0.0678
  194MPD1    H6 3014   3.863   1.056  16.742 -0.0905  0.3492 -0.2790
  194MPD1    H7 3015   3.972   1.008  16.632 -0.9362 -0.3361 -0.2546
  195MPD1     C 3016   1.950   3.286  17.703 -0.4760  0.3526 -0.2699
  195MPD1    C1 3017   1.900   3.186  17.618 -0.1455  0.1903  0.6055
  195MPD1    C2 3018   1.859   3.072  17.680 -0.1074 -0.3678 -0.6481
  195MPD1    C3 3019   1.894   3.042   0.072 -0.4669 -0.0820  0.3290
  195MPD1    C4 3020   1.963   3.140   0.139  0.4898 -1.1860  0.8938
  195MPD1    C5 3021   1.983   3.265   0.087  0.7346 -0.3644 -0.1221
  195MPD1     H 3022   1.806   3.000  17.618 -1.3237 -0.7858  0.8805
  195MPD1    H1 3023   2.007   3.123   0.237  1.1798  0.1754  0.8097
  195MPD1    H2 3024   1.971   3.384  17.661  0.0190  0.6539  0.6860
  195MPD1    H3 3025   2.025   3.337   0.157  0.2142 -0.0983 -0.0822
  195MPD1     N 3026   1.864   2.926   0.146  0.4234 -0.0965  0.0977
  195MPD1    H5 3027   1.897   2.933   0.241  0.4642  1.4339 -0.0349
  195MPD1    N1 3028   1.855   3.229  17.490  0.3457  0.3958 -0.0863
  195MPD1    H6 3029   1.857   3.143  17.436  2.2557  2.2617 -2.9817
  195MPD1    H7 3030   1.921   3.294  17.447 -2.0586  2.7808 -0.1638
  196MPD1     C 3031   0.754   2.519  17.337  0.5529 -0.2752  0.7180
  196MPD1    C1 3032   0.862   2.596  17.366  0.1838  0.4044 -0.0674
  196MPD1    C2 3033   0.920   2.583  17.493 -0.3420 -0.9390  0.4097
  196MPD1    C3 3034   0.865   2.495  17.584 -0.7613  0.2102  0.2743
  196MPD1    C4 3035   0.765   2.415  17.549 -0.0896  0.4817  0.2736
  196MPD1    C5 3036   0.705   2.430  17.428 -0.1685  0.1672 -0.3928
  196MPD1     H 3037   1.001   2.649  17.520 -0.2654 -0.5784 -0.6805
  196MPD1    H1 3038   0.724   2.346  17.622  1.2348 -2.0525 -1.4144
  196MPD1    H2 3039   0.707   2.537  17.241  0.1674 -1.3480  0.7030
  196MPD1    H3 3040   0.624   2.363  17.403  0.0875 -0.1755 -0.3025
  196MPD1     N 3041   0.913   2.481  17.721 -0.3324 -0.1910  0.1989
  196MPD1    H5 3042   0.869   2.408   0.033 -0.0115 -0.0842  0.5949
  196MPD1    N1 3043   0.914   2.684  17.270  0.6206  0.1459  0.7267
  196MPD1    H6 3044   0.940   2.774  17.309  0.1141 -0.3418  2.1942
  196MPD1    H7 3045   0.846   2.710  17.199 -0.6405  2.1696  2.6929
  197MPD1     C 3046   4.411   0.002  17.088 -0.7714 -0.5181 -0.1306
  197MPD1    C1 3047   4.445   4.731  16.958 -0.2732 -0.0188  0.0720
  197MPD1    C2 3048   4.570   4.667  16.918  0.6625 -0.1180 -0.2866
  197MPD1    C3 3049   4.654   4.615  17.015  0.3300  0.1172  0.0107
  197MPD1    C4 3050   4.623   4.635  17.145  0.6759 -0.9934 -0.8688
  197MPD1    C5 3051   4.508   4.698  17.182 -0.1415 -0.1449 -0.1085
  197MPD1     H 3052   4.595   4.655  16.814  0.1074  3.7681 -0.8790
  197MPD1    H1 3053   4.680   4.592  17.226 -1.0449  0.1776  0.9885
  197MPD1    H2 3054   4.320   0.047  17.126 -0.1675 -2.7799  3.9438
  197MPD1    H3 3055   4.493   4.717  17.288 -2.9011 -1.9613 -0.1670
  197MPD1     N 3056   0.035   4.541  16.982  0.1234 -0.3485 -0.4929
  197MPD1    H5 3057   0.100   4.536  17.060  2.1825 -1.1628 -2.2284
  197MPD1    N1 3058   4.347   0.038  16.859  0.6461 -0.6930  0.2838
  197MPD1    H6 3059   4.385   0.055  16.766 -0.1877 -1.5200 -0.2057
  197MPD1    H7 3060   4.279   0.107  16.889  2.4281  1.8507 -1.5639
  198MPD1     C 3061   2.333   2.245  14.989  0.6515  0.2205 -0.5898
  198MPD1    C1 3062   2.418   2.346  14.978 -0.0708  0.6167 -0.2821
  198MPD1    C2 3063   2.428   2.433  15.088 -0.0712 -0.4469 -0.4685
  198MPD1    C3 3064   2.337   2.420  15.192  0.1132 -0.5561 -0.0691
  198MPD1    C4 3065   2.246   2.315  15.206  0.3049 -0.3485  0.6922
  198MPD1    C5 3066   2.248   2.222  15.097 -0.1268 -0.3557 -0.5733
  198MPD1     H 3067   2.495   2.518  15.085  0.4105 -0.7458  2.0737
  198MPD1    H1 3068   2.186   2.294  15.293 -0.1414 -1.7042  0.0570
  198MPD1    H2 3069   2.316   2.174  14.909 -1.8044 -0.8709  0.8688
  198MPD1    H3 3070   2.175   2.142  15.098 -1.3709  0.8004  0.8384
  198MPD1     N 3071   2.366   2.503  15.305  0.5636  0.3316  0.2105
  198MPD1    H5 3072   2.438   2.574  15.300  0.5340  0.2287 -1.5681
  198MPD1    N1 3073   2.517   2.340  14.873  0.3029 -0.2527  0.1618
  198MPD1    H6 3074   2.554   2.432  14.852 -2.1302  0.5175 -0.7443
  198MPD1    H7 3075   2.486   2.299  14.786 -0.6033 -0.1304  0.4317
  199MPD1     C 3076   0.217   4.394  10.458  0.5313 -0.2389  0.4735
  199MPD1    C1 3077   0.116   4.300  10.460  0.0748 -0.2835 -0.3329
  199MPD1    C2 3078   0.031   4.300  10.356  0.3458  0.2762  0.1343
  199MPD1    C3 3079   0.048   4.373  10.246  0.1131 -0.2365  0.4535
  199MPD1    C4 3080   0.156   4.458  10.241  0.4566 -0.1615  0.0053
  199MPD1    C5 3081   0.245   4.467  10.345 -0.0216  0.8476  0.2769
  199MPD1     H 3082   4.666   4.263  10.368  0.4402 -0.5392 -1.5559
  199MPD1    H1 3083   0.177   4.524  10.157 -0.8209 -0.7587 -0.7890
  199MPD1    H2 3084   0.289   4.397  10.539 -1.2965  0.0389  2.0988
  199MPD1    H3 3085   0.336   4.525  10.337  1.2216 -0.8801  2.1325
  199MPD1     N 3086   4.696   4.377  10.141 -0.0025 -0.2110 -1.0450
  199MPD1    H5 3087   4.702   4.456  10.077 -1.1222  1.8357  1.3931
  199MPD1    N1 3088   0.082   4.227  10.574 -0.0370 -0.4946  0.4574
  199MPD1    H6 3089   0.023   4.147  10.555  0.0473 -0.4562  0.0304
  199MPD1    H7 3090   0.166   4.204  10.627 -0.6931 -2.1627  0.7611
  200MPD1     C 3091   0.201   3.603  14.111 -0.2666  0.7166 -0.1196
  200MPD1    C1 3092   0.172   3.675  14.217  0.3857 -0.2966  0.3970
  200MPD1    C2 3093   0.111   3.797  14.188  0.2621  0.2079 -0.0335
  200MPD1    C3 3094   0.062   3.823  14.060 -0.1463  0.7839 -0.4291
  200MPD1    C4 3095   0.075   3.740  13.953 -0.1682 -0.1701  0.3608
  200MPD1    C5 3096   0.147   3.626  13.982 -0.0071  0.3770  0.6381
  200MPD1     H 3097   0.089   3.858  14.274 -0.5645  0.9748 -0.7838
  200MPD1    H1 3098   0.057   3.762  13.848  0.8970 -1.7597 -0.1669
  200MPD1    H2 3099   0.250   3.506  14.116 -1.2106  0.2429 -0.0973
  200MPD1    H3 3100   0.176   3.562  13.899  1.9516  0.4671  1.2522
  200MPD1     N 3101   4.734   3.947  14.043  0.5544  0.6582 -0.7292
  200MPD1    H5 3102   4.703   3.986  14.132  2.7038  1.2256 -0.2249
  200MPD1    N1 3103   0.197   3.637  14.347 -0.0159 -0.6304  0.7693
  200MPD1    H6 3104   0.133   3.561  14.372 -0.0408 -0.0092  2.5594
  200MPD1    H7 3105   0.183   3.718  14.408  1.2637  0.3169 -0.1936
  201MPD1     C 3106   0.757   3.161  13.926 -0.6877 -0.4686  0.3639
  201MPD1    C1 3107   0.885   3.130  13.888 -0.5253 -0.3705 -0.0462
  201MPD1    C2 3108   0.913   3.046  13.787  0.2641  0.2660  0.7349
  201MPD1    C3 3109   0.819   2.964  13.734 -0.4189 -0.1402  0.4456
  201MPD1    C4 3110   0.689   2.998  13.758  0.3598  0.0739  0.2271
  201MPD1    C5 3111   0.660   3.104  13.849  0.3860  0.1048  1.0940
  201MPD1     H 3112   1.016   3.019  13.767 -0.6708 -2.2151 -0.6803
  201MPD1    H1 3113   0.603   2.956  13.706  0.0126 -0.2518  1.0529
  201MPD1    H2 3114   0.732   3.236  14.000  0.9833  0.4636 -0.0176
  201MPD1    H3 3115   0.555   3.124  13.868  0.3063  0.7435 -0.0317
  201MPD1     N 3116   0.874   2.851  13.662 -0.8987  0.8334  0.1725
  201MPD1    H5 3117   0.973   2.836  13.678 -1.3143 -0.5082  1.6035
  201MPD1    N1 3118   0.981   3.211  13.942  0.7031  0.7726  0.1685
  201MPD1    H6 3119   1.071   3.166  13.955  0.6430  1.5594  3.2935
  201MPD1    H7 3120   0.954   3.255  14.029 -2.0962  0.7501 -0.6969
  202MPD1     C 3121   0.455   2.684   9.381 -0.3214  0.2733 -0.4592
  202MPD1    C1 3122   0.469   2.565   9.321 -0.2429 -0.9116  0.1375
  202MPD1    C2 3123   0.595   2.504   9.344 -0.4110 -0.2752  0.4088
  202MPD1    C3 3124   0.708   2.572   9.396 -0.0229 -0.0981  0.4656
  202MPD1    C4 3125   0.693   2.698   9.442  0.6510  0.0808 -0.1466
  202MPD1    C5 3126   0.560   2.747   9.443  0.2830 -0.3894  1.2058
  202MPD1     H 3127   0.618   2.410   9.294  2.5891  0.4351  0.4883
  202MPD1    H1 3128   0.773   2.759   9.481  2.3407 -1.1048 -1.7380
  202MPD1    H2 3129   0.365   2.745   9.375 -0.8361 -0.1907  2.7387
  202MPD1    H3 3130   0.542   2.849   9.475  2.7686  0.0332  1.2731
  202MPD1     N 3131   0.833   2.511   9.417  0.1053  0.2750 -0.8385
  202MPD1    H5 3132   0.898   2.568   9.469  1.4059 -3.4284  1.5853
  202MPD1    N1 3133   0.355   2.486   9.306 -0.4165  0.6286  0.7509
  202MPD1    H6 3134   0.374   2.412   9.239  0.4901  2.2440 -0.7651
  202MPD1    H7 3135   0.278   2.545   9.275 -1.3880  0.4962  2.9188
  203MPD1     C 3136   4.149   3.167  12.468  0.0079  0.2351  0.3024
  203MPD1    C1 3137   4.148   3.035  12.508 -0.2770 -0.0340 -0.6546
  203MPD1    C2 3138   4.265   2.979  12.555  0.4049  0.6299 -0.3565
  203MPD1    C3 3139   4.377   3.046  12.585  0.4495 -0.9940 -0.8354
  203MPD1    C4 3140   4.374   3.182  12.556  0.2121 -0.6474  0.1062
  203MPD1    C5 3141   4.259   3.240  12.502  0.3001  0.1954  0.0752
  203MPD1     H 3142   4.257   2.872  12.569 -1.6641  0.9580  0.9945
  203MPD1    H1 3143   4.467   3.235  12.569  0.1714 -0.3228 -0.9491
  203MPD1    H2 3144   4.060   3.216  12.429 -0.2074  0.5644  1.2020
  203MPD1    H3 3145   4.260   3.347  12.489  0.3743  0.4386  2.0070
  203MPD1     N 3146   4.490   2.979  12.641 -0.3072  0.7687  0.0779
  203MPD1    H5 3147   4.479   2.880  12.664 -1.0536  0.5483 -1.2040
  203MPD1    N1 3148   4.045   2.954  12.454 -0.6464 -0.4300 -0.6968
  203MPD1    H6 3149   4.035   2.870  12.511 -0.8230 -0.8608 -1.3634
  203MPD1    H7 3150   3.955   3.001  12.461 -0.8664 -0.9622  0.0288
  204MPD1     C 3151   4.196   4.695  17.547  0.5508  0.0693  0.4156
  204MPD1    C1 3152   4.186   4.664  17.420 -0.5193  0.1107  0.1740
  204MPD1    C2 3153   4.251   4.546  17.380  0.5002  0.6110 -0.7488
  204MPD1    C3 3154   4.305   4.461  17.476 -0.0072 -0.1934 -0.0212
  204MPD1    C4 3155   4.300   4.492  17.613  0.1614 -0.2792 -0.6030
  204MPD1    C5 3156   4.248   4.613  17.645  0.1459  0.3528 -0.6793
  204MPD1     H 3157   4.244   4.513  17.277  0.0402 -0.4282 -0.3845
  204MPD1    H1 3158   4.348   4.435  17.692  1.4448  1.7077  0.0370
  204MPD1    H2 3159   4.152   0.053  17.579 -1.8458 -1.0107  0.2993
  204MPD1    H3 3160   4.252   4.637   0.007  0.1225  1.9232 -1.0324
  204MPD1     N 3161   4.349   4.338  17.420  0.0901 -0.0100 -0.3742
  204MPD1    H5 3162   4.333   4.332  17.320 -0.3259 -2.0761 -0.1862
  204MPD1    N1 3163   4.118   0.016  17.335 -0.9823  0.4010  0.2364
  204MPD1    H6 3164   4.030   0.055  17.369 -2.1306 -2.9609  1.1920
  204MPD1    H7 3165   4.117   4.725  17.237 -0.7027  1.0027  0.0720
  205MPD1     C 3166   4.699   2.759  16.912 -0.1944  0.4909 -0.8076
  205MPD1    C1 3167   4.706   2.679  17.025  0.6821 -0.8408  0.5010
  205MPD1    C2 3168   4.669   2.727  17.148  0.0697 -0.7764  0.2021
  205MPD1    C3 3169   4.636   2.859  17.164  0.2630  0.4433  0.1895
  205MPD1    C4 3170   4.623   2.934  17.046  0.4314  0.6442  1.3283
  205MPD1    C5 3171   4.652   2.884  16.926 -0.3185 -0.0381  0.6441
  205MPD1     H 3172   4.680   2.664  17.235 -1.6257 -1.9519 -0.4387
  205MPD1    H1 3173   4.599   3.040  17.053 -2.3628 -0.0148  1.7913
  205MPD1    H2 3174   4.701   2.714  16.814  0.2529 -1.8247  0.2432
  205MPD1    H3 3175   4.643   2.949  16.840 -0.5754  1.2132  1.6154
  205MPD1     N 3176   4.624   2.914  17.293 -0.3030  0.9419 -0.2340
  205MPD1    H5 3177   4.600   3.012  17.295 -1.5764  0.6176  0.5496
  205MPD1    N1 3178   4.721   2.540  17.005  0.1437  0.5481  0.1365
  205MPD1    H6 3179   0.044   2.520  16.925 -0.2375  0.5333 -0.1455
  205MPD1    H7 3180   4.632   2.491  17.000  0.3421  0.1312  0.8242
  206MPD1     C 3181   4.604   0.771  17.005 -0.5038 -0.4581 -0.8371
  206MPD1    C1 3182   4.681   0.704  16.913 -0.1200  0.5297  0.7787
  206MPD1    C2 3183   4.639   0.694  16.780 -0.7178 -0.1108  0.0655
  206MPD1    C3 3184   4.523   0.757  16.738 -0.3696 -0.1295 -0.3833
  206MPD1    C4 3185   4.447   0.826  16.830 -1.2015  0.4353  0.0540
  206MPD1    C5 3186   4.487   0.824  16.964  0.7255  0.5647  0.6218
  206MPD1     H 3187   4.708   0.654  16.706 -0.7059 -0.1988  0.1240
  206MPD1    H1 3188   4.359   0.880  16.799 -1.2732 -0.5462 -1.4268
  206MPD1    H2 3189   4.639   0.788  17.106 -0.6504  0.8154 -0.9980
  206MPD1    H3 3190   4.441   0.890  17.037 -1.7944 -0.2399 -0.2179
  206MPD1     N 3191   4.489   0.766  16.603  0.0484  0.2231  0.1564
  206MPD1    H5 3192   4.407   0.823  16.586  0.2808  0.2235 -0.9273
  206MPD1    N1 3193   0.071   0.655  16.938 -0.1972 -0.0794  0.5160
  206MPD1    H6 3194   0.079   0.623  17.034 -2.0701  0.0085  0.6837
  206MPD1    H7 3195   0.081   0.579  16.871  1.4410  0.4347  0.1695
  207MPD1     C 3196   2.546   3.764   9.769  0.9395 -0.4652  0.4696
  207MPD1    C1 3197   2.492   3.682   9.866 -0.0191 -0.2125 -0.2576
  207MPD1    C2 3198   2.518   3.712  10.001  0.0581 -0.6357 -0.1344
  207MPD1    C3 3199   2.595   3.820  10.037 -0.3179 -0.1314 -0.4108
  207MPD1    C4 3200   2.651   3.900   9.936  0.1442  1.1857 -1.0472
  207MPD1    C5 3201   2.621   3.876   9.802  0.2068 -0.2279 -0.1320
  207MPD1     H 3202   2.476   3.645  10.075 -2.3089  1.1924  0.1810
  207MPD1    H1 3203   2.721   3.979   9.960 -1.2330  2.3509 -0.8250
  207MPD1    H2 3204   2.538   3.737   9.664  0.1235 -1.8350  0.8712
  207MPD1    H3 3205   2.666   3.939   9.726 -1.7094 -0.0062 -1.0883
  207MPD1     N 3206   2.620   3.859  10.166 -0.3957  0.4447  0.4511
  207MPD1    H5 3207   2.679   3.940  10.181  2.1961 -1.2866 -0.4267
  207MPD1    N1 3208   2.445   3.549   9.835  0.2183 -0.3841  0.1909
  207MPD1    H6 3209   2.399   3.542   9.744 -0.7585  0.8635  0.5879
  207MPD1    H7 3210   2.378   3.512   9.901  0.3480 -2.6622 -0.9390
  208MPD1     C 3211   0.364   2.150  17.144 -0.0743  0.9371  0.2808
  208MPD1    C1 3212   0.365   2.251  17.236 -0.6306  0.0487 -0.5105
  208MPD1    C2 3213   0.365   2.208  17.364 -0.1453 -1.4376  0.1103
  208MPD1    C3 3214   0.328   2.087  17.399  0.4084 -0.3737  0.1860
  208MPD1    C4 3215   0.305   1.992  17.297  0.6033 -0.3543  0.7643
  208MPD1    C5 3216   0.338   2.023  17.172  0.5607  0.2435  0.0459
  208MPD1     H 3217   0.397   2.283  17.436 -1.3664  0.2411 -1.1062
  208MPD1    H1 3218   0.272   1.890  17.312 -4.3788  1.5274  2.8072
  208MPD1    H2 3219   0.375   2.179  17.040  1.4689  1.5213  0.6039
  208MPD1    H3 3220   0.339   1.943  17.099 -1.7380 -0.3512  0.6512
  208MPD1     N 3221   0.309   2.071  17.542  0.2567  0.3577 -0.2321
  208MPD1    H5 3222   0.351   2.140  17.603  0.0435  0.0672  0.2428
  208MPD1    N1 3223   0.405   2.377  17.200  0.5407 -0.5030 -0.5126
  208MPD1    H6 3224   0.382   2.437  17.279  1.7797  0.0128 -0.5515
  208MPD1    H7 3225   0.368   2.414  17.113 -2.9221 -3.0862 -0.1174
  209MPD1     C 3226   2.558   3.237  12.019  0.0913 -0.5335 -0.3414
  209MPD1    C1 3227   2.484   3.261  11.906 -0.2845  0.3247  0.0561
  209MPD1    C2 3228   2.513   3.362  11.824 -0.0592 -0.2043  0.9603
  209MPD1    C3 3229   2.619   3.448  11.854  0.7645  0.0372 -0.7403
  209MPD1    C4 3230   2.680   3.436  11.971  0.7174  0.2681 -0.3316
  209MPD1    C5 3231   2.651   3.326  12.052  0.3906  0.5469  0.0413
  209MPD1     H 3232   2.452   3.374  11.735 -0.0016 -1.4359  0.7584
  209MPD1    H1 3233   2.751   3.506  12.013 -0.1585  2.2502 -2.1058
  209MPD1    H2 3234   2.533   3.156  12.088 -1.1671 -0.2552 -0.4705
  209MPD1    H3 3235   2.697   3.296  12.145  0.5373 -0.7965 -0.4755
  209MPD1     N 3236   2.654   3.550  11.754 -0.0542  0.1923 -0.5525
  209MPD1    H5 3237   2.602   3.558  11.667 -0.2232  0.3328 -0.4394
  209MPD1    N1 3238   2.372   3.177  11.889  0.4741 -0.1749  0.0632
  209MPD1    H6 3239   2.311   3.172  11.971  0.6856 -1.3228  0.1479
  209MPD1    H7 3240   2.307   3.218  11.822  1.3610  0.2800 -0.5264
  210MPD1     C 3241   3.036   4.493  11.851 -1.6485 -0.1481  0.3553
  210MPD1    C1 3242   3.068   4.460  11.719 -0.1283  0.0770  0.4546
  210MPD1    C2 3243   3.031   4.339  11.670 -0.0095  0.2910  0.1452
  210MPD1    C3 3244   2.945   4.251  11.741 -0.7075 -0.3684 -0.3623
  210MPD1    C4 3245   2.903   4.293  11.865  0.0906  0.0002  0.3976
  210MPD1    C5 3246   2.957   4.401  11.918  0.3563  0.0809  0.2714
  210MPD1     H 3247   3.065   4.308  11.572  0.1388  1.9953 -0.3450
  210MPD1    H1 3248   2.845   4.226  11.928 -0.8152  0.9514  0.5867
  210MPD1    H2 3249   3.079   4.575  11.907 -1.0532  0.2415 -0.6718
  210MPD1    H3 3250   2.940   4.420  12.024 -2.0673  1.1846 -0.3136
  210MPD1     N 3251   2.890   4.124  11.694  0.0210  0.0860  0.0816
  210MPD1    H5 3252   2.829   4.081  11.762 -2.2252  0.3043 -1.7892
  210MPD1    N1 3253   3.168   4.536  11.658  0.4427 -0.3189  0.9894
  210MPD1    H6 3254   3.178   4.513  11.559  0.0869 -2.2943  1.4224
  210MPD1    H7 3255   3.175   4.634  11.687 -2.1782  0.1468  0.0332
  211MPD1     C 3256   3.515   2.326  17.256  0.2300  0.1307 -0.1002
  211MPD1    C1 3257   3.458   2.381  17.145 -0.0726 -0.6104  0.0990
  211MPD1    C2 3258   3.530   2.468  17.073 -0.7359  0.8288 -0.2834
  211MPD1    C3 3259   3.662   2.505  17.111 -0.1015  0.2183  0.8523
  211MPD1    C4 3260   3.723   2.455  17.218 -0.4871 -0.6133  0.8494
  211MPD1    C5 3261   3.649   2.366  17.293 -0.0820  0.1372  0.0977
  211MPD1     H 3262   3.479   2.520  16.992  0.9132  1.1145 -1.1429
  211MPD1    H1 3263   3.821   2.485  17.252 -0.8959 -0.9548  2.3490
  211MPD1    H2 3264   3.464   2.254  17.319 -0.0336 -0.5449 -1.0864
  211MPD1    H3 3265   3.699   2.328  17.381  1.8776 -0.1103 -1.1384
  211MPD1     N 3266   3.716   2.600  17.027 -0.1945  0.6660 -0.0856
  211MPD1    H5 3267   3.660   2.628  16.948  0.4275 -1.7704 -1.4026
  211MPD1    N1 3268   3.319   2.377  17.120 -0.2588 -0.0258 -0.0023
  211MPD1    H6 3269   3.273   2.294  17.156 -0.7299 -0.1516 -0.8882
  211MPD1    H7 3270   3.304   2.392  17.020 -0.6687  0.6946  0.1679
  212MPD1     C 3271   3.415   1.543  16.186 -0.1280 -0.2538 -0.2053
  212MPD1    C1 3272   3.383   1.577  16.317 -0.8498  0.1614 -1.0751
  212MPD1    C2 3273   3.339   1.475  16.402 -0.4747 -0.3387 -0.2994
  212MPD1    C3 3274   3.338   1.346  16.359 -0.0538 -0.3428  0.0533
  212MPD1    C4 3275   3.372   1.317  16.230  0.2606 -0.0727 -0.0490
  212MPD1    C5 3276   3.403   1.416  16.136  0.7810 -0.5307 -0.0866
  212MPD1     H 3277   3.341   1.501  16.507  0.5526  2.3799 -0.9797
  212MPD1    H1 3278   3.355   1.218  16.189  1.4873  0.6374 -2.3106
  212MPD1    H2 3279   3.466   1.612  16.119  1.6994 -0.5796  0.8254
  212MPD1    H3 3280   3.422   1.402  16.030 -1.3612  0.6308 -0.6209
  212MPD1     N 3281   3.306   1.237  16.448  0.3800  0.0505  0.1442
  212MPD1    H5 3282   3.315   1.149  16.397  0.6922 -0.3297  0.8506
  212MPD1    N1 3283   3.424   1.699  16.372  0.1770 -0.2419  0.4111
  212MPD1    H6 3284   3.375   1.716  16.460  3.6252 -0.8544  2.4166
  212MPD1    H7 3285   3.408   1.777  16.309  1.9123  0.6437  1.0821
  213MPD1     C 3286   1.882   1.660  15.903  0.2580  0.0091  0.1723
  213MPD1    C1 3287   1.778   1.588  15.845 -0.6066  0.1536  0.1482
  213MPD1    C2 3288   1.721   1.643  15.729  0.1232  0.9587 -0.1671
  213MPD1    C3 3289   1.772   1.742  15.657 -0.5813  0.6280  0.4516
  213MPD1    C4 3290   1.890   1.797  15.699  0.0688  0.0611 -0.0250
  213MPD1    C5 3291   1.942   1.748  15.818 -0.1447  0.1845  0.1029
  213MPD1     H 3292   1.637   1.583  15.697 -0.7469  2.4126 -0.5977
  213MPD1    H1 3293   1.938   1.871  15.636  0.0184  2.0384  2.2428
  213MPD1    H2 3294   1.932   1.624  15.992 -1.7745 -1.7645  0.6046
  213MPD1    H3 3295   2.044   1.774  15.846  0.2642  0.8694 -2.0511
  213MPD1     N 3296   1.726   1.754  15.527  0.1269 -0.5212 -0.2555
  213MPD1    H5 3297   1.668   1.683  15.482  1.7616 -0.4215 -2.5164
  213MPD1    N1 3298   1.704   1.501  15.924  0.1710  0.0736 -0.7171
  213MPD1    H6 3299   1.639   1.441  15.874  0.3259  0.2676 -1.1544
  213MPD1    H7 3300   1.757   1.448  15.993 -0.0735  0.7215 -0.0319
  214MPD1     C 3301   0.966   1.464  15.251 -0.2369 -0.2688  0.4143
  214MPD1    C1 3302   1.068   1.425  15.168 -0.5656  0.4334 -0.0068
  214MPD1    C2 3303   1.189   1.493  15.166  0.1546  0.0432  0.3511
  214MPD1    C3 3304   1.205   1.604  15.248  0.3583  0.0781 -0.2117
  214MPD1    C4 3305   1.094   1.648  15.319  0.4314 -0.6742 -0.3147
  214MPD1    C5 3306   0.976   1.574  15.325  0.5148  0.2243  0.9840
  214MPD1     H 3307   1.276   1.458  15.112 -0.3870  2.4427 -2.0613
  214MPD1    H1 3308   1.102   1.740  15.375  0.7358 -2.1539  2.0460
  214MPD1    H2 3309   0.873   1.409  15.247 -0.0833 -0.6439  1.8610
  214MPD1    H3 3310   0.888   1.613  15.375 -1.7460 -2.4719 -0.9134
  214MPD1     N 3311   1.323   1.675  15.266  0.6184 -0.0006  0.5218
  214MPD1    H5 3312   1.329   1.752  15.332  2.4505  0.8466 -0.6503
  214MPD1    N1 3313   1.062   1.301  15.096  0.1197 -0.6768  0.0663
  214MPD1    H6 3314   1.119   1.290  15.012 -0.3481 -3.4721  0.1192
  214MPD1    H7 3315   0.965   1.278  15.078 -0.4396 -0.4784  2.8723
  215MPD1     C 3316   1.181   3.126  11.366  0.6401  0.7405  0.2286
  215MPD1    C1 3317   1.216   3.060  11.472  0.2263 -0.1015 -0.7763
  215MPD1    C2 3318   1.348   3.071  11.515  0.8363 -0.2891  0.3093
  215MPD1    C3 3319   1.445   3.139  11.448  0.5001  0.1865 -0.3195
  215MPD1    C4 3320   1.409   3.199  11.329  0.0411  1.1432  0.5296
  215MPD1    C5 3321   1.278   3.184  11.293  0.3526 -0.3533 -0.2959
  215MPD1     H 3322   1.378   3.013  11.602 -0.9279  0.4364  1.4045
  215MPD1    H1 3323   1.474   3.263  11.271 -0.2685 -0.7586 -1.9040
  215MPD1    H2 3324   1.080   3.129  11.327  0.2075 -2.5714  1.0614
  215MPD1    H3 3325   1.241   3.228  11.201  1.3769  1.1568  0.0327
  215MPD1     N 3326   1.582   3.136  11.495 -0.4827  0.1122 -0.2906
  215MPD1    H5 3327   1.601   3.082  11.578  0.2189  0.7487 -0.0388
  215MPD1    N1 3328   1.124   2.998  11.555  0.3166  0.0511  0.3051
  215MPD1    H6 3329   1.058   3.061  11.601 -0.7212 -0.7746 -0.0542
  215MPD1    H7 3330   1.170   2.951  11.633 -0.1884 -0.3939  0.3325
  216MPD1     C 3331   3.577   1.217  16.631 -0.6684 -0.1752  0.1001
  216MPD1    C1 3332   3.635   1.093  16.612 -0.7310  0.3401  1.0895
  216MPD1    C2 3333   3.623   0.998  16.713  0.5821 -0.1571  0.5506
  216MPD1    C3 3334   3.563   1.023  16.833  0.0913  0.5997 -0.2542
  216MPD1    C4 3335   3.518   1.155  16.855 -0.3712 -0.7673 -0.6544
  216MPD1    C5 3336   3.538   1.253  16.757 -0.5042  0.0946  0.1090
  216MPD1     H 3337   3.651   0.896  16.688 -0.8522 -0.6033  0.8123
  216MPD1    H1 3338   3.460   1.190  16.940  0.5564 -0.3427 -0.1993
  216MPD1    H2 3339   3.566   1.288  16.549 -0.1547 -0.5848 -0.3278
  216MPD1    H3 3340   3.497   1.353  16.770  0.8373  0.5141  1.1589
  216MPD1     N 3341   3.546   0.926  16.935  0.2372  0.4408 -0.1359
  216MPD1    H5 3342   3.568   0.832  16.905  2.0064  0.7625  0.1555
  216MPD1    N1 3343   3.682   1.058  16.488 -0.2728  0.1629 -0.3859
  216MPD1    H6 3344   3.758   0.991  16.497 -0.7887 -0.4711 -0.6950
  216MPD1    H7 3345   3.718   1.141  16.441  1.4821 -0.9683 -1.0216
  217MPD1     C 3346   4.617   1.896   8.755  0.3083  0.1655 -0.3554
  217MPD1    C1 3347   4.500   1.954   8.763  0.2873  0.0306 -0.4784
  217MPD1    C2 3348   4.491   2.068   8.841  1.1130 -0.0463 -0.0928
  217MPD1    C3 3349   4.603   2.108   8.919  0.7940 -0.7450  0.0317
  217MPD1    C4 3350   4.716   2.042   8.912 -0.3131  0.4019 -0.3887
  217MPD1    C5 3351   4.717   1.926   8.838 -0.0091  0.3099  0.3587
  217MPD1     H 3352   4.409   2.139   8.829 -0.9548 -2.2299  1.1555
  217MPD1    H1 3353   0.064   2.077   8.970 -0.5887 -0.1354  0.3455
  217MPD1    H2 3354   4.633   1.806   8.696  0.2290  0.5738 -1.0015
  217MPD1    H3 3355   0.075   1.874   8.831  0.6689  1.3134  2.0286
  217MPD1     N 3356   4.600   2.229   8.993  0.2447 -0.1146 -0.1249
  217MPD1    H5 3357   4.691   2.261   9.025  0.2612  0.3943 -0.6929
  217MPD1    N1 3358   4.402   1.915   8.673  0.1133 -0.3356 -0.6908
  217MPD1    H6 3359   4.404   1.816   8.650  2.1529 -0.6031  0.6482
  217MPD1    H7 3360   4.308   1.939   8.702  0.3776 -1.4058  1.0401
  218MPD1     C 3361   1.526   3.939  13.105 -0.4162 -0.0893  0.0018
  218MPD1    C1 3362   1.658   3.957  13.056  0.2273 -0.2298  0.1639
  218MPD1    C2 3363   1.722   3.846  13.010  0.6235  0.8088 -0.4179
  218MPD1    C3 3364   1.676   3.713  13.034  0.0192  0.6446  0.6640
  218MPD1    C4 3365   1.555   3.700  13.090 -0.3792  0.3321 -0.1479
  218MPD1    C5 3366   1.481   3.809  13.121 -0.3791  0.3485 -0.2167
  218MPD1     H 3367   1.815   3.856  12.956  0.7973  1.0239 -0.0753
  218MPD1    H1 3368   1.518   3.603  13.121  0.9450 -0.6225 -1.5513
  218MPD1    H2 3369   1.469   4.025  13.140  0.2952 -0.7780  2.8280
  218MPD1    H3 3370   1.381   3.794  13.160 -0.4448 -0.5778 -0.7396
  218MPD1     N 3371   1.744   3.598  12.980 -0.1504  0.4893 -0.0150
  218MPD1    H5 3372   1.829   3.629  12.932  0.9284 -2.1171  0.2282
  218MPD1    N1 3373   1.698   4.088  13.015 -0.2364 -0.3385  0.2168
  218MPD1    H6 3374   1.677   4.162  13.081 -0.5264  0.6235 -0.9610
  218MPD1    H7 3375   1.798   4.089  12.994 -0.8052  0.4506 -2.3310
  219MPD1     C 3376   2.372   3.400  12.297 -0.3446  0.0355  1.2523
  219MPD1    C1 3377   2.333   3.489  12.395  0.6770 -0.3691  0.3806
  219MPD1    C2 3378   2.239   3.448  12.484 -0.6326  0.2537 -0.5279
  219MPD1    C3 3379   2.177   3.327  12.476  0.1697  0.0738  0.5426
  219MPD1    C4 3380   2.221   3.235  12.383  0.2034  0.1958 -0.1274
  219MPD1    C5 3381   2.310   3.276  12.287 -0.3140  0.1759  0.0698
  219MPD1     H 3382   2.207   3.522  12.558  0.4977 -1.5603  1.7832
  219MPD1    H1 3383   2.167   3.143  12.366 -0.2916  0.6397 -0.9785
  219MPD1    H2 3384   2.452   3.419  12.227 -0.7649 -0.1005  0.7336
  219MPD1    H3 3385   2.336   3.204  12.211 -4.0491  0.2358 -1.2520
  219MPD1     N 3386   2.066   3.290  12.560  0.4095 -0.1744 -0.0478
  219MPD1    H5 3387   2.032   3.195  12.553  1.1318 -0.5144  1.0525
  219MPD1    N1 3388   2.377   3.619  12.411 -0.2772 -0.1468 -0.0724
  219MPD1    H6 3389   2.465   3.627  12.360  0.5348 -1.1244  1.1446
  219MPD1    H7 3390   2.390   3.658  12.505  1.8694  0.5031 -0.6342
  220MPD1     C 3391   1.972   3.216   9.707 -0.0272 -0.1922 -0.5176
  220MPD1    C1 3392   1.853   3.244   9.764 -0.2826 -0.3378 -0.3831
  220MPD1    C2 3393   1.861   3.269   9.900  0.3510  0.2133 -0.1970
  220MPD1    C3 3394   1.973   3.250   9.976 -0.4724 -1.1235 -0.2560
  220MPD1    C4 3395   2.090   3.205   9.908  0.1090 -0.8347 -0.2986
  220MPD1    C5 3396   2.091   3.205   9.771  0.3606 -0.3079 -0.2721
  220MPD1     H 3397   1.776   3.319   9.945  0.5510 -0.3467  0.8061
  220MPD1    H1 3398   2.189   3.200   9.950  0.2770  2.2103 -0.2865
  220MPD1    H2 3399   1.970   3.205   9.599  0.0891  1.2711 -0.6655
  220MPD1    H3 3400   2.191   3.205   9.730 -0.0755 -3.7672 -1.3532
  220MPD1     N 3401   1.959   3.284  10.113 -0.1955 -0.4486 -0.8049
  220MPD1    H5 3402   1.869   3.320  10.144  1.4436  2.8167  0.1843
  220MPD1    N1 3403   1.738   3.282   9.683 -0.5033  0.6581  0.1359
  220MPD1    H6 3404   1.724   3.216   9.607 -1.3397  1.3274 -0.2954
  220MPD1    H7 3405   1.655   3.278   9.742 -0.5508  0.7754  0.0780
  221MPD1     C 3406   3.398   2.628  16.227 -1.2861  0.2420 -0.7401
  221MPD1    C1 3407   3.436   2.717  16.323 -0.6284 -0.5169 -0.0021
  221MPD1    C2 3408   3.559   2.697  16.389  0.2829  0.4403 -0.1596
  221MPD1    C3 3409   3.641   2.592  16.354 -0.0948  0.8466 -0.2893
  221MPD1    C4 3410   3.609   2.507  16.243  0.1554 -0.0405 -0.1274
  221MPD1    C5 3411   3.488   2.530  16.183 -0.6152 -0.2358  0.8452
  221MPD1     H 3412   3.576   2.760  16.475 -1.8744  0.2836  0.3779
  221MPD1    H1 3413   3.683   2.435  16.209 -0.6176 -0.3461 -1.1413
  221MPD1    H2 3414   3.307   2.639  16.169 -1.3443  1.2463 -0.4422
  221MPD1    H3 3415   3.458   2.465  16.101 -2.6924  1.5088  0.2224
  221MPD1     N 3416   3.760   2.560  16.420 -0.2515 -0.0051 -0.0548
  221MPD1    H5 3417   3.812   2.479  16.386  2.6153  0.8764  2.2439
  221MPD1    N1 3418   3.338   2.815  16.365 -0.2451 -0.2249  0.1415
  221MPD1    H6 3419   3.285   2.863  16.293  1.1499  0.9978 -0.0650
  221MPD1    H7 3420   3.358   2.894  16.425  2.5701 -0.0109 -1.0927
  222MPD1     C 3421   3.660   3.979   1.927 -0.0739  0.3081  0.3808
  222MPD1    C1 3422   3.653   3.871   1.837 -0.2254  0.5611 -0.0154
  222MPD1    C2 3423   3.774   3.824   1.783 -0.1548  0.1610  0.9590
  222MPD1    C3 3424   3.896   3.893   1.800 -0.1331  0.6972  0.0216
  222MPD1    C4 3425   3.898   3.990   1.896 -0.7370  0.1201  0.1216
  222MPD1    C5 3426   3.783   4.034   1.956  0.6335 -0.1442  0.0059
  222MPD1     H 3427   3.778   3.734   1.723  0.1400  1.0238 -0.3367
  222MPD1    H1 3428   3.988   4.050   1.904  1.2475 -3.0781  1.5601
  222MPD1    H2 3429   3.571   4.021   1.970 -0.4748 -1.3040  1.1164
  222MPD1    H3 3430   3.774   4.119   2.022 -0.6724 -1.1479  1.1102
  222MPD1     N 3431   4.023   3.866   1.737  0.2661 -0.4331  0.3685
  222MPD1    H5 3432   4.101   3.925   1.764  1.6151 -2.7247  1.4168
  222MPD1    N1 3433   3.534   3.796   1.832  0.1603 -0.3933 -1.3055
  222MPD1    H6 3434   3.455   3.846   1.874 -1.2977 -1.4298 -2.8422
  222MPD1    H7 3435   3.515   3.756   1.741  0.7244  1.1208 -2.0817
  223MPD1     C 3436   0.050   3.935   2.120  0.7917  0.8707  0.3025
  223MPD1    C1 3437   4.663   3.993   2.126  0.2807 -0.1335 -0.2668
  223MPD1    C2 3438   4.569   3.959   2.024 -0.2077 -0.3312  0.4134
  223MPD1    C3 3439   4.596   3.860   1.926  0.3873 -0.3813  0.7130
  223MPD1    C4 3440   4.711   3.788   1.941 -0.5243  0.5167  0.5666
  223MPD1    C5 3441   0.074   3.832   2.023 -0.1344  0.2009 -0.8371
  223MPD1     H 3442   4.477   4.016   2.020  0.7691  1.1845 -0.4617
  223MPD1    H1 3443   4.728   3.695   1.887 -0.7479 -0.2667  1.8405
  223MPD1    H2 3444   0.133   3.954   2.187  0.8338 -1.4314  0.8875
  223MPD1    H3 3445   0.167   3.778   2.014  0.1073  0.7690 -1.7297
  223MPD1     N 3446   4.490   3.830   1.835 -0.2987 -0.3380 -0.1162
  223MPD1    H5 3447   4.415   3.898   1.837 -0.5966 -0.6512 -0.6886
  223MPD1    N1 3448   4.638   4.111   2.205 -0.4881  0.3017  0.0848
  223MPD1    H6 3449   4.683   4.102   2.296  0.3387 -0.6375 -0.4224
  223MPD1    H7 3450   4.541   4.131   2.226 -0.4156  0.0343  0.6816
  224MPD1     C 3451   0.795   4.343   8.923  0.9311  0.1644  0.0589
  224MPD1    C1 3452   0.755   4.214   8.888 -0.0251 -0.1701 -0.1257
  224MPD1    C2 3453   0.785   4.124   8.987 -0.5148 -0.9908 -0.2184
  224MPD1    C3 3454   0.861   4.150   9.099  0.4685 -0.4023  0.5381
  224MPD1    C4 3455   0.880   4.282   9.140 -0.3783  0.5157  0.2511
  224MPD1    C5 3456   0.863   4.378   9.041 -0.0414  0.0193 -0.0248
  224MPD1     H 3457   0.753   4.022   8.971  0.9346 -1.1731 -1.9312
  224MPD1    H1 3458   0.935   4.309   9.229  0.8034 -1.0795  0.0026
  224MPD1    H2 3459   0.799   4.421   8.848 -1.1426  1.6167  1.4470
  224MPD1    H3 3460   0.900   4.478   9.059 -3.1584  1.5797 -2.3362
  224MPD1     N 3461   0.897   4.057   9.199  0.2454 -0.4349 -0.3093
  224MPD1    H5 3462   0.947   4.104   9.274 -2.6114 -0.6586  1.7354
  224MPD1    N1 3463   0.680   4.182   8.775 -0.8742  0.1734 -0.4636
  224MPD1    H6 3464   0.688   4.088   8.736 -0.8237 -0.2046  0.4379
  224MPD1    H7 3465   0.702   4.246   8.700 -0.3335  2.1824  1.4023
  225MPD1     C 3466   2.020   3.923  12.557 -0.0408 -0.7213 -0.1450
  225MPD1    C1 3467   1.981   3.797  12.524 -0.3729  0.3250 -0.3821
  225MPD1    C2 3468   1.856   3.758  12.566  0.7720  0.5499 -1.4539
  225MPD1    C3 3469   1.784   3.833  12.656 -0.3242 -0.2176  0.2788
  225MPD1    C4 3470   1.839   3.953  12.705 -0.1751 -0.5142  0.2409
  225MPD1    C5 3471   1.952   3.996  12.650 -0.0041  0.0263 -0.3453
  225MPD1     H 3472   1.822   3.660  12.534 -1.8573  1.7990 -2.5223
  225MPD1    H1 3473   1.782   4.008  12.779  0.1987  1.0722 -0.6646
  225MPD1    H2 3474   2.117   3.962  12.530 -0.0218  0.1713  1.1808
  225MPD1    H3 3475   2.004   4.089  12.673 -0.7895  0.7588 -1.5694
  225MPD1     N 3476   1.658   3.799  12.704  0.3399  0.0808  0.8371
  225MPD1    H5 3477   1.610   3.873  12.755 -0.2903  1.2028 -1.4104
  225MPD1    N1 3478   2.058   3.724  12.434  0.1964 -0.1580  0.1039
  225MPD1    H6 3479   2.159   3.723  12.426  0.1996  0.5251  0.0571
  225MPD1    H7 3480   2.035   3.627  12.454  0.1392 -0.0278  0.6651
  226MPD1     C 3481   0.942   4.719   9.176 -0.5891  0.0280 -0.0550
  226MPD1    C1 3482   1.051   4.714   9.264 -0.7447 -0.9532  0.1520
  226MPD1    C2 3483   1.045   4.613   9.353 -0.0139 -0.0985  0.3593
  226MPD1    C3 3484   0.924   4.547   9.377 -0.2003 -0.2473 -0.1626
  226MPD1    C4 3485   0.807   4.599   9.327  0.1057  0.1520 -0.1069
  226MPD1    C5 3486   0.817   4.680   9.222 -0.5288  0.1540 -0.6064
  226MPD1     H 3487   1.136   4.581   9.403  1.1476  0.6092 -1.2830
  226MPD1    H1 3488   0.708   4.560   9.349 -0.7027  2.7957  0.8277
  226MPD1    H2 3489   0.938   0.044   9.086 -1.4848 -2.2306 -1.5522
  226MPD1    H3 3490   0.730   4.722   9.173 -0.4405 -0.9651 -1.7029
  226MPD1     N 3491   0.927   4.444   9.475 -0.6548 -0.4972  0.3258
  226MPD1    H5 3492   1.014   4.431   9.525  1.6217  1.9377 -3.0480
  226MPD1    N1 3493   1.173   0.041   9.233 -0.6301 -0.5518  0.1155
  226MPD1    H6 3494   1.233   0.055   9.314  1.4601  0.7204 -1.6452
  226MPD1    H7 3495   1.178   0.127   9.179 -2.3574 -0.3442  0.2764
  227MPD1     C 3496   0.310   4.119  10.222 -0.4094 -0.8551 -0.1377
  227MPD1    C1 3497   0.274   4.120  10.086 -0.0895  0.1744  0.0298
  227MPD1    C2 3498   0.382   4.149  10.001  0.0563  0.7377 -0.4934
  227MPD1    C3 3499   0.508   4.188  10.046  0.0336  0.2931 -0.0757
  227MPD1    C4 3500   0.525   4.207  10.188 -0.1516  0.3758 -0.0232
  227MPD1    C5 3501   0.425   4.173  10.277 -0.5038 -0.4540 -0.4944
  227MPD1     H 3502   0.375   4.141   9.893 -0.8456 -0.8987 -0.3202
  227MPD1    H1 3503   0.622   4.238  10.224 -0.6414  1.5388  0.2966
  227MPD1    H2 3504   0.230   4.085  10.287 -1.0431 -0.5965 -0.7881
  227MPD1    H3 3505   0.437   4.182  10.385  1.3105 -1.8046 -0.5769
  227MPD1     N 3506   0.611   4.209   9.949  0.1587 -0.3325 -0.2009
  227MPD1    H5 3507   0.583   4.187   9.854 -0.2336  0.2001 -0.2104
  227MPD1    N1 3508   0.157   4.057  10.053  0.7090 -0.0543 -1.1925
  227MPD1    H6 3509   0.097   4.082  10.131  0.6982 -2.6288 -0.3805
  227MPD1    H7 3510   0.121   4.082   9.961 -1.7570  2.0177  0.3195
  228MPD1     C 3511   3.538   0.806  13.308  0.4252 -0.1880 -0.2979
  228MPD1    C1 3512   3.522   0.941  13.292 -0.2845 -0.4016  0.3298
  228MPD1    C2 3513   3.393   0.986  13.287 -0.3831  0.0713 -0.2784
  228MPD1    C3 3514   3.281   0.909  13.318 -0.5303 -0.0222 -0.4530
  228MPD1    C4 3515   3.300   0.785  13.370 -1.0237  0.1801 -0.0502
  228MPD1    C5 3516   3.426   0.733  13.359  0.7116  0.4376 -0.3982
  228MPD1     H 3517   3.378   1.092  13.266  1.7390  0.2026 -1.1077
  228MPD1    H1 3518   3.221   0.715  13.392 -0.8568 -0.2800 -0.9031
  228MPD1    H2 3519   3.634   0.756  13.302  0.1687 -0.5789 -1.1011
  228MPD1    H3 3520   3.438   0.628  13.382 -0.7245 -0.1005 -2.0880
  228MPD1     N 3521   3.156   0.972  13.309  0.1062  0.0637  0.0768
  228MPD1    H5 3522   3.162   1.071  13.290  0.6512  0.5010  2.4720
  228MPD1    N1 3523   3.630   1.015  13.231  0.1890  0.2406 -0.3220
  228MPD1    H6 3524   3.630   1.115  13.249  0.1307 -0.1367  1.7457
  228MPD1    H7 3525   3.722   0.977  13.253  0.6167  0.9287 -0.9097
  229MPD1     C 3526   2.487   0.904  14.653  0.3035  0.1772  0.6177
  229MPD1    C1 3527   2.611   0.852  14.633  0.1887  0.2414  0.1863
  229MPD1    C2 3528   2.623   0.711  14.650 -0.3402 -0.6855  0.2294
  229MPD1    C3 3529   2.515   0.634  14.690  0.6339  0.2310  0.9267
  229MPD1    C4 3530   2.394   0.691  14.715  0.1781 -0.1497 -0.9066
  229MPD1    C5 3531   2.384   0.827  14.697 -0.4586  0.3924  0.1068
  229MPD1     H 3532   2.722   0.670  14.631  0.2375  0.3087  1.0996
  229MPD1    H1 3533   2.316   0.630  14.758  0.4880  0.1116  0.0175
  229MPD1    H2 3534   2.474   1.008  14.626 -1.3091 -0.5152 -1.2174
  229MPD1    H3 3535   2.288   0.874  14.713 -1.2871 -0.9992 -0.7637
  229MPD1     N 3536   2.525   0.499  14.711  0.1944  0.0878  0.1015
  229MPD1    H5 3537   2.449   0.466  14.770 -0.3629 -2.1286 -1.8351
  229MPD1    N1 3538   2.706   0.936  14.568  0.0764 -0.0214 -0.5576
  229MPD1    H6 3539   2.798   0.893  14.572 -0.6302 -1.5349 -0.4281
  229MPD1    H7 3540   2.707   1.035  14.592  1.5805 -0.8555  2.6830
  230MPD1     C 3541   2.840   0.041  15.549 -0.2445  0.0812  0.0641
  230MPD1    C1 3542   2.878   4.675  15.463 -0.3707 -0.1066 -0.5132
  230MPD1    C2 3543   2.862   4.708  15.331  0.5974 -0.0978 -0.0049
  230MPD1    C3 3544   2.802   0.093  15.287  0.1583 -0.2752 -0.0485
  230MPD1    C4 3545   2.774   0.196  15.376 -0.4719  0.3850  0.2380
  230MPD1    C5 3546   2.791   0.160  15.507  0.9097 -0.1586  0.4623
  230MPD1     H 3547   2.875   4.631  15.256  1.9447 -0.2518  0.3822
  230MPD1    H1 3548   2.719   0.283  15.343 -1.0218 -0.7622 -1.8573
  230MPD1    H2 3549   2.852   0.035  15.656 -3.9990 -2.0740  0.3555
  230MPD1    H3 3550   2.771   0.232  15.586 -0.9647 -2.3704  2.0075
  230MPD1     N 3551   2.780   0.096  15.149 -0.7910  0.0486  0.0090
  230MPD1    H5 3552   2.826   0.026  15.091 -0.0785 -0.1846  0.8516
  230MPD1    N1 3553   2.905   4.545  15.506  0.1716 -0.1341  0.0057
  230MPD1    H6 3554   2.951   4.489  15.435  0.5066  1.9039 -1.3621
  230MPD1    H7 3555   2.955   4.540  15.595  1.9459 -2.2091 -1.1023
  231MPD1     C 3556   1.031   1.976  15.566  0.7524  0.4677 -0.5747
  231MPD1    C1 3557   1.000   1.948  15.436 -0.3100  0.1944  0.2175
  231MPD1    C2 3558   1.085   1.980  15.329 -0.1575 -0.1128  0.2251
  231MPD1    C3 3559   1.207   2.033  15.356 -0.3273 -0.3307  0.1880
  231MPD1    C4 3560   1.239   2.052  15.490  0.1608 -0.2918  0.9055
  231MPD1    C5 3561   1.150   2.029  15.593 -0.2451 -0.0267 -0.3730
  231MPD1     H 3562   1.065   1.952  15.226 -0.8752  1.0813  0.0425
  231MPD1    H1 3563   1.342   2.083  15.508  0.3365 -1.2346  1.5304
  231MPD1    H2 3564   0.959   1.953  15.644  3.0500  0.1257  1.4278
  231MPD1    H3 3565   1.179   2.054  15.694  0.0134 -0.2773 -0.3846
  231MPD1     N 3566   1.287   2.077  15.248  0.4440 -0.2499 -0.3143
  231MPD1    H5 3567   1.245   2.074  15.155 -0.1599  0.7810 -0.0739
  231MPD1    N1 3568   0.861   1.917  15.414 -0.0820  0.1460  0.4822
  231MPD1    H6 3569   0.858   1.869  15.325 -1.4850  1.8081 -0.3558
  231MPD1    H7 3570   0.818   1.858  15.485 -1.4583 -1.1866 -1.4773
  232MPD1     C 3571   3.396   4.239   0.493  0.9268  0.0713 -0.0687
  232MPD1    C1 3572   3.298   4.203   0.577 -0.6502  0.5075  0.5102
  232MPD1    C2 3573   3.168   4.204   0.527 -0.5936 -0.0759  0.0006
  232MPD1    C3 3574   3.141   4.208   0.395 -0.6875  0.2259  0.3244
  232MPD1    C4 3575   3.245   4.226   0.305  0.0303  0.4963  0.6584
  232MPD1    C5 3576   3.374   4.241   0.358 -0.0082 -0.0228  0.5465
  232MPD1     H 3577   3.092   4.180   0.600  1.4974  0.8737  2.4909
  232MPD1    H1 3578   3.230   4.208   0.199  1.7467 -0.4497  0.5792
  232MPD1    H2 3579   3.500   4.257   0.520  0.2430  0.7501  2.0788
  232MPD1    H3 3580   3.449   4.268   0.285 -1.7036  1.7183 -0.5680
  232MPD1     N 3581   3.007   4.182   0.358 -0.1121  0.4175  0.1440
  232MPD1    H5 3582   2.935   4.184   0.429  1.3991  1.7489  1.6213
  232MPD1    N1 3583   3.323   4.198   0.716  0.1842  0.3284  0.6661
  232MPD1    H6 3584   3.255   4.137   0.760  0.5758 -0.0566  0.7290
  232MPD1    H7 3585   3.416   4.171   0.746  1.4105  0.2712 -3.1705
  233MPD1     C 3586   0.075   4.358   0.867 -0.5579 -0.2297  0.4966
  233MPD1    C1 3587   0.091   4.435   0.753  0.4298  0.1385 -0.4699
  233MPD1    C2 3588   0.059   4.567   0.755 -0.1775  0.4571 -0.1885
  233MPD1    C3 3589   0.028   4.626   0.880  0.3008 -0.3682  0.1977
  233MPD1    C4 3590   0.030   4.548   0.995 -0.1268  0.0968  0.3676
  233MPD1    C5 3591   0.059   4.412   0.991 -0.0427  0.2308  0.3163
  233MPD1     H 3592   0.071   4.627   0.666  0.3582  2.0313  0.9275
  233MPD1    H1 3593   0.012   4.600   1.088  0.3994 -1.4724  1.3610
  233MPD1    H2 3594   0.084   4.250   0.861 -2.1389 -0.3328 -0.2510
  233MPD1    H3 3595   0.061   4.355   1.082 -0.4639 -0.7688 -0.3046
  233MPD1     N 3596   4.721   0.022   0.897  0.1995 -0.6989  0.3614
  233MPD1    H5 3597   4.709   0.055   0.993  2.8611 -2.3278  1.2392
  233MPD1    N1 3598   0.113   4.366   0.627  0.3732  0.1111 -0.0197
  233MPD1    H6 3599   0.158   4.275   0.630  2.4643  1.1009 -1.1237
  233MPD1    H7 3600   0.154   4.429   0.558  0.0530  0.2907 -0.0452
  234MPD1     C 3601   1.173   2.034   9.153 -1.4033 -0.1422 -0.5895
  234MPD1    C1 3602   1.250   2.141   9.195  0.2574  0.0656  0.3688
  234MPD1    C2 3603   1.202   2.268   9.163 -0.0938 -0.4820  0.0629
  234MPD1    C3 3604   1.083   2.284   9.096  0.1908  0.0069  0.5215
  234MPD1    C4 3605   1.008   2.176   9.063  0.7082  0.7043 -0.5931
  234MPD1    C5 3606   1.056   2.053   9.091 -0.6513 -0.4851 -0.1678
  234MPD1     H 3607   1.248   2.364   9.184 -0.6285 -0.0958 -0.5337
  234MPD1    H1 3608   0.914   2.184   9.010 -0.4617 -0.4534  1.2801
  234MPD1    H2 3609   1.204   1.932   9.172 -2.0494 -0.1655  0.3201
  234MPD1    H3 3610   0.991   1.970   9.067  0.6383 -1.5762  0.1434
  234MPD1     N 3611   1.045   2.420   9.070 -0.2779 -0.6268 -0.3242
  234MPD1    H5 3612   1.109   2.498   9.083 -0.2007 -0.8169  0.4405
  234MPD1    N1 3613   1.366   2.123   9.271  0.1367  0.4146 -0.2926
  234MPD1    H6 3614   1.422   2.205   9.293  0.1259  0.2187  0.4564
  234MPD1    H7 3615   1.415   2.036   9.249 -1.2734 -1.3188  3.4949
  235MPD1     C 3616   2.398   3.966  10.777  0.2606 -0.0278  0.6454
  235MPD1    C1 3617   2.390   4.019  10.653  0.6633  0.7442  0.3475
  235MPD1    C2 3618   2.434   4.144  10.632 -0.5381 -0.4871 -0.2196
  235MPD1    C3 3619   2.496   4.210  10.728 -0.0214  0.7006 -0.8030
  235MPD1    C4 3620   2.506   4.155  10.858 -0.5727  0.3561 -0.9786
  235MPD1    C5 3621   2.450   4.031  10.884  0.1232  0.1594  0.6957
  235MPD1     H 3622   2.422   4.192  10.535 -1.3126 -1.8936 -0.8286
  235MPD1    H1 3623   2.537   4.209  10.946 -2.3832 -1.3456  0.7258
  235MPD1    H2 3624   2.341   3.876  10.798  1.4536 -0.6924  1.0324
  235MPD1    H3 3625   2.438   3.990  10.984  1.6735 -2.0286 -0.0284
  235MPD1     N 3626   2.538   4.347  10.688  0.1016  0.2618 -0.0296
  235MPD1    H5 3627   2.542   4.373  10.590  0.5751 -1.9763 -0.6097
  235MPD1    N1 3628   2.326   3.950  10.546  0.4039  0.5694 -0.1526
  235MPD1    H6 3629   2.331   3.849  10.559 -2.8589  0.1915 -1.8956
  235MPD1    H7 3630   2.366   3.971  10.455 -1.7041 -0.5220 -1.3282
  236MPD1     C 3631   0.962   0.269   9.974 -0.2619 -0.2485 -0.0724
  236MPD1    C1 3632   1.052   0.373   9.970  0.0575  0.7424  0.2879
  236MPD1    C2 3633   1.169   0.351  10.034  0.4636 -0.1912 -0.2788
  236MPD1    C3 3634   1.201   0.238  10.102 -0.3380 -0.0162 -0.6423
  236MPD1    C4 3635   1.114   0.134  10.097  0.0345 -0.1433 -0.5159
  236MPD1    C5 3636   0.994   0.146  10.038  0.8279  0.1637 -0.0654
  236MPD1     H 3637   1.243   0.429  10.030 -1.6565  1.9803  2.5138
  236MPD1    H1 3638   1.138   0.040  10.144 -0.8416 -0.6498 -1.0738
  236MPD1    H2 3639   0.870   0.281   9.917  0.6801  1.7024 -1.2101
  236MPD1    H3 3640   0.915   0.074  10.055  2.0397 -0.4656  2.7909
  236MPD1     N 3641   1.327   0.209  10.159 -0.0174 -0.2872  0.2523
  236MPD1    H5 3642   1.348   0.114  10.188  3.0813  0.4158  0.3402
  236MPD1    N1 3643   1.025   0.486   9.892  0.4978  0.0930  0.5985
  236MPD1    H6 3644   0.927   0.497   9.865  0.8679 -1.0398 -1.1699
  236MPD1    H7 3645   1.046   0.563   9.955  2.3015 -0.6687  0.9371
  237MPD1     C 3646   1.433   3.451  15.459 -0.5879  0.0967 -0.0257
  237MPD1    C1 3647   1.417   3.316  15.474  0.4266  0.6954  0.6825
  237MPD1    C2 3648   1.287   3.270  15.471 -0.6440  0.0533 -0.1608
  237MPD1    C3 3649   1.186   3.354  15.425  0.2621 -0.0732 -0.1981
  237MPD1    C4 3650   1.210   3.489  15.403  0.0089  0.1379 -0.1607
  237MPD1    C5 3651   1.334   3.535  15.433  0.4083  0.5738 -0.0242
  237MPD1     H 3652   1.268   3.165  15.488 -1.0368  0.3600  1.2958
  237MPD1    H1 3653   1.133   3.558  15.371  1.2069  2.1572  1.2876
  237MPD1    H2 3654   1.530   3.499  15.463  0.0014 -1.2267  2.0176
  237MPD1    H3 3655   1.366   3.634  15.401  1.8336  0.7777  2.0416
  237MPD1     N 3656   1.061   3.308  15.393 -0.1037  0.0730  0.5589
  237MPD1    H5 3657   1.008   3.379  15.343  0.5850  0.2958  0.1395
  237MPD1    N1 3658   1.522   3.236  15.526 -0.7240 -0.3780 -0.0124
  237MPD1    H6 3659   1.512   3.139  15.499 -0.9791 -0.5838  0.8284
  237MPD1    H7 3660   1.606   3.278  15.487 -1.9820  1.8868 -0.3327
  238MPD1     C 3661   3.540   1.174  14.891  0.5928 -0.0021  0.0988
  238MPD1    C1 3662   3.567   1.302  14.853 -0.6574  0.9131 -0.1845
  238MPD1    C2 3663   3.459   1.372  14.806 -0.6218  0.6846  0.3915
  238MPD1    C3 3664   3.344   1.311  14.771  0.9285 -0.3055 -0.6413
  238MPD1    C4 3665   3.326   1.175  14.782 -0.0650  0.0225 -0.3102
  238MPD1    C5 3666   3.425   1.105  14.850 -0.0971  0.4832  0.2255
  238MPD1     H 3667   3.467   1.480  14.800 -1.0139  0.4671 -3.7876
  238MPD1    H1 3668   3.230   1.128  14.766  0.6410 -1.4097 -0.3665
  238MPD1    H2 3669   3.608   1.115  14.952  0.3756 -0.5652 -0.1964
  238MPD1    H3 3670   3.405   1.000  14.869  1.2055  0.7680  3.2055
  238MPD1     N 3671   3.223   1.376  14.735  0.2367 -0.0297  0.4713
  238MPD1    H5 3672   3.141   1.323  14.711  0.7090 -0.6941  0.3223
  238MPD1    N1 3673   3.677   1.368  14.908 -0.0465  0.3534  0.0910
  238MPD1    H6 3674   3.704   1.455  14.864 -1.7234  1.0815  0.4907
  238MPD1    H7 3675   3.762   1.318  14.932 -1.2228 -2.0668 -0.7160
  239MPD1     C 3676   3.380   3.685  15.051  0.2799  0.5306 -0.2129
  239MPD1    C1 3677   3.245   3.676  15.013  0.3301  0.2865  0.9030
  239MPD1    C2 3678   3.203   3.572  14.927 -0.0515  0.3461 -0.3264
  239MPD1    C3 3679   3.298   3.498  14.859  0.1730  0.3814  0.1906
  239MPD1    C4 3680   3.431   3.500  14.897 -0.2174  0.1468 -0.4715
  239MPD1    C5 3681   3.470   3.592  14.994 -0.8739  0.1089 -0.0579
  239MPD1     H 3682   3.100   3.567  14.895 -0.0615 -1.3602 -0.0238
  239MPD1    H1 3683   3.499   3.426  14.855 -0.5619 -2.0309  2.8237
  239MPD1    H2 3684   3.408   3.761  15.122 -0.3100 -0.6435  1.2760
  239MPD1    H3 3685   3.574   3.571  15.020 -0.2063  2.1365 -1.1490
  239MPD1     N 3686   3.273   3.421  14.748  0.2787 -0.2078  0.2475
  239MPD1    H5 3687   3.348   3.382  14.691 -0.4952 -1.0662 -0.1947
  239MPD1    N1 3688   3.151   3.752  15.070  0.0245  0.2684  0.0429
  239MPD1    H6 3689   3.185   3.847  15.077  0.2378 -0.0336  2.8474
  239MPD1    H7 3690   3.070   3.775  15.013  0.4224  1.4800 -0.0229
  240MPD1     C 3691   2.642   2.524  13.651  0.2442  0.2474 -0.0162
  240MPD1    C1 3692   2.571   2.574  13.755  0.5981 -0.2510  0.4317
  240MPD1    C2 3693   2.578   2.495  13.875  0.4158 -0.4383 -0.1983
  240MPD1    C3 3694   2.633   2.371  13.870  0.0602 -0.1745 -0.6225
  240MPD1    C4 3695   2.683   2.317  13.760 -0.2488 -0.1567 -0.0598
  240MPD1    C5 3696   2.704   2.402  13.651 -0.2342 -0.7415  1.0142
  240MPD1     H 3697   2.542   2.524  13.973  0.8301  0.4905 -0.3162
  240MPD1    H1 3698   2.701   2.211  13.748  0.4360 -0.1185  0.6046
  240MPD1    H2 3699   2.637   2.575  13.556 -1.2429 -1.0297 -0.6172
  240MPD1    H3 3700   2.738   2.364  13.555 -1.1646  0.1954  0.3126
  240MPD1     N 3701   2.605   2.299  13.987 -0.3650 -0.1782  0.4463
  240MPD1    H5 3702   2.558   2.347  14.064 -1.8558 -0.5663 -0.2224
  240MPD1    N1 3703   2.529   2.709  13.754 -0.3962 -0.5308 -0.7639
  240MPD1    H6 3704   2.502   2.733  13.659  1.5018 -2.4046 -1.7731
  240MPD1    H7 3705   2.455   2.729  13.820 -0.0294  2.1799 -1.2059
  241MPD1     C 3706   3.305   1.888  14.539  0.2353 -0.4645 -0.0024
  241MPD1    C1 3707   3.290   1.921  14.401  0.5580  0.4699  0.3939
  241MPD1    C2 3708   3.166   1.943  14.351  0.6209 -0.4121  0.6927
  241MPD1    C3 3709   3.057   1.931  14.430 -0.0403  0.3563  0.5190
  241MPD1    C4 3710   3.064   1.892  14.559  0.8336 -0.1488 -0.3520
  241MPD1    C5 3711   3.190   1.863  14.607 -0.3532  0.3991  0.0212
  241MPD1     H 3712   3.153   1.980  14.250  3.6531 -2.1282 -0.2989
  241MPD1    H1 3713   2.972   1.883  14.617 -0.4250  1.8649 -2.0428
  241MPD1    H2 3714   3.405   1.879  14.579 -0.1013  1.9565  1.3596
  241MPD1    H3 3715   3.198   1.833  14.711 -0.6850  0.6277  0.1123
  241MPD1     N 3716   2.932   1.960  14.370 -0.2088  0.3669  0.0745
  241MPD1    H5 3717   2.939   1.996  14.276 -0.2696 -0.7799 -0.3617
  241MPD1    N1 3718   3.397   1.958  14.330 -0.0204 -0.1326  0.2598
  241MPD1    H6 3719   3.477   1.904  14.363 -0.5562 -1.2450 -0.2712
  241MPD1    H7 3720   3.378   1.962  14.230  0.7842 -0.5339  0.0917
  242MPD1     C 3721   2.041   1.616  15.435  0.9924  0.1564 -0.0497
  242MPD1    C1 3722   2.150   1.607  15.343  0.2267  0.0896  0.3430
  242MPD1    C2 3723   2.185   1.487  15.289 -0.1735  0.8431 -0.4033
  242MPD1    C3 3724   2.110   1.371  15.313 -0.0704 -0.1235 -0.5420
  242MPD1    C4 3725   2.007   1.379  15.406 -0.2889 -0.1291  0.5597
  242MPD1    C5 3726   1.978   1.502  15.461  0.0816  0.1269 -0.1415
  242MPD1     H 3727   2.268   1.469  15.222  0.5792  0.2943  0.6595
  242MPD1    H1 3728   1.953   1.291  15.440 -0.0451 -0.5725 -0.1931
  242MPD1    H2 3729   2.003   1.711  15.472 -1.6028 -1.7948  2.2552
  242MPD1    H3 3730   1.890   1.506  15.524  0.1122  1.8088 -0.2278
  242MPD1     N 3731   2.158   1.256  15.251 -0.1898 -0.1393  0.5464
  242MPD1    H5 3732   2.251   1.250  15.211 -0.2365  0.5861  0.3410
  242MPD1    N1 3733   2.219   1.725  15.315 -0.2950  0.3438  0.3330
  242MPD1    H6 3734   2.172   1.781  15.244 -0.1974 -0.9236 -0.7290
  242MPD1    H7 3735   2.215   1.783  15.398  0.2850 -1.1118  1.3646
  243MPD1     C 3736   3.813   0.191   0.204  0.1064 -0.0540 -0.2110
  243MPD1    C1 3737   3.935   0.135   0.196 -0.8116 -0.0878 -0.2698
  243MPD1    C2 3738   3.960   0.048   0.087  0.4101  0.0176 -0.7515
  243MPD1    C3 3739   3.869   0.012  17.737 -0.1050  0.0729 -0.1132
  243MPD1    C4 3740   3.744   0.069   0.009  0.8959  0.4082 -0.3966
  243MPD1    C5 3741   3.720   0.160   0.106 -0.1453 -0.0548  0.0096
  243MPD1     H 3742   4.058   0.007   0.066  0.9329  1.3432 -0.9002
  243MPD1    H1 3743   3.665   0.041  17.685  0.9805  1.3255 -0.8716
  243MPD1    H2 3744   3.779   0.252   0.287  0.5317  0.7312 -0.6121
  243MPD1    H3 3745   3.620   0.199   0.117 -0.2023 -0.3594  0.5693
  243MPD1     N 3746   3.911   4.651  17.637 -0.5133  0.5156  0.4737
  243MPD1    H5 3747   4.006   4.614  17.644 -1.7261 -2.5440  0.8258
  243MPD1    N1 3748   4.043   0.169   0.280  0.4083  0.4621  0.4735
  243MPD1    H6 3749   4.112   0.094   0.289 -0.9248 -0.9205 -0.6405
  243MPD1    H7 3750   4.007   0.177   0.375 -0.7836 -0.3330  0.0980
  244MPD1     C 3751   4.247   3.704  17.582 -0.5416 -0.1374  0.0365
  244MPD1    C1 3752   4.187   3.715  17.457 -0.0872 -1.1320  0.0704
  244MPD1    C2 3753   4.124   3.833  17.423  0.1777  0.0052  0.1740
  244MPD1    C3 3754   4.101   3.937  17.516 -0.5650 -0.7875  0.4579
  244MPD1    C4 3755   4.161   3.918  17.642  0.6353  0.4760  0.6891
  244MPD1    C5 3756   4.238   3.807  17.672  0.1079 -0.3649 -0.0966
  244MPD1     H 3757   4.068   3.849  17.332 -1.4331  0.6745  1.2814
  244MPD1    H1 3758   4.138   3.985  17.724  0.2427  1.7455 -0.4570
  244MPD1    H2 3759   4.305   3.616  17.609  1.2611  1.0946  0.2383
  244MPD1    H3 3760   4.276   3.798   0.029  1.4479 -5.0311 -1.0420
  244MPD1     N 3761   4.044   4.062  17.485 -0.5387  0.4670  0.0167
  244MPD1    H5 3762   3.990   4.053  17.399  1.0746  0.2919 -0.9726
  244MPD1    N1 3763   4.210   3.615  17.360  0.7413  0.2570 -0.3645
  244MPD1    H6 3764   4.268   3.539  17.396 -1.7069 -1.0302  0.9188
  244MPD1    H7 3765   4.261   3.651  17.280  1.7821  0.8346  0.5672
  245MPD1     C 3766   0.613   4.518  13.367  0.0840 -0.5655  0.4773
  245MPD1    C1 3767   0.730   4.494  13.429 -0.5810 -0.2027 -0.4431
  245MPD1    C2 3768   0.831   4.585  13.416  0.0133 -0.2318 -0.0894
  245MPD1    C3 3769   0.813   4.709  13.349  0.6002 -0.1854  0.3308
  245MPD1    C4 3770   0.686   0.002  13.306 -0.5432 -0.0339 -0.2974
  245MPD1    C5 3771   0.589   4.637  13.307  0.1543 -0.2760  0.5248
  245MPD1     H 3772   0.924   4.568  13.469 -0.2731 -1.0541  0.1465
  245MPD1    H1 3773   0.667   0.094  13.251 -1.1537 -0.4813 -0.8417
  245MPD1    H2 3774   0.536   4.442  13.364 -0.8390  0.2978  2.1697
  245MPD1    H3 3775   0.497   4.660  13.255  0.3850  0.7745  0.5727
  245MPD1     N 3776   0.925   0.053  13.335 -0.3586  0.5966  0.4529
  245MPD1    H5 3777   1.015   0.007  13.335 -0.6397  0.0364  1.3439
  245MPD1    N1 3778   0.754   4.368  13.488  0.2046  0.1497 -0.1414
  245MPD1    H6 3779   0.685   4.321  13.545 -1.0883  0.0195 -1.8254
  245MPD1    H7 3780   0.842   4.361  13.539  1.1740 -1.8686 -2.0586
  246MPD1     C 3781   0.329   4.452   9.909 -0.5403  0.6445  0.1821
  246MPD1    C1 3782   0.324   4.465   9.777 -0.2267  0.4216  0.1964
  246MPD1    C2 3783   0.425   4.536   9.711  0.1745  0.6271 -0.1495
  246MPD1    C3 3784   0.536   4.580   9.780  0.2175  1.3676 -0.3074
  246MPD1    C4 3785   0.551   4.540   9.909  0.6289 -0.1841 -0.4556
  246MPD1    C5 3786   0.442   4.486   9.979 -0.7202  0.0711 -0.2481
  246MPD1     H 3787   0.407   4.573   9.611 -1.7843  2.5230  0.8889
  246MPD1    H1 3788   0.644   4.555   9.963 -0.0263  1.8817  0.0684
  246MPD1    H2 3789   0.246   4.401   9.957 -0.3250 -0.0507 -0.1872
  246MPD1    H3 3790   0.449   4.458  10.083  2.0836 -1.8183 -0.9295
  246MPD1     N 3791   0.641   4.651   9.713  0.4282  0.0275 -0.5032
  246MPD1    H5 3792   0.618   4.675   9.617 -0.6947 -0.1794 -0.2876
  246MPD1    N1 3793   0.197   4.446   9.719 -0.1776 -0.0988  0.5935
  246MPD1    H6 3794   0.139   4.368   9.749  0.0118 -0.1375  0.8604
  246MPD1    H7 3795   0.186   4.456   9.618 -1.3235  0.4149  0.7699
  247MPD1     C 3796   0.511   3.981  16.270  0.2088 -0.7181 -0.8089
  247MPD1    C1 3797   0.627   3.934  16.333 -0.1001  0.0759 -0.4608
  247MPD1    C2 3798   0.750   3.954  16.267 -0.3264  0.5861  0.4323
  247MPD1    C3 3799   0.746   4.008  16.135 -0.4194 -0.8564 -0.6988
  247MPD1    C4 3800   0.625   4.041  16.073  1.0578 -0.5164 -0.3468
  247MPD1    C5 3801   0.507   4.030  16.142  0.6595 -0.3232 -0.3693
  247MPD1     H 3802   0.843   3.923  16.313 -0.3431  0.7256  0.5619
  247MPD1    H1 3803   0.627   4.087  15.974 -0.2492 -1.8875 -0.9987
  247MPD1    H2 3804   0.416   3.986  16.323 -0.5690 -1.9209 -2.0910
  247MPD1    H3 3805   0.425   4.080  16.092  1.6035  2.6386  1.0726
  247MPD1     N 3806   0.859   4.032  16.054 -0.5456  0.1479  0.2037
  247MPD1    H5 3807   0.860   4.081  15.965  1.1713  0.4542  0.3824
  247MPD1    N1 3808   0.616   3.878  16.459 -0.1050  0.6134 -0.3379
  247MPD1    H6 3809   0.678   3.799  16.472  1.4945  2.4430  3.1287
  247MPD1    H7 3810   0.519   3.867  16.486 -0.3342  1.1290 -0.9401
  248MPD1     C 3811   1.438   3.715  17.721  0.6885 -0.0557 -0.4444
  248MPD1    C1 3812   1.550   3.776   0.020 -0.7277 -0.1225  0.3911
  248MPD1    C2 3813   1.544   3.905   0.067 -0.2190  0.5224  0.1293
  248MPD1    C3 3814   1.435   3.986   0.041  0.1251 -0.8127  0.0162
  248MPD1    C4 3815   1.331   3.929  17.713  0.2062  0.6600  0.2673
  248MPD1    C5 3816   1.328   3.791  17.689  0.3934 -0.1375  0.1212
  248MPD1     H 3817   1.626   3.951   0.120 -0.2454  1.8305 -0.9650
  248MPD1    H1 3818   1.243   3.990  17.696  0.1423  1.0675  2.0330
  248MPD1    H2 3819   1.436   3.607  17.711  3.1988 -0.2944  1.7427
  248MPD1    H3 3820   1.240   3.742  17.648  0.1707  1.2795 -1.1217
  248MPD1     N 3821   1.447   4.123   0.085 -0.1844  0.5164  0.3570
  248MPD1    H5 3822   1.537   4.148   0.125 -1.4666  1.0064  2.9158
  248MPD1    N1 3823   1.666   3.698   0.055 -0.2286 -0.4403 -0.7544
  248MPD1    H6 3824   1.672   3.611   0.003 -0.8007  0.4273 -2.2890
  248MPD1    H7 3825   1.741   3.764   0.036  0.4043 -1.4029 -1.6118
  249MPD1     C 3826   2.930   3.158  11.173 -0.5150  0.9402 -0.3010
  249MPD1    C1 3827   3.029   3.197  11.084 -0.1241  0.2665  0.2805
  249MPD1    C2 3828   2.991   3.173  10.950 -0.3810 -0.5185 -0.3350
  249MPD1    C3 3829   2.872   3.125  10.909  0.5978  0.1955 -0.2893
  249MPD1    C4 3830   2.782   3.081  11.003  0.4573 -0.5778 -0.6133
  249MPD1    C5 3831   2.811   3.094  11.135 -0.1428 -0.5123  0.2195
  249MPD1     H 3832   3.058   3.193  10.867  1.6420 -2.3032  0.8487
  249MPD1    H1 3833   2.683   3.045  10.977  0.6371 -0.7612 -1.0551
  249MPD1    H2 3834   2.950   3.160  11.279  5.2751 -0.8921 -1.3781
  249MPD1    H3 3835   2.743   3.055  11.210  0.6524  2.2780  2.3817
  249MPD1     N 3836   2.850   3.125  10.765 -0.2512  0.3839 -0.9133
  249MPD1    H5 3837   2.926   3.147  10.700  0.6040 -0.3592 -0.1640
  249MPD1    N1 3838   3.152   3.244  11.128  0.6752 -0.3211  0.0441
  249MPD1    H6 3839   3.207   3.295  11.059  0.1873  0.1145 -0.0200
  249MPD1    H7 3840   3.152   3.280  11.223 -1.3722 -3.7112  1.3240
  250MPD2     C 3841   4.646   3.336  13.017  0.2522  0.7096 -0.8513
  250MPD2    C1 3842   4.545   3.418  12.966 -0.2193 -0.1747 -0.2341
  250MPD2    C2 3843   4.429   3.350  12.941  0.2078  0.3412 -0.4642
  250MPD2    C3 3844   4.404   3.216  12.969 -0.1294  1.2866 -0.5726
  250MPD2    C4 3845   4.504   3.145  13.033 -0.5650 -0.7563 -0.6776
  250MPD2    C5 3846   4.621   3.204  13.052  0.3101 -1.0255 -0.1045
  250MPD2     H 3847   4.353   3.399  12.881 -0.1390 -0.9989 -1.1088
  250MPD2    H1 3848   4.487   3.043  13.066  0.7622 -0.7995 -0.0992
  250MPD2    H2 3849   0.007   3.379  13.041  0.9176  0.8006 -3.6105
  250MPD2    H3 3850   4.697   3.149  13.107  0.0365 -3.0600 -1.7613
  250MPD2     N 3851   4.287   3.152  12.935 -0.5790 -0.0975  0.2052
  250MPD2    H5 3852   4.288   3.052  12.948 -0.2371 -0.1756 -0.4039
  250MPD2    N1 3853   4.576   3.553  12.946 -0.8192  0.2315 -0.3791
  250MPD2    H7 3854   4.674   3.573  12.960 -0.7607 -0.4148  0.1320
  251TMC3    C1 3855   4.524   3.785  12.908 -0.5658 -0.2323 -0.0123
  251TMC3    C2 3856   4.425   3.867  12.951  0.0572  0.2805  0.3660
  251TMC3    C3 3857   4.465   3.995  12.996 -0.2908  0.2888  0.4178
  251TMC3    C4 3858   4.652   3.819  12.932 -0.1184  0.2786 -0.3541
  251TMC3    C5 3859   4.685   3.936  12.987 -0.9063  0.4113  0.4271
  251TMC3    C6 3860   4.593   4.036  13.019  0.8001 -0.5841  0.1893
  251TMC3     C 3861   4.483   3.646  12.901  0.6757 -0.0007 -0.2678
  251TMC3     O 3862   4.364   3.634  12.898 -0.2468 -0.0306  0.3290
  251TMC3     H 3863   4.320   3.842  12.945  0.0023  0.1198  2.0138
  251TMC3    H1 3864   4.735   3.771  12.882  2.5098  1.9414  2.4227
  251TMC3    H2 3865   4.613   4.126  13.077  0.6951 -1.0760  0.9877
  251TMC3    C7 3866   0.089   3.968  12.996 -0.0289 -0.0467 -0.3136
  251TMC3    C8 3867   4.357   4.097  12.995  0.4475 -0.1952 -0.3847
  251TMC3    O1 3868   0.167   3.883  13.044  0.0564 -0.1289  0.2130
  251TMC3    O2 3869   4.248   4.046  12.978  0.3442  0.4200  0.3632
  252TMC3    C1 3870   4.698   0.530   9.138  0.5512 -0.2166 -0.3100
  252TMC3    C2 3871   0.078   0.514   9.207 -0.0187  0.5427 -0.3061
  252TMC3    C3 3872   0.101   0.410   9.290 -0.4659  0.5225 -0.8184
  252TMC3    C4 3873   4.596   0.446   9.156  0.1704  0.1920 -0.4202
  252TMC3    C5 3874   4.621   0.338   9.239  0.3142  0.6479  0.9765
  252TMC3    C6 3875   0.006   0.315   9.307 -0.2236  0.1961 -0.3833
  252TMC3     C 3876   4.696   0.600   9.011 -0.6458 -0.7451 -0.0775
  252TMC3     O 3877   4.608   0.577   8.935 -0.3640 -0.8067  0.0027
  252TMC3     H 3878   0.165   0.573   9.181  0.3382 -0.8722 -2.3093
  252TMC3    H1 3879   4.503   0.455   9.100 -1.5151 -1.8710  2.0474
  252TMC3    H2 3880   0.030   0.222   9.357  0.1740  0.6682  0.2869
  252TMC3    C7 3881   4.512   0.239   9.245  0.2309 -0.9994  0.6162
  252TMC3    C8 3882   0.224   0.419   9.363  0.8592 -1.0472  0.6560
  252TMC3    O1 3883   4.420   0.244   9.159 -0.4371  0.3056 -0.0628
  252TMC3    O2 3884   0.286   0.524   9.358  0.3581  0.4916  0.4911
  253MPD2     C 3885   0.565   3.977  15.226  0.1892  0.2272 -0.5345
  253MPD2    C1 3886   0.431   3.995  15.271  0.8297 -0.2199  0.4251
  253MPD2    C2 3887   0.364   3.895  15.339 -0.1141 -0.1158 -0.4978
  253MPD2    C3 3888   0.429   3.772  15.354  0.1842 -0.1343  0.1984
  253MPD2    C4 3889   0.558   3.746  15.303  0.8252  0.5666  0.0474
  253MPD2    C5 3890   0.619   3.854  15.250  0.4262 -0.2598 -0.5412
  253MPD2     H 3891   0.261   3.912  15.368 -0.7210  0.1803 -2.7761
  253MPD2    H1 3892   0.618   3.655  15.308 -0.3451 -0.3362 -2.0242
  253MPD2    H2 3893   0.625   4.062  15.195  0.2453  0.6222  0.6333
  253MPD2    H3 3894   0.722   3.849  15.216  1.2055 -3.2726  2.2828
  253MPD2     N 3895   0.360   3.663  15.421 -0.7509 -0.5841  0.2121
  253MPD2    H5 3896   0.420   3.583  15.441  1.5984  0.9761 -0.6780
  253MPD2    N1 3897   0.358   4.118  15.268  0.4365 -0.2477 -0.1170
  253MPD2    H7 3898   0.268   4.106  15.312  1.0822  1.5278  1.7210
  254TMC3    C1 3899   0.209   3.547  15.548 -0.6474  0.2881 -0.3166
  254TMC3    C2 3900   0.076   3.503  15.555 -0.6820  0.1594  0.1058
  254TMC3    C3 3901   0.045   3.423  15.663 -0.3913 -0.2381 -0.1208
  254TMC3    C4 3902   0.310   3.511  15.636 -0.8122  0.6354 -0.4199
  254TMC3    C5 3903   0.271   3.436  15.743 -0.1871 -0.6543 -0.3438
  254TMC3    C6 3904   0.142   3.390  15.758  0.2422 -0.8277 -1.3000
  254TMC3     C 3905   0.230   3.668  15.468 -0.7773 -0.4729 -0.4378
  254TMC3     O 3906   0.139   3.742  15.441  0.1124 -0.3092 -0.0568
  254TMC3     H 3907   0.010   3.554  15.486 -0.7750  0.5923  0.5165
  254TMC3    H1 3908   0.403   3.566  15.638 -0.4527 -0.0244  0.8995
  254TMC3    H2 3909   0.129   3.331  15.847  1.2537  1.2244  0.2092
  254TMC3    C7 3910   0.365   3.416  15.851  0.0788  0.6608  0.3485
  254TMC3    C8 3911   4.652   3.413  15.719  0.0062  0.4412  0.9421
  254TMC3    O1 3912   0.317   3.410  15.964  0.4245 -0.1146  0.7501
  254TMC3    O2 3913   4.646   3.371  15.834 -0.5977  0.1048 -0.0464
  255MPD2     C 3914   4.078   1.570  10.694  0.5370  0.4752 -0.7646
  255MPD2    C1 3915   4.047   1.586  10.563 -0.1243 -0.0747  0.2462
  255MPD2    C2 3916   4.104   1.498  10.473  0.2262  0.0856 -0.6500
  255MPD2    C3 3917   4.207   1.411  10.514  0.5236  0.0550  0.1338
  255MPD2    C4 3918   4.248   1.404  10.646 -0.3402  0.3817  0.7790
  255MPD2    C5 3919   4.172   1.480  10.736 -0.0244  0.2193 -0.4807
  255MPD2     H 3920   4.059   1.494  10.374 -0.7356  0.8941 -0.2390
  255MPD2    H1 3921   4.325   1.334  10.675  0.0230  0.0273 -1.0089
  255MPD2    H2 3922   4.037   1.632  10.774  0.0833  0.1370 -0.7335
  255MPD2    H3 3923   4.192   1.480  10.843 -0.9994 -2.1920 -0.3085
  255MPD2     N 3924   4.270   1.330  10.421  0.4926  0.5387  0.1156
  255MPD2    H5 3925   4.232   1.330  10.327 -1.0384 -0.8182  0.7319
  255MPD2    N1 3926   3.944   1.681  10.538  0.3696 -0.3304 -0.3412
  255MPD2    H7 3927   3.885   1.719  10.611  1.5630  0.5141  0.1799
  256TMC3    C1 3928   3.800   1.808  10.392  0.7621  0.1045 -0.0834
  256TMC3    C2 3929   3.795   1.919  10.473 -0.3511 -0.1301  0.0878
  256TMC3    C3 3930   3.725   2.030  10.431  0.4341  0.1370  0.3448
  256TMC3    C4 3931   3.740   1.799  10.271  0.4198 -0.5710 -0.0213
  256TMC3    C5 3932   3.677   1.911  10.236 -0.5124 -0.1761 -0.2264
  256TMC3    C6 3933   3.668   2.028  10.310  0.5022  0.3951 -0.1016
  256TMC3     C 3934   3.913   1.721  10.407  0.1788  0.1741 -0.8682
  256TMC3     O 3935   3.947   1.676  10.299 -0.4243 -0.3409 -0.3550
  256TMC3     H 3936   3.857   1.933  10.560  0.5053 -0.6949 -0.4405
  256TMC3    H1 3937   3.742   1.703  10.221  2.4977 -1.6737  2.1688
  256TMC3    H2 3938   3.618   2.116  10.271 -2.5765  0.2254  3.4617
  256TMC3    C7 3939   3.622   1.900  10.104  0.1758  0.1420 -0.3398
  256TMC3    C8 3940   3.738   2.145  10.512 -0.4371 -0.9558 -0.0531
  256TMC3    O1 3941   3.602   1.787  10.062 -0.1988  0.6916 -0.0240
  256TMC3    O2 3942   3.786   2.131  10.623 -0.5294  0.4879 -0.2488
  257MPD2     C 3943   3.341   3.507  13.081 -0.8033 -0.3275 -0.2970
  257MPD2    C1 3944   3.215   3.474  13.043  0.1735 -0.1983  0.4148
  257MPD2    C2 3945   3.147   3.374  13.109  0.0588 -0.2699  0.5762
  257MPD2    C3 3946   3.213   3.303  13.212 -0.0699 -1.0230 -0.7739
  257MPD2    C4 3947   3.338   3.343  13.250 -0.0288 -0.3859 -0.5074
  257MPD2    C5 3948   3.401   3.445  13.182  0.1092  0.2981 -0.1371
  257MPD2     H 3949   3.052   3.328  13.082 -0.9448  2.3671 -0.4106
  257MPD2    H1 3950   3.398   3.289  13.322  1.0157  1.0284 -0.3325
  257MPD2    H2 3951   3.399   3.586  13.035 -0.0653 -0.1666  0.9230
  257MPD2    H3 3952   3.503   3.471  13.206 -0.6004 -0.2780  3.5383
  257MPD2     N 3953   3.138   3.205  13.272 -0.2412 -0.2027  0.5342
  257MPD2    H5 3954   3.052   3.180  13.224  0.3021  0.2232 -0.6682
  257MPD2    N1 3955   3.152   3.552  12.945  0.9463  0.0374 -0.6352
  257MPD2    H7 3956   3.204   3.632  12.910  0.1554 -0.2496 -2.4901
  258TMC3    C1 3957   3.096   3.013  13.407 -0.1904  0.2572  0.1496
  258TMC3    C2 3958   2.995   2.965  13.329 -0.5316 -0.4230 -0.0307
  258TMC3    C3 3959   2.908   2.864  13.372  0.7210 -0.6688 -0.1144
  258TMC3    C4 3960   3.111   2.959  13.536 -0.8584  0.4739 -0.4432
  258TMC3    C5 3961   3.027   2.861  13.574 -0.0145 -0.2445 -0.9817
  258TMC3    C6 3962   2.927   2.810  13.493  0.6786 -0.1601 -0.4983
  258TMC3     C 3963   3.179   3.126  13.376  0.5748 -0.0253  0.4067
  258TMC3     O 3964   3.281   3.141  13.443 -0.7189 -0.3404 -0.2503
  258TMC3     H 3965   2.976   3.009  13.231 -1.1192  1.9344  1.1443
  258TMC3    H1 3966   3.188   3.006  13.595  0.4358  0.3346 -2.0349
  258TMC3    H2 3967   2.856   2.733  13.522 -1.4357  1.8098 -0.4048
  258TMC3    C7 3968   3.019   2.817  13.712 -0.0929 -0.1267  1.3165
  258TMC3    C8 3969   2.799   2.813  13.284  0.1876  0.1233 -0.4349
  258TMC3    O1 3970   2.913   2.766  13.741 -0.0215  0.3729 -0.4531
  258TMC3    O2 3971   2.705   2.750  13.334 -0.5048 -0.0091  0.0150
  259MPD2     C 3972   2.713   0.372   1.056 -0.2155  0.3365 -0.0581
  259MPD2    C1 3973   2.649   0.257   1.080 -0.4786 -0.1934 -0.4619
  259MPD2    C2 3974   2.629   0.164   0.978 -0.4563  0.6092  0.6081
  259MPD2    C3 3975   2.677   0.194   0.847 -0.2656 -0.1807  0.3210
  259MPD2    C4 3976   2.759   0.299   0.828  0.4287  0.1629  0.4516
  259MPD2    C5 3977   2.768   0.395   0.926 -0.4497  0.0776 -0.5100
  259MPD2     H 3978   2.575   0.071   0.991 -0.4215  0.4466 -0.3647
  259MPD2    H1 3979   2.801   0.330   0.733  0.7390 -0.3873  0.4100
  259MPD2    H2 3980   2.728   0.449   1.131  0.4521 -1.1492  1.3376
  259MPD2    H3 3981   2.831   0.482   0.914 -1.2136  0.4780 -1.6446
  259MPD2     N 3982   2.649   0.104   0.736  0.2423 -0.8150 -0.8527
  259MPD2    H5 3983   2.598   0.017   0.747 -0.5582 -0.2845 -0.3506
  259MPD2    N1 3984   2.601   0.246   1.213  0.7218  0.1043 -0.5284
  259MPD2    H7 3985   2.617   0.329   1.268  1.4449  0.0398 -0.6329
  260TMC3    C1 3986   2.650   0.019   0.512 -0.7313 -0.0942 -0.2516
  260TMC3    C2 3987   2.719   0.033   0.395 -0.0194  0.3816  0.3668
  260TMC3    C3 3988   2.761   4.654   0.333  0.0961 -0.4814  0.2646
  260TMC3    C4 3989   2.622   4.640   0.574  0.2752  0.2881  0.1182
  260TMC3    C5 3990   2.648   4.524   0.502  0.0299 -0.1517  0.0395
  260TMC3    C6 3991   2.727   4.530   0.387 -0.3940  0.3837 -0.2271
  260TMC3     C 3992   2.686   0.124   0.602 -0.0533  0.8106  0.0592
  260TMC3     O 3993   2.750   0.217   0.555 -0.0556  0.3210  0.2267
  260TMC3     H 3994   2.733   0.131   0.351 -0.5704 -0.3801 -1.5403
  260TMC3    H1 3995   2.571   4.631   0.669  0.2882 -1.2944 -0.0187
  260TMC3    H2 3996   2.763   4.439   0.342 -1.3393 -1.2294  2.2784
  260TMC3    C7 3997   2.537   4.431   0.472  0.2805  0.3837 -0.5410
  260TMC3    C8 3998   2.767   4.658   0.189 -0.9138 -0.0331  0.2410
  260TMC3    O1 3999   2.551   4.370   0.367 -0.5843 -0.0628  0.4648
  260TMC3    O2 4000   2.847   0.001   0.136 -0.2047 -0.4855  0.1144
  261MPD2     C 4001   3.460   3.312  12.776 -0.1598 -0.0466  0.2011
  261MPD2    C1 4002   3.515   3.193  12.733  0.0745  0.4381 -0.1619
  261MPD2    C2 4003   3.480   3.151  12.605 -0.3741 -0.6080 -0.2285
  261MPD2    C3 4004   3.396   3.221  12.523  0.0526 -0.3343  0.1396
  261MPD2    C4 4005   3.335   3.331  12.572 -0.1114 -0.1312 -0.0152
  261MPD2    C5 4006   3.374   3.377  12.698  0.4422 -0.3605  0.8787
  261MPD2     H 4007   3.532   3.063  12.569  1.3594 -0.8517  2.8295
  261MPD2    H1 4008   3.261   3.393  12.523 -0.0701 -0.4080 -0.4334
  261MPD2    H2 4009   3.488   3.355  12.871  2.3634  0.6159 -0.8535
  261MPD2    H3 4010   3.333   3.466  12.745 -2.6967 -2.5221  2.1858
  261MPD2     N 4011   3.375   3.169  12.393 -0.2452 -0.0342  0.2753
  261MPD2    H5 4012   3.403   3.077  12.361 -0.2593  0.2300 -0.4947
  261MPD2    N1 4013   3.625   3.136  12.796 -0.1646  0.2878  0.4167
  261MPD2    H7 4014   3.662   3.055  12.746 -1.6544 -1.1600  1.6941
  262TMC3    C1 4015   3.370   3.194  12.155  0.3793 -0.0877  0.4339
  262TMC3    C2 4016   3.316   3.281  12.053  0.1301 -0.0984  1.2140
  262TMC3    C3 4017   3.385   3.285  11.941  0.2149  0.3285  0.6333
  262TMC3    C4 4018   3.493   3.143  12.147 -0.3168  0.4950 -0.5970
  262TMC3    C5 4019   3.568   3.176  12.038  0.9503  0.3833  0.8676
  262TMC3    C6 4020   3.511   3.232  11.925  0.2111 -0.4875 -0.5343
  262TMC3     C 4021   3.325   3.240  12.290 -0.2028 -0.3876 -0.2446
  262TMC3     O 4022   3.255   3.340  12.297  0.1790  0.4125 -0.2299
  262TMC3     H 4023   3.226   3.339  12.071  1.2017  1.5835  1.0617
  262TMC3    H1 4024   3.538   3.098  12.234 -2.6593 -0.5175  0.0887
  262TMC3    H2 4025   3.568   3.242  11.833  0.7090  0.0491 -0.1661
  262TMC3    C7 4026   3.711   3.154  12.057 -0.1638  0.2520 -0.2823
  262TMC3    C8 4027   3.384   3.414  11.876  0.3408 -0.8215 -0.1575
  262TMC3    O1 4028   3.745   3.086  12.153  0.0973  0.2820  0.2304
  262TMC3    O2 4029   3.497   3.462  11.881  0.2487  0.4375  0.4338
  263MPD2     C 4030   4.575   2.608  11.815  0.3571 -0.6381  0.4070
  263MPD2    C1 4031   4.658   2.519  11.753  0.0041  0.1664 -0.4186
  263MPD2    C2 4032   4.678   2.538  11.618 -0.1402  1.0654  0.2689
  263MPD2    C3 4033   4.621   2.636  11.542 -0.6626 -0.4020  0.5725
  263MPD2    C4 4034   4.539   2.722  11.612  0.9912  0.6144  0.4097
  263MPD2    C5 4035   4.512   2.709  11.741  0.5991  0.0772 -0.2139
  263MPD2     H 4036   4.733   2.466  11.558  0.0928  0.6570  0.9850
  263MPD2    H1 4037   4.478   2.801  11.569 -0.3989 -0.3926  0.5112
  263MPD2    H2 4038   4.545   2.607  11.919  0.9690 -0.9809  0.5740
  263MPD2    H3 4039   4.461   2.785  11.800 -0.4440 -2.5373  2.2445
  263MPD2     N 4040   4.661   2.665  11.409  0.4792 -0.3375 -0.1785
  263MPD2    H5 4041   4.722   2.601  11.359  1.8563  1.6969 -1.0845
  263MPD2    N1 4042   0.006   2.429  11.830 -0.3885  0.7055  0.3622
  263MPD2    H7 4043   4.710   2.418  11.926  1.1170  1.3079  0.9375
  264TMC3    C1 4044   4.704   2.797  11.223 -0.4946 -0.0933 -0.3100
  264TMC3    C2 4045   4.655   2.880  11.124 -0.4880  0.0012 -0.0120
  264TMC3    C3 4046   4.723   2.901  11.008 -0.1076  0.2509  0.3344
  264TMC3    C4 4047   0.082   2.728  11.209  0.6044  0.4682  0.5342
  264TMC3    C5 4048   0.148   2.743  11.093  0.0658  0.2068  0.8786
  264TMC3    C6 4049   0.090   2.816  10.988  0.0041 -0.2511 -0.3321
  264TMC3     C 4050   4.625   2.779  11.344  0.0999 -0.1818  0.3213
  264TMC3     O 4051   4.546   2.873  11.363 -0.2295  0.5703  0.5538
  264TMC3     H 4052   4.556   2.919  11.143 -1.1660 -0.7889 -1.8779
  264TMC3    H1 4053   0.131   2.691  11.298 -2.2626  1.6492  2.5985
  264TMC3    H2 4054   0.119   2.827  10.885  3.4495  0.6184  0.7250
  264TMC3    C7 4055   0.290   2.771  11.113 -0.2101  0.3538 -0.8324
  264TMC3    C8 4056   0.053   3.029  11.012 -0.7399  0.8711 -0.0877
  264TMC3    O1 4057   0.344   2.743  11.222  0.5928 -0.1075  0.2713
  264TMC3    O2 4058   0.130   3.048  10.914  0.3029  0.5051 -0.2116
  265MPD2     C 4059   1.960   2.787  15.604 -0.3358  0.1434 -0.5353
  265MPD2    C1 4060   2.007   2.900  15.535  0.2414 -0.3116  0.4240
  265MPD2    C2 4061   2.052   2.883  15.407 -0.1543 -0.1971  0.8292
  265MPD2    C3 4062   2.034   2.765  15.339  0.2316  0.1344 -0.3048
  265MPD2    C4 4063   1.969   2.658  15.399  0.3352 -0.0994  0.3255
  265MPD2    C5 4064   1.931   2.677  15.528  0.4540 -0.3823  0.5305
  265MPD2     H 4065   2.101   2.969  15.362  0.4859 -0.3182  1.2859
  265MPD2    H1 4066   1.954   2.561  15.353  0.7487 -0.3555  0.7267
  265MPD2    H2 4067   1.926   2.794  15.706  0.2347 -0.0740 -0.3310
  265MPD2    H3 4068   1.884   2.598  15.586 -1.7662 -0.5023 -1.4501
  265MPD2     N 4069   2.085   2.737  15.210  0.2079  0.2776  0.2157
  265MPD2    H5 4070   2.052   2.649  15.172 -0.0016  0.5707 -0.2813
  265MPD2    N1 4071   2.024   3.024  15.604  1.1103 -0.3749 -0.3715
  265MPD2    H7 4072   2.063   3.100  15.548  2.6035  0.3439  1.6273
  266TMC3    C1 4073   1.952   3.193  15.770 -0.3606 -0.0218 -0.1186
  266TMC3    C2 4074   1.951   3.235  15.904  0.2593 -0.1412  0.4061
  266TMC3    C3 4075   1.917   3.366  15.916 -0.2587  0.5385 -0.1018
  266TMC3    C4 4076   1.906   3.264  15.662 -0.7249 -0.1017 -0.1916
  266TMC3    C5 4077   1.852   3.386  15.690  0.3631  0.1818  0.5024
  266TMC3    C6 4078   1.863   3.444  15.814  0.0168 -0.8594 -0.2858
  266TMC3     C 4079   1.992   3.055  15.739 -0.2850  0.2504 -0.8341
  266TMC3     O 4080   1.992   2.975  15.828  0.3600 -0.1057 -0.4543
  266TMC3     H 4081   1.983   3.174  15.988 -1.4854 -0.7987  0.5883
  266TMC3    H1 4082   1.907   3.221  15.563  1.9692  1.9471 -1.0382
  266TMC3    H2 4083   1.832   3.545  15.837 -0.2366 -1.1080  0.4950
  266TMC3    C7 4084   1.836   3.469  15.573  0.2964  0.0142 -1.1591
  266TMC3    C8 4085   1.903   3.417  16.052 -0.0155 -0.2405 -0.1972
  266TMC3    O1 4086   1.875   3.421  15.468 -0.2015 -0.1272  0.2380
  266TMC3    O2 4087   1.878   3.341  16.141  0.3347 -0.1157  0.1896
  267MPD2     C 4088   3.851   0.532   0.157 -0.8833  0.6913 -0.3923
  267MPD2    C1 4089   3.914   0.490   0.036 -0.2694  0.8096  0.3618
  267MPD2    C2 4090   3.866   0.539  17.660 -0.5367 -0.0341 -0.0312
  267MPD2    C3 4091   3.756   0.622  17.649 -0.5970 -0.5192 -0.1783
  267MPD2    C4 4092   3.692   0.650   0.022 -0.1834  0.0954 -0.0484
  267MPD2    C5 4093   3.740   0.613   0.148  0.8401  0.4330  0.1149
  267MPD2     H 4094   3.908   0.512  17.563  2.3251 -0.9447  1.4765
  267MPD2    H1 4095   3.601   0.708   0.013  0.3687  0.4586 -3.3693
  267MPD2    H2 4096   3.882   0.493   0.253 -2.7363  0.6967  0.2197
  267MPD2    H3 4097   3.699   0.658   0.238 -0.9387 -0.9078 -0.0348
  267MPD2     N 4098   3.712   0.647  17.518  0.1591 -0.3181  0.1050
  267MPD2    H5 4099   3.761   0.601  17.443 -1.7557  0.4667 -1.6335
  267MPD2    N1 4100   4.035   0.416   0.054  0.0262  0.1185  0.2362
  267MPD2    H7 4101   4.064   0.386   0.147 -2.3993  2.7594  1.8161
  268TMC3    C1 4102   4.245   0.321  17.740  0.2901 -0.2189  0.0032
  268TMC3    C2 4103   4.332   0.295  17.635 -0.3209  0.5217 -1.0403
  268TMC3    C3 4104   4.463   0.281  17.663  0.2319  0.3698  0.5509
  268TMC3    C4 4105   4.285   0.331   0.127 -0.0595  0.2452  0.0335
  268TMC3    C5 4106   4.416   0.298   0.149 -0.1721  0.2648 -0.1390
  268TMC3    C6 4107   4.508   0.280   0.048 -0.3029 -0.1405  0.5519
  268TMC3     C 4108   4.114   0.366  17.697  0.4135 -0.2895 -0.3388
  268TMC3     O 4109   4.086   0.354  17.576  0.1870 -0.4472 -0.1696
  268TMC3     H 4110   4.291   0.286  17.535 -1.9440  1.4379 -0.4658
  268TMC3    H1 4111   4.225   0.341   0.217 -0.6006  1.0725 -0.4225
  268TMC3    H2 4112   4.610   0.276   0.083 -0.8471  1.1788  2.3305
  268TMC3    C7 4113   4.473   0.331   0.276 -0.3205 -0.2622  0.8065
  268TMC3    C8 4114   4.559   0.252  17.560  0.0761 -0.0036  0.4244
  268TMC3    O1 4115   4.452   0.250   0.367  0.7335 -0.3830 -0.1023
  268TMC3    O2 4116   4.665   0.205  17.599  0.3256 -0.0273  0.4809
  269MPD2     C 4117   3.866   3.615  15.738 -0.1213  0.1137  0.2762
  269MPD2    C1 4118   3.908   3.649  15.608  0.5225  0.1196  0.1711
  269MPD2    C2 4119   3.930   3.781  15.582  0.0284 -0.3841  0.5151
  269MPD2    C3 4120   3.920   3.881  15.676  0.4665 -0.2486  0.3087
  269MPD2    C4 4121   3.909   3.837  15.810  0.5039  0.5435 -0.4108
  269MPD2    C5 4122   3.874   3.707  15.837  0.4166 -0.4174 -0.1067
  269MPD2     H 4123   3.956   3.813  15.482  0.9191 -0.6188  0.6740
  269MPD2    H1 4124   3.893   3.911  15.887  1.4112  2.2724 -1.8602
  269MPD2    H2 4125   3.835   3.514  15.763  3.5263 -1.1353 -0.2395
  269MPD2    H3 4126   3.839   3.691  15.938 -1.6966  1.7552 -0.4763
  269MPD2     N 4127   3.948   4.010  15.630 -0.0496  0.2244 -0.0437
  269MPD2    H5 4128   3.948   4.020  15.529  3.2057 -0.2002 -0.0577
  269MPD2    N1 4129   3.909   3.552  15.503  0.1560  0.0618  0.1482
  269MPD2    H7 4130   3.860   3.466  15.526  0.0903  0.0518 -0.0346
  270TMC3    C1 4131   3.945   3.443  15.296 -0.8616  0.2128  0.0762
  270TMC3    C2 4132   3.949   3.469  15.158  0.3406 -0.2184  0.0678
  270TMC3    C3 4133   3.988   3.363  15.088 -0.2909 -0.3942  0.5213
  270TMC3    C4 4134   3.961   3.313  15.351  0.0234 -0.3490 -0.4290
  270TMC3    C5 4135   3.997   3.207  15.264 -0.2719  0.6058  0.4236
  270TMC3    C6 4136   4.013   3.234  15.132  0.6077 -0.6054 -0.8701
  270TMC3     C 4137   3.965   3.563  15.380 -0.5420 -0.5187  0.2903
  270TMC3     O 4138   4.008   3.662  15.325  0.0403  0.2745  0.4147
  270TMC3     H 4139   3.946   3.572  15.123 -1.2131  0.8530  3.3370
  270TMC3    H1 4140   3.969   3.304  15.459  1.2143 -1.3279 -0.5989
  270TMC3    H2 4141   4.052   3.159  15.064  1.5023  0.9804 -2.0791
  270TMC3    C7 4142   4.068   3.091  15.321 -0.0017 -0.2274 -1.2716
  270TMC3    C8 4143   4.064   3.395  14.972 -0.2976 -0.7334  1.3582
  270TMC3    O1 4144   4.106   3.096  15.436 -0.4919  0.1623 -0.2329
  270TMC3    O2 4145   4.026   3.354  14.865 -0.6230  0.1754 -0.1357
  271MPD2     C 4146   4.291   3.337  13.828 -0.2192 -0.0709  0.5794
  271MPD2    C1 4147   4.209   3.400  13.917 -0.4394  0.8845 -0.4281
  271MPD2    C2 4148   4.100   3.474  13.875  0.1567  1.0730 -0.1437
  271MPD2    C3 4149   4.065   3.476  13.747 -0.2030  0.0390 -0.6571
  271MPD2    C4 4150   4.143   3.411  13.656 -0.0000 -0.2091 -0.6230
  271MPD2    C5 4151   4.260   3.349  13.696  0.5897  0.5773 -0.1298
  271MPD2     H 4152   4.053   3.533  13.952 -1.6191 -1.4545  0.7164
  271MPD2    H1 4153   4.123   3.402  13.550 -1.1929 -0.6566 -0.3627
  271MPD2    H2 4154   4.378   3.276  13.847 -0.4998  0.1003  2.3674
  271MPD2    H3 4155   4.323   3.307  13.617 -0.9506 -0.0101 -1.0422
  271MPD2     N 4156   3.947   3.546  13.703  0.2506  0.1319 -0.8464
  271MPD2    H5 4157   3.909   3.525  13.611 -2.2796 -0.1497  0.2420
  271MPD2    N1 4158   4.228   3.397  14.054  0.4187  0.1265 -0.3348
  271MPD2    H7 4159   4.163   3.447  14.113 -0.8442  1.3418 -2.7459
  272TMC3    C1 4160   4.268   3.321  14.267  0.0328  0.0541  0.2952
  272TMC3    C2 4161   4.369   3.330  14.362 -0.5862  0.5229 -0.1307
  272TMC3    C3 4162   4.324   3.339  14.493 -0.4555  0.5820 -0.1025
  272TMC3    C4 4163   4.133   3.334  14.299 -0.3146  0.5374  0.2119
  272TMC3    C5 4164   4.096   3.343  14.426 -0.0503 -0.2626  0.3136
  272TMC3    C6 4165   4.191   3.340  14.524 -0.8893 -0.1114 -0.3646
  272TMC3     C 4166   4.321   3.327  14.131 -0.5941 -0.3585 -0.4589
  272TMC3     O 4167   4.405   3.247  14.096  0.5306 -0.3972  0.1944
  272TMC3     H 4168   4.473   3.318  14.334 -0.3507  1.7451  0.2294
  272TMC3    H1 4169   4.057   3.327  14.222  0.1906  2.2972 -0.4496
  272TMC3    H2 4170   4.161   3.337  14.628 -1.5237  1.3905 -0.5061
  272TMC3    C7 4171   3.966   3.408  14.447  0.3752 -0.0158 -0.4723
  272TMC3    C8 4172   4.420   3.298  14.599 -0.1039 -0.3511 -0.1374
  272TMC3    O1 4173   3.893   3.417  14.349  0.2976 -0.5860 -0.1670
  272TMC3    O2 4174   4.538   3.341  14.586  0.0702 -0.5277 -0.1063
  273MPD2     C 4175   0.221   1.878  12.020 -0.3270  0.6038 -0.3402
  273MPD2    C1 4176   0.321   1.808  11.963  0.7713 -0.1130 -0.3427
  273MPD2    C2 4177   0.310   1.744  11.842 -0.9343 -0.4905  0.3230
  273MPD2    C3 4178   0.193   1.765  11.769 -0.2503 -0.0919  0.9993
  273MPD2    C4 4179   0.102   1.851  11.817  0.6316  0.2560 -0.2307
  273MPD2    C5 4180   0.114   1.907  11.943 -0.3203  0.2420 -0.3618
  273MPD2     H 4181   0.386   1.691  11.786  0.8499 -0.2357  2.4945
  273MPD2    H1 4182   0.013   1.881  11.763  1.2715  1.3296 -0.6718
  273MPD2    H2 4183   0.226   1.920  12.120  0.5288  0.7327 -0.4382
  273MPD2    H3 4184   0.037   1.977  11.976 -0.1495  0.2064  0.1032
  273MPD2     N 4185   0.180   1.716  11.641 -0.6052 -0.4263 -0.0355
  273MPD2    H5 4186   0.101   1.752  11.588 -0.7708 -0.2632  0.3185
  273MPD2    N1 4187   0.437   1.806  12.042  0.1361 -0.3056  0.4958
  273MPD2    H7 4188   0.429   1.845  12.136  1.5387  0.9178  0.1008
  274TMC3    C1 4189   0.227   1.598  11.446 -0.8196  0.5569 -0.7546
  274TMC3    C2 4190   0.102   1.639  11.405  0.1662  0.9000  0.0950
  274TMC3    C3 4191   0.096   1.692  11.280 -0.3041  0.0532 -0.0820
  274TMC3    C4 4192   0.334   1.631  11.368  0.2955  0.4171 -0.5627
  274TMC3    C5 4193   0.328   1.707  11.263 -0.9556 -0.2097 -1.1591
  274TMC3    C6 4194   0.205   1.721  11.204 -0.5240  0.4607  0.8257
  274TMC3     C 4195   0.250   1.615  11.587  0.1806  0.5256 -0.6466
  274TMC3     O 4196   0.343   1.553  11.635  0.3336  0.6790  0.3998
  274TMC3     H 4197   0.019   1.597  11.461  1.5543 -0.7904  0.8769
  274TMC3    H1 4198   0.432   1.613  11.410 -0.5068 -0.8404  0.7434
  274TMC3    H2 4199   0.189   1.811  11.146  1.0491 -0.1666 -0.6106
  274TMC3    C7 4200   0.389   1.835  11.289  0.1304 -0.8857 -0.2007
  274TMC3    C8 4201   4.712   1.702  11.209  0.2974  0.6135  0.8002
  274TMC3    O1 4202   0.315   1.928  11.324  0.5603  0.3887  0.5677
  274TMC3    O2 4203   4.725   1.684  11.088  0.2739  0.1444 -0.6495
  275MPD2     C 4204   0.178   0.527  14.723  0.5372  0.1320 -0.2557
  275MPD2    C1 4205   0.247   0.424  14.783  0.4238  0.3631 -0.3237
  275MPD2    C2 4206   0.204   0.292  14.753 -0.1555 -0.2624  0.3190
  275MPD2    C3 4207   0.101   0.276  14.667  0.0373 -0.3809  0.6317
  275MPD2    C4 4208   0.032   0.382  14.619 -0.0552 -0.3331  0.2566
  275MPD2    C5 4209   0.068   0.511  14.645 -0.4158 -0.6905  0.4057
  275MPD2     H 4210   0.260   0.211  14.798 -0.0970 -1.5737 -2.1220
  275MPD2    H1 4211   4.682   0.363  14.556  0.5067  1.0516 -0.9481
  275MPD2    H2 4212   0.199   0.631  14.743 -0.7264  0.6845 -1.7325
  275MPD2    H3 4213   0.008   0.593  14.606  0.1377 -0.9510 -1.0242
  275MPD2     N 4214   0.052   0.152  14.624 -0.0140  0.5905  0.1150
  275MPD2    H5 4215   4.714   0.160  14.555  0.5682 -1.9954 -0.8080
  275MPD2    N1 4216   0.356   0.447  14.869  0.1860 -0.3066 -0.9777
  275MPD2    H7 4217   0.382   0.372  14.932 -0.1221  1.5360  1.3540
  276TMC3    C1 4218   0.501   0.571  15.000  0.1332 -0.2998  0.1183
  276TMC3    C2 4219   0.431   0.531  15.113  0.3179  0.1353 -0.1566
  276TMC3    C3 4220   0.493   0.567  15.234 -0.2266  0.1595 -0.0286
  276TMC3    C4 4221   0.623   0.633  14.995 -0.5154 -0.1365  0.1754
  276TMC3    C5 4222   0.683   0.649  15.116  0.4197 -0.0920 -0.7673
  276TMC3    C6 4223   0.617   0.629  15.232  0.2088 -0.3366  0.1440
  276TMC3     C 4224   0.429   0.565  14.872 -0.2289 -0.1003  0.0693
  276TMC3     O 4225   0.429   0.663  14.796 -0.0897 -0.2377  0.8461
  276TMC3     H 4226   0.343   0.468  15.104  0.2228  0.1103  0.8525
  276TMC3    H1 4227   0.662   0.661  14.898  0.6464 -1.9263  0.1226
  276TMC3    H2 4228   0.660   0.662  15.326 -0.3125 -1.3426  0.7346
  276TMC3    C7 4229   0.817   0.590  15.121  0.1992 -0.4225 -0.1259
  276TMC3    C8 4230   0.484   0.451  15.318  0.4968 -0.1443 -0.4423
  276TMC3    O1 4231   0.854   0.537  15.227 -0.5659 -0.0653 -0.8805
  276TMC3    O2 4232   0.371   0.407  15.334 -0.5112  0.5280  0.2433
  277MPD2     C 4233   2.232   3.370  13.444  0.2130  0.0647 -0.0929
  277MPD2    C1 4234   2.097   3.395  13.454  0.3921  0.7940 -0.2948
  277MPD2    C2 4235   2.026   3.304  13.535  0.6926  0.2273  0.6175
  277MPD2    C3 4236   2.076   3.192  13.585  0.6258 -0.3665 -0.8786
  277MPD2    C4 4237   2.212   3.167  13.568 -0.3357  0.6761 -0.4014
  277MPD2    C5 4238   2.287   3.263  13.504 -0.4788 -0.1458 -0.0479
  277MPD2     H 4239   1.922   3.320  13.563 -0.0135  0.1112 -1.9052
  277MPD2    H1 4240   2.254   3.084  13.623 -1.4380  0.4095  0.0434
  277MPD2    H2 4241   2.300   3.438  13.393  0.5151  0.5974  1.0132
  277MPD2    H3 4242   2.392   3.240  13.494 -0.3216 -0.2295  1.6620
  277MPD2     N 4243   1.999   3.111  13.673  0.0193  0.0876 -0.1577
  277MPD2    H5 4244   1.908   3.144  13.704  0.7622  1.3219  0.7162
  277MPD2    N1 4245   2.036   3.507  13.378  0.1629 -0.0213  0.5841
  277MPD2    H7 4246   2.105   3.568  13.336  1.1670 -1.6714 -0.1965
  278TMC3    C1 4247   1.943   2.945  13.827  0.1272  0.0162  0.4620
  278TMC3    C2 4248   1.917   2.811  13.853 -0.5868 -0.2457 -0.5295
  278TMC3    C3 4249   1.811   2.780  13.932 -0.9919 -0.1785 -0.5154
  278TMC3    C4 4250   1.871   3.040  13.892 -0.4148  0.1031 -0.2291
  278TMC3    C5 4251   1.768   3.003  13.970 -0.4825  0.8731  0.5764
  278TMC3    C6 4252   1.731   2.878  13.982 -0.0162  0.1230 -0.2957
  278TMC3     C 4253   2.034   2.987  13.725  0.4364  0.2533  0.5672
  278TMC3     O 4254   2.111   2.905  13.673  0.5845 -0.1725  0.2418
  278TMC3     H 4255   1.968   2.733  13.798 -0.2607 -1.9739  2.2616
  278TMC3    H1 4256   1.909   3.142  13.897 -0.6412  0.1254  1.0484
  278TMC3    H2 4257   1.646   2.849  14.044 -0.2443  0.1577 -0.5926
  278TMC3    C7 4258   1.709   3.113  14.052 -0.1264  0.3686 -0.0813
  278TMC3    C8 4259   1.754   2.650  13.902  0.4400  0.6204  0.0619
  278TMC3    O1 4260   1.773   3.217  14.053  0.3280 -0.1461 -0.2347
  278TMC3    O2 4261   1.835   2.555  13.894 -0.1015 -0.5638  0.7324
  279MPD2     C 4262   1.554   2.974  17.489 -0.3416  0.2945 -0.0586
  279MPD2    C1 4263   1.515   3.077  17.574 -0.4639  0.1623  0.0220
  279MPD2    C2 4264   1.455   3.196  17.526  0.1280  0.2249 -0.4506
  279MPD2    C3 4265   1.417   3.201  17.391 -0.0314 -0.2726 -0.2960
  279MPD2    C4 4266   1.424   3.085  17.318 -0.3457 -0.1290 -0.7282
  279MPD2    C5 4267   1.499   2.979  17.364 -0.5824 -0.7197 -0.3631
  279MPD2     H 4268   1.443   3.287  17.583  2.2887  1.2123 -1.5556
  279MPD2    H1 4269   1.393   3.079  17.214  0.1407 -1.8423 -0.7630
  279MPD2    H2 4270   1.611   2.891  17.529  2.0078  2.4250  1.0363
  279MPD2    H3 4271   1.509   2.896  17.295  0.6734 -1.4046  0.6537
  279MPD2     N 4272   1.366   3.321  17.331  0.0387 -0.7258  0.1467
  279MPD2    H5 4273   1.325   3.319  17.239 -0.3784  2.4730  0.2679
  279MPD2    N1 4274   1.548   3.056  17.709 -0.3602 -0.3648  0.3706
  279MPD2    H7 4275   1.614   2.981  17.727 -0.0297  0.5280  2.7786
  280TMC3    C1 4276   1.360   3.173   0.055 -0.0319  0.0275 -0.3635
  280TMC3    C2 4277   1.273   3.092  17.743 -0.7366 -0.2780 -0.5579
  280TMC3    C3 4278   1.142   3.138  17.733 -0.3769  0.3656 -0.0266
  280TMC3    C4 4279   1.328   3.294   0.114  0.2838  0.1448  0.2672
  280TMC3    C5 4280   1.193   3.323   0.121  0.3110  0.4986 -0.1481
  280TMC3    C6 4281   1.102   3.240   0.067 -0.1815  0.3538 -0.6315
  280TMC3     C 4282   1.500   3.129   0.075 -0.4602 -0.4784 -0.4576
  280TMC3     O 4283   1.556   3.163   0.176 -1.1280  0.2426  0.3524
  280TMC3     H 4284   1.308   2.996  17.707 -0.3064 -0.8359  1.3564
  280TMC3    H1 4285   1.405   3.358   0.155 -1.9104  2.4460  0.7481
  280TMC3    H2 4286   0.997   3.262   0.079 -0.3465 -0.5465 -0.4384
  280TMC3    C7 4287   1.159   3.462   0.134 -0.1796 -0.4478 -0.8597
  280TMC3    C8 4288   1.080   3.139  17.598 -0.5176  0.5538  0.3474
  280TMC3    O1 4289   1.233   3.526   0.209  0.0533 -0.3443 -0.0852
  280TMC3    O2 4290   1.009   3.235  17.570 -0.3740  0.0765 -0.2296
  281TMC3    C1 4291   0.605   3.870  13.389 -0.2146  0.4237  0.1881
  281TMC3    C2 4292   0.645   3.937  13.276 -0.0589  0.3365 -0.0172
  281TMC3    C3 4293   0.641   3.873  13.154  0.3965 -0.3946  0.6753
  281TMC3    C4 4294   0.559   3.737  13.378 -0.2539  0.2950 -0.3675
  281TMC3    C5 4295   0.544   3.681  13.251  0.2877  0.1337  0.6591
  281TMC3    C6 4296   0.601   3.738  13.144  0.8372 -0.3873 -0.2956
  281TMC3     C 4297   0.628   3.925  13.524  0.1327 -0.2487  0.0955
  281TMC3     O 4298   0.662   3.845  13.613 -0.4111  0.0338  0.3858
  281TMC3     H 4299   0.694   4.034  13.288  2.9541 -0.9407 -2.1431
  281TMC3    H1 4300   0.544   3.682  13.470 -0.0999 -2.1731 -1.8178
  281TMC3    H2 4301   0.588   3.692  13.047 -0.3393  1.2216 -0.8938
  281TMC3    C7 4302   0.464   3.560  13.235 -0.0273 -0.4298  0.2037
  281TMC3    C8 4303   0.604   3.950  13.035  0.2673 -0.0174  0.0249
  281TMC3    O1 4304   0.478   3.514  13.122  0.1490 -0.2040 -0.4922
  281TMC3    O2 4305   0.557   3.892  12.934  0.0791  0.3309 -0.5581
  282MPD2     C 4306   2.010   0.423  15.316  0.6095  0.2233 -0.7154
  282MPD2    C1 4307   1.876   0.456  15.335  0.0057 -0.5948  0.1660
  282MPD2    C2 4308   1.794   0.451  15.226  0.1441 -0.0675 -0.3075
  282MPD2    C3 4309   1.833   0.419  15.099 -0.3788 -0.1571 -0.2329
  282MPD2    C4 4310   1.965   0.410  15.072 -0.3583 -0.2024 -0.0684
  282MPD2    C5 4311   2.051   0.400  15.178 -0.0804  0.2834  0.3313
  282MPD2     H 4312   1.691   0.478  15.245  0.4624  0.0901  1.2154
  282MPD2    H1 4313   2.010   0.412  14.973  1.9600 -1.6281  0.9382
  282MPD2    H2 4314   2.080   0.402  15.395 -1.3567  1.9850  1.4967
  282MPD2    H3 4315   2.157   0.381  15.160  0.2827  3.4382 -0.8849
  282MPD2     N 4316   1.740   0.426  14.992  0.4218  0.0712 -0.1635
  282MPD2    H5 4317   1.642   0.431  15.019  0.7561  0.4582  0.9966
  282MPD2    N1 4318   1.816   0.496  15.451 -0.4854 -0.6548  0.4059
  282MPD2    H7 4319   1.715   0.502  15.452 -0.3283  1.6297  1.0015
  283TMC3    C1 4320   1.806   0.580  15.661  0.0317  0.0529 -0.1321
  283TMC3    C2 4321   1.753   0.708  15.646 -0.2080  0.3913 -0.1485
  283TMC3    C3 4322   1.695   0.764  15.755  0.6866  0.3352 -0.7138
  283TMC3    C4 4323   1.820   0.525  15.781  0.5184 -0.1741 -0.4459
  283TMC3    C5 4324   1.753   0.586  15.885  0.7537  0.0265 -0.2415
  283TMC3    C6 4325   1.677   0.701  15.877 -0.0042  0.5590 -0.0159
  283TMC3     C 4326   1.886   0.516  15.565 -0.7385  0.0947 -0.5775
  283TMC3     O 4327   2.001   0.522  15.589  0.2791  0.7637  0.6479
  283TMC3     H 4328   1.759   0.749  15.545  1.4749  0.1477 -0.1426
  283TMC3    H1 4329   1.882   0.437  15.795  1.9463  1.0209  0.8097
  283TMC3    H2 4330   1.635   0.743  15.968  2.7663 -0.2665  1.6437
  283TMC3    C7 4331   1.694   0.488  15.974  0.3649 -0.4456  0.2561
  283TMC3    C8 4332   1.658   0.906  15.761 -0.0858 -0.8350  0.0372
  283TMC3    O1 4333   1.611   0.537  16.049 -0.1242  0.2600 -0.3699
  283TMC3    O2 4334   1.605   0.953  15.857 -0.4259 -0.4964 -0.7083
  284MPD2     C 4335   4.720   4.499  11.909 -0.3772 -0.8749  0.2108
  284MPD2    C1 4336   0.111   4.482  11.862 -0.4883 -0.3980  0.2789
  284MPD2    C2 4337   0.205   4.424  11.941  0.1100 -0.6092 -0.1346
  284MPD2    C3 4338   0.174   4.379  12.069 -0.0355  0.0347 -0.4564
  284MPD2    C4 4339   0.047   4.395  12.113 -0.5879  0.3910  0.0331
  284MPD2    C5 4340   4.692   4.450  12.033  0.3866 -0.1032  0.0682
  284MPD2     H 4341   0.305   4.407  11.903 -0.2549 -0.4052 -1.1998
  284MPD2    H1 4342   0.019   4.370  12.215 -1.8936 -0.4751 -0.5483
  284MPD2    H2 4343   4.638   4.539  11.850  0.4192 -1.1050 -1.0457
  284MPD2    H3 4344   4.588   4.463  12.060  1.1733  1.4919  2.2941
  284MPD2     N 4345   0.258   4.309  12.154  0.3725 -0.0705  0.0207
  284MPD2    H5 4346   0.216   4.264  12.234 -0.7643  1.4348  0.2666
  284MPD2    N1 4347   0.150   4.502  11.728  0.3476 -0.2045 -0.2740
  284MPD2    H7 4348   0.244   4.479  11.697  1.5513 -0.0764  3.3346
  285TMC3    C1 4349   0.130   4.566  11.509 -0.7484 -0.5854 -0.2295
  285TMC3    C2 4350   0.225   4.461  11.484  0.0336  0.8366  0.0053
  285TMC3    C3 4351   0.337   4.488  11.407  0.1577 -0.3726 -0.3894
  285TMC3    C4 4352   0.170   4.693  11.469 -0.0817  0.1609 -0.5902
  285TMC3    C5 4353   0.290   4.715  11.395 -0.2115  0.0664 -0.3507
  285TMC3    C6 4354   0.363   4.610  11.352  0.2056 -0.4942 -0.3140
  285TMC3     C 4355   0.074   4.567  11.642  0.0018  0.0042  0.2871
  285TMC3     O 4356   4.711   4.637  11.663  0.4498 -0.1720  0.6176
  285TMC3     H 4357   0.221   4.363  11.530  1.0059  0.4505 -0.7367
  285TMC3    H1 4358   0.105   0.036  11.505  0.1478 -0.8729  2.1351
  285TMC3    H2 4359   0.450   4.623  11.287 -0.4496  0.7391 -0.9371
  285TMC3    C7 4360   0.362   0.104  11.404 -1.3123 -0.5703  0.5913
  285TMC3    C8 4361   0.404   4.372  11.348  0.3429 -0.4044 -0.4701
  285TMC3    O1 4362   0.477   0.113  11.355  0.3293 -0.1506  0.0788
  285TMC3    O2 4363   0.347   4.264  11.362  0.8934 -0.2226  0.2657
  286MPD2     C 4364   1.085   3.405   1.298 -0.5809  0.1131 -0.5950
  286MPD2    C1 4365   0.990   3.398   1.201 -0.0408 -0.1427  0.4529
  286MPD2    C2 4366   0.985   3.281   1.123 -0.3725 -0.0647 -0.0234
  286MPD2    C3 4367   1.068   3.179   1.156  0.6356 -0.1919 -0.0840
  286MPD2    C4 4368   1.167   3.191   1.257  0.3797 -0.7224  0.1074
  286MPD2    C5 4369   1.168   3.307   1.329 -0.7131  1.1610  0.5027
  286MPD2     H 4370   0.919   3.274   1.037  0.5770  1.0741 -0.8417
  286MPD2    H1 4371   1.227   3.104   1.278 -0.0009 -0.7963  0.8714
  286MPD2    H2 4372   1.087   3.498   1.353  0.4158  0.5624 -1.4112
  286MPD2    H3 4373   1.244   3.312   1.405 -0.7752  0.9291  0.5792
  286MPD2     N 4374   1.064   3.058   1.091 -0.0883  0.5944  0.6830
  286MPD2    H5 4375   1.117   2.984   1.137 -0.6741  0.0213  0.4359
  286MPD2    N1 4376   0.888   3.497   1.183  0.1606 -0.3597  0.8457
  286MPD2    H7 4377   0.815   3.482   1.114  0.2966 -1.8035  1.0096
  287TMC3    C1 4378   1.079   2.887   0.924 -0.1931  0.4566 -0.6520
  287TMC3    C2 4379   0.990   2.814   0.845  0.2988  0.1969 -0.0099
  287TMC3    C3 4380   1.026   2.682   0.834  0.2948 -0.0930  0.7538
  287TMC3    C4 4381   1.189   2.838   0.988 -0.0903 -0.2100  0.6177
  287TMC3    C5 4382   1.220   2.706   0.969  0.2739  0.0336 -0.2583
  287TMC3    C6 4383   1.139   2.625   0.886 -0.1253  0.2679 -0.1043
  287TMC3     C 4384   1.028   3.016   0.958 -0.4827 -0.5699 -0.5766
  287TMC3     O 4385   0.953   3.077   0.886 -0.1691 -0.4764  0.0331
  287TMC3     H 4386   0.904   2.866   0.804 -1.2766 -1.9297  0.6383
  287TMC3    H1 4387   1.256   2.904   1.043 -3.0759  2.4227  1.1157
  287TMC3    H2 4388   1.169   2.524   0.860  0.9485 -0.0316  2.2747
  287TMC3    C7 4389   1.355   2.674   1.022  0.8237  0.1373  0.4841
  287TMC3    C8 4390   0.950   2.607   0.735 -0.4525  0.3030 -0.5036
  287TMC3    O1 4391   1.402   2.762   1.088 -0.0386  0.9297  0.3955
  287TMC3    O2 4392   0.943   2.484   0.755  0.0980  0.5937  0.0727
  288TMC3    C1 4393   2.255   2.522  14.239  0.1842 -1.0489 -0.4188
  288TMC3    C2 4394   2.169   2.561  14.340  0.1000  0.0843  0.3149
  288TMC3    C3 4395   2.117   2.691  14.334  0.5247  0.1424  0.1264
  288TMC3    C4 4396   2.276   2.612  14.139  0.2029 -0.2099 -0.2173
  288TMC3    C5 4397   2.219   2.735  14.132 -0.5247  1.0608 -0.3310
  288TMC3    C6 4398   2.146   2.784  14.234  0.1057 -0.6528 -1.1669
  288TMC3     C 4399   2.376   2.440  14.279  0.1587 -0.0201 -0.1805
  288TMC3     O 4400   2.470   2.437  14.201  0.3235  0.2192  0.2745
  288TMC3     H 4401   2.163   2.497  14.428 -1.6927 -0.7542 -0.4077
  288TMC3    H1 4402   2.342   2.581  14.059 -1.1484 -1.0630 -0.9934
  288TMC3    H2 4403   2.112   2.886  14.251 -0.2235 -1.1772  1.2703
  288TMC3    C7 4404   2.301   2.826  14.045  0.2850  0.7717  0.0161
  288TMC3    C8 4405   2.057   2.748  14.452  0.2028 -0.1637  0.0955
  288TMC3    O1 4406   2.388   2.774  13.975 -0.3865 -0.1704 -0.1992
  288TMC3    O2 4407   2.091   2.863  14.478 -0.1003  0.0276  0.6676
  289MPD2     C 4408   2.185   1.700  14.484  0.2490  0.1749  0.5099
  289MPD2    C1 4409   2.181   1.817  14.412 -0.5542 -0.2757  0.8222
  289MPD2    C2 4410   2.057   1.870  14.369 -0.7477  0.1114  0.4227
  289MPD2    C3 4411   1.941   1.820  14.424 -0.4328 -0.5301 -0.0203
  289MPD2    C4 4412   1.950   1.709  14.505  0.9368 -0.4728 -0.3007
  289MPD2    C5 4413   2.066   1.644  14.526  0.4814 -0.7097 -0.0322
  289MPD2     H 4414   2.062   1.951  14.298 -1.5933  0.0775  0.3248
  289MPD2    H1 4415   1.865   1.662  14.553  0.0440 -0.4500 -1.8724
  289MPD2    H2 4416   2.276   1.658  14.524  0.0345 -0.3463  0.4519
  289MPD2    H3 4417   2.071   1.556  14.590 -2.0628 -0.3665  0.6293
  289MPD2     N 4418   1.816   1.873  14.392  0.0390  0.6861 -0.8575
  289MPD2    H5 4419   1.734   1.832  14.436 -1.7471  1.7697 -3.1525
  289MPD2    N1 4420   2.313   1.865  14.377 -0.1972 -0.2362  0.7504
  289MPD2    H7 4421   2.392   1.808  14.404 -0.7454 -0.2584  2.3190
  290TMC3    C1 4422   1.645   2.017  14.309  0.7529  0.1933 -0.0904
  290TMC3    C2 4423   1.607   2.138  14.263  0.3376  0.1196  0.2000
  290TMC3    C3 4424   1.502   2.149  14.174  1.0224  0.7460  1.0587
  290TMC3    C4 4425   1.564   1.910  14.281  0.5409  0.0521  0.0584
  290TMC3    C5 4426   1.455   1.924  14.199  0.3587  0.0225  0.0726
  290TMC3    C6 4427   1.433   2.044  14.136 -0.0492 -0.1315 -0.0908
  290TMC3     C 4428   1.790   1.995  14.331  0.0464  0.0570 -0.1927
  290TMC3     O 4429   1.867   2.089  14.313  0.0114  0.2879  1.1714
  290TMC3     H 4430   1.664   2.227  14.289  2.1019 -0.7145 -0.7703
  290TMC3    H1 4431   1.582   1.815  14.329 -1.0756 -0.3107 -0.0598
  290TMC3    H2 4432   1.338   2.055  14.085  0.3052  0.5510 -0.5948
  290TMC3    C7 4433   1.350   1.821  14.195  0.2922 -0.2334  0.5687
  290TMC3    C8 4434   1.412   2.268  14.181 -0.3441 -0.3565  0.0020
  290TMC3    O1 4435   1.236   1.866  14.172  0.3362 -0.0405  0.1856
  290TMC3    O2 4436   1.290   2.254  14.181  0.1707 -0.1129 -0.4876
  291MPD2     C 4437   1.198   2.200  17.677 -0.6150 -0.8822 -0.2822
  291MPD2    C1 4438   1.260   2.158   0.043  0.8148 -0.2766 -0.1956
  291MPD2    C2 4439   1.353   2.234   0.104 -0.4099 -0.2178  0.1302
  291MPD2    C3 4440   1.390   2.356   0.056  0.7174 -0.4236 -0.4152
  291MPD2    C4 4441   1.324   2.397  17.687 -0.0765  0.2106  0.0870
  291MPD2    C5 4442   1.226   2.321  17.624  0.1130  0.4018  0.2474
  291MPD2     H 4443   1.398   2.206   0.199 -1.0518 -0.2247  0.4392
  291MPD2    H1 4444   1.351   2.492  17.642 -0.5300 -0.4537 -1.5955
  291MPD2    H2 4445   1.121   2.143  17.626  0.1901 -0.8376 -1.5631
  291MPD2    H3 4446   1.171   2.365  17.542 -1.7633 -2.4517 -0.0478
  291MPD2     N 4447   1.484   2.445   0.111 -0.6392  0.1281  0.3524
  291MPD2    H5 4448   1.500   2.537   0.071  2.4741 -1.5629 -2.4150
  291MPD2    N1 4449   1.227   2.034   0.106 -0.2156 -0.0791  0.2323
  291MPD2    H7 4450   1.286   2.009   0.185 -0.2153  0.5324  0.4288
  292TMC3    C1 4451   1.116   1.833   0.148 -0.0614  0.1532 -0.4718
  292TMC3    C2 4452   1.182   1.826   0.270  0.3512 -0.4110  0.3377
  292TMC3    C3 4453   1.192   1.709   0.336  0.4348  1.1713 -0.0979
  292TMC3    C4 4454   1.063   1.714   0.098  0.3916  1.1306 -0.0634
  292TMC3    C5 4455   1.090   1.600   0.164 -0.3367 -0.1808 -0.0299
  292TMC3    C6 4456   1.148   1.588   0.281  0.3980  0.0336 -0.1836
  292TMC3     C 4457   1.134   1.942   0.054 -0.5602 -0.3138 -0.5773
  292TMC3     O 4458   1.056   1.955  17.702  0.0790 -0.3240 -0.2437
  292TMC3     H 4459   1.219   1.914   0.320  0.6867 -0.1197 -0.4283
  292TMC3    H1 4460   1.029   1.721  17.739 -0.5489  1.8407  0.2968
  292TMC3    H2 4461   1.145   1.492   0.330 -1.7843  0.1633 -0.0620
  292TMC3    C7 4462   1.066   1.470   0.096  0.3459  0.0026  0.2263
  292TMC3    C8 4463   1.269   1.702   0.461 -0.2445  0.1840 -0.7827
  292TMC3    O1 4464   1.144   1.377   0.106 -0.1040  0.3417 -0.0918
  292TMC3    O2 4465   1.360   1.783   0.470 -0.1036 -0.3517  0.2233
  293MPD2     C 4466   3.297   2.853  12.818 -0.1888  0.9871  0.7231
  293MPD2    C1 4467   3.230   2.945  12.901 -0.0287 -0.0765 -0.0080
  293MPD2    C2 4468   3.298   2.995  13.006 -0.1439 -0.1543 -0.0074
  293MPD2    C3 4469   3.415   2.950  13.041  0.5474 -0.6849 -0.3638
  293MPD2    C4 4470   3.475   2.853  12.972 -0.0633 -0.3857  0.7658
  293MPD2    C5 4471   3.417   2.796  12.863  0.2824  0.3960  0.2169
  293MPD2     H 4472   3.261   3.083  13.057  0.9296 -0.2885  1.0023
  293MPD2    H1 4473   3.573   2.817  13.000  0.9163  2.0960  0.5795
  293MPD2    H2 4474   3.251   2.814  12.728  0.9171 -1.2617  1.1188
  293MPD2    H3 4475   3.473   2.729  12.798  1.2678 -1.7739  3.3408
  293MPD2     N 4476   3.476   3.018  13.147 -0.1894 -0.1802  0.0245
  293MPD2    H5 4477   3.422   3.094  13.187  1.1843  0.5198  0.5532
  293MPD2    N1 4478   3.103   2.992  12.847 -0.4837  0.1293  0.1828
  293MPD2    H7 4479   3.080   2.956  12.755 -1.7651  0.1524  0.4952
  294TMC3    C1 4480   2.918   3.117  12.814 -0.2038 -0.0355  0.2019
  294TMC3    C2 4481   2.804   3.167  12.875 -0.1167  0.9617 -0.4080
  294TMC3    C3 4482   2.709   3.234  12.799  0.3657  0.0611 -0.1340
  294TMC3    C4 4483   2.944   3.127  12.681  0.1777  0.1313  0.2754
  294TMC3    C5 4484   2.847   3.191  12.605 -0.9356  1.0265 -0.5734
  294TMC3    C6 4485   2.731   3.241  12.658  0.7098  0.5800 -0.4125
  294TMC3     C 4486   3.017   3.073  12.909 -0.8346 -0.3810 -0.0564
  294TMC3     O 4487   3.015   3.109  13.024 -0.6403 -0.9052  0.1867
  294TMC3     H 4488   2.782   3.128  12.974 -3.8731 -1.0039 -1.9940
  294TMC3    H1 4489   3.045   3.126  12.643  0.7238  0.1967  1.7186
  294TMC3    H2 4490   2.670   3.306  12.596 -0.3114  0.2672  0.2520
  294TMC3    C7 4491   2.831   3.152  12.465  0.6875  0.3303 -0.6646
  294TMC3    C8 4492   2.567   3.196  12.819 -0.6188 -0.1218 -0.1322
  294TMC3    O1 4493   2.725   3.192  12.408 -0.0201 -0.3469  0.2284
  294TMC3    O2 4494   2.517   3.201  12.933  0.1617 -0.2104  0.2669
  295MPD2     C 4495   3.942   2.628   1.429  0.0737  0.1877  0.3643
  295MPD2    C1 4496   3.880   2.739   1.389 -0.1818  0.1488  0.1554
  295MPD2    C2 4497   3.793   2.803   1.471 -0.3101  0.0785  0.4187
  295MPD2    C3 4498   3.754   2.756   1.593  0.0427  0.3935 -0.1502
  295MPD2    C4 4499   3.816   2.639   1.638  0.3316  0.9878  0.5626
  295MPD2    C5 4500   3.910   2.584   1.556 -0.5198 -0.4061 -0.1165
  295MPD2     H 4501   3.756   2.896   1.429 -0.3714  0.5223  1.4788
  295MPD2    H1 4502   3.802   2.596   1.736  3.2839 -2.8977 -0.7009
  295MPD2    H2 4503   4.020   2.570   1.383  0.7220  1.4955 -0.1695
  295MPD2    H3 4504   3.952   2.489   1.587 -0.2686  0.1996  1.3686
  295MPD2     N 4505   3.666   2.823   1.680  0.0858  0.0674 -0.2060
  295MPD2    H5 4506   3.644   2.787   1.772 -2.9630 -2.7690 -2.0643
  295MPD2    N1 4507   3.887   2.796   1.260 -0.5830  0.6945  0.1862
  295MPD2    H7 4508   3.859   2.893   1.247  0.6877  1.0403  0.0431
  296TMC3    C1 4509   3.504   2.982   1.731 -0.4752 -0.5697 -0.1262
  296TMC3    C2 4510   3.465   3.116   1.749 -0.1629  0.6366 -0.5082
  296TMC3    C3 4511   3.352   3.137   1.819 -0.7379  0.1895 -0.1654
  296TMC3    C4 4512   3.435   2.881   1.794  0.4372  0.0993  0.0195
  296TMC3    C5 4513   3.328   2.910   1.870  0.2867 -0.9622  0.9269
  296TMC3    C6 4514   3.282   3.042   1.886  0.0227 -0.2418 -0.2678
  296TMC3     C 4515   3.624   2.953   1.654  0.4435  0.6338  0.0240
  296TMC3     O 4516   3.655   3.043   1.572 -0.7460  0.0619  0.3577
  296TMC3     H 4517   3.524   3.193   1.701  0.5455 -0.4722 -1.4420
  296TMC3    H1 4518   3.451   2.778   1.767  1.0891 -0.2805  1.8898
  296TMC3    H2 4519   3.189   3.074   1.932  0.1114 -0.1329 -0.1652
  296TMC3    C7 4520   3.248   2.800   1.913 -0.5971  0.4961 -0.1535
  296TMC3    C8 4521   3.305   3.269   1.819 -0.6590  0.4962  0.0746
  296TMC3    O1 4522   3.259   2.692   1.856  0.4361 -0.5700  0.0700
  296TMC3    O2 4523   3.240   3.311   1.914  0.8485  0.1017  0.2843
  297MPD2     C 4524   1.042   3.545  16.535 -0.2578  0.7408 -0.3663
  297MPD2    C1 4525   1.047   3.613  16.417 -0.1948 -0.2579 -0.1889
  297MPD2    C2 4526   1.151   3.700  16.388 -0.4760 -0.9285  0.2052
  297MPD2    C3 4527   1.246   3.732  16.486 -0.2014  0.2991  0.6902
  297MPD2    C4 4528   1.240   3.662  16.605 -0.4683  0.7457 -0.6429
  297MPD2    C5 4529   1.137   3.571  16.631 -0.2272  1.1720  0.2485
  297MPD2     H 4530   1.155   3.739  16.287  1.7955  0.1375  0.7201
  297MPD2    H1 4531   1.308   3.673  16.688  1.8735 -0.7245 -2.3663
  297MPD2    H2 4532   0.966   3.471  16.554  0.4146 -0.5438 -2.7229
  297MPD2    H3 4533   1.140   3.508  16.720  0.5569  1.3978  0.3768
  297MPD2     N 4534   1.350   3.824  16.454 -0.2321  0.4923 -0.0073
  297MPD2    H5 4535   1.353   3.862  16.360 -0.3261  0.6793  0.0656
  297MPD2    N1 4536   0.941   3.598  16.319  0.0171  0.1378 -0.1602
  297MPD2    H7 4537   0.964   3.655  16.238  0.0999  0.4969  0.1185
  298TMC3    C1 4538   0.723   3.595  16.245  0.3884 -0.6491 -0.5353
  298TMC3    C2 4539   0.764   3.637  16.123 -0.4319  0.1825 -0.1022
  298TMC3    C3 4540   0.670   3.677  16.031  0.5678 -0.5427 -0.0489
  298TMC3    C4 4541   0.591   3.597  16.277 -0.3908 -0.6361  0.1805
  298TMC3    C5 4542   0.500   3.618  16.179 -0.1589 -0.0529 -0.1010
  298TMC3    C6 4543   0.538   3.665  16.055  0.2830 -0.1857 -0.1322
  298TMC3     C 4544   0.818   3.564  16.348 -0.1173 -0.1546 -0.5116
  298TMC3     O 4545   0.767   3.520  16.444  0.2837  0.1342  0.4221
  298TMC3     H 4546   0.868   3.622  16.098 -0.5387  2.2875 -1.7958
  298TMC3    H1 4547   0.548   3.559  16.369 -0.5498  0.7604  0.6870
  298TMC3    H2 4548   0.473   3.676  15.969  4.0213  1.7474 -2.7394
  298TMC3    C7 4549   0.371   3.650  16.228  0.6228 -0.3419 -0.3717
  298TMC3    C8 4550   0.715   3.723  15.900 -0.2630 -0.4732  0.7987
  298TMC3    O1 4551   0.356   3.687  16.343  0.2520  0.7995 -0.4641
  298TMC3    O2 4552   0.828   3.694  15.856 -0.2308 -0.0991 -0.6184
  299MPD2     C 4553   1.432   3.483  11.162  0.5976  0.3453 -0.0162
  299MPD2    C1 4554   1.551   3.501  11.095 -0.5011  0.0761 -0.0506
  299MPD2    C2 4555   1.556   3.491  10.954  0.3983 -0.1301  0.1972
  299MPD2    C3 4556   1.431   3.482  10.891  0.3042  1.0002 -0.1611
  299MPD2    C4 4557   1.313   3.469  10.960  0.3487 -0.4370 -0.5066
  299MPD2    C5 4558   1.315   3.458  11.099 -0.8277 -0.3901 -0.0414
  299MPD2     H 4559   1.649   3.510  10.901 -0.1528  1.0011 -0.3578
  299MPD2    H1 4560   1.222   3.438  10.909  0.1896  2.1882 -1.8045
  299MPD2    H2 4561   1.430   3.477  11.270  1.4640 -1.8606 -0.1376
  299MPD2    H3 4562   1.225   3.433  11.155 -0.4983 -0.7897  0.3148
  299MPD2     N 4563   1.425   3.477  10.750  0.0345  0.7563  1.1158
  299MPD2    H5 4564   1.335   3.508  10.715  0.2831  0.9564  0.6355
  299MPD2    N1 4565   1.668   3.520  11.173  0.5881  0.4793 -0.4866
  299MPD2    H7 4566   1.658   3.538  11.272 -0.7163  0.4877 -0.6173
  300TMC3    C1 4567   1.485   3.451  10.518 -0.2774 -0.2986  0.3144
  300TMC3    C2 4568   1.583   3.457  10.415  0.1677  0.7835 -0.8210
  300TMC3    C3 4569   1.547   3.447  10.281 -0.0973  0.4312 -0.5146
  300TMC3    C4 4570   1.350   3.445  10.477 -0.2348 -0.3003 -0.1241
  300TMC3    C5 4571   1.320   3.445  10.343  0.1842 -0.3193  0.6103
  300TMC3    C6 4572   1.414   3.457  10.246 -0.1559  0.3941 -0.4331
  300TMC3     C 4573   1.530   3.482  10.659 -0.5727 -0.4256  0.3276
  300TMC3     O 4574   1.648   3.482  10.673  0.2869  0.0798 -0.3118
  300TMC3     H 4575   1.688   3.469  10.440 -0.2047 -0.1015  1.1366
  300TMC3    H1 4576   1.273   3.430  10.552 -0.9873 -1.9204 -1.2248
  300TMC3    H2 4577   1.388   3.478  10.143  0.1955 -0.4397 -0.6904
  300TMC3    C7 4578   1.184   3.463  10.290 -0.4071 -0.9517  0.5359
  300TMC3    C8 4579   1.644   3.502  10.189  0.5486  0.0076  0.3988
  300TMC3    O1 4580   1.163   3.447  10.173 -0.3805  0.0281 -0.3268
  300TMC3    O2 4581   1.748   3.437  10.169  0.3509  0.2702 -0.3872
  301MPD2     C 4582   3.555   4.710   1.694  0.3440 -0.0477 -0.2628
  301MPD2    C1 4583   3.491   4.687   1.570 -0.9544  0.7372  0.2193
  301MPD2    C2 4584   3.560   4.625   1.466  0.1005 -0.2407 -0.4250
  301MPD2    C3 4585   3.691   4.571   1.483 -0.1661 -0.1976 -0.1421
  301MPD2    C4 4586   3.750   4.585   1.611  0.0040 -0.0052 -0.1212
  301MPD2    C5 4587   3.681   4.653   1.713 -0.4255 -0.0524  0.4588
  301MPD2     H 4588   3.532   4.615   1.361  1.1158  3.2337 -1.0021
  301MPD2    H1 4589   3.853   4.553   1.621  0.9581  2.8598 -0.7358
  301MPD2    H2 4590   3.503   0.021   1.777  0.8825  1.0038 -0.5231
  301MPD2    H3 4591   3.734   4.662   1.807  0.2968  1.7765 -0.1286
  301MPD2     N 4592   3.767   4.501   1.383 -0.1653 -0.2706  0.2200
  301MPD2    H5 4593   3.867   4.491   1.397 -0.2643 -0.0478  1.0655
  301MPD2    N1 4594   3.364   0.010   1.537  0.0241 -0.7721 -0.1387
  301MPD2    H7 4595   3.328   4.730   1.443 -1.7329  1.9282  0.0915
  302TMC3    C1 4596   3.802   4.381   1.189 -0.1730 -0.1409 -0.0861
  302TMC3    C2 4597   3.923   4.348   1.241  0.5090  0.3222  0.7621
  302TMC3    C3 4598   3.998   4.274   1.155  0.2819 -0.1039 -0.4559
  302TMC3    C4 4599   3.753   4.357   1.065 -0.0786  0.2395 -0.1869
  302TMC3    C5 4600   3.831   4.282   0.985 -0.0507 -0.4095  0.5480
  302TMC3    C6 4601   3.959   4.246   1.028  0.1717 -0.1806  1.0833
  302TMC3     C 4602   3.709   4.444   1.275 -0.0953  0.3776  0.5089
  302TMC3     O 4603   3.594   4.409   1.267 -0.0812  0.1516 -0.1123
  302TMC3     H 4604   3.949   4.356   1.346  1.9263  1.9912  0.2856
  302TMC3    H1 4605   3.657   4.396   1.035  0.9914  2.4385 -0.7301
  302TMC3    H2 4606   4.023   4.190   0.962 -1.1456  1.5768 -1.6817
  302TMC3    C7 4607   3.836   4.321   0.849  0.4667 -0.7389 -0.4187
  302TMC3    C8 4608   4.139   4.251   1.185 -0.0203 -0.5972 -0.3337
  302TMC3    O1 4609   3.950   4.334   0.804  0.8204  0.8508  0.0896
  302TMC3    O2 4610   4.190   4.152   1.130 -0.1227  0.8827  0.1540
  303MPD2     C 4611   4.218   3.556  10.822  0.0163 -0.0599 -0.1772
  303MPD2    C1 4612   4.182   3.421  10.818  0.1670 -0.6991 -0.3145
  303MPD2    C2 4613   4.145   3.369  10.690  0.2376 -0.5152 -0.4538
  303MPD2    C3 4614   4.143   3.452  10.579 -0.4383  0.6899  0.5508
  303MPD2    C4 4615   4.181   3.583  10.597 -0.1840  0.6871 -0.6017
  303MPD2    C5 4616   4.212   3.642  10.718  0.5222 -0.1506 -0.2097
  303MPD2     H 4617   4.119   3.265  10.680  0.2556 -0.6221  0.6904
  303MPD2    H1 4618   4.181   3.645  10.508  2.9969  1.4515 -0.0587
  303MPD2    H2 4619   4.245   3.608  10.913  0.0857 -1.2691  0.5044
  303MPD2    H3 4620   4.227   3.747  10.737  0.1158 -0.5114  2.0443
  303MPD2     N 4621   4.099   3.412  10.454  0.5028 -0.4957  0.1129
  303MPD2    H5 4622   4.129   3.466  10.373  2.2043  1.1181  1.8255
  303MPD2    N1 4623   4.190   3.343  10.939 -0.4439  0.1770 -0.0429
  303MPD2    H7 4624   4.205   3.397  11.024 -0.9895 -1.1837  0.9083
  304TMC3    C1 4625   4.145   3.160  11.073 -0.5606  0.0144  0.2503
  304TMC3    C2 4626   4.037   3.212  11.141  0.0824 -0.1580  0.6916
  304TMC3    C3 4627   3.971   3.139  11.241  0.2906  1.1197  0.6501
  304TMC3    C4 4628   4.195   3.033  11.107  0.3778 -0.1057  0.3894
  304TMC3    C5 4629   4.133   2.969  11.212 -0.5780 -0.0241  0.4326
  304TMC3    C6 4630   4.024   3.020  11.278 -0.4492  0.2760 -0.1526
  304TMC3     C 4631   4.178   3.208  10.944  0.4732 -0.0914  0.9532
  304TMC3     O 4632   4.191   3.122  10.858  0.9699 -0.1548  0.4760
  304TMC3     H 4633   4.009   3.315  11.125  1.2770  0.3577  1.8643
  304TMC3    H1 4634   4.278   2.993  11.050  1.7028  2.6348  0.3850
  304TMC3    H2 4635   3.983   2.951  11.351  0.5579 -0.3381 -0.1684
  304TMC3    C7 4636   4.124   2.827  11.191 -0.1113 -0.2458  0.4159
  304TMC3    C8 4637   3.848   3.101  11.185  0.2853 -0.0661  0.2599
  304TMC3    O1 4638   4.228   2.772  11.150  0.8107 -0.0964  0.2372
  304TMC3    O2 4639   3.811   2.989  11.213  0.1982 -0.5020 -0.3747
  305MPD2     C 4640   1.753   4.602  14.090 -0.8043 -0.0053 -1.2210
  305MPD2    C1 4641   1.875   4.652  14.054 -0.4946 -0.7069  0.1764
  305MPD2    C2 4642   1.929   4.609  13.930 -0.5857  0.3688 -0.1014
  305MPD2    C3 4643   1.854   4.533  13.846  0.8302  0.6397  0.8707
  305MPD2    C4 4644   1.729   4.493  13.885 -0.8138 -0.0949 -0.4447
  305MPD2    C5 4645   1.684   4.523  14.006  0.2836 -0.2863 -0.2236
  305MPD2     H 4646   2.027   4.642  13.896  0.5279 -2.0999  0.7224
  305MPD2    H1 4647   1.663   4.425  13.832 -3.5478  0.5880  2.0313
  305MPD2    H2 4648   1.706   4.623  14.185 -0.8119  0.6439 -1.3709
  305MPD2    H3 4649   1.591   4.474  14.032  0.8010 -1.8821 -1.3524
  305MPD2     N 4650   1.887   4.483  13.717 -0.2332  0.2157 -0.1922
  305MPD2    H5 4651   1.812   4.437  13.666 -0.2757 -0.4042  0.4225
  305MPD2    N1 4652   1.946   0.001  14.146  0.3349  0.4633 -0.1020
  305MPD2    H7 4653   1.897   0.017  14.233  0.4983  0.3303  0.0156
  306TMC3    C1 4654   2.127   0.116  14.240 -0.8005 -0.4541 -0.3379
  306TMC3    C2 4655   2.258   0.101  14.288  0.4058  0.6458 -0.4486
  306TMC3    C3 4656   2.293   0.157  14.403 -0.6066  0.3313 -0.2201
  306TMC3    C4 4657   2.035   0.194  14.300 -0.5254 -0.0024  0.4068
  306TMC3    C5 4658   2.073   0.251  14.413  0.3155  0.5527  0.3281
  306TMC3    C6 4659   2.205   0.237  14.470  0.2282  0.0956 -0.6604
  306TMC3     C 4660   2.075   0.042  14.130 -0.5921 -0.4020 -0.3836
  306TMC3     O 4661   2.153   0.012  14.040 -0.1934  0.4277 -0.0040
  306TMC3     H 4662   2.324   0.038  14.230  0.9243 -0.9605  1.9016
  306TMC3    H1 4663   1.937   0.212  14.257  0.2596 -1.2180 -1.8577
  306TMC3    H2 4664   2.247   0.301  14.547 -0.1573  1.0664 -1.2587
  306TMC3    C7 4665   1.999   0.370  14.442  0.0743 -0.0125  0.4701
  306TMC3    C8 4666   2.390   0.084  14.487  0.3221  0.6825 -0.1320
  306TMC3    O1 4667   1.938   0.418  14.344  0.3441 -0.1566 -0.3405
  306TMC3    O2 4668   2.479   0.025  14.421  0.2292 -0.8682 -0.2996
  307MPD2     C 4669   0.385   3.586   0.341 -0.0600  0.0615  0.1827
  307MPD2    C1 4670   0.301   3.682   0.392  0.1130  0.0517  0.3877
  307MPD2    C2 4671   0.202   3.647   0.485  0.3219 -0.0628 -0.3589
  307MPD2    C3 4672   0.198   3.519   0.540 -0.2555 -0.1447  0.0831
  307MPD2    C4 4673   0.286   3.425   0.488  0.0492 -0.3558 -0.1172
  307MPD2    C5 4674   0.369   3.458   0.389 -0.2131  0.4591  0.6121
  307MPD2     H 4675   0.139   3.728   0.521  0.2750  0.5578 -1.8206
  307MPD2    H1 4676   0.289   3.319   0.511  2.1992 -0.9064 -2.9612
  307MPD2    H2 4677   0.462   3.606   0.267  0.4254  0.3016  0.7471
  307MPD2    H3 4678   0.425   3.377   0.343 -1.8200 -0.7397  0.8213
  307MPD2     N 4679   0.100   3.494   0.642 -0.0792 -0.1136  0.4908
  307MPD2    H5 4680   0.041   3.571   0.672 -2.1438 -1.6588  0.3744
  307MPD2    N1 4681   0.306   3.813   0.347 -0.2263 -0.1038 -0.5518
  307MPD2    H7 4682   0.239   3.876   0.390  2.7979  1.7635  1.4846
  308TMC3    C1 4683   4.463   3.386   0.748  0.7238  0.2762 -0.3998
  308TMC3    C2 4684   4.452   3.498   0.814  0.6497 -0.5162  0.1584
  308TMC3    C3 4685   4.564   3.567   0.862 -0.7640 -0.2124 -0.3646
  308TMC3    C4 4686   4.587   3.331   0.736  0.3273  0.2611  0.0742
  308TMC3    C5 4687   4.693   3.390   0.793  0.5568  0.2539 -0.2220
  308TMC3    C6 4688   4.683   3.508   0.862  0.3568  0.4628 -0.7432
  308TMC3     C 4689   4.348   3.318   0.683 -0.6176  0.6068 -0.2972
  308TMC3     O 4690   4.361   3.195   0.681  0.3282  0.5729 -0.7493
  308TMC3     H 4691   4.352   3.536   0.831  2.1034  2.2555  2.4606
  308TMC3    H1 4692   4.597   3.249   0.665 -0.2400  1.4162 -1.3233
  308TMC3    H2 4693   0.042   3.550   0.894  0.4812 -0.9851  0.7781
  308TMC3    C7 4694   0.079   3.377   0.711  0.3043 -1.1169 -0.0205
  308TMC3    C8 4695   4.554   3.703   0.917 -0.9060  0.1627 -0.1280
  308TMC3    O1 4696   0.136   3.267   0.701 -0.1084  0.0879 -0.2724
  308TMC3    O2 4697   4.656   3.749   0.963  0.1864 -0.3495  0.2563
  309MPD2     C 4698   3.705   4.065  17.380 -0.0222 -0.5661 -0.7792
  309MPD2    C1 4699   3.652   4.023  17.267 -0.0297  0.2995  0.6463
  309MPD2    C2 4700   3.514   4.011  17.262  0.7882 -0.1239 -0.2869
  309MPD2    C3 4701   3.431   4.026  17.374 -0.3922 -0.6733  0.2580
  309MPD2    C4 4702   3.490   4.078  17.484  0.0847  0.4437 -0.2238
  309MPD2    C5 4703   3.621   4.106  17.486  0.1466  0.3088 -0.0157
  309MPD2     H 4704   3.477   3.969  17.170  6.3758 -2.8717 -1.3045
  309MPD2    H1 4705   3.425   4.119  17.561  1.0194  0.4281  0.5789
  309MPD2    H2 4706   3.811   4.086  17.390 -0.2672  0.7781 -0.8948
  309MPD2    H3 4707   3.676   4.149  17.570 -0.8411 -0.4538  1.0184
  309MPD2     N 4708   3.291   4.017  17.369  0.3279 -0.1034  0.0328
  309MPD2    H5 4709   3.234   4.043  17.449 -0.2292  0.4672 -0.5431
  309MPD2    N1 4710   3.726   4.025  17.143 -0.2766  0.3815 -0.1291
  309MPD2    H7 4711   3.668   4.011  17.061 -2.7232  0.7830  1.5166
  310TMC3    C1 4712   3.899   3.980  17.002  0.2881  0.1581  0.5373
  310TMC3    C2 4713   3.829   4.027  16.895  0.2999 -0.2455 -0.3700
  310TMC3    C3 4714   3.820   3.950  16.783  0.4564  0.2528 -0.0373
  310TMC3    C4 4715   3.955   3.854  17.003 -0.1757  0.7193  0.8185
  310TMC3    C5 4716   3.929   3.779  16.890 -0.6154 -0.4382  0.4545
  310TMC3    C6 4717   3.865   3.821  16.780 -0.1159 -0.7856 -0.2024
  310TMC3     C 4718   3.862   4.013  17.133  0.5416 -0.2965  0.9990
  310TMC3     O 4719   3.937   4.002  17.225  0.6988  0.4977  0.0986
  310TMC3     H 4720   3.784   4.125  16.906  1.0492  0.3873 -2.9800
  310TMC3    H1 4721   4.006   3.816  17.090 -2.2413 -0.7705  1.3679
  310TMC3    H2 4722   3.845   3.754  16.698  0.7067 -1.7573  0.3869
  310TMC3    C7 4723   3.975   3.648  16.902 -0.8681 -0.5437  0.1915
  310TMC3    C8 4724   3.771   3.996  16.656 -0.0120 -0.1297 -0.4190
  310TMC3    O1 4725   3.909   3.571  16.830 -0.6855  0.0798  0.2386
  310TMC3    O2 4726   3.706   3.916  16.597  0.7423 -0.2310  0.1426
  311MPD2     C 4727   1.358   0.206  12.935 -0.2270 -0.0165 -0.5589
  311MPD2    C1 4728   1.294   0.308  12.874  0.6120  0.3230 -0.6989
  311MPD2    C2 4729   1.157   0.316  12.889  0.7799 -0.1568 -0.3031
  311MPD2    C3 4730   1.083   0.218  12.949 -0.0796 -0.5372 -0.4041
  311MPD2    C4 4731   1.146   0.111  13.001 -0.4469 -0.2670  0.1187
  311MPD2    C5 4732   1.281   0.111  12.998  0.2606 -0.4440  0.2670
  311MPD2     H 4733   1.102   0.404  12.859 -1.2196 -0.8486  1.3060
  311MPD2    H1 4734   1.098   0.026  13.047  2.7287 -1.4867  1.1881
  311MPD2    H2 4735   1.466   0.199  12.942 -0.0412  2.7527 -0.7145
  311MPD2    H3 4736   1.321   0.023  13.046  3.6240  0.5210 -0.7508
  311MPD2     N 4737   0.938   0.224  12.941  0.1012  0.2731  0.3364
  311MPD2    H5 4738   0.901   0.308  12.899 -1.3186 -1.3984 -1.7724
  311MPD2    N1 4739   1.352   0.425  12.821  1.0544  0.0399  0.0677
  311MPD2    H7 4740   1.291   0.486  12.768  0.6667  1.1993  1.8672
  312TMC3    C1 4741   0.718   0.181  12.982 -0.1987  0.4623 -0.6735
  312TMC3    C2 4742   0.616   0.104  12.940 -1.0170  0.2424 -0.0660
  312TMC3    C3 4743   0.497   0.167  12.931  0.2782  0.6261  0.4690
  312TMC3    C4 4744   0.703   0.308  13.033 -0.1763 -0.1502 -0.4324
  312TMC3    C5 4745   0.577   0.354  13.039 -1.0773  0.4452 -0.5580
  312TMC3    C6 4746   0.473   0.290  12.981 -1.1467 -0.1356 -0.2949
  312TMC3     C 4747   0.850   0.126  12.978 -1.2118  0.1587 -0.4105
  312TMC3     O 4748   0.856   0.007  13.007 -0.7468  0.3727  0.0467
  312TMC3     H 4749   0.634   0.003  12.905 -1.5842  0.5189 -1.1376
  312TMC3    H1 4750   0.791   0.356  13.074 -0.8331  0.3903  0.3375
  312TMC3    H2 4751   0.368   0.308  13.003 -0.7606  2.0952 -0.3049
  312TMC3    C7 4752   0.547   0.459  13.126 -0.3654 -0.5372 -0.0141
  312TMC3    C8 4753   0.386   0.107  12.861 -0.0698  0.3664  0.2426
  312TMC3    O1 4754   0.451   0.526  13.095  0.1083 -0.5840  0.3675
  312TMC3    O2 4755   0.373   4.723  12.839  0.1176 -0.0091 -0.1113
  313MPD2     C 4756   4.634   0.291  11.364  0.0191 -0.0908  1.0641
  313MPD2    C1 4757   4.735   0.259  11.277 -0.2249 -1.5096 -0.6407
  313MPD2    C2 4758   0.002   0.124  11.240  0.2679 -0.3898  0.2297
  313MPD2    C3 4759   4.654   0.020  11.286  0.4725 -0.6526 -0.1873
  313MPD2    C4 4760   4.548   0.062  11.366  0.6217 -0.3990 -0.4414
  313MPD2    C5 4761   4.542   0.196  11.409 -0.5248 -0.7412 -0.5319
  313MPD2     H 4762   0.072   0.094  11.163  0.0991  0.2099 -0.1545
  313MPD2    H1 4763   4.460   0.009  11.401  0.6389 -0.2876 -0.2304
  313MPD2    H2 4764   4.634   0.393  11.401  1.3522  0.3300 -0.1085
  313MPD2    H3 4765   4.457   0.229  11.468 -1.3035 -1.8463 -1.0386
  313MPD2     N 4766   4.672   4.623  11.236  0.0450 -0.8724  0.5474
  313MPD2    H5 4767   0.004   4.615  11.161 -0.9341 -0.3275 -0.4025
  313MPD2    N1 4768   0.080   0.348  11.210 -0.0743 -0.0007  0.5710
  313MPD2    H7 4769   0.151   0.298  11.158  0.3582  0.6790  0.5001
  314TMC3    C1 4770   0.160   0.547  11.117  0.8023 -0.1825  0.5872
  314TMC3    C2 4771   0.273   0.486  11.085  0.1060 -0.2611 -0.5856
  314TMC3    C3 4772   0.348   0.540  10.982  0.6220 -0.3410  0.8089
  314TMC3    C4 4773   0.107   0.654  11.048  0.4654 -0.0666  0.4256
  314TMC3    C5 4774   0.174   0.700  10.942 -0.4523 -0.2915 -0.1150
  314TMC3    C6 4775   0.300   0.644  10.906 -1.0171 -0.1052 -0.1598
  314TMC3     C 4776   0.075   0.482  11.208  0.5457 -0.6733  0.5563
  314TMC3     O 4777   4.727   0.554  11.259  0.0066 -0.1221  0.2872
  314TMC3     H 4778   0.310   0.401  11.142 -1.6275 -0.8962 -0.4091
  314TMC3    H1 4779   0.015   0.700  11.083  0.2799 -0.0452 -0.0825
  314TMC3    H2 4780   0.361   0.678  10.823  0.2419 -0.0447  0.7885
  314TMC3    C7 4781   0.089   0.706  10.825 -0.6178  0.0874 -0.6087
  314TMC3    C8 4782   0.487   0.503  10.953  0.1020 -0.1696  0.3862
  314TMC3    O1 4783   4.708   0.730  10.841  0.2710 -0.1609  0.3788
  314TMC3    O2 4784   0.551   0.585  10.888  0.3272 -0.6502 -0.7053
  315MPD2     C 4785   0.246   2.990  17.466  0.3523  0.0542 -0.4321
  315MPD2    C1 4786   0.324   3.041  17.566 -0.3328  1.3797 -0.3969
  315MPD2    C2 4787   0.330   3.180  17.579 -0.3994 -0.5517  1.1324
  315MPD2    C3 4788   0.290   3.259  17.476  0.9921  0.3021 -0.2259
  315MPD2    C4 4789   0.227   3.203  17.363  0.0156 -0.0283  0.6540
  315MPD2    C5 4790   0.205   3.067  17.360 -0.8370 -0.1769  0.4164
  315MPD2     H 4791   0.368   3.224  17.670  1.7411  0.4093 -0.2201
  315MPD2    H1 4792   0.198   3.259  17.275 -1.5869 -2.6762 -0.4803
  315MPD2    H2 4793   0.229   2.883  17.457 -1.7767  0.4230 -0.9613
  315MPD2    H3 4794   0.148   3.025  17.277 -0.2387 -0.3889  0.1077
  315MPD2     N 4795   0.311   3.394  17.497 -0.4472 -0.7179 -0.2489
  315MPD2    H5 4796   0.359   3.417  17.583 -1.6995  2.1537 -0.3211
  315MPD2    N1 4797   0.390   2.964  17.664 -0.0198 -0.2212  0.7811
  315MPD2    H7 4798   0.427   3.018  17.742  0.2054  0.3691  0.2623
  316TMC3    C1 4799   0.313   3.626  17.449 -0.4729 -0.4429 -0.1545
  316TMC3    C2 4800   0.409   3.656  17.546 -0.3552  0.3710 -0.3726
  316TMC3    C3 4801   0.455   3.786  17.555 -0.4111  0.3591  0.4370
  316TMC3    C4 4802   0.253   3.725  17.371 -0.1661  1.0353 -0.3677
  316TMC3    C5 4803   0.293   3.856  17.392 -0.1170 -0.4991  0.2297
  316TMC3    C6 4804   0.391   3.886  17.483  0.5846 -0.5505  0.2385
  316TMC3     C 4805   0.273   3.494  17.410 -0.4588 -0.3480  0.1255
  316TMC3     O 4806   0.213   3.493  17.305  0.5653  0.6388  0.1925
  316TMC3     H 4807   0.445   3.581  17.616 -0.0029  0.6658 -0.2392
  316TMC3    H1 4808   0.162   3.711  17.314  1.0820  1.8046 -2.5376
  316TMC3    H2 4809   0.418   3.991  17.496 -2.0168  0.3860 -1.9623
  316TMC3    C7 4810   0.210   3.971  17.363  0.3669 -0.3740 -0.3356
  316TMC3    C8 4811   0.566   3.826  17.637  0.5791 -1.0935 -0.5245
  316TMC3    O1 4812   0.225   4.069  17.430  0.4581  0.2109  0.0635
  316TMC3    O2 4813   0.572   3.941  17.675  0.4742 -0.1929 -0.3373
  317MPD2     C 4814   2.212   2.189  13.079 -0.1151  0.7642 -0.8259
  317MPD2    C1 4815   2.310   2.095  13.100 -0.1058  0.0664  0.1408
  317MPD2    C2 4816   2.306   2.026  13.226  0.6715  0.5029 -0.6273
  317MPD2    C3 4817   2.200   2.051  13.314  0.4405 -0.2894  0.1338
  317MPD2    C4 4818   2.111   2.155  13.289 -0.7318  0.2029 -0.5700
  317MPD2    C5 4819   2.118   2.229  13.171  0.0046  0.4259 -0.6865
  317MPD2     H 4820   2.377   1.953  13.263 -1.2175 -0.3390  1.3175
  317MPD2    H1 4821   2.020   2.180  13.344 -0.8403  0.5424 -0.9024
  317MPD2    H2 4822   2.212   2.256  12.993 -2.4996  0.2725 -1.2174
  317MPD2    H3 4823   2.037   2.298  13.149 -0.1296  0.8381  1.1179
  317MPD2     N 4824   2.172   1.959  13.417  0.2613 -0.2871 -0.2682
  317MPD2    H5 4825   2.244   1.890  13.432 -0.9642 -0.7367  3.6315
  317MPD2    N1 4826   2.427   2.074  13.014 -0.1586  0.1729 -0.1357
  317MPD2    H7 4827   2.509   2.027  13.051 -0.4412 -0.3764 -0.2102
  318TMC3    C1 4828   2.042   1.828  13.547  0.2667  0.2505 -0.1657
  318TMC3    C2 4829   1.962   1.745  13.471 -0.3358  0.4515 -0.2537
  318TMC3    C3 4830   2.012   1.618  13.440 -0.2655  0.2188 -0.0007
  318TMC3    C4 4831   2.162   1.788  13.595 -0.1433 -0.2234  0.2221
  318TMC3    C5 4832   2.204   1.658  13.573  0.7096 -0.7616 -0.0027
  318TMC3    C6 4833   2.133   1.574  13.495  0.6855 -0.3045  0.3268
  318TMC3     C 4834   2.053   1.955  13.494 -0.2348 -0.1195 -0.4289
  318TMC3     O 4835   1.954   2.029  13.503 -0.8076  0.0422  0.2485
  318TMC3     H 4836   1.874   1.799  13.438  0.4638  2.2895  0.6317
  318TMC3    H1 4837   2.221   1.849  13.663 -0.0706  0.7890 -0.7467
  318TMC3    H2 4838   2.183   1.480  13.474 -0.4616 -1.0255  0.7826
  318TMC3    C7 4839   2.336   1.662  13.522 -0.3621 -0.2725 -0.2335
  318TMC3    C8 4840   1.979   1.572  13.305 -0.1739  0.3143  0.7321
  318TMC3    O1 4841   2.368   1.771  13.475 -0.0453  0.6778  0.0617
  318TMC3    O2 4842   2.061   1.500  13.245 -0.2166 -0.5773  0.0785
  319MPD2     C 4843   2.951   3.243  16.790 -0.5554  0.1982  0.2875
  319MPD2    C1 4844   2.865   3.163  16.870 -0.2890 -0.2099 -0.8397
  319MPD2    C2 4845   2.760   3.102  16.805  0.3543 -0.4678  0.0456
  319MPD2    C3 4846   2.733   3.133  16.678 -0.0032  0.3781  0.2962
  319MPD2    C4 4847   2.816   3.206  16.604  0.1706  1.1494  0.1852
  319MPD2    C5 4848   2.925   3.265  16.666  1.1761 -0.3286  0.2900
  319MPD2     H 4849   2.693   3.040  16.864 -1.5906  0.0266 -1.6520
  319MPD2    H1 4850   2.810   3.209  16.496 -2.1414 -1.3787  0.2407
  319MPD2    H2 4851   3.031   3.302  16.832  1.2571 -2.1481  0.1428
  319MPD2    H3 4852   2.982   3.334  16.606  1.1166  0.4086  1.0917
  319MPD2     N 4853   2.620   3.086  16.608 -0.2555  0.5801 -0.0813
  319MPD2    H5 4854   2.617   3.127  16.515 -1.6128  0.7801  0.0523
  319MPD2    N1 4855   2.898   3.128  17.001  0.0808 -0.7241  0.0947
  319MPD2    H7 4856   2.827   3.081  17.055 -1.3375 -2.7058 -3.4659
  320TMC3    C1 4857   2.406   2.980  16.559  0.1195  0.4716  0.9648
  320TMC3    C2 4858   2.391   3.077  16.462  0.3479  0.0949 -0.1460
  320TMC3    C3 4859   2.313   3.042  16.360  0.5354  0.4185  0.2062
  320TMC3    C4 4860   2.345   2.860  16.564  0.5664  0.1348  0.2293
  320TMC3    C5 4861   2.257   2.836  16.466  0.1658 -0.0926 -0.0631
  320TMC3    C6 4862   2.242   2.927  16.361 -0.1282  0.7140 -0.4026
  320TMC3     C 4863   2.523   3.000  16.653  0.1182  0.0208  0.2971
  320TMC3     O 4864   2.529   2.929  16.750  0.3798  0.5458  0.2963
  320TMC3     H 4865   2.449   3.166  16.440 -1.0155  1.2749  1.0096
  320TMC3    H1 4866   2.387   2.797  16.641 -0.3445 -0.9948 -0.2029
  320TMC3    H2 4867   2.171   2.906  16.282 -2.6473  1.2829  1.7073
  320TMC3    C7 4868   2.207   2.702  16.445 -0.1896  0.5961 -0.1722
  320TMC3    C8 4869   2.320   3.125  16.236  0.9410 -1.4516  0.5381
  320TMC3    O1 4870   2.164   2.695  16.330 -0.1303  0.2519  0.1155
  320TMC3    O2 4871   2.324   3.247  16.250  0.4986  0.2350 -0.1852
  321TMC3    C1 4872   3.003   3.122  17.200 -0.0038  0.9149 -0.5603
  321TMC3    C2 4873   2.971   2.993  17.230  0.1480  0.3232  0.1400
  321TMC3    C3 4874   2.986   2.951  17.363 -0.3487  0.0090 -0.3951
  321TMC3    C4 4875   3.083   3.185  17.286  0.6637 -0.4000  0.3395
  321TMC3    C5 4876   3.103   3.143  17.417  0.8553 -0.1438  0.2160
  321TMC3    C6 4877   3.038   3.030  17.462  0.0976  0.0210 -0.4731
  321TMC3     C 4878   3.013   3.166  17.064  0.1245 -0.0679  0.5117
  321TMC3     O 4879   3.110   3.222  17.020  0.1547 -0.0703  0.5475
  321TMC3     H 4880   2.946   2.922  17.152  2.1670 -2.0813  1.6923
  321TMC3    H1 4881   3.096   3.290  17.263  0.2954 -0.2227  0.9355
  321TMC3    H2 4882   3.045   3.000  17.566 -1.8973 -1.0059 -0.6399
  321TMC3    C7 4883   3.242   3.127  17.449 -0.1378  0.3660  0.1233
  321TMC3    C8 4884   3.018   2.810  17.377  0.0452  0.1165 -0.7750
  321TMC3    O1 4885   3.259   3.045  17.535 -0.1311 -0.7332  0.0159
  321TMC3    O2 4886   2.953   2.736  17.305 -0.0375 -0.1546  0.2313
  322MPD2     C 4887   2.012   4.135  13.734 -0.7050  0.9448 -0.1993
  322MPD2    C1 4888   2.088   4.111  13.849  0.1573 -0.5312 -0.0012
  322MPD2    C2 4889   2.179   4.000  13.850  0.2732  0.0139 -0.7677
  322MPD2    C3 4890   2.189   3.916  13.744  1.1167  0.3339  0.2576
  322MPD2    C4 4891   2.102   3.932  13.642 -0.0618 -0.0111 -0.4816
  322MPD2    C5 4892   2.025   4.045  13.631 -0.2958 -0.3406  1.3992
  322MPD2     H 4893   2.260   3.999  13.922 -1.0055 -0.0218  0.6907
  322MPD2    H1 4894   2.102   3.855  13.566  0.1879 -0.3114 -0.1765
  322MPD2    H2 4895   1.940   4.212  13.710 -0.4691  0.7976 -1.3852
  322MPD2    H3 4896   1.974   4.055  13.535  2.3408 -2.1629 -0.1987
  322MPD2     N 4897   2.280   3.809  13.758 -0.5828  0.6634  0.3937
  322MPD2    H5 4898   2.348   3.820  13.833 -0.3388  3.2001 -0.2037
  322MPD2    N1 4899   2.076   4.206  13.952  0.4469  0.0589 -0.0989
  322MPD2    H7 4900   2.021   4.290  13.934  2.3687  1.7018  1.6823
  323TMC3    C1 4901   2.168   4.316  14.133  1.0245 -0.2009 -0.2188
  323TMC3    C2 4902   2.227   4.404  14.047 -0.0917 -0.6203  0.9468
  323TMC3    C3 4903   2.335   4.476  14.091 -0.1972 -0.2988 -0.0554
  323TMC3    C4 4904   2.202   4.301  14.265 -0.3876 -0.0181 -0.7592
  323TMC3    C5 4905   2.314   4.371  14.306  0.1070  0.1287 -0.7450
  323TMC3    C6 4906   2.378   4.461  14.220  0.0117 -0.3813 -0.2250
  323TMC3     C 4907   2.136   4.188  14.072  1.3789 -0.4600 -0.4135
  323TMC3     O 4908   2.162   4.087  14.137  0.2327  0.3678 -0.5521
  323TMC3     H 4909   2.214   4.408  13.939  0.5194 -2.4442  0.8150
  323TMC3    H1 4910   2.157   4.224  14.326  3.3155 -1.3025  0.3618
  323TMC3    H2 4911   2.462   4.521  14.251  1.8506 -3.2924  0.4358
  323TMC3    C7 4912   2.360   4.358  14.440 -0.0251  1.0572 -0.0523
  323TMC3    C8 4913   2.429   4.538  14.004  0.5667  0.0202 -0.3535
  323TMC3    O1 4914   2.395   4.462  14.494  0.0436 -0.0787 -0.4007
  323TMC3    O2 4915   2.544   4.561  14.047 -0.0975 -0.3526  0.2275
  324MPD2     C 4916   3.463   0.120  14.512 -0.3373 -0.0569 -0.7444
  324MPD2    C1 4917   3.474   0.251  14.553  0.0123  0.2607 -0.8146
  324MPD2    C2 4918   3.368   0.336  14.524 -0.0099  0.1497  0.0462
  324MPD2    C3 4919   3.243   0.294  14.468  0.1868 -0.1288  0.0278
  324MPD2    C4 4920   3.234   0.159  14.442 -0.5051  0.1208 -0.4181
  324MPD2    C5 4921   3.341   0.079  14.470 -0.0211 -0.9819  0.3760
  324MPD2     H 4922   3.382   0.443  14.532 -1.4965  0.4653 -1.3637
  324MPD2    H1 4923   3.141   0.126  14.396  1.0631 -1.3934 -2.4763
  324MPD2    H2 4924   3.549   0.054  14.517 -0.9666 -0.8086  0.2916
  324MPD2    H3 4925   3.331   4.713  14.436  1.2775 -0.6716 -0.9800
  324MPD2     N 4926   3.131   0.371  14.430 -0.0547 -0.8820  0.0946
  324MPD2    H5 4927   3.043   0.331  14.400 -0.3767 -1.4818  1.8697
  324MPD2    N1 4928   3.601   0.286  14.614 -0.2970 -0.6040  0.4503
  324MPD2    H7 4929   3.688   0.241  14.588 -0.0093  0.2074 -0.0010
  325TMC3    C1 4930   3.028   0.566  14.335  0.9201  0.0677  0.0554
  325TMC3    C2 4931   2.906   0.511  14.349 -0.1942 -0.4748  0.0994
  325TMC3    C3 4932   2.803   0.572  14.284  0.6953  0.0838 -0.4194
  325TMC3    C4 4933   3.047   0.677  14.260  0.5499  0.4248  0.1580
  325TMC3    C5 4934   2.944   0.739  14.194  0.0440  0.0205 -0.1840
  325TMC3    C6 4935   2.816   0.686  14.213 -0.0120  0.2505 -0.0846
  325TMC3     C 4936   3.147   0.500  14.392  0.4515 -0.1938 -0.1575
  325TMC3     O 4937   3.241   0.578  14.394 -0.0390  0.3188 -0.2996
  325TMC3     H 4938   2.885   0.425  14.411 -0.7857 -0.0134  0.5391
  325TMC3    H1 4939   3.141   0.729  14.248  0.4125  1.2700  2.8763
  325TMC3    H2 4940   2.734   0.710  14.147  0.4382  1.8011 -0.0974
  325TMC3    C7 4941   2.961   0.860  14.118  0.5126  0.2571 -0.1197
  325TMC3    C8 4942   2.673   0.501  14.269  0.1267 -0.1462  0.3730
  325TMC3    O1 4943   3.078   0.890  14.094 -0.6049 -0.2507  0.4621
  325TMC3    O2 4944   2.664   0.380  14.264  0.8318 -0.2434  0.0089
  326MPD2     C 4945   4.612   1.809  10.316 -0.3342  0.5035 -0.2896
  326MPD2    C1 4946   4.576   1.914  10.397 -0.7040  0.1414 -0.3738
  326MPD2    C2 4947   4.673   1.995  10.457 -0.0815  0.5186 -0.0623
  326MPD2    C3 4948   0.067   1.970  10.435 -0.4431 -0.1861 -0.2265
  326MPD2    C4 4949   0.104   1.865  10.351  0.0959  1.1412 -0.2373
  326MPD2    C5 4950   0.010   1.786  10.294 -0.4557  0.4309 -0.0403
  326MPD2     H 4951   4.638   2.062  10.535  1.6880 -1.3312  2.3170
  326MPD2    H1 4952   0.207   1.846  10.324  1.2359  2.2213  3.4099
  326MPD2    H2 4953   4.535   1.738  10.287  0.2814  0.0000 -0.6753
  326MPD2    H3 4954   0.027   1.692  10.242  0.7928 -0.9133  2.8094
  326MPD2     N 4955   0.168   2.051  10.490  0.5625 -0.5006  0.4210
  326MPD2    H5 4956   0.263   2.034  10.458  0.7420 -0.6553  1.0260
  326MPD2    N1 4957   4.442   1.935  10.450 -0.0367  0.2865  0.0282
  326MPD2    H7 4958   4.425   2.014  10.511  1.4492  1.9722 -1.7424
  327TMC3    C1 4959   4.237   1.891  10.533  0.4290 -0.3030  0.1753
  327TMC3    C2 4960   4.196   2.010  10.496 -0.8412  0.9070  0.2340
  327TMC3    C3 4961   4.129   2.078  10.595  0.4944 -0.5074  0.2507
  327TMC3    C4 4962   4.235   1.833  10.656  0.1176  0.2597 -0.7919
  327TMC3    C5 4963   4.170   1.908  10.748 -0.2278 -0.4220  0.0007
  327TMC3    C6 4964   4.107   2.024  10.719  0.0152 -0.1586 -0.8961
  327TMC3     C 4965   4.344   1.837  10.455  0.0549 -0.2657  0.0317
  327TMC3     O 4966   4.341   1.716  10.425  0.0083  0.4776  0.0348
  327TMC3     H 4967   4.208   2.044  10.394 -0.3376  1.2823  0.4147
  327TMC3    H1 4968   4.266   1.731  10.674 -0.1570  0.1226 -1.0754
  327TMC3    H2 4969   4.042   2.070  10.793  0.0823 -0.9539 -0.3430
  327TMC3    C7 4970   4.159   1.857  10.881 -0.7766 -0.2491 -0.4114
  327TMC3    C8 4971   4.119   2.221  10.569 -0.3148 -0.1789  0.4714
  327TMC3    O1 4972   4.056   1.877  10.942 -1.0648  0.7065  0.7410
  327TMC3    O2 4973   4.125   2.259  10.454  0.8299  0.0358  0.4085
  328MPD2     C 4974   2.526   1.969  17.400 -0.8616  0.8375  0.7083
  328MPD2    C1 4975   2.411   1.894  17.419 -0.4139 -0.3188  0.3919
  328MPD2    C2 4976   2.311   1.889  17.321  0.0367  0.0618 -0.7275
  328MPD2    C3 4977   2.330   1.958  17.203 -0.0900  0.1537 -0.1967
  328MPD2    C4 4978   2.445   2.028  17.181 -0.4907  0.6106 -0.0686
  328MPD2    C5 4979   2.539   2.041  17.283  0.9304 -0.0408  0.7108
  328MPD2     H 4980   2.226   1.823  17.331 -0.1019  0.2951 -0.3691
  328MPD2    H1 4981   2.464   2.073  17.084  0.6533 -0.3021 -0.2716
  328MPD2    H2 4982   2.605   1.981  17.474 -1.0323  0.4055  0.9592
  328MPD2    H3 4983   2.630   2.098  17.268  0.3980  0.5117 -0.3902
  328MPD2     N 4984   2.234   1.961  17.094  0.3973 -0.3763  0.3070
  328MPD2    H5 4985   2.251   2.019  17.012  1.2009  1.1324  1.5393
  328MPD2    N1 4986   2.407   1.833  17.545  0.1386  1.0017  0.3699
  328MPD2    H7 4987   2.473   1.875  17.609 -0.1949  2.0996 -0.0042
  329TMC3    C1 4988   2.311   1.719  17.724  0.5459  0.1877 -0.4739
  329TMC3    C2 4989   2.386   1.792   0.064  0.4516  0.3790 -0.0655
  329TMC3    C3 4990   2.355   1.789   0.194 -0.3307  0.8102  0.6991
  329TMC3    C4 4991   2.215   1.627   0.020  0.0012  0.0078  0.2246
  329TMC3    C5 4992   2.172   1.652   0.149  0.2198  1.0479  0.1581
  329TMC3    C6 4993   2.238   1.734   0.241  0.4137 -0.2289 -0.0735
  329TMC3     C 4994   2.325   1.737  17.577 -0.3010  0.1047 -1.0481
  329TMC3     O 4995   2.238   1.679  17.511  0.2081 -0.1851  0.5047
  329TMC3     H 4996   2.473   1.850   0.034 -1.6217  2.9374 -1.0939
  329TMC3    H1 4997   2.164   1.561  17.694  1.2141 -0.2827 -0.3936
  329TMC3    H2 4998   2.211   1.727   0.346  2.3304  2.4874  0.5932
  329TMC3    C7 4999   2.052   1.580   0.189 -0.0086  0.0534  0.0504
  329TMC3    C8 5000   2.390   1.905   0.275  0.2508 -0.3929 -0.4786
  329TMC3    O1 5001   2.029   1.476   0.132 -0.6050  0.5339 -0.2319
  329TMC3    O2 5002   2.508   1.939   0.284 -0.0893  0.7543  0.1083
  330TMC3    C1 5003   0.921   1.737   9.816  0.2089 -0.3215 -0.3438
  330TMC3    C2 5004   0.832   1.683   9.732  0.0571 -0.2060  0.4659
  330TMC3    C3 5005   0.821   1.543   9.723 -0.2779  0.3511  0.4818
  330TMC3    C4 5006   1.001   1.647   9.895 -0.1606  0.4308 -0.0036
  330TMC3    C5 5007   0.987   1.511   9.890 -0.4487  0.0984 -0.5481
  330TMC3    C6 5008   0.896   1.455   9.800 -0.5896 -0.0731  0.7285
  330TMC3     C 5009   0.947   1.878   9.842 -0.8799 -0.3888  0.3107
  330TMC3     O 5010   1.034   1.910   9.919  0.1737  0.1098 -0.6688
  330TMC3     H 5011   0.768   1.743   9.667  1.6413  0.7145 -0.2329
  330TMC3    H1 5012   1.075   1.691   9.961 -2.1553  1.9213  1.2182
  330TMC3    H2 5013   0.889   1.347   9.791 -0.5661  0.0959 -1.4738
  330TMC3    C7 5014   1.062   1.433   9.984  0.0826 -0.7843  0.4245
  330TMC3    C8 5015   0.723   1.479   9.630 -0.8539 -0.0854 -0.0190
  330TMC3    O1 5016   1.094   1.499  10.083 -0.1744  0.4111  0.3007
  330TMC3    O2 5017   0.670   1.558   9.551  0.7293 -0.5432 -0.1599
  331MPD2     C 5018   2.918   4.674  12.499  0.4637 -0.6701  0.2997
  331MPD2    C1 5019   3.012   4.705  12.401 -0.2164  0.4242  0.0053
  331MPD2    C2 5020   3.082   4.597  12.346 -0.1052  0.1125 -0.3446
  331MPD2    C3 5021   3.056   4.467  12.383  0.9368 -0.4305 -0.4683
  331MPD2    C4 5022   2.958   4.439  12.472  0.4775 -0.8850  0.4820
  331MPD2    C5 5023   2.892   4.543  12.541  0.2376  0.2727 -0.0123
  331MPD2     H 5024   3.159   4.621  12.273 -0.4834  1.0059 -0.4468
  331MPD2    H1 5025   2.946   4.338  12.510  1.2821 -1.2006 -0.1124
  331MPD2    H2 5026   2.873   0.020  12.554  1.1577  0.8655 -1.4459
  331MPD2    H3 5027   2.814   4.536  12.616  0.0763 -3.9923 -0.6186
  331MPD2     N 5028   3.141   4.370  12.331 -0.5755  0.1850  0.6103
  331MPD2    H5 5029   3.210   4.400  12.262  0.4973 -2.0070  0.7419
  331MPD2    N1 5030   3.062   0.095  12.372  0.4130 -0.7936 -0.7639
  331MPD2    H7 5031   3.127   0.096  12.294 -0.3331 -2.0433 -1.3958
  332TMC3    C1 5032   3.262   4.172  12.320  0.3719  0.3053 -0.7259
  332TMC3    C2 5033   3.303   4.196  12.191  0.4129 -0.3546  0.0611
  332TMC3    C3 5034   3.437   4.173  12.162  0.7365 -0.4817 -0.4767
  332TMC3    C4 5035   3.359   4.135  12.417 -0.6985 -0.1957 -0.5793
  332TMC3    C5 5036   3.491   4.113  12.384  0.2831 -0.9924  0.0982
  332TMC3    C6 5037   3.532   4.129  12.258  0.5454  0.3624 -0.3276
  332TMC3     C 5038   3.153   4.244  12.385 -0.4402  0.6194  0.3063
  332TMC3     O 5039   3.123   4.203  12.502  0.2939  0.0468 -0.4438
  332TMC3     H 5040   3.236   4.244  12.120  1.1740 -0.2617 -0.5838
  332TMC3    H1 5041   3.336   4.125  12.523 -0.5750 -2.8760 -0.8143
  332TMC3    H2 5042   3.631   4.102  12.224  0.1675 -1.6069  0.1636
  332TMC3    C7 5043   3.579   4.077  12.496 -0.4145  0.0064  0.0092
  332TMC3    C8 5044   3.496   4.201  12.031  0.6078  0.0951 -0.4346
  332TMC3    O1 5045   3.539   4.025  12.600 -0.7277  0.3660 -0.5838
  332TMC3    O2 5046   3.620   4.217  12.027 -0.2010  0.2664  0.4783
  333MPD2     C 5047   3.372   0.987  11.136 -0.4253  0.1791  0.3662
  333MPD2    C1 5048   3.474   0.899  11.112 -0.9375 -0.1993 -0.3253
  333MPD2    C2 5049   3.454   0.770  11.159 -0.0929 -0.0569 -0.3171
  333MPD2    C3 5050   3.346   0.729  11.225 -0.1370 -0.2031  0.3503
  333MPD2    C4 5051   3.249   0.813  11.257 -0.5077 -0.1163  0.5165
  333MPD2    C5 5052   3.261   0.937  11.209 -0.0882  0.2534 -0.0661
  333MPD2     H 5053   3.534   0.698  11.140  1.1828  1.5550 -1.0660
  333MPD2    H1 5054   3.167   0.793  11.325 -0.8296  2.5725  0.9178
  333MPD2    H2 5055   3.393   1.091  11.114  0.1946 -0.3859 -1.7408
  333MPD2    H3 5056   3.186   1.010  11.238 -1.4503 -1.2580  0.2089
  333MPD2     N 5057   3.345   0.592  11.262  0.0941 -0.8240  0.2494
  333MPD2    H5 5058   3.419   0.534  11.223 -1.5329 -2.0659 -0.9877
  333MPD2    N1 5059   3.582   0.942  11.035  0.2085  0.3541  0.2480
  333MPD2    H7 5060   3.579   1.040  11.008  1.0458  0.4750  0.6087
  334TMC3    C1 5061   3.779   0.946  10.907 -0.3267  0.1883  0.0679
  334TMC3    C2 5062   3.854   0.874  10.817 -0.5793  0.3552  0.9499
  334TMC3    C3 5063   3.950   0.946  10.750  0.1078  0.1611 -0.1372
  334TMC3    C4 5064   3.794   1.077  10.928  0.1805  0.0059 -0.3031
  334TMC3    C5 5065   3.878   1.141  10.847  0.1119 -0.1114  0.4973
  334TMC3    C6 5066   3.961   1.085  10.758  0.8365 -0.3038  0.2533
  334TMC3     C 5067   3.683   0.865  10.982  0.0233  0.1235 -0.7217
  334TMC3     O 5068   3.687   0.743  10.977 -0.0203 -0.0353 -0.4955
  334TMC3     H 5069   3.842   0.766  10.812 -1.3989  0.5561 -1.7346
  334TMC3    H1 5070   3.732   1.138  10.992 -1.1759 -1.7598  0.0844
  334TMC3    H2 5071   4.025   1.141  10.691 -0.5411 -1.4435 -2.0121
  334TMC3    C7 5072   3.840   1.278  10.820  0.0693 -0.5093 -0.4976
  334TMC3    C8 5073   4.035   0.871  10.661 -0.8956  0.0807  0.2932
  334TMC3    O1 5074   3.831   1.354  10.921  0.1393 -0.3173  0.3293
  334TMC3    O2 5075   3.992   0.758  10.633  0.0592  0.1182  0.4666
  335TMC3    C1 5076   2.748   1.724  17.701 -1.1551  0.3996  0.7370
  335TMC3    C2 5077   2.682   1.658  17.595 -0.7871 -0.0900  0.1280
  335TMC3    C3 5078   2.716   1.699  17.468 -0.0893 -0.2748 -0.5761
  335TMC3    C4 5079   2.853   1.810  17.675 -0.0753  0.6204 -0.0472
  335TMC3    C5 5080   2.885   1.843  17.544 -0.5149  0.4208  0.3389
  335TMC3    C6 5081   2.825   1.778  17.447  0.1330  0.4707 -0.0451
  335TMC3     C 5082   2.777   1.661   0.081  0.4468 -0.3403 -0.1158
  335TMC3     O 5083   2.735   1.709   0.185 -0.2779 -0.7339  1.0850
  335TMC3     H 5084   2.588   1.608  17.613 -0.6789  0.0753  1.1477
  335TMC3    H1 5085   2.919   1.842   0.012  0.6034  0.2083 -0.4365
  335TMC3    H2 5086   2.865   1.785  17.346 -2.1178  0.2832 -0.9594
  335TMC3    C7 5087   3.017   1.880  17.517 -0.6099 -0.3037 -0.4301
  335TMC3    C8 5088   2.656   1.641  17.352  0.2537  0.4513 -1.0876
  335TMC3    O1 5089   3.075   1.826  17.429 -0.1245  0.1965  0.5227
  335TMC3    O2 5090   2.675   1.695  17.242  0.1905  0.2680 -0.0114
  336MPD2     C 5091   2.288   4.614  16.532  0.2029 -0.2363  0.2652
  336MPD2    C1 5092   2.376   4.585  16.428  0.1432  0.0453 -0.3643
  336MPD2    C2 5093   2.418   4.453  16.402  0.0126 -0.2227 -0.5185
  336MPD2    C3 5094   2.380   4.352  16.478  0.5665  0.7402  0.1983
  336MPD2    C4 5095   2.293   4.381  16.579 -0.2928 -0.3324  0.3680
  336MPD2    C5 5096   2.247   4.510  16.607  0.1303 -0.0697 -0.7884
  336MPD2     H 5097   2.484   4.438  16.318  0.3541 -0.0921 -0.2764
  336MPD2    H1 5098   2.254   4.299  16.639 -3.2393  0.0439 -1.0017
  336MPD2    H2 5099   2.246   4.711  16.558  1.3933  0.7521 -1.5234
  336MPD2    H3 5100   2.176   4.535  16.685 -0.2733 -1.5119 -0.6907
  336MPD2     N 5101   2.423   4.220  16.460 -0.3450 -0.1626  0.1909
  336MPD2    H5 5102   2.385   4.159  16.533 -2.4134  1.8030  0.7765
  336MPD2    N1 5103   2.411   4.685  16.333  0.1458 -0.2526 -0.1223
  336MPD2    H7 5104   2.448   4.652  16.245  0.3042  0.4492 -0.3195
  337TMC3    C1 5105   2.363   0.142  16.206 -0.1917 -0.3169 -0.4566
  337TMC3    C2 5106   2.350   0.060  16.095  0.5427  0.6924  0.4781
  337TMC3    C3 5107   2.284   0.120  15.987  1.1553  0.3832  0.3811
  337TMC3    C4 5108   2.326   0.274  16.206  0.4846  0.2427  0.1255
  337TMC3    C5 5109   2.260   0.328  16.105 -0.4049 -0.3972 -0.7615
  337TMC3    C6 5110   2.237   0.253  15.994  0.6727 -0.0913 -0.1346
  337TMC3     C 5111   2.373   0.082  16.339 -0.2280 -0.1133 -0.2135
  337TMC3     O 5112   2.357   0.150  16.441  0.2156  0.7768  0.7478
  337TMC3     H 5113   2.364   4.689  16.090 -0.7845  0.6730 -2.6983
  337TMC3    H1 5114   2.342   0.322  16.302  0.5979 -2.7099  1.5857
  337TMC3    H2 5115   2.168   0.296  15.921  1.5578 -1.0141 -1.5239
  337TMC3    C7 5116   2.204   0.456  16.112  0.8440  0.1823 -0.0627
  337TMC3    C8 5117   2.195   0.038  15.912  1.0826  0.0244 -0.5201
  337TMC3    O1 5118   2.174   0.495  16.228 -0.0682 -0.3851  0.7895
  337TMC3    O2 5119   2.140   4.691  15.977  0.0374 -0.1085 -0.3588
  338MPD2     C 5120   3.592   4.033   0.913 -0.0525 -0.4970  0.1340
  338MPD2    C1 5121   3.511   3.941   0.847 -0.2405  0.5657 -0.3719
  338MPD2    C2 5122   3.402   3.889   0.913  0.5418  0.4814 -0.1742
  338MPD2    C3 5123   3.376   3.914   1.049 -0.0348  0.3347 -0.4973
  338MPD2    C4 5124   3.457   4.009   1.111  0.5896 -0.3475 -0.4175
  338MPD2    C5 5125   3.568   4.062   1.045 -0.0625 -0.5539  0.4345
  338MPD2     H 5126   3.334   3.817   0.869  2.0297 -0.6903 -0.5385
  338MPD2    H1 5127   3.431   4.049   1.208  1.5215  0.9498 -0.7106
  338MPD2    H2 5128   3.673   4.088   0.866 -0.1463  0.0032  0.5516
  338MPD2    H3 5129   3.622   4.136   1.102 -0.8925  0.8237 -0.5658
  338MPD2     N 5130   3.265   3.856   1.106 -0.6555  0.0380 -0.1423
  338MPD2    H5 5131   3.216   3.786   1.051 -0.4477  0.2543 -0.6107
  338MPD2    N1 5132   3.528   3.906   0.714  0.0524  0.4886  0.3340
  338MPD2    H7 5133   3.461   3.839   0.677  0.4482  1.0215 -1.3500
  339TMC3    C1 5134   3.071   3.848   1.230  0.7123  0.2216 -0.0497
  339TMC3    C2 5135   3.022   3.813   1.353  0.0115  0.3879 -0.5086
  339TMC3    C3 5136   2.889   3.797   1.352 -0.0543  0.3980 -0.6896
  339TMC3    C4 5137   2.987   3.896   1.130  0.1508 -0.6693 -0.3243
  339TMC3    C5 5138   2.853   3.901   1.146 -0.6741 -0.7915 -0.1701
  339TMC3    C6 5139   2.802   3.840   1.254  0.1813 -0.0287  0.2329
  339TMC3     C 5140   3.205   3.900   1.223 -0.2298  0.8664  0.6450
  339TMC3     O 5141   3.250   3.965   1.321  0.3356  0.1748 -0.5314
  339TMC3     H 5142   3.100   3.783   1.422 -2.1341 -3.0913  0.4332
  339TMC3    H1 5143   3.031   3.922   1.035 -1.4920  0.3870 -0.8187
  339TMC3    H2 5144   2.696   3.831   1.273  0.0389  0.8097 -0.1942
  339TMC3    C7 5145   2.784   3.939   1.027 -0.3016 -0.2296 -0.0245
  339TMC3    C8 5146   2.829   3.700   1.445  0.8130  0.0708 -0.0622
  339TMC3    O1 5147   2.843   3.993   0.932  0.0823  0.4291  0.1225
  339TMC3    O2 5148   2.716   3.723   1.485  0.6056  0.1588 -0.0527
  340MPD2     C 5149   3.423   2.108   9.668 -0.7236  0.2483  0.1914
  340MPD2    C1 5150   3.426   1.974   9.703 -0.2292  0.1972  0.2798
  340MPD2    C2 5151   3.482   1.942   9.824 -0.0916  0.2046 -0.0630
  340MPD2    C3 5152   3.533   2.038   9.909  0.9084  0.0609  0.2537
  340MPD2    C4 5153   3.533   2.170   9.867 -0.8979  0.0413  0.1791
  340MPD2    C5 5154   3.472   2.208   9.749 -0.1465 -0.0627  0.0899
  340MPD2     H 5155   3.493   1.838   9.849 -0.7577  0.1546  0.0193
  340MPD2    H1 5156   3.595   2.239   9.923 -1.2799  0.2405  0.3576
  340MPD2    H2 5157   3.398   2.135   9.566 -1.3136  1.4136  0.6352
  340MPD2    H3 5158   3.485   2.309   9.712  0.4401  0.5308  1.9200
  340MPD2     N 5159   3.599   2.020  10.038  0.3238 -0.4018  0.1686
  340MPD2    H5 5160   3.645   2.100  10.082  2.4208 -1.0756 -0.8397
  340MPD2    N1 5161   3.385   1.882   9.607  0.4751 -0.2092 -0.2413
  340MPD2    H7 5162   3.357   1.913   9.515  0.8346 -1.5856 -0.8209
  341TMC3    C1 5163   3.294   1.686   9.511 -0.5073  0.2152  0.4058
  341TMC3    C2 5164   3.218   1.581   9.536  0.7701 -0.2451 -0.3968
  341TMC3    C3 5165   3.216   1.481   9.447  0.3638 -0.4974 -0.0898
  341TMC3    C4 5166   3.377   1.691   9.399  0.2634 -0.2732  0.1753
  341TMC3    C5 5167   3.383   1.584   9.320 -0.1026 -0.1391  0.4283
  341TMC3    C6 5168   3.296   1.480   9.337 -0.2143 -0.4238  0.0966
  341TMC3     C 5169   3.348   1.753   9.629 -0.0412  0.7926  0.2176
  341TMC3     O 5170   3.358   1.684   9.730  0.2311 -0.1761 -0.3460
  341TMC3     H 5171   3.153   1.572   9.622  1.9370  1.9618  0.7104
  341TMC3    H1 5172   3.459   1.762   9.398  0.2281 -0.2404 -0.4528
  341TMC3    H2 5173   3.297   1.382   9.289  3.5889  0.1219 -0.9540
  341TMC3    C7 5174   3.508   1.566   9.255  0.0752 -0.5352  0.6385
  341TMC3    C8 5175   3.185   1.355   9.507 -0.3272  0.4408  0.1054
  341TMC3    O1 5176   3.605   1.607   9.311  0.3660 -0.5167  0.1319
  341TMC3    O2 5177   3.196   1.349   9.628 -0.0414  0.0012 -0.5105
  342MPD2     C 5178   0.568   0.195  17.647  0.0635  0.2917  0.1547
  342MPD2    C1 5179   0.685   0.169  17.575  0.0582  0.1241  0.4583
  342MPD2    C2 5180   0.769   0.271  17.544  0.3255  0.2376 -0.4946
  342MPD2    C3 5181   0.738   0.404  17.562 -0.7798  0.3802 -0.1114
  342MPD2    C4 5182   0.622   0.426  17.635  0.1529 -0.0335 -0.5410
  342MPD2    C5 5183   0.542   0.322  17.679  0.6677  0.2433  0.0351
  342MPD2     H 5184   0.859   0.236  17.494 -0.1941 -2.0779  0.1982
  342MPD2    H1 5185   0.591   0.521  17.677 -1.6953 -1.6840  1.8805
  342MPD2    H2 5186   0.494   0.124  17.684  0.3903  0.3721  0.9645
  342MPD2    H3 5187   0.459   0.345   0.001  0.7332 -0.5426  0.3928
  342MPD2     N 5188   0.828   0.500  17.511 -0.4424 -0.0113  0.2491
  342MPD2    H5 5189   0.812   0.592  17.552 -0.3974 -0.0899  0.4465
  342MPD2    N1 5190   0.718   0.043  17.535 -0.5585  0.0209 -0.4966
  342MPD2    H7 5191   0.813   0.035  17.497  0.0560  2.0079  0.6292
  343TMC3    C1 5192   0.703   4.584  17.442 -0.3872  0.2167 -0.8827
  343TMC3    C2 5193   0.791   4.630  17.346 -0.0153 -0.2000 -0.3586
  343TMC3    C3 5194   0.856   4.543  17.270  0.0229 -0.8590  0.2937
  343TMC3    C4 5195   0.673   4.448  17.458  0.1128 -0.2507  0.2037
  343TMC3    C5 5196   0.733   4.369  17.368 -0.6397  0.0717 -0.5356
  343TMC3    C6 5197   0.822   4.412  17.276  0.0888 -0.1360 -0.3790
  343TMC3     C 5198   0.633   4.681  17.515 -0.3729  1.1762  0.3186
  343TMC3     O 5199   0.520   4.663  17.558 -0.2739  0.1194  0.7421
  343TMC3     H 5200   0.798   4.734  17.315 -1.9975  0.6355  1.9062
  343TMC3    H1 5201   0.595   4.412  17.524  0.1584  1.9948  1.5102
  343TMC3    H2 5202   0.873   4.334  17.222  0.9724 -0.6202  1.1503
  343TMC3    C7 5203   0.713   4.233  17.371  0.1625  0.3968 -0.0116
  343TMC3    C8 5204   0.988   4.583  17.234 -0.0988  0.2884  0.1034
  343TMC3    O1 5205   0.608   4.195  17.316  0.2859  0.5756 -0.2647
  343TMC3    O2 5206   1.030   4.687  17.280  0.5651  0.6507 -0.1548
  344MPD2     C 5207   2.247   4.037  11.306 -0.0385 -0.0399 -0.1278
  344MPD2    C1 5208   2.190   3.996  11.192 -0.2813 -0.5249 -0.0312
  344MPD2    C2 5209   2.156   4.090  11.096  0.2542  0.9207  0.4336
  344MPD2    C3 5210   2.211   4.219  11.108  0.2094  0.2471 -0.3431
  344MPD2    C4 5211   2.278   4.252  11.221 -0.1773  0.0890  0.6002
  344MPD2    C5 5212   2.291   4.165  11.322 -0.3163 -0.4536  0.4015
  344MPD2     H 5213   2.105   4.066  11.003  2.8007  0.3386 -0.7979
  344MPD2    H1 5214   2.317   4.351  11.240 -0.3184  0.5473 -1.5097
  344MPD2    H2 5215   2.260   3.967  11.388  0.4723  3.0843  2.4672
  344MPD2    H3 5216   2.343   4.195  11.412  1.8188 -0.1746 -0.9104
  344MPD2     N 5217   2.209   4.325  11.014  0.0568  0.1484  0.7194
  344MPD2    H5 5218   2.258   4.411  11.037  0.2368 -0.1620  1.4779
  344MPD2    N1 5219   2.144   3.861  11.186  0.1577  0.0014  0.4628
  344MPD2    H7 5220   2.070   3.844  11.119 -1.5600  1.4599  1.9822
  345TMC3    C1 5221   2.189   4.433  10.806 -0.4890 -0.6798 -0.4619
  345TMC3    C2 5222   2.270   4.535  10.850 -0.4389  0.7286 -0.2076
  345TMC3    C3 5223   2.263   4.649  10.778 -0.0873  0.0777  0.3402
  345TMC3    C4 5224   2.102   4.450  10.698 -0.2472  0.1117 -0.2535
  345TMC3    C5 5225   2.089   4.573  10.639 -0.1418  0.1572  0.9161
  345TMC3    C6 5226   2.173   4.672  10.677 -0.5590  0.8292  0.5091
  345TMC3     C 5227   2.171   4.312  10.883 -0.0680  0.2692  0.7803
  345TMC3     O 5228   2.106   4.222  10.835  0.4087  0.0726 -0.2509
  345TMC3     H 5229   2.347   4.521  10.925  0.5909 -0.8398 -1.5572
  345TMC3    H1 5230   2.045   4.368  10.658  1.0038  0.0999 -2.0032
  345TMC3    H2 5231   2.191   0.025  10.619 -0.6141  0.4605 -0.0731
  345TMC3    C7 5232   2.025   4.583  10.509 -0.3657  0.1348 -0.4625
  345TMC3    C8 5233   2.351   0.022  10.803 -0.0824  0.4839  0.4179
  345TMC3    O1 5234   1.970   4.481  10.463 -0.4797  0.3403  0.0668
  345TMC3    O2 5235   2.375   0.089  10.703  0.3468 -0.2847 -0.2439
  346MPD2     C 5236   1.608   1.184  13.941 -0.8369 -0.4473 -0.1533
  346MPD2    C1 5237   1.704   1.094  13.909 -0.0716 -0.3410 -1.0664
  346MPD2    C2 5238   1.827   1.111  13.980  0.7663 -0.1598 -0.1555
  346MPD2    C3 5239   1.850   1.206  14.075  0.3215 -0.1059 -0.6232
  346MPD2    C4 5240   1.740   1.295  14.104  0.2590  0.4174  0.4750
  346MPD2    C5 5241   1.631   1.290  14.024  0.2418  0.5438 -0.9162
  346MPD2     H 5242   1.899   1.031  13.963  0.4458  0.0478 -2.5415
  346MPD2    H1 5243   1.745   1.373  14.179 -1.4509 -0.9949  2.0627
  346MPD2    H2 5244   1.509   1.178  13.895 -1.1603  0.2704  0.4521
  346MPD2    H3 5245   1.553   1.366  14.025 -0.4615 -0.2228  1.4129
  346MPD2     N 5246   1.980   1.211  14.131  0.1150 -0.3508 -0.4560
  346MPD2    H5 5247   2.051   1.152  14.089  1.7453  1.7223 -0.6590
  346MPD2    N1 5248   1.691   1.002  13.808  0.1206 -0.4650  0.5242
  346MPD2    H7 5249   1.778   0.955  13.786  0.5866 -0.5417  2.5416
  347TMC3    C1 5250   2.157   1.294  14.266  0.5004  0.1509  0.1735
  347TMC3    C2 5251   2.229   1.303  14.154  0.3803 -0.8216 -0.2801
  347TMC3    C3 5252   2.358   1.341  14.163  0.0121 -0.1540 -0.0492
  347TMC3    C4 5253   2.205   1.322  14.393  0.1623 -0.0470 -0.0195
  347TMC3    C5 5254   2.340   1.359  14.393 -0.2786  0.2218 -0.1898
  347TMC3    C6 5255   2.416   1.372  14.284  0.8021 -0.0715  0.2301
  347TMC3     C 5256   2.015   1.280  14.243  0.2292 -0.2334  0.6198
  347TMC3     O 5257   1.948   1.342  14.323 -0.1290  0.4164 -0.3739
  347TMC3     H 5258   2.194   1.282  14.053 -0.4531  0.1578 -0.1994
  347TMC3    H1 5259   2.143   1.317  14.482  0.1655 -3.4341 -0.2263
  347TMC3    H2 5260   2.520   1.402  14.297  1.3585 -1.3741 -1.2591
  347TMC3    C7 5261   2.401   1.340  14.522 -0.1494 -0.1425  0.2038
  347TMC3    C8 5262   2.453   1.270  14.077 -0.5393  0.4682 -0.0185
  347TMC3    O1 5263   2.331   1.358  14.622 -0.1968 -0.2953 -0.1166
  347TMC3    O2 5264   2.420   1.169  14.018 -0.1669 -0.1802  0.4153
  348MPD2     C 5265   1.071   1.273  12.188 -0.6594  0.2521  0.2245
  348MPD2    C1 5266   1.129   1.215  12.080  0.0191  0.0952 -0.2525
  348MPD2    C2 5267   1.095   1.272  11.956 -0.1212  0.6097 -0.0463
  348MPD2    C3 5268   1.003   1.379  11.944  0.1965 -0.1881 -0.1657
  348MPD2    C4 5269   0.935   1.421  12.056 -0.6827  0.4433 -0.4588
  348MPD2    C5 5270   0.962   1.357  12.176 -0.0015 -0.8493 -0.2883
  348MPD2     H 5271   1.150   1.239  11.869  0.3000  1.2358 -0.0209
  348MPD2    H1 5272   0.859   1.498  12.055  0.7088  1.8125  0.4388
  348MPD2    H2 5273   1.079   1.232  12.288 -1.8842 -0.3200  0.0855
  348MPD2    H3 5274   0.908   1.386  12.265  0.9506  0.8246 -0.2435
  348MPD2     N 5275   0.981   1.418  11.817  0.5854 -0.5689 -0.0390
  348MPD2    H5 5276   1.018   1.367  11.738  0.3385  0.6644 -0.9419
  348MPD2    N1 5277   1.217   1.109  12.087  0.6318 -0.5309 -0.0118
  348MPD2    H7 5278   1.243   1.077  11.994 -0.7638  0.3960 -0.7339
  349TMC3    C1 5279   1.325   0.920  12.174  0.2678  0.1466  0.2102
  349TMC3    C2 5280   1.312   0.810  12.256 -0.1888 -0.5398  0.4246
  349TMC3    C3 5281   1.335   0.681  12.205 -0.5535 -0.5281 -0.6298
  349TMC3    C4 5282   1.364   0.898  12.043 -0.1716 -0.1125  0.0897
  349TMC3    C5 5283   1.384   0.770  11.996 -0.8626  0.1938 -0.7437
  349TMC3    C6 5284   1.362   0.659  12.071 -0.3244  0.4688  0.1712
  349TMC3     C 5285   1.245   1.037  12.202 -0.2043  0.5366  0.8938
  349TMC3     O 5286   1.214   1.058  12.317 -0.3952 -0.1561  0.2095
  349TMC3     H 5287   1.266   0.810  12.354 -0.5421 -0.1413  0.2578
  349TMC3    H1 5288   1.398   0.974  11.974 -2.6310  0.3856 -0.5700
  349TMC3    H2 5289   1.364   0.561  12.024 -0.6018 -0.1497  1.4362
  349TMC3    C7 5290   1.385   0.753  11.853  0.0574  0.1616 -0.1267
  349TMC3    C8 5291   1.335   0.566  12.288  0.3069 -0.2746 -0.2397
  349TMC3    O1 5292   1.342   0.842  11.785  0.1289 -0.2199 -0.4458
  349TMC3    O2 5293   1.256   0.570  12.382  0.0026 -0.4044 -0.0133
  350MPD2     C 5294   0.530   4.140  10.631 -0.1701 -0.3831  0.5482
  350MPD2    C1 5295   0.422   4.054  10.629 -0.2849  0.0686  0.1088
  350MPD2    C2 5296   0.327   4.077  10.723  0.0338 -0.3182 -0.3404
  350MPD2    C3 5297   0.324   4.182  10.811  0.0858 -0.3403  0.4516
  350MPD2    C4 5298   0.432   4.260  10.809  0.5519 -0.4253 -0.0027
  350MPD2    C5 5299   0.533   4.246  10.717  0.4094 -0.5991 -0.3329
  350MPD2     H 5300   0.241   4.011  10.718  0.5128 -0.9525 -0.1116
  350MPD2    H1 5301   0.447   4.340  10.880  1.7034 -0.0910 -0.6202
  350MPD2    H2 5302   0.614   4.124  10.564  0.1655 -0.3961  0.9765
  350MPD2    H3 5303   0.609   4.321  10.735 -1.5735  0.9713  1.4852
  350MPD2     N 5304   0.218   4.198  10.913  0.2380  0.2745 -0.4845
  350MPD2    H5 5305   0.153   4.121  10.917  0.6941 -0.0980 -0.3025
  350MPD2    N1 5306   0.418   3.960  10.528  0.4973 -0.3470 -0.4278
  350MPD2    H7 5307   0.499   3.957  10.467  0.1853 -1.6293 -0.7884
  351TMC3    C1 5308   0.348   3.790  10.378  0.1541 -0.0149  0.2328
  351TMC3    C2 5309   0.449   3.837  10.294 -0.6713  0.3944  0.0809
  351TMC3    C3 5310   0.458   3.780  10.171 -0.4661 -0.3491 -0.2213
  351TMC3    C4 5311   0.263   3.698  10.338 -0.9101 -0.2950 -0.0977
  351TMC3    C5 5312   0.283   3.633  10.221  0.1528  0.9239  0.0871
  351TMC3    C6 5313   0.378   3.678  10.134  0.4742 -0.1319 -0.0837
  351TMC3     C 5314   0.309   3.875  10.492 -0.0678  0.2129 -0.0962
  351TMC3     O 5315   0.198   3.865  10.542  0.1265 -0.5125 -0.1987
  351TMC3     H 5316   0.506   3.928  10.309  1.1357 -1.1179  2.2267
  351TMC3    H1 5317   0.201   3.643  10.407 -1.3095  0.6864  0.3332
  351TMC3    H2 5318   0.368   3.664  10.027 -0.5734  0.9333 -0.1362
  351TMC3    C7 5319   0.166   3.577  10.162 -0.1161 -0.7849 -0.4815
  351TMC3    C8 5320   0.569   3.814  10.090  0.4667  0.3063 -0.2454
  351TMC3    O1 5321   0.058   3.601  10.213  0.4193  0.5079 -0.2694
  351TMC3    O2 5322   0.546   3.801   9.971  0.1191 -0.1760  0.0315
  352MPD2     C 5323   3.268   0.983   1.457 -0.0738 -0.2202  0.2063
  352MPD2    C1 5324   3.167   0.927   1.387 -1.1001 -0.4192 -0.1272
  352MPD2    C2 5325   3.144   0.788   1.384  0.6438 -0.3472 -0.0832
  352MPD2    C3 5326   3.204   0.707   1.476 -0.2097  0.5028 -0.0120
  352MPD2    C4 5327   3.302   0.765   1.560  0.8782  0.5552 -0.0275
  352MPD2    C5 5328   3.334   0.899   1.549  0.3780  1.1112  0.6104
  352MPD2     H 5329   3.076   0.733   1.319  1.0305  0.5765 -1.2838
  352MPD2    H1 5330   3.362   0.708   1.631  1.8326  0.9106 -0.5451
  352MPD2    H2 5331   3.292   1.089   1.460 -1.8799  0.2128 -1.0506
  352MPD2    H3 5332   3.402   0.945   1.620  1.1151  1.2797 -0.2158
  352MPD2     N 5333   3.179   0.566   1.492  0.4311  0.1824 -0.1626
  352MPD2    H5 5334   3.241   0.521   1.560 -1.6113 -3.1386 -0.4789
  352MPD2    N1 5335   3.097   1.021   1.306 -0.1947  0.3243 -0.5206
  352MPD2    H7 5336   3.133   1.115   1.319 -0.9041  0.4151  0.7240
  353TMC3    C1 5337   3.090   0.350   1.470  1.5522  0.4079  0.2485
  353TMC3    C2 5338   3.175   0.293   1.552  0.2216 -0.4421  0.2410
  353TMC3    C3 5339   3.181   0.156   1.547  0.2311 -0.0145 -0.3273
  353TMC3    C4 5340   2.998   0.277   1.404  0.7823  0.2222 -0.3503
  353TMC3    C5 5341   3.000   0.140   1.404  0.1988 -0.3910 -0.2072
  353TMC3    C6 5342   3.087   0.078   1.481 -0.0379 -0.8161 -0.3864
  353TMC3     C 5343   3.091   0.487   1.429  0.6984  0.5793 -0.0691
  353TMC3     O 5344   3.000   0.527   1.356  0.3657  0.1877 -0.3472
  353TMC3     H 5345   3.232   0.353   1.621  0.0031  0.3653 -0.2776
  353TMC3    H1 5346   2.927   0.326   1.339 -0.5081 -2.2053 -0.7547
  353TMC3    H2 5347   3.096   4.707   1.468  0.6085 -0.6786 -1.0719
  353TMC3    C7 5348   3.007   0.089   1.272 -0.5880  0.1167 -0.9281
  353TMC3    C8 5349   3.298   0.092   1.616 -0.1391  0.3845 -0.0656
  353TMC3    O1 5350   3.054   0.164   1.190  0.1272  0.8153  0.4360
  353TMC3    O2 5351   3.328   0.152   1.716 -0.6895  0.0731  0.3993
  354TMC3    C1 5352   4.321   2.063  13.516  0.0001  0.1192 -0.8231
  354TMC3    C2 5353   4.384   2.186  13.501  0.1937 -0.4460 -0.1640
  354TMC3    C3 5354   4.336   2.279  13.403 -0.5819  0.4476 -0.3456
  354TMC3    C4 5355   4.219   2.021  13.433  0.0057  0.2383 -0.2376
  354TMC3    C5 5356   4.187   2.107  13.329  0.0308  0.8362  0.3373
  354TMC3    C6 5357   4.234   2.241  13.321  0.0304 -1.2140 -0.3602
  354TMC3     C 5358   4.367   1.972  13.615  1.1175 -0.1288 -0.0888
  354TMC3     O 5359   4.362   1.855  13.598 -0.1166 -0.2640  0.5211
  354TMC3     H 5360   4.470   2.217  13.560  0.5807  0.7751 -1.3594
  354TMC3    H1 5361   4.201   1.914  13.424 -2.5347  0.6866 -0.2072
  354TMC3    H2 5362   4.186   2.317  13.262  0.7635  0.7117  1.5078
  354TMC3    C7 5363   4.210   2.049  13.204  0.2888  0.0480 -0.3129
  354TMC3    C8 5364   4.432   2.363  13.328 -0.5976  0.2794  0.9324
  354TMC3    O1 5365   4.151   1.946  13.169  0.1789 -0.2987  0.4240
  354TMC3    O2 5366   4.419   2.354  13.204 -0.4088  0.6297 -0.0646
  355MPD2     C 5367   0.081   2.865  11.879 -0.0819  0.2552 -0.2420
  355MPD2    C1 5368   0.189   2.826  11.797 -0.2937  0.1673  0.5152
  355MPD2    C2 5369   0.314   2.850  11.854  0.3243 -0.2442 -0.6906
  355MPD2    C3 5370   0.336   2.923  11.963  0.1830 -0.1284 -0.1378
  355MPD2    C4 5371   0.226   2.967  12.033  0.2910  0.1301  0.0283
  355MPD2    C5 5372   0.100   2.940  11.994  0.4368  0.0953 -0.5710
  355MPD2     H 5373   0.396   2.802  11.802  0.8990  0.5156 -0.4889
  355MPD2    H1 5374   0.240   3.023  12.125  1.0315  0.3563 -0.2152
  355MPD2    H2 5375   4.722   2.827  11.843  0.6109 -1.6923 -0.0441
  355MPD2    H3 5376   0.016   2.984  12.048  1.2747  0.2016  0.6594
  355MPD2     N 5377   0.466   2.947  12.015  0.1703 -0.7951  0.3667
  355MPD2    H5 5378   0.480   2.995  12.103 -2.2668  2.8789 -1.2452
  355MPD2    N1 5379   0.165   2.751  11.679 -0.2871  0.1209  0.1395
  355MPD2    H7 5380   0.070   2.725  11.652 -0.6350 -0.7595  2.1785
  356TMC3    C1 5381   0.704   2.942  12.028  1.1241  0.8201  0.2595
  356TMC3    C2 5382   0.816   2.989  11.961 -0.1657  0.2728  0.3251
  356TMC3    C3 5383   0.904   3.071  12.031  0.6961  0.6004  0.0362
  356TMC3    C4 5384   0.685   2.967  12.163 -0.3274  0.3851  0.2925
  356TMC3    C5 5385   0.782   3.042  12.226 -0.0809 -0.5052 -0.0598
  356TMC3    C6 5386   0.897   3.088  12.165  0.0436  0.0979 -0.0280
  356TMC3     C 5387   0.583   2.921  11.950  0.4801 -0.0291 -0.1208
  356TMC3     O 5388   0.597   2.898  11.833  0.0677 -0.1228 -0.1303
  356TMC3     H 5389   0.815   2.980  11.853  3.3198 -0.7710  0.3950
  356TMC3    H1 5390   0.604   2.932  12.226 -0.8847 -1.4685 -1.4577
  356TMC3    H2 5391   0.969   3.151  12.216  0.3464  1.6090 -2.3243
  356TMC3    C7 5392   0.761   3.050  12.367 -0.5345  0.5299 -0.4554
  356TMC3    C8 5393   0.995   3.139  11.947  0.4461 -0.3656 -0.0351
  356TMC3    O1 5394   0.694   2.974  12.428 -0.1403  0.3410 -1.2561
  356TMC3    O2 5395   0.983   3.122  11.826  0.1451  0.9323  0.0722
  357MPD2     C 5396   4.128   0.625   0.358  0.2659  0.7620  0.4444
  357MPD2    C1 5397   4.247   0.693   0.372  0.1479  0.7919  0.0516
  357MPD2    C2 5398   4.333   0.645   0.466  0.2766  0.3710  1.0022
  357MPD2    C3 5399   4.309   0.531   0.540  0.4566  0.7308  0.4610
  357MPD2    C4 5400   4.200   0.455   0.511  0.0415  0.0138  0.6994
  357MPD2    C5 5401   4.115   0.502   0.417 -0.1478  0.2265  0.4928
  357MPD2     H 5402   4.431   0.691   0.478  0.8323 -0.0109 -2.1394
  357MPD2    H1 5403   4.181   0.363   0.565 -2.0789 -0.1309 -0.2986
  357MPD2    H2 5404   4.046   0.657   0.295  0.9433 -1.7107 -1.7094
  357MPD2    H3 5405   4.027   0.443   0.394  0.0191 -0.3406  1.3186
  357MPD2     N 5406   4.404   0.477   0.635  0.0017 -0.1661  0.1777
  357MPD2    H5 5407   4.391   0.386   0.676 -0.9699 -0.0728  0.0899
  357MPD2    N1 5408   4.254   0.815   0.309  0.2892 -0.0278  0.3056
  357MPD2    H7 5409   4.167   0.846   0.267  0.9583  1.5459  0.0577
  358TMC3    C1 5410   4.334   1.026   0.247  0.2348 -0.6155 -0.1096
  358TMC3    C2 5411   4.431   1.122   0.266  0.3519  0.9342 -0.2008
  358TMC3    C3 5412   4.423   1.238   0.200  0.7707 -0.1123 -0.0281
  358TMC3    C4 5413   4.240   1.041   0.155 -0.9368  0.5468  0.1127
  358TMC3    C5 5414   4.243   1.160   0.083 -0.6436 -0.0422  0.2040
  358TMC3    C6 5415   4.343   1.257   0.090  0.5426 -0.1089 -0.0651
  358TMC3     C 5416   4.358   0.896   0.305  0.2467 -0.3354  0.1439
  358TMC3     O 5417   4.476   0.871   0.341 -0.6335 -0.2804  0.0850
  358TMC3     H 5418   4.514   1.098   0.332 -1.0885 -1.4514  0.7353
  358TMC3    H1 5419   4.173   0.958   0.133 -0.9192  0.0485  1.8894
  358TMC3    H2 5420   4.336   1.360   0.057 -1.3044  0.7151  2.8944
  358TMC3    C7 5421   4.126   1.178  17.743 -0.0689  0.1695 -0.2901
  358TMC3    C8 5422   4.505   1.355   0.243 -0.6553  0.3173  0.6601
  358TMC3    O1 5423   4.024   1.113   0.028  0.0563 -0.3163 -0.0152
  358TMC3    O2 5424   4.522   1.456   0.171  0.3671 -0.3779 -0.1288
  359MPD2     C 5425   0.638   1.479  12.670  1.1875 -0.1508 -0.0408
  359MPD2    C1 5426   0.560   1.492  12.559 -1.0829  0.0350 -0.2509
  359MPD2    C2 5427   0.436   1.435  12.559  0.0012  0.5316 -0.1940
  359MPD2    C3 5428   0.387   1.366  12.672 -0.2869  0.1211 -0.0633
  359MPD2    C4 5429   0.475   1.345  12.777 -0.2418 -0.3820  0.1431
  359MPD2    C5 5430   0.597   1.402  12.771  0.7687  0.2935  0.3860
  359MPD2     H 5431   0.383   1.443  12.465 -0.2706  2.0390  0.0900
  359MPD2    H1 5432   0.448   1.278  12.858  0.1075  0.5596  1.0509
  359MPD2    H2 5433   0.739   1.518  12.673  1.1689 -0.0625 -0.4657
  359MPD2    H3 5434   0.667   1.395  12.853  0.5518 -3.3144  0.2663
  359MPD2     N 5435   0.256   1.324  12.695  0.2089  0.2966 -0.4963
  359MPD2    H5 5436   0.228   1.278  12.781 -0.9853  1.8419 -0.0490
  359MPD2    N1 5437   0.599   1.577  12.447 -0.1350 -0.4339 -0.0512
  359MPD2    H7 5438   0.534   1.568  12.370 -1.9533 -0.8685  1.5292
  360TMC3    C1 5439   0.731   1.720  12.321 -0.0129 -0.1029  0.4301
  360TMC3    C2 5440   0.861   1.765  12.302 -0.4765  0.6021  0.4833
  360TMC3    C3 5441   0.890   1.787  12.166 -0.3934  0.4124 -0.3815
  360TMC3    C4 5442   0.628   1.725  12.230  0.4397  0.1417 -0.4204
  360TMC3    C5 5443   0.662   1.775  12.106 -0.0053  0.0176 -1.2035
  360TMC3    C6 5444   0.787   1.803  12.072  0.2492 -0.3092 -0.3096
  360TMC3     C 5445   0.716   1.649  12.446  0.1412  0.3065  0.1465
  360TMC3     O 5446   0.803   1.669  12.529 -0.7168 -0.2081  0.1540
  360TMC3     H 5447   0.934   1.724  12.370 -0.5750 -0.1970  0.1108
  360TMC3    H1 5448   0.527   1.691  12.252  0.8618 -1.3044 -0.7011
  360TMC3    H2 5449   0.804   1.831  11.969  1.9464  0.6530  0.2240
  360TMC3    C7 5450   0.563   1.767  12.000  0.2423 -0.2791 -0.1162
  360TMC3    C8 5451   1.027   1.823  12.135  0.1108 -0.2347 -0.0071
  360TMC3    O1 5452   0.600   1.726  11.893  0.6182  0.1707 -0.3905
  360TMC3    O2 5453   1.095   1.865  12.225 -1.2532 -0.5058  0.6718
  361MPD2     C 5454   1.999   0.498  16.617  0.3889  0.3724 -0.0225
  361MPD2    C1 5455   1.969   0.486  16.752  0.4086 -0.2571 -0.3570
  361MPD2    C2 5456   2.060   0.421  16.843 -0.1807  0.3700 -0.4319
  361MPD2    C3 5457   2.187   0.398  16.791  0.1864  0.4408 -0.1517
  361MPD2    C4 5458   2.220   0.434  16.661  0.2642  0.4845  1.1711
  361MPD2    C5 5459   2.126   0.469  16.569 -0.0653 -0.1456  0.2123
  361MPD2     H 5460   2.024   0.406  16.944  0.4323 -2.4550 -0.6119
  361MPD2    H1 5461   2.323   0.423  16.628 -0.6212 -1.4114 -0.9445
  361MPD2    H2 5462   1.931   0.534  16.541  0.7665 -2.2086 -1.5869
  361MPD2    H3 5463   2.146   0.485  16.464  2.3549 -1.6849  0.4323
  361MPD2     N 5464   2.295   0.348  16.860  0.3128 -0.2063 -0.2839
  361MPD2    H5 5465   2.369   0.314  16.799 -1.2440  0.2055 -2.4261
  361MPD2    N1 5466   1.838   0.522  16.800  0.2815  0.0673 -0.1309
  361MPD2    H7 5467   1.828   0.522  16.901 -0.2077  1.6506 -0.1766
  362TMC3    C1 5468   1.612   0.607  16.791 -0.2699  0.1091 -0.2151
  362TMC3    C2 5469   1.623   0.669  16.912 -0.0813 -0.3419 -0.4295
  362TMC3    C3 5470   1.537   0.773  16.941  0.3186  0.1106 -0.4459
  362TMC3    C4 5471   1.515   0.647  16.701  0.8420  0.2475  0.0561
  362TMC3    C5 5472   1.420   0.744  16.737  0.2169 -1.0876 -0.2583
  362TMC3    C6 5473   1.435   0.813  16.855  0.1581 -0.2691 -0.2909
  362TMC3     C 5474   1.733   0.557  16.724 -0.3000 -0.3517 -0.6924
  362TMC3     O 5475   1.725   0.560  16.603  0.1430  0.2096 -0.0784
  362TMC3     H 5476   1.708   0.649  16.975 -0.0403  0.2460 -0.2939
  362TMC3    H1 5477   1.520   0.605  16.602  1.0284  2.1813 -0.7548
  362TMC3    H2 5478   1.367   0.889  16.892  2.1689  0.7611  1.2974
  362TMC3    C7 5479   1.370   0.825  16.621 -0.0034 -0.3230  0.3864
  362TMC3    C8 5480   1.580   0.856  17.050  0.0663 -0.5759  0.1401
  362TMC3    O1 5481   1.373   0.946  16.642 -0.1465  0.2530 -0.6209
  362TMC3    O2 5482   1.697   0.853  17.078  0.0427 -0.4432 -0.6147
  363TMC3    C1 5483   1.236   3.347   9.183  0.4771  0.0018 -0.5095
  363TMC3    C2 5484   1.289   3.246   9.256 -0.1892  0.2771  0.6270
  363TMC3    C3 5485   1.371   3.280   9.362 -0.1743  0.2093 -0.1126
  363TMC3    C4 5486   1.239   3.476   9.225  0.1886 -0.3834  0.4006
  363TMC3    C5 5487   1.327   3.506   9.330  0.4519 -0.0332 -0.0143
  363TMC3    C6 5488   1.398   3.410   9.398  0.8304  0.3044  0.3768
  363TMC3     C 5489   1.140   3.303   9.085  0.0617 -0.0163 -0.0811
  363TMC3     O 5490   1.059   3.389   9.057 -0.0938  0.3879  0.7227
  363TMC3     H 5491   1.255   3.143   9.255 -0.6700  0.4430 -0.4789
  363TMC3    H1 5492   1.172   3.545   9.176 -1.4410 -1.6479  0.8512
  363TMC3    H2 5493   1.458   3.436   9.484  0.7377 -2.4038  1.2653
  363TMC3    C7 5494   1.308   3.636   9.388 -0.4930  0.2897 -0.7333
  363TMC3    C8 5495   1.416   3.187   9.462  0.1526 -0.2444 -1.1153
  363TMC3    O1 5496   1.210   3.704   9.358 -0.4360 -0.1391  0.1347
  363TMC3    O2 5497   1.463   3.230   9.569  0.2131 -0.3174  0.3308
  364MPD2     C 5498   4.198   2.692  10.749  0.5270 -0.8093 -0.1464
  364MPD2    C1 5499   4.199   2.649  10.623  0.6041 -0.3855 -0.0914
  364MPD2    C2 5500   4.183   2.517  10.592 -0.3801  0.2641  0.2977
  364MPD2    C3 5501   4.164   2.427  10.694 -0.4745  0.2049 -0.3740
  364MPD2    C4 5502   4.174   2.476  10.821  0.1796  0.4502 -0.1659
  364MPD2    C5 5503   4.194   2.605  10.857  0.6991 -0.4188 -0.3535
  364MPD2     H 5504   4.173   2.487  10.488  2.8133  0.4862 -0.0880
  364MPD2    H1 5505   4.173   2.406  10.904 -0.9885  0.5571 -0.0927
  364MPD2    H2 5506   4.211   2.798  10.770 -0.7632 -1.2982  3.0318
  364MPD2    H3 5507   4.189   2.634  10.961 -1.6268  0.7041 -0.7889
  364MPD2     N 5508   4.129   2.291  10.689 -0.7152 -0.0550 -0.4468
  364MPD2    H5 5509   4.120   2.247  10.780  1.2172  1.8420  0.6646
  364MPD2    N1 5510   4.246   2.747  10.529 -0.9448 -0.0456 -0.7557
  364MPD2    H7 5511   4.247   2.842  10.563 -2.3500 -0.0448 -0.6973
  365TMC3    C1 5512   4.348   2.848  10.339  0.1004 -0.9306  0.0309
  365TMC3    C2 5513   4.416   2.818  10.228 -0.0462  0.3583  0.0792
  365TMC3    C3 5514   4.528   2.893  10.200 -0.2500 -0.4643 -0.3437
  365TMC3    C4 5515   4.381   2.955  10.425  0.5469  0.3260 -0.0493
  365TMC3    C5 5516   4.484   3.036  10.385 -0.1909  0.2160 -0.3226
  365TMC3    C6 5517   4.561   3.007  10.271  0.0797  0.5309  0.1405
  365TMC3     C 5518   4.297   2.726  10.405 -0.6392  0.0630 -0.7932
  365TMC3     O 5519   4.315   2.619  10.346  0.2519  0.0817 -0.0706
  365TMC3     H 5520   4.388   2.733  10.167  1.2052 -1.0982  1.5307
  365TMC3    H1 5521   4.321   2.996  10.505  1.4284  1.3558  0.0788
  365TMC3    H2 5522   4.652   3.064  10.254 -0.0360  0.3397 -1.1006
  365TMC3    C7 5523   4.506   3.171  10.441 -0.2230  0.1783 -0.0844
  365TMC3    C8 5524   4.627   2.814  10.130  0.0049  0.1172  0.0293
  365TMC3    O1 5525   4.537   3.260  10.365 -0.2339  0.3832 -0.2105
  365TMC3    O2 5526   4.597   2.705  10.084 -0.7286 -0.1982 -0.4924
  366MPD2     C 5527   2.387   3.291  15.248  0.4913  0.5994  0.3490
  366MPD2    C1 5528   2.476   3.379  15.321 -0.1564 -0.2606  0.1946
  366MPD2    C2 5529   2.537   3.317  15.418 -0.1703  0.2063  0.3488
  366MPD2    C3 5530   2.537   3.187  15.445 -0.4481 -0.1617  0.2912
  366MPD2    C4 5531   2.462   3.105  15.372  0.2729 -0.1818  0.0229
  366MPD2    C5 5532   2.389   3.160  15.272  0.4805  0.7964  0.0121
  366MPD2     H 5533   2.597   3.385  15.477 -0.0884  0.7069 -0.3165
  366MPD2    H1 5534   2.451   2.999  15.394  1.6461 -0.2869  0.1937
  366MPD2    H2 5535   2.340   3.335  15.161  2.0426 -0.8109 -1.2112
  366MPD2    H3 5536   2.337   3.093  15.204  0.5717  0.1199  0.6085
  366MPD2     N 5537   2.630   3.135  15.535 -0.1110 -0.3966  0.0488
  366MPD2    H5 5538   2.693   3.200  15.580 -0.5991 -0.7472  1.2553
  366MPD2    N1 5539   2.504   3.512  15.292  0.1677 -0.0332 -0.2724
  366MPD2    H7 5540   2.566   3.560  15.356 -1.2055  1.5749 -0.1637
  367TMC3    C1 5541   2.500   3.713  15.184  0.1106  0.1953 -0.0166
  367TMC3    C2 5542   2.609   3.753  15.256  0.6913  0.3265  0.1180
  367TMC3    C3 5543   2.628   3.881  15.292  0.7775 -0.1441  0.0008
  367TMC3    C4 5544   2.400   3.801  15.152 -0.4240 -0.3327  0.2936
  367TMC3    C5 5545   2.416   3.932  15.197 -0.0381 -0.2013  0.6164
  367TMC3    C6 5546   2.526   3.972  15.268 -0.1461  0.2269  0.0122
  367TMC3     C 5547   2.452   3.587  15.187  0.5421  0.4266  0.1550
  367TMC3     O 5548   2.359   3.551  15.115 -0.1645 -0.1620  0.2442
  367TMC3     H 5549   2.689   3.681  15.270  1.9122  1.5021 -0.7660
  367TMC3    H1 5550   2.314   3.763  15.098 -0.9080 -1.2913  1.7348
  367TMC3    H2 5551   2.531   4.078  15.290  2.9659 -0.2141  1.3246
  367TMC3    C7 5552   2.322   4.025  15.146  0.2411 -0.6800  0.3962
  367TMC3    C8 5553   2.738   3.908  15.386  0.9831 -0.1262  0.7414
  367TMC3    O1 5554   2.310   4.131  15.203  0.3266  0.3587 -0.1606
  367TMC3    O2 5555   2.833   3.829  15.395 -0.2748  0.2897 -0.2751
  368MPD2     C 5556   3.415   0.339  13.297 -0.2870 -0.3087 -0.6851
  368MPD2    C1 5557   3.441   0.444  13.206  0.2474 -0.2688 -0.4125
  368MPD2    C2 5558   3.572   0.484  13.178  0.4210 -0.1489 -0.6767
  368MPD2    C3 5559   3.678   0.428  13.248  0.2282 -0.3862 -0.3945
  368MPD2    C4 5560   3.650   0.333  13.344 -0.3004 -0.1579  0.1372
  368MPD2    C5 5561   3.524   0.292  13.359 -0.3181  0.3036 -0.0662
  368MPD2     H 5562   3.600   0.549  13.096 -0.2935  0.3576 -0.5128
  368MPD2    H1 5563   3.736   0.284  13.388 -1.7028 -3.2000 -0.5248
  368MPD2    H2 5564   3.320   0.290  13.312 -0.4363  0.5309  1.0789
  368MPD2    H3 5565   3.516   0.213  13.433  0.0315  0.5323  0.2215
  368MPD2     N 5566   3.810   0.459  13.211  0.0902  0.4261 -0.3948
  368MPD2    H5 5567   3.824   0.539  13.150  1.8328 -1.8317 -2.9885
  368MPD2    N1 5568   3.322   0.499  13.145 -0.5145 -0.4274 -0.3407
  368MPD2    H7 5569   3.238   0.450  13.174  0.6183 -1.5523  0.9899
  369TMC3    C1 5570   3.201   0.659  13.032  0.3681 -1.4577 -0.1272
  369TMC3    C2 5571   3.212   0.789  12.972 -0.4127  0.2921  0.8962
  369TMC3    C3 5572   3.102   0.867  12.975  0.3887 -0.2004  0.2493
  369TMC3    C4 5573   3.083   0.613  13.081  0.4009  0.1390 -0.0260
  369TMC3    C5 5574   2.976   0.685  13.059 -0.4883 -0.4287  0.8376
  369TMC3    C6 5575   2.983   0.809  13.007 -0.1500 -0.6702  0.1482
  369TMC3     C 5576   3.326   0.590  13.040 -0.3941  0.1368 -0.0726
  369TMC3     O 5577   3.423   0.640  12.983 -0.1474 -0.4398 -0.1509
  369TMC3     H 5578   3.308   0.828  12.942  1.1560 -2.3404  2.4643
  369TMC3    H1 5579   3.073   0.507  13.103 -0.8525  0.2077 -0.2251
  369TMC3    H2 5580   2.900   0.879  13.006  0.3554 -0.1050 -1.4186
  369TMC3    C7 5581   2.853   0.644  13.126  0.4490  0.2406 -0.2535
  369TMC3    C8 5582   3.110   1.016  12.940  0.3598  0.3433 -0.8947
  369TMC3    O1 5583   2.866   0.553  13.210 -0.2135 -0.3243  0.3808
  369TMC3    O2 5584   3.004   1.068  12.901 -0.0600 -0.2070  0.1801
  370TMC3    C1 5585   2.635   1.306  16.348 -0.7876 -0.6312  0.4131
  370TMC3    C2 5586   2.563   1.247  16.450  0.0912 -0.1005  0.4731
  370TMC3    C3 5587   2.526   1.115  16.443 -0.5102 -0.3003  0.4608
  370TMC3    C4 5588   2.665   1.230  16.236  0.1650 -0.4794  0.0477
  370TMC3    C5 5589   2.599   1.113  16.225  0.3188  0.2417  0.1737
  370TMC3    C6 5590   2.545   1.042  16.332 -0.1879  0.0652 -0.2695
  370TMC3     C 5591   2.752   1.374  16.402 -0.2593  0.2514 -0.1296
  370TMC3     O 5592   2.773   1.364  16.522  0.1297 -0.0234  0.3429
  370TMC3     H 5593   2.544   1.296  16.545  2.6561 -0.3833  1.1408
  370TMC3    H1 5594   2.686   1.291  16.149 -0.6025  0.4656  0.5215
  370TMC3    H2 5595   2.488   0.950  16.327  1.0847 -0.7426  0.1489
  370TMC3    C7 5596   2.652   1.023  16.121 -0.1757  0.0778 -0.0560
  370TMC3    C8 5597   2.580   1.037  16.558 -0.1913 -0.2568  0.7002
  370TMC3    O1 5598   2.759   1.048  16.071 -0.3798 -0.2338  0.1719
  370TMC3    O2 5599   2.617   0.921  16.531  0.7526  0.1025  0.1012
  371TMC3    C1 5600   3.996   4.240  15.634  0.3071  0.2562 -0.2973
  371TMC3    C2 5601   3.872   4.267  15.582  0.5293 -0.6243 -0.1256
  371TMC3    C3 5602   3.836   4.401  15.590 -0.0505 -0.3600  0.9531
  371TMC3    C4 5603   4.081   4.334  15.678 -0.3447 -0.5706  0.0985
  371TMC3    C5 5604   4.040   4.465  15.677  0.4050  0.2032 -0.3360
  371TMC3    C6 5605   3.919   4.506  15.623 -0.6749  0.0418 -0.1205
  371TMC3     C 5606   4.005   4.114  15.702  0.0995  0.3821  0.9498
  371TMC3     O 5607   4.055   4.109  15.815 -0.0861 -0.2836  0.2014
  371TMC3     H 5608   3.798   4.189  15.565  0.8116 -0.8740 -0.2202
  371TMC3    H1 5609   4.174   4.306  15.726  0.0888  0.9166  0.1469
  371TMC3    H2 5610   3.890   4.610  15.609 -0.0538  0.0198 -1.5753
  371TMC3    C7 5611   4.132   4.578  15.685  0.0190 -0.2081 -0.1013
  371TMC3    C8 5612   3.697   4.436  15.548  0.5786  0.2399  0.1221
  371TMC3    O1 5613   4.086   4.692  15.679  0.0787 -0.0282  0.4864
  371TMC3    O2 5614   3.625   4.348  15.498  0.2758 -0.1947  0.0700
  372MPD2     C 5615   4.044   0.898  13.373  0.4175 -0.0388  0.7841
  372MPD2    C1 5616   4.148   0.838  13.438  0.1701 -0.8523  0.2542
  372MPD2    C2 5617   4.120   0.724  13.505  0.2444  0.4477 -0.0020
  372MPD2    C3 5618   3.995   0.675  13.521  0.0962 -0.6768  0.8431
  372MPD2    C4 5619   3.891   0.740  13.452  0.2706 -0.2980 -0.0133
  372MPD2    C5 5620   3.918   0.847  13.375  0.2841  0.5408 -0.0271
  372MPD2     H 5621   4.204   0.672  13.548 -0.7342  0.3225  1.7505
  372MPD2    H1 5622   3.792   0.698  13.466  0.7644 -1.1777  0.8737
  372MPD2    H2 5623   4.059   0.985  13.310  1.9804 -0.0422  1.1538
  372MPD2    H3 5624   3.845   0.890  13.307  2.2340  0.9143 -1.9012
  372MPD2     N 5625   3.987   0.564  13.607  0.3257  0.0845  0.1023
  372MPD2    H5 5626   4.066   0.536  13.665 -0.9054  0.0948  1.7621
  372MPD2    N1 5627   4.285   0.887  13.438 -0.4032 -0.3853 -0.3034
  372MPD2    H7 5628   4.348   0.831  13.493  0.8867  0.7474 -0.6358
  373TMC3    C1 5629   3.911   0.357  13.683 -0.1031 -0.6599 -1.1344
  373TMC3    C2 5630   3.812   0.266  13.683  1.2337 -0.1889  0.3386
  373TMC3    C3 5631   3.842   0.131  13.657 -0.0976  0.3109  0.2328
  373TMC3    C4 5632   4.037   0.320  13.648 -0.5487 -0.4765 -0.1334
  373TMC3    C5 5633   4.061   0.187  13.613 -0.6393 -0.4075 -0.3892
  373TMC3    C6 5634   3.961   0.092  13.618 -0.6893  0.1772 -0.0720
  373TMC3     C 5635   3.874   0.489  13.633 -0.0112 -0.7985  0.6653
  373TMC3     O 5636   3.755   0.508  13.607 -0.5033  0.0116  0.0769
  373TMC3     H 5637   3.711   0.305  13.693  1.0347 -0.9718  1.4403
  373TMC3    H1 5638   4.121   0.385  13.669 -0.0342 -1.8630  2.1931
  373TMC3    H2 5639   3.978   4.724  13.594  0.5721  0.6623 -1.2064
  373TMC3    C7 5640   4.198   0.145  13.607  0.2524  0.9093  0.5480
  373TMC3    C8 5641   3.745   0.023  13.674  0.0252  0.1140  0.0764
  373TMC3    O1 5642   4.281   0.206  13.669 -0.4768 -0.5474 -0.5739
  373TMC3    O2 5643   3.727   4.692  13.575 -0.2837  0.1821  0.3396
  374TMC3    C1 5644   0.055   1.090   9.737 -0.2610  0.0824  0.5800
  374TMC3    C2 5645   0.136   1.205   9.757  0.3835  0.3809  0.1142
  374TMC3    C3 5646   0.175   1.276   9.648  0.8662  0.1894  0.1646
  374TMC3    C4 5647   0.024   1.048   9.610  0.6473 -0.5840 -0.3944
  374TMC3    C5 5648   0.058   1.125   9.507 -0.5669 -0.1583  0.5476
  374TMC3    C6 5649   0.132   1.241   9.521  0.9155 -0.5444  0.4800
  374TMC3     C 5650   0.045   0.999   9.847 -0.1793 -0.2228 -0.5735
  374TMC3     O 5651   0.136   1.008   9.926 -0.8198  0.8481 -0.2817
  374TMC3     H 5652   0.161   1.236   9.857  1.0545 -0.7633  0.3024
  374TMC3    H1 5653   4.718   0.950   9.593 -2.1902  0.3008  1.4577
  374TMC3    H2 5654   0.169   1.283   9.429 -0.5379  0.1338  0.2035
  374TMC3    C7 5655   0.014   1.093   9.373  0.2313 -0.5488 -0.2151
  374TMC3    C8 5656   0.261   1.389   9.655 -0.1277  0.3607 -0.5481
  374TMC3    O1 5657   0.100   1.095   9.288  0.7044 -0.8131 -0.3218
  374TMC3    O2 5658   0.269   1.451   9.550  0.3109 -0.2649 -0.2426
  375MPD2     C 5659   4.241   1.629  17.208 -0.0842 -0.9213 -0.2116
  375MPD2    C1 5660   4.139   1.663  17.125  0.6072  0.9878 -0.0754
  375MPD2    C2 5661   4.116   1.604  17.003 -0.7052  0.0921 -0.6060
  375MPD2    C3 5662   4.195   1.503  16.965  0.6823 -0.0100  0.3280
  375MPD2    C4 5663   4.306   1.467  17.037  0.3578 -0.5171  0.4496
  375MPD2    C5 5664   4.323   1.524  17.161  0.1728 -0.4253  0.0728
  375MPD2     H 5665   4.030   1.629  16.941 -0.1534  1.0188 -0.9858
  375MPD2    H1 5666   4.369   1.384  17.008 -1.4107 -1.4758 -0.6515
  375MPD2    H2 5667   4.276   1.669  17.302  1.0513 -2.1197 -0.1166
  375MPD2    H3 5668   4.397   1.486  17.230  2.8082  1.9817 -1.4586
  375MPD2     N 5669   4.182   1.435  16.844  0.2309  0.2907 -0.3350
  375MPD2    H5 5670   4.249   1.360  16.831 -2.3961 -2.6127  3.2859
  375MPD2    N1 5671   4.056   1.772  17.163  0.5973  0.4931  0.5379
  375MPD2    H7 5672   3.992   1.802  17.091  0.1924 -0.7247  0.3821
  376TMC3    C1 5673   4.120   1.378  16.628 -0.3933  0.3884 -0.8891
  376TMC3    C2 5674   4.249   1.345  16.595  0.0065  0.0971  0.2304
  376TMC3    C3 5675   4.268   1.281  16.467 -0.3009 -0.1223  0.7807
  376TMC3    C4 5676   4.010   1.346  16.545  0.2682 -0.9492  1.2623
  376TMC3    C5 5677   4.036   1.293  16.420  0.5651  0.6585  0.5113
  376TMC3    C6 5678   4.159   1.255  16.383 -0.6457  0.0286  0.2788
  376TMC3     C 5679   4.088   1.461  16.744 -0.2915 -0.2267  0.3595
  376TMC3     O 5680   3.978   1.521  16.748 -0.5184 -0.2107  0.1171
  376TMC3     H 5681   4.337   1.367  16.654  0.0783  2.6871 -0.8375
  376TMC3    H1 5682   3.915   1.396  16.557  0.3529 -0.3622 -0.5430
  376TMC3    H2 5683   4.176   1.202  16.290  0.1316  2.0036 -0.6898
  376TMC3    C7 5684   3.930   1.298  16.325 -0.2779  0.0239 -0.1793
  376TMC3    C8 5685   4.401   1.243  16.435  0.3340 -0.2710  0.1237
  376TMC3    O1 5686   3.815   1.275  16.360  0.1072  0.2801  1.0337
  376TMC3    O2 5687   4.483   1.285  16.517 -0.3670  0.0933  0.5294
  377MPD2     C 5688   2.595   1.034  12.645  0.6093  0.2246 -0.0582
  377MPD2    C1 5689   2.666   0.916  12.667  0.0195 -0.2733 -0.4793
  377MPD2    C2 5690   2.586   0.803  12.707 -0.2883 -0.3808 -0.0693
  377MPD2    C3 5691   2.455   0.821  12.747  0.2139 -0.6149 -0.0065
  377MPD2    C4 5692   2.393   0.942  12.729 -0.3858 -0.0695 -0.5515
  377MPD2    C5 5693   2.463   1.048  12.680  0.4215  0.1163 -0.6071
  377MPD2     H 5694   2.642   0.711  12.721  1.0137  0.1313 -1.8744
  377MPD2    H1 5695   2.291   0.963  12.758  0.1366  0.6034  0.7795
  377MPD2    H2 5696   2.644   1.117  12.595 -0.5521  0.3567 -0.9961
  377MPD2    H3 5697   2.411   1.141  12.665 -0.7022 -0.3552  0.3274
  377MPD2     N 5698   2.373   0.718  12.801  0.0794 -0.2899 -0.2908
  377MPD2    H5 5699   2.280   0.747  12.831  1.1077  0.0399  2.5352
  377MPD2    N1 5700   2.802   0.922  12.647 -0.0531 -0.3440  0.4444
  377MPD2    H7 5701   2.834   1.010  12.608 -1.3685 -0.4484 -0.8596
  378TMC3    C1 5702   3.205   0.972  12.602  0.4922  0.8380 -0.2417
  378TMC3    C2 5703   3.072   0.958  12.624  0.4970  0.0306 -0.1231
  378TMC3    C3 5704   3.019   0.835  12.620  0.0239 -0.1903  0.3833
  378TMC3    C4 5705   3.292   0.867  12.583 -0.5034 -0.1615 -0.0761
  378TMC3    C5 5706   3.234   0.744  12.589  0.9906  0.4061  0.0920
  378TMC3    C6 5707   3.100   0.724  12.611 -0.5529 -0.4223 -0.4476
  378TMC3     C 5708   3.233   1.098  12.536  0.2152  0.2344  0.2086
  378TMC3     O 5709   3.154   1.153  12.461  0.1329 -0.2238  0.1230
  378TMC3     H 5710   3.011   1.045  12.647 -1.4927 -0.9823 -1.5527
  378TMC3    H1 5711   3.394   0.877  12.549 -0.3636 -0.2624  0.3100
  378TMC3    H2 5712   3.062   0.624  12.594 -0.9224 -0.4910  0.7782
  378TMC3    C7 5713   3.302   0.633  12.524  0.6547  0.2754  0.1123
  378TMC3    C8 5714   2.885   0.812  12.660  0.0895 -0.5397 -0.2549
  378TMC3    O1 5715   3.283   0.522  12.571  0.0321 -1.0302  0.5128
  378TMC3    O2 5716   2.857   0.696  12.696  0.4093  0.0603 -0.0666
  379MPD2     C 5717   3.777   4.299  16.245 -0.2939  0.4401  0.1028
  379MPD2    C1 5718   3.699   4.188  16.272  0.3662  0.4328 -0.0433
  379MPD2    C2 5719   3.703   4.126  16.393 -0.3462  0.3555  0.3716
  379MPD2    C3 5720   3.794   4.177  16.486  0.1452 -0.2344 -0.3820
  379MPD2    C4 5721   3.872   4.288  16.464  0.3801  0.1210  0.5833
  379MPD2    C5 5722   3.866   4.348  16.343 -0.4179  0.3992 -0.6656
  379MPD2     H 5723   3.643   4.037  16.404  0.0513  0.0085 -0.2397
  379MPD2    H1 5724   3.933   4.336  16.540  0.0647  1.5053 -0.0535
  379MPD2    H2 5725   3.786   4.345  16.148  1.7295  1.2362  0.6667
  379MPD2    H3 5726   3.931   4.430  16.316  2.7361 -1.8108  0.2221
  379MPD2     N 5727   3.816   4.121  16.615  0.3039  0.0536 -0.0543
  379MPD2    H5 5728   3.866   4.178  16.683  0.7953 -1.2142  0.6543
  379MPD2    N1 5729   3.610   4.148  16.167 -0.9143  0.2855 -0.1340
  379MPD2    H7 5730   3.641   4.169  16.072 -0.7593 -2.0312 -0.6033
  380TMC3    C1 5731   3.444   4.032  16.059  0.3180  0.4802  0.3250
  380TMC3    C2 5732   3.534   4.012  15.954  0.0724  0.3224  0.1177
  380TMC3    C3 5733   3.478   3.962  15.840  0.1327 -0.2254  0.0780
  380TMC3    C4 5734   3.303   4.020  16.040 -0.0927 -0.0050 -0.2799
  380TMC3    C5 5735   3.251   3.990  15.920  0.3834  0.4971 -0.5888
  380TMC3    C6 5736   3.342   3.962  15.812  0.1299  0.3596 -0.1519
  380TMC3     C 5737   3.497   4.079  16.181  0.3102 -0.4101  0.0529
  380TMC3     O 5738   3.438   4.051  16.285 -0.2601  0.5796  0.0344
  380TMC3     H 5739   3.640   4.030  15.964  0.1634  1.9404 -3.7172
  380TMC3    H1 5740   3.236   4.061  16.115 -1.8181 -0.1123 -1.7776
  380TMC3    H2 5741   3.313   3.941  15.710  0.0080 -1.2570  0.2082
  380TMC3    C7 5742   3.130   4.070  15.889 -0.3781 -0.0175  0.7522
  380TMC3    C8 5743   3.558   3.989  15.724  0.0116 -0.4707  0.6969
  380TMC3    O1 5744   3.097   4.152  15.966  0.5735  0.1024 -0.5566
  380TMC3    O2 5745   3.620   4.093  15.727  0.0779 -0.8963  0.3036
  381TMC3    C1 5746   2.810   0.290  16.261 -0.1898  0.0448 -0.0437
  381TMC3    C2 5747   2.826   0.418  16.227 -0.1428 -0.1510 -0.2740
  381TMC3    C3 5748   2.862   0.515  16.322  0.0481 -0.5606 -0.3266
  381TMC3    C4 5749   2.816   0.256  16.396 -0.2402  0.1770  0.5847
  381TMC3    C5 5750   2.839   0.355  16.492  0.3052  0.6809 -0.3436
  381TMC3    C6 5751   2.870   0.485  16.456  0.9880  0.0488  0.3568
  381TMC3     C 5752   2.783   0.193  16.168  0.0111 -0.4614  0.2224
  381TMC3     O 5753   2.829   0.082  16.179  0.3492 -0.0913 -0.3217
  381TMC3     H 5754   2.833   0.433  16.120 -1.4050 -1.0468 -0.4785
  381TMC3    H1 5755   2.822   0.151  16.423 -2.2390  0.0275  0.4461
  381TMC3    H2 5756   2.899   0.553  16.536  2.5704 -1.4584  1.0787
  381TMC3    C7 5757   2.847   0.328  16.633 -0.5397  0.8713  0.0815
  381TMC3    C8 5758   2.947   0.615  16.263  0.1244  0.1287 -0.1921
  381TMC3    O1 5759   2.879   0.218  16.677  0.2032  0.3835 -0.1929
  381TMC3    O2 5760   2.986   0.591  16.150  0.1918  0.1563  0.0966
  382MPD2     C 5761   2.256   3.242  16.746 -0.2438  0.7632 -0.2623
  382MPD2    C1 5762   2.340   3.261  16.852  0.1682  0.0132  0.3416
  382MPD2    C2 5763   2.348   3.156  16.944 -0.2115 -0.9895  0.8614
  382MPD2    C3 5764   2.275   3.042  16.932 -0.4753 -0.1939  0.1001
  382MPD2    C4 5765   2.193   3.031  16.822  0.2866  0.3029  0.4549
  382MPD2    C5 5766   2.181   3.133  16.735  0.4158 -0.4859  0.1868
  382MPD2     H 5767   2.434   3.153  17.010 -0.1742 -2.0346  0.7658
  382MPD2    H1 5768   2.143   2.936  16.809  0.4982  0.3561 -0.7472
  382MPD2    H2 5769   2.253   3.311  16.663  0.4442  0.8981 -0.1711
  382MPD2    H3 5770   2.123   3.111  16.647 -2.0456 -0.9769  1.9204
  382MPD2     N 5771   2.276   2.929  17.017 -0.4804  0.4369 -0.6953
  382MPD2    H5 5772   2.239   2.842  16.980 -0.9262 -0.4275  1.8190
  382MPD2    N1 5773   2.428   3.374  16.851 -0.0296  0.1228  0.5262
  382MPD2    H7 5774   2.423   3.438  16.772  0.1430 -0.0401  0.3824
  383TMC3    C1 5775   2.329   2.801  17.215 -0.3558  0.3610 -0.1342
  383TMC3    C2 5776   2.232   2.710  17.179 -0.4115  0.6659 -0.7339
  383TMC3    C3 5777   2.211   2.600  17.260 -0.3254  0.4094 -0.6617
  383TMC3    C4 5778   2.381   2.797  17.340 -0.5263 -0.8099  0.0959
  383TMC3    C5 5779   2.363   2.685  17.412 -1.0825  0.2562 -0.1451
  383TMC3    C6 5780   2.273   2.585  17.380 -0.3924 -0.1046  0.1414
  383TMC3     C 5781   2.334   2.926  17.140  0.0500 -0.5140 -0.0881
  383TMC3     O 5782   2.387   3.024  17.190 -0.1977 -0.3028 -0.1812
  383TMC3     H 5783   2.179   2.716  17.085 -1.2889  0.7025 -0.2387
  383TMC3    H1 5784   2.457   2.867  17.373 -2.5465  1.4120  0.0572
  383TMC3    H2 5785   2.260   2.504  17.451 -3.3255  2.2024  2.2166
  383TMC3    C7 5786   2.426   2.678  17.537 -0.3106 -0.2343  0.1911
  383TMC3    C8 5787   2.097   2.522  17.246 -0.0313  0.2904 -0.0388
  383TMC3    O1 5788   2.370   2.628  17.631  0.5884 -0.2835  0.6368
  383TMC3    O2 5789   2.009   2.563  17.176 -0.4861 -0.1881  0.2281
  384MPD2     C 5790   3.998   3.863  11.621  0.1900  0.4866 -0.2215
  384MPD2    C1 5791   4.034   3.863  11.755 -0.1377  0.1580  0.1780
  384MPD2    C2 5792   4.128   3.953  11.795 -0.1011 -0.3344  0.5254
  384MPD2    C3 5793   4.189   4.041  11.710 -0.3723  0.0543 -0.3283
  384MPD2    C4 5794   4.146   4.046  11.582 -0.1727 -0.3967 -0.7153
  384MPD2    C5 5795   4.061   3.949  11.531 -0.4587  0.4779  0.1445
  384MPD2     H 5796   4.172   3.945  11.894 -0.1371 -2.4922  0.3695
  384MPD2    H1 5797   4.200   4.113  11.515  0.0160  1.2925  1.1460
  384MPD2    H2 5798   3.914   3.811  11.577  1.0679 -0.2424 -1.0632
  384MPD2    H3 5799   4.032   3.939  11.427  2.8728  2.0055 -0.9275
  384MPD2     N 5800   4.295   4.108  11.761 -0.0593  0.3891 -0.5006
  384MPD2    H5 5801   4.296   4.100  11.863 -0.8132 -1.4647 -0.6487
  384MPD2    N1 5802   3.966   3.791  11.855  0.3497  0.4449 -0.2032
  384MPD2    H7 5803   4.016   3.793  11.943  0.1460  0.4184 -0.0873
  385TMC3    C1 5804   4.501   4.224  11.796 -0.6237 -0.5070 -0.0056
  385TMC3    C2 5805   4.624   4.158  11.789  0.3984 -0.3666  0.5405
  385TMC3    C3 5806   4.686   4.095  11.897 -0.4377  0.0815  0.4831
  385TMC3    C4 5807   4.458   4.226  11.924  0.1425 -0.1522  0.3394
  385TMC3    C5 5808   4.516   4.170  12.034  0.0144  0.3247 -0.1229
  385TMC3    C6 5809   4.632   4.103  12.021  1.1813  0.0966  0.3802
  385TMC3     C 5810   4.402   4.172  11.701 -0.5923  0.1498 -0.7143
  385TMC3     O 5811   4.420   4.172  11.578 -0.1468  0.0708 -0.0689
  385TMC3     H 5812   4.681   4.173  11.698  0.6986  0.4930  0.8693
  385TMC3    H1 5813   4.363   4.277  11.938 -0.2655 -1.4043  2.2363
  385TMC3    H2 5814   4.676   4.050  12.105  3.3525  0.6455 -0.3949
  385TMC3    C7 5815   4.422   4.097  12.111 -0.1332 -0.0167 -0.4094
  385TMC3    C8 5816   0.042   3.987  11.898  0.1075  0.3922  0.1209
  385TMC3    O1 5817   4.334   4.051  12.038 -0.3456 -0.2978  0.6853
  385TMC3    O2 5818   0.120   3.984  11.992 -0.0912 -0.7547 -0.1689
  386TMC3    C1 5819   3.979   1.765  11.962 -0.8284 -0.3429  0.6391
  386TMC3    C2 5820   3.997   1.807  11.829 -0.3017 -0.2479 -0.7713
  386TMC3    C3 5821   3.901   1.758  11.744  0.6312 -0.0367 -0.1155
  386TMC3    C4 5822   3.874   1.695  12.005  0.1619 -0.0349  0.5178
  386TMC3    C5 5823   3.790   1.644  11.908 -0.5727 -0.2921 -0.3551
  386TMC3    C6 5824   3.802   1.676  11.777 -0.4994 -0.1855  0.3732
  386TMC3     C 5825   4.101   1.738  12.027 -0.3032  0.1456  0.0863
  386TMC3     O 5826   4.133   1.619  12.041  0.3202  1.1250  0.2703
  386TMC3     H 5827   4.083   1.864  11.796 -1.2634  2.0347  0.6608
  386TMC3    H1 5828   3.879   1.641  12.100 -0.6588  0.1378  0.6657
  386TMC3    H2 5829   3.753   1.621  11.697  1.4491  0.9414 -1.6122
  386TMC3    C7 5830   3.657   1.643  11.947 -0.1178 -0.6104  0.3145
  386TMC3    C8 5831   3.863   1.841  11.626  0.1864  0.1519 -0.2477
  386TMC3    O1 5832   3.624   1.594  12.054  0.4338 -0.3264 -0.5456
  386TMC3    O2 5833   3.744   1.831  11.598 -0.3085  0.4715  0.3918
  387MPD2     C 5834   2.197   1.193   9.501  0.6755 -0.3085  0.2116
  387MPD2    C1 5835   2.242   1.211   9.636 -0.2715 -0.5007  0.5269
  387MPD2    C2 5836   2.198   1.129   9.735  0.0142  0.0960 -0.3042
  387MPD2    C3 5837   2.116   1.031   9.703  0.4505 -1.0927 -0.0135
  387MPD2    C4 5838   2.062   1.012   9.578  0.1514  0.1985 -0.0380
  387MPD2    C5 5839   2.105   1.092   9.478  0.2970  0.1335  0.0709
  387MPD2     H 5840   2.227   1.142   9.839 -2.1897  0.4051  0.2728
  387MPD2    H1 5841   1.993   0.936   9.544  1.5515 -0.6481 -0.9855
  387MPD2    H2 5842   2.211   1.257   9.415  0.8350 -0.4275  0.1494
  387MPD2    H3 5843   2.067   1.072   9.378  0.2717  0.6625 -0.0294
  387MPD2     N 5844   2.082   0.945   9.807 -0.7730  0.8413 -0.7465
  387MPD2    H5 5845   2.131   0.967   9.894  0.4223  1.9287 -1.6838
  387MPD2    N1 5846   2.319   1.320   9.675 -0.5351 -0.0285  0.1975
  387MPD2    H7 5847   2.339   1.330   9.774 -1.0862  2.0367  0.1047
  388TMC3    C1 5848   2.470   1.493   9.696  0.3570  0.0667  0.6633
  388TMC3    C2 5849   2.498   1.624   9.687 -0.0471 -0.1906 -0.4604
  388TMC3    C3 5850   2.583   1.680   9.781  0.0410  0.2143  0.4220
  388TMC3    C4 5851   2.530   1.420   9.789  0.5794 -0.1011 -0.3761
  388TMC3    C5 5852   2.615   1.477   9.879 -0.5073 -0.1598  0.0908
  388TMC3    C6 5853   2.645   1.608   9.882  0.1663  0.4194 -0.0489
  388TMC3     C 5854   2.370   1.424   9.605  0.6710 -0.2945 -0.4267
  388TMC3     O 5855   2.362   1.462   9.492  0.0585 -0.0636 -0.0867
  388TMC3     H 5856   2.465   1.683   9.603 -0.9108  1.2139  0.8739
  388TMC3    H1 5857   2.522   1.312   9.792 -0.9743  0.0359  0.2358
  388TMC3    H2 5858   2.701   1.653   9.964 -1.7527  2.1040  0.3358
  388TMC3    C7 5859   2.662   1.389   9.989  0.1183  0.3661  1.3351
  388TMC3    C8 5860   2.609   1.824   9.757  0.3278  0.0702  0.0354
  388TMC3    O1 5861   2.769   1.412  10.038  0.4072  0.3525 -0.0932
  388TMC3    O2 5862   2.624   1.859   9.641  0.4022 -0.1729  0.1583
  389MPD2     C 5863   1.762   3.918  11.209 -0.4426  0.0241 -0.7816
  389MPD2    C1 5864   1.636   3.882  11.168 -0.3634 -0.2081 -0.9341
  389MPD2    C2 5865   1.554   3.815  11.260 -0.8992  0.5005 -0.0217
  389MPD2    C3 5866   1.595   3.797  11.388  0.5824  0.2353 -0.0043
  389MPD2    C4 5867   1.721   3.841  11.427  0.2932  0.4620 -0.0854
  389MPD2    C5 5868   1.797   3.903  11.335  0.0350 -0.2456  0.0241
  389MPD2     H 5869   1.453   3.781  11.237 -0.6833 -1.1445  1.4352
  389MPD2    H1 5870   1.769   3.823  11.522  0.7197  0.7338 -0.2515
  389MPD2    H2 5871   1.830   3.970  11.143  1.4766 -0.0160  1.1375
  389MPD2    H3 5872   1.898   3.932  11.363 -1.1262  0.6716  3.2533
  389MPD2     N 5873   1.521   3.731  11.486 -0.7085 -0.3511  0.0956
  389MPD2    H5 5874   1.564   3.725  11.578  0.3920 -1.4037 -0.4861
  389MPD2    N1 5875   1.615   3.901  11.031 -0.1564 -0.6618 -0.1752
  389MPD2    H7 5876   1.692   3.943  10.980 -2.3625  1.3934 -1.8077
  390TMC3    C1 5877   1.349   3.634  11.596 -0.3003 -0.3369  0.1082
  390TMC3    C2 5878   1.240   3.552  11.576  0.7191  0.2431 -0.2819
  390TMC3    C3 5879   1.144   3.552  11.679  0.0186 -1.2236  0.0039
  390TMC3    C4 5880   1.370   3.700  11.714 -0.5386  0.0921  0.2965
  390TMC3    C5 5881   1.288   3.680  11.822 -0.1604  0.3351  0.2910
  390TMC3    C6 5882   1.170   3.615  11.801  0.4773 -0.2179  0.6589
  390TMC3     C 5883   1.394   3.690  11.475 -0.1892 -0.5753  0.4991
  390TMC3     O 5884   1.314   3.688  11.382  0.0765  0.7829  0.2729
  390TMC3     H 5885   1.203   3.521  11.479  1.1919  0.1553 -0.4389
  390TMC3    H1 5886   1.450   3.773  11.709 -0.3797 -0.1362 -0.4904
  390TMC3    H2 5887   1.099   3.597  11.881  0.8990 -1.5896  0.7112
  390TMC3    C7 5888   1.316   3.768  11.938  0.1313  0.1213 -0.0554
  390TMC3    C8 5889   1.016   3.498  11.643 -0.4672  0.3477  0.1475
  390TMC3    O1 5890   1.422   3.831  11.940 -0.0367 -0.1068 -0.2968
  390TMC3    O2 5891   1.022   3.406  11.563 -0.0810  0.7960  0.7070
  391MPD2     C 5892   0.723   1.201  11.119  0.3992 -0.0291  0.3434
  391MPD2    C1 5893   0.781   1.323  11.105 -0.3691 -0.1168 -0.1151
  391MPD2    C2 5894   0.792   1.380  10.978 -0.3098  0.2893 -0.1655
  391MPD2    C3 5895   0.740   1.318  10.870  0.9363  0.4320 -0.0261
  391MPD2    C4 5896   0.690   1.182  10.879  0.5264 -0.0914 -0.0878
  391MPD2    C5 5897   0.681   1.132  11.007 -0.0156  1.0536  0.1447
  391MPD2     H 5898   0.845   1.473  10.961  0.6456 -0.0723  0.7977
  391MPD2    H1 5899   0.656   1.119  10.798 -0.3844  0.9517 -0.5286
  391MPD2    H2 5900   0.707   1.154  11.215 -1.9565 -0.6143 -0.3411
  391MPD2    H3 5901   0.626   1.042  11.030  0.6308  0.7010  0.3155
  391MPD2     N 5902   0.772   1.375  10.753  0.1309 -0.1412  0.0671
  391MPD2    H5 5903   0.853   1.435  10.766  0.2927 -0.9056  2.6134
  391MPD2    N1 5904   0.830   1.397  11.220 -0.4098  0.0419  0.4351
  391MPD2    H7 5905   0.891   1.477  11.202 -2.0707  0.9671 -1.0865
  392TMC3    C1 5906   0.754   1.415  10.513  0.2795 -0.0422 -0.1308
  392TMC3    C2 5907   0.683   1.405  10.390 -0.7077  0.4144 -0.1476
  392TMC3    C3 5908   0.738   1.462  10.279 -0.2384  0.1438  0.5432
  392TMC3    C4 5909   0.882   1.470  10.518  0.2172 -0.3163  0.7456
  392TMC3    C5 5910   0.925   1.536  10.405 -0.5034  0.1797  0.0904
  392TMC3    C6 5911   0.852   1.541  10.287 -0.2055  0.0009  0.2580
  392TMC3     C 5912   0.698   1.352  10.636 -0.1414 -0.3422  0.0704
  392TMC3     O 5913   0.597   1.281  10.616  0.1953 -0.4439 -0.4898
  392TMC3     H 5914   0.585   1.358  10.388  0.1968 -1.4784  0.5353
  392TMC3    H1 5915   0.946   1.442  10.600  0.0530 -3.3511 -0.1698
  392TMC3    H2 5916   0.903   1.571  10.196 -0.6272  0.0796  0.0446
  392TMC3    C7 5917   1.025   1.639  10.439  1.0439 -0.0784  0.0064
  392TMC3    C8 5918   0.662   1.453  10.154 -0.0131 -0.2116 -0.1007
  392TMC3    O1 5919   1.037   1.673  10.556 -0.4540  0.4572 -0.0044
  392TMC3    O2 5920   0.586   1.360  10.143 -0.4528 -0.5344 -0.6028
  393TMC3    C1 5921   4.035   4.024  10.282  0.2937  0.8767  0.3420
  393TMC3    C2 5922   3.959   3.937  10.210  0.2667  0.1529  0.3470
  393TMC3    C3 5923   3.915   3.821  10.266 -0.0672  0.2528 -0.5844
  393TMC3    C4 5924   4.052   4.011  10.416  0.5036  0.7234  0.3599
  393TMC3    C5 5925   4.009   3.896  10.476 -0.6803 -0.9142  0.0238
  393TMC3    C6 5926   3.939   3.798  10.401 -0.4010  0.1402 -0.7254
  393TMC3     C 5927   4.081   4.142  10.219 -0.0758  0.4476  0.6239
  393TMC3     O 5928   4.022   4.165  10.115  0.5386  0.1536  0.2427
  393TMC3     H 5929   3.946   3.960  10.105 -0.0768  0.4606  0.4559
  393TMC3    H1 5930   4.086   4.089  10.483  1.6416 -0.3424  1.0330
  393TMC3    H2 5931   3.932   3.702  10.451  0.0430  1.3678  1.6683
  393TMC3    C7 5932   3.994   3.882  10.623  0.0416 -0.2821  0.1621
  393TMC3    C8 5933   3.824   3.732  10.195  0.0295  0.4464 -0.3275
  393TMC3    O1 5934   3.912   3.809  10.673 -0.0927  1.0515 -0.4704
  393TMC3    O2 5935   3.783   3.630  10.249 -0.0376  0.1323  0.0298
  394TMC3    C1 5936   1.508   3.939  10.834  1.4810 -0.1398 -0.4519
  394TMC3    C2 5937   1.446   3.870  10.729  0.1049  0.0570  0.5682
  394TMC3    C3 5938   1.431   3.944  10.611 -0.2533 -0.2663  0.5052
  394TMC3    C4 5939   1.545   4.071  10.824 -0.5000 -0.2043 -0.4070
  394TMC3    C5 5940   1.534   4.138  10.712  0.0964 -0.6162 -0.4296
  394TMC3    C6 5941   1.484   4.070  10.600 -0.1250 -0.4821  0.1271
  394TMC3     C 5942   1.499   3.882  10.965  0.1938  0.0944  0.5868
  394TMC3     O 5943   1.398   3.826  10.997 -0.3568 -0.1907  0.2480
  394TMC3     H 5944   1.405   3.772  10.751 -1.6574  1.1230  2.0233
  394TMC3    H1 5945   1.574   4.120  10.916 -1.0202  0.6099 -0.6745
  394TMC3    H2 5946   1.502   4.110  10.501  0.3471 -0.3173  0.2763
  394TMC3    C7 5947   1.570   4.272  10.698  0.6078  0.4308  0.1411
  394TMC3    C8 5948   1.459   3.858  10.498  0.1653  0.6397  0.2224
  394TMC3    O1 5949   1.507   4.338  10.616  0.2914 -0.0054  0.2764
  394TMC3    O2 5950   1.513   3.749  10.521  0.3721 -0.4717  0.0410
  395TMC3    C1 5951   0.706   1.321  14.848 -0.0472  0.2329 -0.3093
  395TMC3    C2 5952   0.580   1.377  14.830 -0.2230 -0.6980  0.3633
  395TMC3    C3 5953   0.564   1.507  14.877  0.1528  0.2452  0.6180
  395TMC3    C4 5954   0.813   1.403  14.869  0.2967 -0.4746  0.2009
  395TMC3    C5 5955   0.792   1.534  14.896 -0.4539  0.1418  0.6425
  395TMC3    C6 5956   0.671   1.595  14.898  0.1574 -0.4430 -0.0171
  395TMC3     C 5957   0.708   1.211  14.938 -0.2542 -0.8122  0.4174
  395TMC3     O 5958   0.802   1.192  15.016  0.1340 -0.3550 -0.4114
  395TMC3     H 5959   0.491   1.316  14.818 -1.6385  1.4258  0.1477
  395TMC3    H1 5960   0.913   1.364  14.882  0.4456  0.1302  0.9045
  395TMC3    H2 5961   0.663   1.700  14.921 -1.3950 -1.4567  4.2465
  395TMC3    C7 5962   0.901   1.627  14.881  0.6173  0.4185  0.3702
  395TMC3    C8 5963   0.483   1.518  14.999  0.3953  0.2856  0.0114
  395TMC3    O1 5964   0.890   1.740  14.935  0.8647 -0.0747 -0.4363
  395TMC3    O2 5965   0.546   1.574  15.087  0.5047  0.4093  0.2827
  396MPD2     C 5966   0.429   2.417  16.845  0.3520  0.0710 -0.1459
  396MPD2    C1 5967   0.554   2.455  16.884 -0.4383 -0.0088 -0.5746
  396MPD2    C2 5968   0.598   2.584  16.854  0.1719  0.4076  0.1987
  396MPD2    C3 5969   0.515   2.671  16.783  0.6454  0.6101 -0.0842
  396MPD2    C4 5970   0.386   2.632  16.755  0.8006  0.6459 -0.1815
  396MPD2    C5 5971   0.342   2.505  16.786  0.0971 -0.0678 -0.5772
  396MPD2     H 5972   0.701   2.618  16.862 -0.5731  2.1841  2.3273
  396MPD2    H1 5973   0.320   2.698  16.699 -1.4713 -1.2428  0.2391
  396MPD2    H2 5974   0.400   2.313  16.854  1.9198 -0.3448 -0.0322
  396MPD2    H3 5975   0.241   2.472  16.768  0.6316 -2.6081  1.0984
  396MPD2     N 5976   0.563   2.797  16.739  0.7609  0.2287  0.1254
  396MPD2    H5 5977   0.662   2.810  16.756  0.7555 -1.2249  1.2375
  396MPD2    N1 5978   0.636   2.361  16.948  0.7340 -0.0460 -0.6779
  396MPD2    H7 5979   0.588   2.272  16.957  0.9879  0.0578  1.7219
  397TMC3    C1 5980   0.818   2.256  17.044  0.3044 -0.2568  0.1180
  397TMC3    C2 5981   0.929   2.232  16.963 -0.6321 -0.1389  0.4025
  397TMC3    C3 5982   0.938   2.106  16.930 -0.0839  0.1018  0.2835
  397TMC3    C4 5983   0.736   2.161  17.096  0.2584  0.5660  0.4239
  397TMC3    C5 5984   0.755   2.030  17.052  0.3817 -0.1594  0.2077
  397TMC3    C6 5985   0.853   2.004  16.961  0.4376 -0.3603 -0.0813
  397TMC3     C 5986   0.764   2.382  17.001 -0.1367  0.2837  0.2976
  397TMC3     O 5987   0.837   2.481  16.993 -0.2323 -0.3379  0.6668
  397TMC3     H 5988   0.977   2.308  16.902 -2.3731  0.0290 -0.7704
  397TMC3    H1 5989   0.667   2.194  17.173 -0.5872 -0.7582  0.2330
  397TMC3    H2 5990   0.859   1.904  16.919 -2.0507 -0.4388 -0.2013
  397TMC3    C7 5991   0.687   1.918  17.116 -1.0220 -0.0276 -0.0976
  397TMC3    C8 5992   0.965   2.097  16.790  0.9959 -0.0607  0.1376
  397TMC3    O1 5993   0.663   1.811  17.059 -0.4900 -0.9792  0.1609
  397TMC3    O2 5994   1.070   2.152  16.756 -0.8809  0.5854  0.2163
  398MPD2     C 5995   3.696   3.804   0.009  0.0340 -0.1843  0.0015
  398MPD2    C1 5996   3.821   3.767   0.057 -0.3974  0.6927 -0.5318
  398MPD2    C2 5997   3.891   3.866   0.122 -0.9581  0.4008 -0.6540
  398MPD2    C3 5998   3.841   3.995   0.133  0.4071  0.7240 -0.5431
  398MPD2    C4 5999   3.722   4.031   0.078  0.4680  0.7445  0.1462
  398MPD2    C5 6000   3.657   3.934   0.015 -0.3821  0.4510  0.1598
  398MPD2     H 6001   3.986   3.846   0.169 -0.6012 -1.5759 -2.1803
  398MPD2    H1 6002   3.683   4.132   0.072 -2.8992 -0.4558  1.7318
  398MPD2    H2 6003   3.629   3.734  17.706  0.1248 -1.9682  2.5325
  398MPD2    H3 6004   3.566   3.966  17.708 -0.7704  0.3029  0.7658
  398MPD2     N 6005   3.920   4.085   0.212 -0.0027 -0.3070  0.4133
  398MPD2    H5 6006   4.003   4.049   0.258 -0.4612  1.5072  2.6635
  398MPD2    N1 6007   3.880   3.641   0.044  0.4604  0.1517 -0.0854
  398MPD2    H7 6008   3.974   3.637   0.082  1.1687  0.9218 -1.7511
  399TMC3    C1 6009   3.910   3.406   0.056  0.0952 -0.0423  0.3244
  399TMC3    C2 6010   4.048   3.425   0.076 -0.1715  0.0321  0.4594
  399TMC3    C3 6011   4.116   3.318   0.127 -0.4079  0.1567 -0.5249
  399TMC3    C4 6012   3.842   3.291   0.078 -0.0408  0.0821 -0.0807
  399TMC3    C5 6013   3.916   3.189   0.128 -0.5183 -0.1588 -0.0102
  399TMC3    C6 6014   4.054   3.198   0.153  0.0345 -0.0756 -0.6903
  399TMC3     C 6015   3.826   3.523   0.011  0.0557  0.7366  0.0280
  399TMC3     O 6016   3.710   3.502  17.716 -0.0434 -0.2428  0.3166
  399TMC3     H 6017   4.098   3.513   0.037 -1.4248  0.4497 -0.2033
  399TMC3    H1 6018   3.734   3.286   0.063  0.0046 -0.7949 -0.1431
  399TMC3    H2 6019   4.109   3.119   0.203 -0.1712 -0.7700 -1.5501
  399TMC3    C7 6020   3.862   3.062   0.148  0.5517 -0.6666  0.9065
  399TMC3    C8 6021   4.256   3.334   0.145 -0.2533 -0.0833  0.0634
  399TMC3    O1 6022   3.931   2.977   0.209  0.6550 -0.4217 -0.5338
  399TMC3    O2 6023   4.288   3.454   0.136 -0.4040 -0.2956  0.1680
  400TMC3    C1 6024   2.036   1.912  16.979 -0.2055  0.2784 -0.1732
  400TMC3    C2 6025   1.946   1.816  16.947  0.6434  0.2167  0.1735
  400TMC3    C3 6026   1.849   1.847  16.855  0.2818  0.3629 -0.1899
  400TMC3    C4 6027   2.045   2.032  16.912 -0.5463 -0.6010 -1.2861
  400TMC3    C5 6028   1.943   2.056  16.821 -0.7436 -0.3936  0.0519
  400TMC3    C6 6029   1.843   1.972  16.795  0.3155 -0.3447 -0.6571
  400TMC3     C 6030   2.121   1.879  17.092  0.0021  0.1706 -0.0438
  400TMC3     O 6031   2.086   1.783  17.168  0.1910 -0.0897  0.0300
  400TMC3     H 6032   1.943   1.728  17.010 -0.1312  0.2100  0.1252
  400TMC3    H1 6033   2.102   2.119  16.942  0.0550 -1.3416 -0.2984
  400TMC3    H2 6034   1.763   2.013  16.734 -0.0889 -0.5473 -0.2694
  400TMC3    C7 6035   1.930   2.190  16.786  0.2533  0.3611 -0.7892
  400TMC3    C8 6036   1.740   1.753  16.868 -0.5908 -0.3936  0.1799
  400TMC3    O1 6037   1.971   2.278  16.858 -0.3925 -0.7498  0.1767
  400TMC3    O2 6038   1.732   1.679  16.962  0.4208  0.4100 -0.5021
  401MPD2     C 6039   0.503   0.954   0.882 -0.1498 -0.4161  0.2989
  401MPD2    C1 6040   0.633   0.909   0.867  0.7901  0.7289 -0.5199
  401MPD2    C2 6041   0.656   0.827   0.761  0.2252 -0.5956 -0.9318
  401MPD2    C3 6042   0.553   0.781   0.681  0.0438  0.2771  0.3256
  401MPD2    C4 6043   0.424   0.826   0.701 -0.0670 -0.2465 -0.4461
  401MPD2    C5 6044   0.395   0.913   0.805  0.1399 -0.0212 -0.4943
  401MPD2     H 6045   0.758   0.794   0.742  0.0384 -1.2285 -0.8479
  401MPD2    H1 6046   0.342   0.799   0.636 -0.2662 -1.5923  0.3506
  401MPD2    H2 6047   0.476   1.030   0.954  0.0266  1.0257 -1.1709
  401MPD2    H3 6048   0.297   0.950   0.832 -0.9329 -4.9956  2.4511
  401MPD2     N 6049   0.582   0.691   0.580  0.0523  0.3041 -0.3442
  401MPD2    H5 6050   0.678   0.660   0.575 -0.4226 -1.0804 -1.0863
  401MPD2    N1 6051   0.741   0.951   0.947  0.0209  0.2516 -0.3748
  401MPD2    H7 6052   0.828   0.914   0.911  0.8670  0.7955  1.1193
  402TMC3    C1 6053   0.536   0.534   0.429 -0.0181 -0.3590  0.8156
  402TMC3    C2 6054   0.559   0.453   0.535  0.5244  0.0753 -0.2196
  402TMC3    C3 6055   0.666   0.369   0.536  0.7017  0.6970  0.8372
  402TMC3    C4 6056   0.612   0.527   0.312  0.1161  0.3990  0.6848
  402TMC3    C5 6057   0.709   0.424   0.310 -0.0076 -0.3818 -0.4593
  402TMC3    C6 6058   0.744   0.347   0.421 -0.8398 -0.6672  0.3585
  402TMC3     C 6059   0.505   0.663   0.469 -0.0222 -0.1059 -0.2004
  402TMC3     O 6060   0.402   0.714   0.426 -0.6296  0.8233 -0.0260
  402TMC3     H 6061   0.493   0.458   0.621 -0.9329  1.6107 -1.4469
  402TMC3    H1 6062   0.594   0.605   0.238 -2.4709 -2.1452 -1.3836
  402TMC3    H2 6063   0.832   0.283   0.425  0.6799  1.4921  1.1041
  402TMC3    C7 6064   0.795   0.423   0.194 -0.2191  0.5600  0.9998
  402TMC3    C8 6065   0.739   0.356   0.658 -0.7555  0.4804 -0.6331
  402TMC3    O1 6066   0.794   0.528   0.133  0.2886 -0.1236  0.0278
  402TMC3    O2 6067   0.836   0.278   0.666  0.1107 -0.0795 -0.4234
  403MPD2     C 6068   3.776   3.590  13.034 -0.1397  0.0507 -0.4900
  403MPD2    C1 6069   3.829   3.571  13.156  0.2199  0.7157 -0.3752
  403MPD2    C2 6070   3.892   3.679  13.228  0.1730  0.4871 -0.8931
  403MPD2    C3 6071   3.884   3.805  13.172 -0.1024 -0.1104 -0.2347
  403MPD2    C4 6072   3.814   3.822  13.053  0.1594  1.0011  0.8071
  403MPD2    C5 6073   3.769   3.714  12.984  0.0127 -0.7975 -0.0651
  403MPD2     H 6074   3.939   3.665  13.325 -0.2215  2.3366 -0.4468
  403MPD2    H1 6075   3.799   3.921  13.012 -0.8723  1.4453  2.2449
  403MPD2    H2 6076   3.736   3.509  12.974 -0.5591 -0.5075  0.5376
  403MPD2    H3 6077   3.723   3.725  12.886 -0.3053 -0.1397  0.1565
  403MPD2     N 6078   3.961   3.911  13.231 -0.2338  0.4496  0.7168
  403MPD2    H5 6079   4.037   3.890  13.295 -0.1429  2.0238  1.1410
  403MPD2    N1 6080   3.813   3.442  13.207 -0.3081 -0.6413  0.5470
  403MPD2    H7 6081   3.758   3.390  13.140  0.3810  1.4077 -1.6169
  404TMC3    C1 6082   3.752   3.273  13.365 -0.0656  0.4384  0.0615
  404TMC3    C2 6083   3.698   3.271  13.494  0.1522 -0.1682  0.6379
  404TMC3    C3 6084   3.609   3.172  13.515  0.2310  0.3141 -0.1066
  404TMC3    C4 6085   3.718   3.191  13.261  0.7766  0.0219 -0.1386
  404TMC3    C5 6086   3.636   3.086  13.294  0.0818  0.2499  0.1050
  404TMC3    C6 6087   3.574   3.074  13.419  0.0735  0.3151  0.7661
  404TMC3     C 6088   3.821   3.404  13.339  0.1916 -0.7644  0.5011
  404TMC3     O 6089   3.878   3.466  13.429  0.8060  0.2403  0.3281
  404TMC3     H 6090   3.722   3.347  13.568 -0.5208 -0.9560  1.6524
  404TMC3    H1 6091   3.772   3.191  13.167  1.0538  1.6020  0.0206
  404TMC3    H2 6092   3.504   2.993  13.437 -1.6880  0.8760 -3.4730
  404TMC3    C7 6093   3.606   2.995  13.195  0.0339 -0.1732 -0.4623
  404TMC3    C8 6094   3.567   3.145  13.652 -0.1195  0.2317 -0.3008
  404TMC3    O1 6095   3.696   2.924  13.153 -0.6007  0.1131 -0.0603
  404TMC3    O2 6096   3.465   3.084  13.682  0.7919 -0.3166  0.0955
  405MPD2     C 6097   4.171   4.294  14.365 -0.7070 -0.1371  0.5248
  405MPD2    C1 6098   4.172   4.253  14.235  0.1848 -1.2170  0.0451
  405MPD2    C2 6099   4.052   4.217  14.179 -0.2174 -0.2624  0.0193
  405MPD2    C3 6100   3.937   4.223  14.247 -0.7503  0.1240  0.0352
  405MPD2    C4 6101   3.933   4.270  14.376  0.1224 -0.5275 -0.5258
  405MPD2    C5 6102   4.054   4.311  14.426 -0.1728 -0.1859  0.1389
  405MPD2     H 6103   4.065   4.189  14.075 -0.5932 -1.1017  0.1995
  405MPD2    H1 6104   3.835   4.281  14.423  0.4073  0.1283 -0.0820
  405MPD2    H2 6105   4.260   4.328  14.415 -0.9886 -0.5258  1.2845
  405MPD2    H3 6106   4.062   4.339  14.531 -4.0007 -0.0468  0.4010
  405MPD2     N 6107   3.823   4.194  14.174 -0.0871 -0.7980 -0.7439
  405MPD2    H5 6108   3.845   4.158  14.082 -0.8658 -1.0180 -0.8384
  405MPD2    N1 6109   4.290   4.248  14.153 -0.1857 -0.3287 -0.7827
  405MPD2    H7 6110   4.272   4.239  14.054 -0.4244 -2.1371 -0.5810
  406TMC3    C1 6111   3.407   4.201  13.978  0.0095  0.2486  0.2794
  406TMC3    C2 6112   3.454   4.121  13.871  0.1071  0.1405 -0.3273
  406TMC3    C3 6113   3.580   4.062  13.889 -0.5112 -1.0740  0.1497
  406TMC3    C4 6114   3.485   4.226  14.086  0.2737  0.5298  0.2246
  406TMC3    C5 6115   3.611   4.172  14.088 -0.3296 -0.7302 -0.1092
  406TMC3    C6 6116   3.657   4.078  13.998 -0.1532 -0.4178 -0.9468
  406TMC3     C 6117   3.265   4.243  13.976 -0.0332  0.1262  0.0897
  406TMC3     O 6118   3.194   4.228  13.877 -0.0599 -0.4932 -0.3309
  406TMC3     H 6119   3.392   4.103  13.784 -2.1625  2.1967  0.8605
  406TMC3    H1 6120   3.463   4.311  14.149  0.7429  0.6481  0.2294
  406TMC3    H2 6121   3.741   4.010  14.010  0.0754 -0.0446 -0.4347
  406TMC3    C7 6122   3.693   4.211  14.205 -0.4814 -0.0836 -0.1592
  406TMC3    C8 6123   3.655   4.030  13.771  0.0094  0.4542 -0.2662
  406TMC3    O1 6124   3.643   4.240  14.318 -0.6079 -0.2896  1.0429
  406TMC3    O2 6125   3.595   3.980  13.673 -0.1581 -0.0774  0.2395
  407MPD2     C 6126   1.671   0.832   9.303  0.1906  0.5132 -0.2987
  407MPD2    C1 6127   1.727   0.838   9.430  0.3302  0.1455 -0.2749
  407MPD2    C2 6128   1.711   0.944   9.519 -0.4314  0.0775 -0.1559
  407MPD2    C3 6129   1.611   1.047   9.484  0.6674  0.2247  0.1175
  407MPD2    C4 6130   1.539   1.025   9.365 -0.3252  0.0698 -0.5124
  407MPD2    C5 6131   1.568   0.925   9.274  0.7061 -0.0045 -0.3232
  407MPD2     H 6132   1.756   0.937   9.617 -1.1748 -0.7921  0.1259
  407MPD2    H1 6133   1.451   1.086   9.348  1.1838  2.4820  0.1696
  407MPD2    H2 6134   1.683   0.745   9.238 -1.8015  1.3755 -1.7973
  407MPD2    H3 6135   1.512   0.918   9.181  1.5445 -0.8076 -0.7763
  407MPD2     N 6136   1.569   1.144   9.579  0.0664 -0.2414  0.4276
  407MPD2    H5 6137   1.493   1.203   9.545 -0.7390 -1.2515  0.4583
  407MPD2    N1 6138   1.810   0.737   9.472  0.1551  0.0765 -0.5236
  407MPD2    H7 6139   1.858   0.753   9.560 -0.6148 -0.4984  0.0059
  408TMC3    C1 6140   1.896   0.520   9.489  0.6277  0.1182 -0.2523
  408TMC3    C2 6141   2.019   0.556   9.534  0.6966  0.1032  0.5072
  408TMC3    C3 6142   2.091   0.470   9.614  0.0173 -0.1153 -0.0365
  408TMC3    C4 6143   1.844   0.395   9.513  0.0492 -0.5346  0.1247
  408TMC3    C5 6144   1.917   0.313   9.598 -0.0420 -0.4059 -0.2985
  408TMC3    C6 6145   2.038   0.351   9.650 -0.3466  0.1543 -0.1811
  408TMC3     C 6146   1.809   0.610   9.411  0.5619  0.5856 -0.3018
  408TMC3     O 6147   1.736   0.558   9.328  0.1518 -0.8161  0.2713
  408TMC3     H 6148   2.070   0.649   9.514 -0.9353  1.0430  0.7058
  408TMC3    H1 6149   1.743   0.366   9.485  0.4811 -0.0189 -1.9792
  408TMC3    H2 6150   2.087   0.291   9.725 -0.1989  0.7513  0.2016
  408TMC3    C7 6151   1.836   0.225   9.688  0.3383 -0.1579 -0.2513
  408TMC3    C8 6152   2.210   0.513   9.686 -0.7039 -0.2557  0.5878
  408TMC3    O1 6153   1.903   0.152   9.756 -0.4509  0.2898 -0.1548
  408TMC3    O2 6154   2.242   0.440   9.782 -0.8244  0.4594 -0.3949
  409MPD2     C 6155   0.948   1.617  16.791 -0.2538  0.7630 -0.2317
  409MPD2    C1 6156   0.997   1.669  16.909  0.7257 -0.0777 -1.3772
  409MPD2    C2 6157   1.093   1.767  16.905  0.0817 -0.4727 -0.2697
  409MPD2    C3 6158   1.141   1.809  16.777  0.0329 -1.0224  0.3173
  409MPD2    C4 6159   1.072   1.778  16.665  0.2502  0.0300 -0.1229
  409MPD2    C5 6160   0.978   1.674  16.670 -0.5629 -0.3328  0.2647
  409MPD2     H 6161   1.144   1.804  16.993  1.1492  0.4772 -1.2939
  409MPD2    H1 6162   1.112   1.811  16.569  0.2834 -1.5479 -0.6475
  409MPD2    H2 6163   0.889   1.526  16.796  1.5209 -0.4731 -2.0446
  409MPD2    H3 6164   0.942   1.624  16.581  0.9988 -0.9665 -0.0064
  409MPD2     N 6165   1.244   1.899  16.762  0.1483  0.3414 -0.4008
  409MPD2    H5 6166   1.258   1.943  16.672  1.3759  0.7398 -0.0171
  409MPD2    N1 6167   0.952   1.616  17.026 -0.2932 -0.3304 -0.0839
  409MPD2    H7 6168   0.897   1.531  17.027  2.5827 -2.1939 -2.6207
  410TMC3    C1 6169   1.418   2.047  16.838 -0.3150  0.7966  0.1915
  410TMC3    C2 6170   1.519   2.074  16.927  0.4190 -0.1735  0.3962
  410TMC3    C3 6171   1.565   2.209  16.931  0.7068  0.1749  0.7375
  410TMC3    C4 6172   1.371   2.137  16.753  0.5169 -0.5763 -0.5245
  410TMC3    C5 6173   1.416   2.269  16.770  0.1108 -0.2986  0.0769
  410TMC3    C6 6174   1.518   2.308  16.852 -0.6209 -0.0088 -0.0563
  410TMC3     C 6175   1.337   1.926  16.864 -0.9788  0.2857 -0.4550
  410TMC3     O 6176   1.344   1.882  16.977 -0.7438  0.4475 -0.5535
  410TMC3     H 6177   1.535   2.005  17.008  1.4188 -0.2738  0.1128
  410TMC3    H1 6178   1.283   2.119  16.693 -0.2128 -0.1089  0.3985
  410TMC3    H2 6179   1.553   2.410  16.855 -0.9758  0.0245  2.9222
  410TMC3    C7 6180   1.359   2.379  16.695 -0.5921 -0.1166  0.7046
  410TMC3    C8 6181   1.657   2.250  17.033 -0.2188  0.0677  0.0057
  410TMC3    O1 6182   1.425   2.480  16.682 -0.1127 -0.1911 -0.4177
  410TMC3    O2 6183   1.692   2.366  17.033 -0.1654 -0.3837  0.1342
  411MPD2     C 6184   1.466   2.438  14.591 -0.4252  0.1407  0.0303
  411MPD2    C1 6185   1.370   2.451  14.695 -0.9434  0.1892 -0.0318
  411MPD2    C2 6186   1.265   2.361  14.711 -0.1674 -0.2436  0.0210
  411MPD2    C3 6187   1.249   2.264  14.617 -0.1285 -0.1076  0.4992
  411MPD2    C4 6188   1.340   2.251  14.519 -0.0138 -0.3495  0.2022
  411MPD2    C5 6189   1.455   2.327  14.511  0.3414  0.0735  0.1884
  411MPD2     H 6190   1.189   2.368  14.788 -0.3964  0.7416 -0.2932
  411MPD2    H1 6191   1.340   2.163  14.454 -1.6480 -0.6344  0.5809
  411MPD2    H2 6192   1.549   2.506  14.576 -0.3880 -0.6700 -3.4068
  411MPD2    H3 6193   1.528   2.313  14.433 -0.2851  0.9179 -0.5567
  411MPD2     N 6194   1.133   2.182  14.598 -0.0925 -0.0705  0.4385
  411MPD2    H5 6195   1.128   2.131  14.511 -1.7667 -1.9409  1.6316
  411MPD2    N1 6196   1.387   2.565  14.772  0.6410 -0.1692  0.3534
  411MPD2    H7 6197   1.443   2.643  14.740  0.1689  0.7433  1.7186
  412TMC3    C1 6198   0.911   2.107  14.644 -1.0164  0.8763 -0.2748
  412TMC3    C2 6199   0.796   2.135  14.722 -0.8929 -0.1048  0.0058
  412TMC3    C3 6200   0.703   2.037  14.731  0.0342 -0.0009  0.1250
  412TMC3    C4 6201   0.931   1.989  14.581  1.1564  0.5704 -0.0772
  412TMC3    C5 6202   0.832   1.890  14.596 -0.5168 -0.1688 -0.4251
  412TMC3    C6 6203   0.723   1.914  14.676 -0.4740 -0.5222 -0.2194
  412TMC3     C 6204   1.030   2.173  14.684 -0.1646  1.1116 -1.0362
  412TMC3     O 6205   1.024   2.205  14.801  0.3078 -0.7165  0.5342
  412TMC3     H 6206   0.789   2.238  14.754  2.9240  0.1546  0.0529
  412TMC3    H1 6207   1.027   1.962  14.538  1.6275  2.6100 -0.3172
  412TMC3    H2 6208   0.654   1.834  14.699 -1.2602  0.1841 -0.1466
  412TMC3    C7 6209   0.810   1.819  14.474 -1.4140  0.8190 -0.7175
  412TMC3    C8 6210   0.643   2.041  14.863  0.0209 -0.0404  0.0192
  412TMC3    O1 6211   0.756   1.708  14.473  0.0152 -0.2716 -0.0890
  412TMC3    O2 6212   0.690   2.120  14.944  0.3516 -0.8270  0.0394
  413MPD2     C 6213   2.626   0.987  15.584  0.4136  0.3317  0.0029
  413MPD2    C1 6214   2.632   0.917  15.466 -0.6235 -0.0043 -0.1257
  413MPD2    C2 6215   2.739   0.844  15.422  0.1652 -0.8590 -0.1482
  413MPD2    C3 6216   2.853   0.845  15.507 -1.1363 -0.2128  0.2237
  413MPD2    C4 6217   2.843   0.920  15.627 -0.2240 -0.8376  0.0594
  413MPD2    C5 6218   2.736   0.989  15.664 -0.5700 -0.4352  0.2260
  413MPD2     H 6219   2.738   0.791  15.327 -0.0716 -0.4393 -0.3778
  413MPD2    H1 6220   2.930   0.932  15.690  0.1585  1.0216 -0.8442
  413MPD2    H2 6221   2.549   1.060  15.607  0.2491 -0.2355  1.2574
  413MPD2    H3 6222   2.737   1.049  15.755 -0.5176 -1.1654  0.7078
  413MPD2     N 6223   2.968   0.762  15.472 -0.1451 -0.0383  0.1704
  413MPD2    H5 6224   2.964   0.719  15.380 -3.2408 -0.1022  0.3495
  413MPD2    N1 6225   2.511   0.924  15.391  0.0071 -0.0566  0.8680
  413MPD2    H7 6226   2.435   0.981  15.427 -1.5668  0.5388 -3.4261
  414TMC3    C1 6227   3.135   0.609  15.508  0.6520  0.1455 -0.4406
  414TMC3    C2 6228   3.238   0.574  15.595 -0.4645  0.1277  0.4337
  414TMC3    C3 6229   3.274   0.440  15.597  0.5349  0.1714 -0.5171
  414TMC3    C4 6230   3.062   0.518  15.431  0.2613 -0.7135 -0.9614
  414TMC3    C5 6231   3.099   0.381  15.440 -1.4943 -0.0860  0.7022
  414TMC3    C6 6232   3.200   0.342  15.531 -0.3381  0.1340 -0.3182
  414TMC3     C 6233   3.080   0.742  15.543 -0.3920  0.3226 -0.0372
  414TMC3     O 6234   3.117   0.794  15.650  0.3771 -0.6302 -0.0457
  414TMC3     H 6235   3.292   0.643  15.659  0.8239  0.1109 -0.6397
  414TMC3    H1 6236   2.980   0.538  15.364 -0.3283  1.3319  0.3676
  414TMC3    H2 6237   3.228   0.239  15.547 -0.6407  0.1770  0.4749
  414TMC3    C7 6238   3.108   0.316  15.320 -0.4116  0.1608 -0.2416
  414TMC3    C8 6239   3.418   0.417  15.599 -0.4862 -0.1688 -0.1399
  414TMC3    O1 6240   3.183   0.219  15.327 -0.2523 -0.1456  0.3046
  414TMC3    O2 6241   3.490   0.479  15.678  0.4643  0.3168  0.1079
  415TMC3    C1 6242   3.970   3.295  10.290 -0.2033  0.7697 -0.3868
  415TMC3    C2 6243   4.009   3.381  10.193 -0.3921  0.2972 -0.2519
  415TMC3    C3 6244   3.982   3.345  10.068  0.2100 -0.7185  0.6128
  415TMC3    C4 6245   3.884   3.189  10.267  0.1261  0.2911  0.2757
  415TMC3    C5 6246   3.854   3.161  10.140 -0.6479 -0.0633 -0.1667
  415TMC3    C6 6247   3.902   3.239  10.039 -0.2983 -0.0960  0.0708
  415TMC3     C 6248   4.014   3.307  10.425 -0.5494  0.3177 -0.1681
  415TMC3     O 6249   3.978   3.225  10.508  0.2582  0.0607  0.2356
  415TMC3     H 6250   4.063   3.474  10.206 -1.4107  1.0109 -1.1515
  415TMC3    H1 6251   3.848   3.131  10.351 -1.3758 -0.6493 -1.0262
  415TMC3    H2 6252   3.875   3.217   9.937  1.0214  2.7326 -0.8821
  415TMC3    C7 6253   3.746   3.079  10.109  0.4292 -0.1417  0.2581
  415TMC3    C8 6254   4.029   3.419   9.952 -0.2387  0.1489  0.2816
  415TMC3    O1 6255   3.725   3.056   9.992  0.5419  0.4862 -0.2362
  415TMC3    O2 6256   3.996   3.379   9.842  0.0197 -0.3309  0.4574
  416MPD2     C 6257   0.711   2.026  11.637  0.3305 -0.1465 -0.0096
  416MPD2    C1 6258   0.572   2.012  11.629 -0.6032 -0.6490  0.2455
  416MPD2    C2 6259   0.510   1.951  11.528 -0.2547 -0.0674  0.2043
  416MPD2    C3 6260   0.583   1.903  11.420 -0.2154  0.6902  0.4954
  416MPD2    C4 6261   0.723   1.898  11.432 -0.2882  0.5161  0.3040
  416MPD2    C5 6262   0.780   1.973  11.533  0.0653 -0.3167 -0.3903
  416MPD2     H 6263   0.402   1.944  11.539 -0.5868  3.8270 -0.4900
  416MPD2    H1 6264   0.789   1.867  11.351 -1.0325  0.8695 -0.4381
  416MPD2    H2 6265   0.761   2.084  11.714  1.5588  2.0133 -2.4330
  416MPD2    H3 6266   0.887   1.982  11.523  0.0133  0.1086 -0.5440
  416MPD2     N 6267   0.524   1.830  11.314 -0.4784 -0.2185 -0.6613
  416MPD2    H5 6268   0.590   1.776  11.258  0.8305  0.4627  0.2238
  416MPD2    N1 6269   0.483   2.052  11.722 -0.7969 -0.3814 -0.2912
  416MPD2    H7 6270   0.384   2.051  11.699 -0.2220  1.6123 -2.8792
  417TMC3    C1 6271   0.384   2.168  11.899  0.0823 -0.0242 -0.0381
  417TMC3    C2 6272   0.376   2.166  12.035  0.4506  0.1555 -0.1882
  417TMC3    C3 6273   0.252   2.206  12.084 -0.1983  0.3959  0.1501
  417TMC3    C4 6274   0.290   2.204  11.811  0.1758  0.8036  0.0949
  417TMC3    C5 6275   0.177   2.248  11.865 -0.6157 -0.5402 -0.1424
  417TMC3    C6 6276   0.147   2.244  12.001 -0.7129  0.2335  0.2033
  417TMC3     C 6277   0.503   2.112  11.844  0.4982 -0.3839 -0.0672
  417TMC3     O 6278   0.601   2.104  11.911  0.5001 -0.1843  0.0958
  417TMC3     H 6279   0.453   2.132  12.102  1.7848 -1.2074 -2.3954
  417TMC3    H1 6280   0.318   2.215  11.707 -0.3220  1.2724  0.0091
  417TMC3    H2 6281   0.058   2.286  12.048  0.2230  1.4579  0.8709
  417TMC3    C7 6282   0.109   2.346  11.776  0.2648  0.3354 -0.5422
  417TMC3    C8 6283   0.251   2.261  12.216  0.3412 -0.7024  0.2835
  417TMC3    O1 6284   0.149   2.344  11.658 -0.3339  0.5848 -0.2134
  417TMC3    O2 6285   0.145   2.283  12.267  0.2637  0.2638 -0.1135
  418TMC3    C1 6286   4.164   4.417   0.371  0.3621 -0.6952 -0.1786
  418TMC3    C2 6287   4.061   4.389   0.289  0.1258 -0.3352  0.3964
  418TMC3    C3 6288   3.993   4.275   0.316  0.0724  0.1951  0.7922
  418TMC3    C4 6289   4.206   4.332   0.473  0.9954 -0.1311 -0.0449
  418TMC3    C5 6290   4.141   4.214   0.491 -0.2599  0.2285 -0.2512
  418TMC3    C6 6291   4.029   4.190   0.420  0.1709 -0.3178  0.2601
  418TMC3     C 6292   4.257   4.511   0.317  0.4457 -0.1428  0.0929
  418TMC3     O 6293   4.210   4.610   0.264  0.3483 -0.6467 -0.0245
  418TMC3     H 6294   4.028   4.453   0.209  1.3197  0.5359  0.6068
  418TMC3    H1 6295   4.293   4.367   0.527  0.3251  0.3062  0.7584
  418TMC3    H2 6296   3.975   4.101   0.451 -2.2618  1.8721  2.2914
  418TMC3    C7 6297   4.185   4.113   0.591  0.7950  0.8467 -0.6132
  418TMC3    C8 6298   3.896   4.223   0.225  0.5744 -0.1630  0.1010
  418TMC3    O1 6299   4.145   3.997   0.579 -0.2658 -0.1332 -0.3007
  418TMC3    O2 6300   3.822   4.297   0.163  0.0057 -0.1923  0.0045
  419MPD2     C 6301   2.777   2.362  12.588 -0.3332 -0.2694  0.0376
  419MPD2    C1 6302   2.666   2.446  12.583  0.4964  0.1407  0.2213
  419MPD2    C2 6303   2.589   2.462  12.701  0.0801  0.0065  0.1885
  419MPD2    C3 6304   2.630   2.415  12.822  0.6674  0.0123 -0.6911
  419MPD2    C4 6305   2.747   2.340  12.828 -0.2002 -0.3270  0.5091
  419MPD2    C5 6306   2.817   2.316  12.713 -0.5838 -0.2586  0.2454
  419MPD2     H 6307   2.503   2.528  12.694  0.7802  0.7832 -1.2954
  419MPD2    H1 6308   2.796   2.298  12.915  1.1811 -1.4838 -0.8109
  419MPD2    H2 6309   2.841   2.344  12.503 -0.1833 -0.2804  0.1543
  419MPD2    H3 6310   2.903   2.252  12.728  0.3138  1.0519  0.7723
  419MPD2     N 6311   2.556   2.447  12.938 -0.7602 -0.1560  0.0203
  419MPD2    H5 6312   2.484   2.513  12.910 -2.1260 -2.1853 -1.2339
  419MPD2    N1 6313   2.615   2.505  12.467  0.0729 -0.9111 -0.3043
  419MPD2    H7 6314   2.541   2.571  12.488  1.1332 -0.1747  1.0874
  420TMC3    C1 6315   2.485   2.457  13.158  0.3231  0.1237 -0.2057
  420TMC3    C2 6316   2.386   2.534  13.116 -0.2236 -0.1413 -0.8130
  420TMC3    C3 6317   2.293   2.584  13.204 -0.2702  0.0747 -0.1995
  420TMC3    C4 6318   2.488   2.408  13.289  0.6939 -0.5736 -0.0338
  420TMC3    C5 6319   2.385   2.448  13.369  0.0676  0.7460  0.5028
  420TMC3    C6 6320   2.281   2.528  13.330 -0.4534 -0.0281  0.5355
  420TMC3     C 6321   2.589   2.410  13.065  0.1100 -0.2479 -0.6269
  420TMC3     O 6322   2.685   2.342  13.111 -0.3103 -0.0854 -0.0645
  420TMC3     H 6323   2.381   2.570  13.014 -1.3581  1.8214 -0.0677
  420TMC3    H1 6324   2.562   2.336  13.321  0.8153 -2.0300 -3.6193
  420TMC3    H2 6325   2.202   2.570  13.391 -0.6102  2.1728 -1.1518
  420TMC3    C7 6326   2.366   2.375  13.488  0.3483 -0.0313 -0.4826
  420TMC3    C8 6327   2.186   2.657  13.142 -0.5001 -0.2166  0.0474
  420TMC3    O1 6328   2.426   2.272  13.505  0.3782 -0.6280  0.1152
  420TMC3    O2 6329   2.214   2.737  13.053 -0.6578  0.0787  0.6065
  421TMC3    C1 6330   4.052   4.121  13.282  0.1319  0.4816  0.1044
  421TMC3    C2 6331   4.018   4.239  13.340 -0.1148 -0.8099  0.3528
  421TMC3    C3 6332   4.110   4.306  13.420  0.1556  0.0867  0.5957
  421TMC3    C4 6333   4.175   4.059  13.301  0.3065 -0.4256 -0.2103
  421TMC3    C5 6334   4.268   4.136  13.367  0.0760  0.0889 -0.7057
  421TMC3    C6 6335   4.239   4.262  13.424  0.2638  0.2975  0.0233
  421TMC3     C 6336   3.952   4.049  13.207  0.1674 -0.0077  0.3077
  421TMC3     O 6337   3.860   4.115  13.161 -0.5451  0.1338 -0.0498
  421TMC3     H 6338   3.912   4.262  13.332  0.6313  0.9622 -4.6972
  421TMC3    H1 6339   4.202   3.976  13.238 -0.2628 -1.5005  0.9712
  421TMC3    H2 6340   4.310   4.319  13.483  1.5804  1.0104 -2.2408
  421TMC3    C7 6341   4.398   4.082  13.386  0.4064 -0.3941 -0.2928
  421TMC3    C8 6342   4.055   4.372  13.536  0.8373 -0.6908  0.5231
  421TMC3    O1 6343   4.478   4.153  13.450 -0.1794  0.4072  0.4724
  421TMC3    O2 6344   4.135   4.441  13.596 -0.3559 -0.2235  0.3857
  422TMC3    C1 6345   1.585   0.681  12.543 -0.3181 -0.0266 -0.2051
  422TMC3    C2 6346   1.508   0.792  12.570  0.0921 -0.0243 -0.3625
  422TMC3    C3 6347   1.419   0.789  12.669  0.0340 -0.4689  0.5475
  422TMC3    C4 6348   1.582   0.573  12.619  0.7034  0.1473  0.3777
  422TMC3    C5 6349   1.500   0.575  12.723  0.2167 -0.1794  0.5922
  422TMC3    C6 6350   1.405   0.672  12.743 -0.7407  0.0192  0.3592
  422TMC3     C 6351   1.671   0.677  12.427  0.8364 -0.2446  0.5076
  422TMC3     O 6352   1.655   0.770  12.346 -0.2114 -0.6016 -0.5466
  422TMC3     H 6353   1.501   0.880  12.506 -2.4462 -0.3938 -0.5975
  422TMC3    H1 6354   1.649   0.488  12.611 -1.7141 -1.6459 -0.9072
  422TMC3    H2 6355   1.339   0.670  12.830 -0.3998 -0.5134  0.6067
  422TMC3    C7 6356   1.484   0.448  12.795  0.5545 -0.1967 -0.6102
  422TMC3    C8 6357   1.336   0.913  12.704  0.1592 -0.4007  0.0159
  422TMC3    O1 6358   1.583   0.384  12.818  0.0175 -0.2827 -0.7924
  422TMC3    O2 6359   1.398   1.016  12.682 -0.1362  0.1526 -1.1127
  423MPD2     C 6360   2.528   1.146   0.678 -0.6490  0.1783  0.2945
  423MPD2    C1 6361   2.666   1.134   0.678 -0.1941  0.2171  0.7250
  423MPD2    C2 6362   2.734   1.087   0.562 -0.2647 -0.3548  0.3785
  423MPD2    C3 6363   2.663   1.064   0.443  0.3783  0.4864  0.6029
  423MPD2    C4 6364   2.525   1.075   0.454  0.0236 -0.1513 -0.2230
  423MPD2    C5 6365   2.462   1.119   0.569  0.6735  0.8929 -0.4328
  423MPD2     H 6366   2.842   1.086   0.570 -0.0317  0.6712 -2.4239
  423MPD2    H1 6367   2.463   1.062   0.367 -0.1129  0.5907 -0.2377
  423MPD2    H2 6368   2.469   1.180   0.762 -0.5458 -0.8017  0.7619
  423MPD2    H3 6369   2.354   1.119   0.578  0.7533 -0.3776  0.6316
  423MPD2     N 6370   2.711   1.006   0.324 -0.3475  0.6564 -0.7870
  423MPD2    H5 6371   2.646   1.002   0.246 -1.4881 -0.3939  0.2168
  423MPD2    N1 6372   2.741   1.170   0.791 -0.0965  0.0183  0.1395
  423MPD2    H7 6373   2.839   1.144   0.795 -0.4935 -1.2794  1.1690
  424TMC3    C1 6374   2.810   1.247   1.001 -0.4500  0.2728 -0.7930
  424TMC3    C2 6375   2.870   1.126   1.039  0.8657  0.4133 -0.1967
  424TMC3    C3 6376   2.945   1.121   1.160  0.7463  0.0863  0.0704
  424TMC3    C4 6377   2.802   1.354   1.083  0.0135 -0.2877  0.7324
  424TMC3    C5 6378   2.876   1.345   1.197 -0.0729  0.6410 -0.0744
  424TMC3    C6 6379   2.945   1.237   1.243 -0.8089  0.4132 -0.2593
  424TMC3     C 6380   2.703   1.245   0.896 -0.0396  0.1676 -0.4479
  424TMC3     O 6381   2.595   1.294   0.915  0.3272 -0.3799  0.1512
  424TMC3     H 6382   2.856   1.036   0.980  0.2240  0.2859  0.1494
  424TMC3    H1 6383   2.763   1.445   1.038  0.3221  0.0210  1.0899
  424TMC3    H2 6384   2.971   1.236   1.349 -0.2727  2.9209 -0.3696
  424TMC3    C7 6385   2.881   1.468   1.278  0.5245 -0.3064 -0.2599
  424TMC3    C8 6386   3.003   0.995   1.213  0.7026 -0.2966 -0.4070
  424TMC3    O1 6387   2.966   1.467   1.360 -0.4796  0.2102  0.1315
  424TMC3    O2 6388   2.958   0.885   1.182 -0.0076 -0.3817 -0.5039
  425MPD2     C 6389   1.800   0.499  17.375 -0.2772  0.2024  0.4456
  425MPD2    C1 6390   1.743   0.461  17.261 -0.0458  0.3678 -0.1584
  425MPD2    C2 6391   1.616   0.508  17.233  0.8063 -0.8995  0.0495
  425MPD2    C3 6392   1.555   0.603  17.323  0.2823 -0.0645 -0.3842
  425MPD2    C4 6393   1.627   0.648  17.432 -0.5453 -0.3093  0.0574
  425MPD2    C5 6394   1.753   0.596  17.459 -0.1492  0.5112 -0.7295
  425MPD2     H 6395   1.554   0.480  17.149  0.2075  0.1807  0.1330
  425MPD2    H1 6396   1.586   0.729  17.491  1.9569 -0.3386  1.8276
  425MPD2    H2 6397   1.900   0.460  17.395  1.6538  2.6522 -4.4343
  425MPD2    H3 6398   1.806   0.622  17.550  0.7794  0.4772 -1.2557
  425MPD2     N 6399   1.420   0.632  17.306  0.0064  0.0509  0.1806
  425MPD2    H5 6400   1.369   0.598  17.225  0.3699 -1.5086  0.6025
  425MPD2    N1 6401   1.810   0.363  17.187  0.2653  0.4846 -0.3632
  425MPD2    H7 6402   1.899   0.334  17.225  0.4504  1.2881 -0.1941
  426TMC3    C1 6403   1.845   0.191  17.017  0.4144 -0.2865 -0.2523
  426TMC3    C2 6404   1.838   0.162  16.888  0.3341  0.0616  0.1654
  426TMC3    C3 6405   1.915   0.052  16.851  0.5037 -0.0900 -0.5652
  426TMC3    C4 6406   1.912   0.116  17.112  0.8331 -0.3182  0.1682
  426TMC3    C5 6407   1.997   0.020  17.067 -0.5778 -0.3634  0.2011
  426TMC3    C6 6408   1.990   4.713  16.937 -0.2918 -0.2991  0.4126
  426TMC3     C 6409   1.766   0.304  17.070  0.2993  0.7859  0.5540
  426TMC3     O 6410   1.670   0.333  17.000  0.0931 -0.0351  0.7237
  426TMC3     H 6411   1.773   0.217  16.821 -1.4053 -0.5795  1.3547
  426TMC3    H1 6412   1.891   0.130  17.218 -0.8942 -0.0465 -0.2102
  426TMC3    H2 6413   2.046   4.627  16.904 -0.0048  0.2662 -0.5829
  426TMC3    C7 6414   2.080   4.678  17.161  0.5100  0.0968 -0.2161
  426TMC3    C8 6415   1.920   0.009  16.714  0.1845 -0.1942  0.4783
  426TMC3    O1 6416   2.134   4.582  17.111  0.3662 -0.3492 -0.4217
  426TMC3    O2 6417   1.957   4.632  16.687  0.1815  0.3988 -0.7835
  427MPD2     C 6418   0.539   2.325  15.096  0.3351  1.0415  0.2173
  427MPD2    C1 6419   0.443   2.290  15.191  0.0390  0.9923 -0.3166
  427MPD2    C2 6420   0.307   2.321  15.182  0.0232 -0.2529 -0.9076
  427MPD2    C3 6421   0.270   2.398  15.075 -0.4534  0.0129  0.7043
  427MPD2    C4 6422   0.368   2.442  14.982  0.2769 -0.2878  0.5426
  427MPD2    C5 6423   0.496   2.408  14.998 -0.4999  0.1291  0.8363
  427MPD2     H 6424   0.238   2.291  15.259  0.8273 -1.9837 -0.8663
  427MPD2    H1 6425   0.340   2.503  14.897  0.8906 -1.5028 -0.5358
  427MPD2    H2 6426   0.644   2.299  15.102  0.0205 -0.4582 -0.7506
  427MPD2    H3 6427   0.569   2.449  14.928 -0.6392  0.0562  0.6479
  427MPD2     N 6428   0.133   2.425  15.061 -0.2112 -0.1652  0.2693
  427MPD2    H5 6429   0.067   2.385  15.127 -0.5522  0.1323  0.1106
  427MPD2    N1 6430   0.490   2.241  15.315 -0.8219 -0.3150 -0.2453
  427MPD2    H7 6431   0.591   2.248  15.311 -0.7955 -0.9010 -0.5681
  428TMC3    C1 6432   0.484   2.175  15.541  0.3024  0.1752 -0.4312
  428TMC3    C2 6433   0.446   2.064  15.612  0.2102 -0.1267  0.4553
  428TMC3    C3 6434   0.540   2.002  15.692  0.5900 -0.2114 -0.2420
  428TMC3    C4 6435   0.609   2.229  15.555  0.0547 -0.2846  0.3162
  428TMC3    C5 6436   0.699   2.162  15.638 -0.5163  0.0900 -0.0779
  428TMC3    C6 6437   0.668   2.049  15.708 -0.1917 -0.7245  0.4832
  428TMC3     C 6438   0.414   2.181  15.417 -0.1186 -0.1398 -0.7541
  428TMC3     O 6439   0.296   2.152  15.406 -0.0143  0.2022  0.2581
  428TMC3     H 6440   0.343   2.031  15.609 -0.0704  0.7408  0.6054
  428TMC3    H1 6441   0.643   2.318  15.504  0.2747  0.4180  1.6942
  428TMC3    H2 6442   0.735   2.005  15.781  0.8488  1.7449  1.0154
  428TMC3    C7 6443   0.832   2.209  15.658  0.3812 -0.8058  0.9606
  428TMC3    C8 6444   0.509   1.866  15.738  0.3581 -0.4472 -0.1820
  428TMC3    O1 6445   0.892   2.181  15.761  0.2274  0.4007 -0.2357
  428TMC3    O2 6446   0.606   1.793  15.756 -0.0816 -0.3358 -0.5492
  429MPD2     C 6447   2.060   2.720  17.635  0.4854 -0.2150  0.3965
  429MPD2    C1 6448   1.955   2.657  17.571 -0.1601 -0.5388 -0.8194
  429MPD2    C2 6449   1.905   2.716  17.449 -0.1509  0.4470 -0.1644
  429MPD2    C3 6450   1.952   2.832  17.398  0.3843 -0.1158  0.2773
  429MPD2    C4 6451   2.054   2.894  17.472  0.4813  0.4060 -0.0248
  429MPD2    C5 6452   2.097   2.843  17.591 -0.3079  0.5075  0.1273
  429MPD2     H 6453   1.836   2.658  17.390  1.9526 -2.0172 -0.2206
  429MPD2    H1 6454   2.092   2.990  17.441  1.0351 -0.1620 -1.1156
  429MPD2    H2 6455   2.099   2.688  17.730  0.7718  0.7542  0.6053
  429MPD2    H3 6456   2.165   2.898  17.655 -1.0001  0.3163  1.0187
  429MPD2     N 6457   1.904   2.858  17.268  0.0259 -0.5214  0.9519
  429MPD2    H5 6458   1.849   2.789  17.217  0.2260  0.4920 -0.6249
  429MPD2    N1 6459   1.900   2.528  17.609  0.5588 -0.6275 -0.0423
  429MPD2    H7 6460   1.830   2.495  17.544  0.7784  0.9797 -1.0872
  430TMC3    C1 6461   1.889   2.969  17.072 -0.5336  0.2155 -0.0739
  430TMC3    C2 6462   1.873   3.082  17.004  0.4193 -0.0522  0.1786
  430TMC3    C3 6463   1.836   3.076  16.873 -0.0172 -0.6746 -0.6458
  430TMC3    C4 6464   1.898   2.847  17.009  0.2900  0.5353  0.3465
  430TMC3    C5 6465   1.881   2.846  16.874  0.0960 -0.4846 -0.6277
  430TMC3    C6 6466   1.842   2.956  16.812  0.2849 -0.0262  0.2159
  430TMC3     C 6467   1.933   2.975  17.206 -0.1667  0.1332  0.6147
  430TMC3     O 6468   1.973   3.077  17.258 -0.0514 -0.2251  0.5107
  430TMC3     H 6469   1.876   3.180  17.049  2.4036  1.3168 -2.9609
  430TMC3    H1 6470   1.929   2.757  17.060  1.1981  0.3465 -0.5474
  430TMC3    H2 6471   1.809   2.941  16.709 -0.1945  0.5723  0.2891
  430TMC3    C7 6472   1.887   2.719  16.810 -0.2776  0.5058  0.4126
  430TMC3    C8 6473   1.799   3.204  16.818  0.8205 -0.5348  0.5593
  430TMC3    O1 6474   1.966   2.645  16.859  0.5252  0.0187  0.1500
  430TMC3    O2 6475   1.819   3.305  16.888  0.5884  0.2474  0.9292
  431MPD2     C 6476   2.305   3.060  12.768 -0.2714  0.1357  0.1029
  431MPD2    C1 6477   2.405   3.075  12.670  0.0943 -0.6456 -0.2052
  431MPD2    C2 6478   2.400   3.010  12.548  0.2641  0.6612 -0.8736
  431MPD2    C3 6479   2.307   2.916  12.523  0.9840  0.2232  0.3287
  431MPD2    C4 6480   2.212   2.887  12.624  0.0642 -1.3895  0.1823
  431MPD2    C5 6481   2.216   2.957  12.744 -0.7270  0.1048  0.0008
  431MPD2     H 6482   2.479   3.036  12.478  0.3923  1.4598 -0.4331
  431MPD2    H1 6483   2.134   2.812  12.613  0.0317 -1.4314  0.6637
  431MPD2    H2 6484   2.315   3.102  12.867  2.2835  0.3551 -0.2506
  431MPD2    H3 6485   2.132   2.933  12.808 -1.7087  1.7858 -0.6443
  431MPD2     N 6486   2.299   2.843  12.407  0.6195 -0.7312 -0.5394
  431MPD2    H5 6487   2.227   2.772  12.395  0.3346 -0.4661 -0.3701
  431MPD2    N1 6488   2.522   3.145  12.701 -0.5518  0.9625  0.0878
  431MPD2    H7 6489   2.586   3.146  12.622 -0.7202 -1.6910 -0.0655
  432TMC3    C1 6490   2.398   2.735  12.222 -0.6099  0.4279 -0.3733
  432TMC3    C2 6491   2.459   2.752  12.099  0.0228  0.0050 -0.6918
  432TMC3    C3 6492   2.561   2.681  12.047 -0.1376  0.1770  0.5243
  432TMC3    C4 6493   2.469   2.643  12.299 -0.2294  0.7931  0.2326
  432TMC3    C5 6494   2.574   2.574  12.252  0.0738 -0.5949 -0.0132
  432TMC3    C6 6495   2.630   2.591  12.124  0.7044  0.1049  0.7259
  432TMC3     C 6496   2.374   2.862  12.295  0.1770  0.6774  0.2710
  432TMC3     O 6497   2.436   2.960  12.264  0.2439  0.3635 -0.4757
  432TMC3     H 6498   2.414   2.824  12.031 -2.3284  2.5192  3.5204
  432TMC3    H1 6499   2.424   2.628  12.397 -1.4678  2.0563 -0.1210
  432TMC3    H2 6500   2.716   2.531  12.098 -0.4667 -1.8607  1.4339
  432TMC3    C7 6501   2.662   2.496  12.336 -0.1704  0.4230  0.2442
  432TMC3    C8 6502   2.624   2.732  11.928 -0.2515  0.6350  0.0699
  432TMC3    O1 6503   2.740   2.419  12.287  0.1466  0.5856  0.2055
  432TMC3    O2 6504   2.588   2.840  11.885  0.4620  0.5236  0.3058
  433MPD2     C 6505   1.174   1.179  10.722 -0.2804 -0.4542 -0.6107
  433MPD2    C1 6506   1.309   1.191  10.746 -0.2661 -0.3226  0.7700
  433MPD2    C2 6507   1.340   1.260  10.862 -0.2913  0.4584 -0.2449
  433MPD2    C3 6508   1.253   1.306  10.954  0.0335  0.5093 -0.5381
  433MPD2    C4 6509   1.118   1.283  10.929  0.3907 -0.4571 -0.5695
  433MPD2    C5 6510   1.084   1.225  10.812  0.1803 -0.0264  0.5420
  433MPD2     H 6511   1.445   1.273  10.885 -0.2536 -0.5435  0.1667
  433MPD2    H1 6512   1.032   1.313  10.988  1.2965  3.4426 -1.2368
  433MPD2    H2 6513   1.134   1.126  10.635 -1.1248  0.7133 -0.9282
  433MPD2    H3 6514   0.980   1.204  10.786  0.6940 -0.2384 -1.4060
  433MPD2     N 6515   1.302   1.374  11.070  0.1281 -0.0968  1.3247
  433MPD2    H5 6516   1.398   1.406  11.060  0.0552 -0.2734  0.1397
  433MPD2    N1 6517   1.399   1.127  10.661  0.2703  0.2346 -0.2028
  433MPD2    H7 6518   1.352   1.066  10.595 -2.1228  1.1879  0.6009
  434TMC3    C1 6519   1.611   1.073  10.561  0.9688  0.3414 -0.2461
  434TMC3    C2 6520   1.740   1.064  10.604 -0.6765  0.2897  0.5760
  434TMC3    C3 6521   1.791   0.935  10.611 -0.0454 -0.1007  0.2985
  434TMC3    C4 6522   1.537   0.978  10.496  0.1766  0.3610 -0.0058
  434TMC3    C5 6523   1.599   0.855  10.496 -0.6336  0.4193  0.0901
  434TMC3    C6 6524   1.713   0.827  10.575 -0.0471  0.1286 -0.3181
  434TMC3     C 6525   1.536   1.157  10.657  0.1913 -0.0402 -0.3614
  434TMC3     O 6526   1.610   1.221  10.734  0.3588  0.0639  0.0304
  434TMC3     H 6527   1.789   1.141  10.662  1.5893 -2.4254  2.3130
  434TMC3    H1 6528   1.435   0.978  10.460  0.4908 -0.9537 -0.9108
  434TMC3    H2 6529   1.741   0.724  10.587  0.4107  0.2139 -0.6722
  434TMC3    C7 6530   1.530   0.755  10.427 -0.7214  0.2526 -0.2665
  434TMC3    C8 6531   1.924   0.919  10.669 -0.1835  0.3971 -0.1653
  434TMC3    O1 6532   1.490   0.780  10.315 -0.2196  0.4234  0.1967
  434TMC3    O2 6533   1.978   1.029  10.695 -0.5374 -0.3043 -0.1532
  435MPD2     C 6534   2.775   1.174  15.256  0.0388 -0.3758  0.2117
  435MPD2    C1 6535   2.785   1.264  15.363 -0.5535 -0.5549  0.1983
  435MPD2    C2 6536   2.897   1.280  15.435  0.0670  0.2453 -0.1460
  435MPD2    C3 6537   3.010   1.201  15.406 -0.3043 -0.6114  0.7019
  435MPD2    C4 6538   2.994   1.104  15.311  0.4208 -0.1938 -0.4364
  435MPD2    C5 6539   2.878   1.090  15.240  0.4466 -0.2717  0.8691
  435MPD2     H 6540   2.893   1.350  15.517 -1.7950 -0.2845  0.2120
  435MPD2    H1 6541   3.069   1.026  15.301 -0.0935 -0.4431 -2.3621
  435MPD2    H2 6542   2.687   1.168  15.193  1.8252 -3.1189 -2.0204
  435MPD2    H3 6543   2.879   1.012  15.164  2.0387 -1.1830  1.8207
  435MPD2     N 6544   3.120   1.199  15.496  0.3267  0.4363 -0.5924
  435MPD2    H5 6545   3.119   1.267  15.572  0.7106  1.6761 -1.6793
  435MPD2    N1 6546   2.678   1.335  15.420  0.3557 -0.0836 -0.1247
  435MPD2    H7 6547   2.686   1.389  15.505  1.8058  0.3788 -0.5581
  436TMC3    C1 6548   2.287   1.403  15.620 -0.0259  0.7763 -0.6824
  436TMC3    C2 6549   2.362   1.327  15.532 -0.9930 -1.2800  0.1495
  436TMC3    C3 6550   2.472   1.390  15.474  0.3693 -0.0621  0.2951
  436TMC3    C4 6551   2.311   1.538  15.640  0.1374  0.4125  0.1580
  436TMC3    C5 6552   2.417   1.588  15.571  0.5655 -0.1937  0.1823
  436TMC3    C6 6553   2.499   1.522  15.496 -0.8989  0.2673 -0.2086
  436TMC3     C 6554   2.203   1.322  15.712 -0.7661  0.3834 -0.0860
  436TMC3     O 6555   2.182   1.201  15.689 -0.9301 -0.3587  0.6643
  436TMC3     H 6556   2.350   1.220  15.517 -3.9182 -1.1039  1.1357
  436TMC3    H1 6557   2.233   1.600  15.683 -1.3432 -1.1078 -0.3523
  436TMC3    H2 6558   2.569   1.579  15.435 -2.5613 -0.8641 -3.1676
  436TMC3    C7 6559   2.433   1.730  15.578  0.3819  0.5324 -0.1708
  436TMC3    C8 6560   2.550   1.321  15.380  0.5882 -0.4887  0.7062
  436TMC3    O1 6561   2.329   1.783  15.605  0.1502  0.0300 -0.2018
  436TMC3    O2 6562   2.502   1.239  15.305  0.1075 -0.1567 -0.2582
  437TMC3    C1 6563   2.243   3.051  13.202 -0.0690 -0.3234 -0.3315
  437TMC3    C2 6564   2.130   3.010  13.259  0.2178  0.1031 -0.2963
  437TMC3    C3 6565   2.024   3.091  13.246 -0.1383  0.0172 -0.0017
  437TMC3    C4 6566   2.252   3.158  13.115 -0.9450  0.2849  0.7335
  437TMC3    C5 6567   2.136   3.232  13.092 -0.1966  0.3758  0.5325
  437TMC3    C6 6568   2.024   3.197  13.157 -0.2287 -0.1370 -0.4411
  437TMC3     C 6569   2.359   3.006  13.276 -0.7561  0.0639  0.0556
  437TMC3     O 6570   2.342   2.921  13.367  0.0648 -0.3832  0.2014
  437TMC3     H 6571   2.131   2.934  13.336 -1.9191  0.8707  0.4885
  437TMC3    H1 6572   2.336   3.183  13.051  0.6284 -1.0237  2.2926
  437TMC3    H2 6573   1.932   3.253  13.145  1.4636  2.4666 -1.3638
  437TMC3    C7 6574   2.145   3.362  13.031 -0.4800  0.0774  0.6565
  437TMC3    C8 6575   1.903   3.052  13.310 -0.0309  0.8091 -0.2214
  437TMC3    O1 6576   2.049   3.437  13.038  0.1719 -0.6532 -0.1606
  437TMC3    O2 6577   1.904   2.958  13.391  0.6734 -0.1479 -0.2837
  438MPD2     C 6578   4.128   4.070  16.632 -0.3736 -0.1249  0.1829
  438MPD2    C1 6579   4.197   3.964  16.682 -0.2054  0.1086  0.2018
  438MPD2    C2 6580   4.240   3.954  16.812 -0.2332 -0.2890 -0.9441
  438MPD2    C3 6581   4.220   4.061  16.901  0.1834 -0.0657  0.3125
  438MPD2    C4 6582   4.178   4.181  16.846  0.0945 -0.6553  0.5919
  438MPD2    C5 6583   4.123   4.181  16.722  0.0623  0.2474 -0.4712
  438MPD2     H 6584   4.295   3.868  16.849  1.9149  0.5012 -2.3427
  438MPD2    H1 6585   4.171   4.262  16.918 -3.2453 -0.2183 -0.2223
  438MPD2    H2 6586   4.089   4.076  16.531  1.0784 -2.4742 -0.5125
  438MPD2    H3 6587   4.072   4.272  16.692 -1.0781  0.0757  0.9072
  438MPD2     N 6588   4.255   4.058  17.032 -0.0633 -0.5664  0.1403
  438MPD2    H5 6589   4.284   4.146  17.073 -3.9851  0.6221  0.3980
  438MPD2    N1 6590   4.246   3.859  16.596 -0.1223  0.0446  0.0551
  438MPD2    H7 6591   4.293   3.779  16.637 -1.9582 -1.3806 -0.6166
  439TMC3    C1 6592   4.300   3.736  16.409  0.4840  0.0354  0.0566
  439TMC3    C2 6593   4.280   3.702  16.281 -0.0518  0.2156 -0.3116
  439TMC3    C3 6594   4.359   3.599  16.226  0.5924  0.0197  0.2830
  439TMC3    C4 6595   4.413   3.696  16.478  0.1470  0.7281 -0.5177
  439TMC3    C5 6596   4.492   3.603  16.425 -0.1814  0.1787  0.0923
  439TMC3    C6 6597   4.462   3.544  16.299 -0.3220 -0.0453 -0.3705
  439TMC3     C 6598   4.222   3.841  16.461  0.4567  0.1664  0.5841
  439TMC3     O 6599   4.143   3.894  16.386  0.1216  0.8734  0.1211
  439TMC3     H 6600   4.186   3.732  16.238 -0.6180  1.1962  1.5807
  439TMC3    H1 6601   4.446   3.745  16.569 -1.7775 -0.4968  0.8222
  439TMC3    H2 6602   4.535   3.479  16.252 -1.1861 -2.6143  1.8030
  439TMC3    C7 6603   4.627   3.587  16.489  0.2622  0.2273 -0.8086
  439TMC3    C8 6604   4.342   3.552  16.094  0.2228 -0.4627  0.8266
  439TMC3    O1 6605   4.630   3.620  16.604 -0.3127 -0.1379 -0.0508
  439TMC3    O2 6606   4.372   3.432  16.078 -0.6740 -0.1114 -0.1815
  440MPD2     C 6607   3.091   4.589  14.532 -0.1192 -0.0890  0.6165
  440MPD2    C1 6608   3.084   4.630  14.668 -0.2677  0.1622  0.1850
  440MPD2    C2 6609   3.188   4.605  14.748  0.3767 -0.0524  0.1450
  440MPD2    C3 6610   3.304   4.542  14.699 -0.7634  0.0109 -0.5123
  440MPD2    C4 6611   3.315   4.501  14.570 -0.1808  0.2403 -0.0491
  440MPD2    C5 6612   3.205   4.524  14.494  0.1077 -0.7430 -0.1503
  440MPD2     H 6613   3.175   4.627  14.853  1.3159 -1.9328  0.6651
  440MPD2    H1 6614   3.402   4.450  14.530 -0.3933 -0.3870  0.2823
  440MPD2    H2 6615   3.013   4.606  14.458  0.5687  0.5309  0.0293
  440MPD2    H3 6616   3.218   4.489  14.392  0.0566 -0.6004 -0.2070
  440MPD2     N 6617   3.418   4.514  14.778  0.3227  0.5840 -0.0542
  440MPD2    H5 6618   3.489   4.459  14.732 -1.3423 -0.5992 -1.2009
  440MPD2    N1 6619   2.969   4.687  14.727 -0.2532 -0.5319 -0.1213
  440MPD2    H7 6620   2.972   4.706  14.827  1.6171  2.4483 -0.7750
  441TMC3    C1 6621   3.549   4.491  14.956 -0.3195  0.0960  0.0727
  441TMC3    C2 6622   3.632   4.581  15.032 -0.0490 -0.0589 -0.1809
  441TMC3    C3 6623   3.719   4.534  15.125 -0.3153 -0.2832 -0.5110
  441TMC3    C4 6624   3.555   4.357  14.971 -0.3586  0.7633  0.2883
  441TMC3    C5 6625   3.633   4.321  15.072  0.4537 -0.5352  0.6772
  441TMC3    C6 6626   3.711   4.399  15.154  0.4001  0.5552  0.0481
  441TMC3     C 6627   3.427   4.543  14.913  0.1842  0.6632 -0.2913
  441TMC3     O 6628   3.343   4.584  14.994  0.0998  0.5484  0.2464
  441TMC3     H 6629   3.636   4.682  14.995 -0.1999  0.1831  0.4677
  441TMC3    H1 6630   3.478   4.295  14.925 -0.9253  0.7072  1.3179
  441TMC3    H2 6631   3.761   4.363  15.243  0.9392  2.5460  0.5425
  441TMC3    C7 6632   3.612   4.178  15.108  0.1657 -0.4000  0.6418
  441TMC3    C8 6633   3.762   4.620  15.231 -0.6010 -0.0623 -0.4686
  441TMC3    O1 6634   3.604   4.108  15.007 -0.2685  0.3124 -0.2065
  441TMC3    O2 6635   3.884   4.617  15.251  0.1489  0.2221  0.0672
  442MPD2     C 6636   1.529   0.122  16.488 -0.1600  0.2759  0.5336
  442MPD2    C1 6637   1.471   0.038  16.585  0.9478 -0.5413  0.1021
  442MPD2    C2 6638   1.500   4.637  16.589 -1.1868 -0.4326 -0.5772
  442MPD2    C3 6639   1.560   4.580  16.479 -0.0246  0.0962  0.5326
  442MPD2    C4 6640   1.603   4.661  16.378  0.1174 -0.5826  0.1695
  442MPD2    C5 6641   1.594   0.060  16.384 -0.4471 -0.2877 -1.4102
  442MPD2     H 6642   1.462   4.573  16.668  0.1621 -0.5381 -0.0113
  442MPD2    H1 6643   1.654   4.619  16.291  0.5307 -0.9859  0.6091
  442MPD2    H2 6644   1.523   0.230  16.484 -2.0616  0.1814  0.9977
  442MPD2    H3 6645   1.638   0.119  16.304  0.3263  0.5657 -0.3551
  442MPD2     N 6646   1.575   4.440  16.456  0.4090  0.2863  0.3252
  442MPD2    H5 6647   1.605   4.407  16.364  1.6481 -0.1225  0.8733
  442MPD2    N1 6648   1.382   0.088  16.679  0.5790 -0.2355  0.6529
  442MPD2    H7 6649   1.355   0.022  16.752 -1.8904 -0.8535 -0.8168
  443TMC3    C1 6650   1.258   0.243  16.806  0.4725  0.6427  0.5921
  443TMC3    C2 6651   1.276   0.375  16.849  0.3648  0.5637  0.1406
  443TMC3    C3 6652   1.185   0.422  16.940 -0.6036  0.5467  0.5632
  443TMC3    C4 6653   1.155   0.168  16.841 -0.5813 -0.7162 -0.0385
  443TMC3    C5 6654   1.063   0.221  16.929 -0.1892  0.1549 -0.9006
  443TMC3    C6 6655   1.074   0.348  16.986  0.6477 -0.6282  0.1797
  443TMC3     C 6656   1.327   0.218  16.683  0.1407 -0.0727  0.2271
  443TMC3     O 6657   1.366   0.314  16.619 -0.4664  0.0069  0.0629
  443TMC3     H 6658   1.361   0.433  16.814  0.4960  0.1219 -0.2766
  443TMC3    H1 6659   1.142   0.072  16.792 -0.6799 -0.0156 -1.4080
  443TMC3    H2 6660   0.992   0.404  17.031  1.4537  0.4893  0.2787
  443TMC3    C7 6661   0.948   0.141  16.957 -0.2628  0.0640 -0.4731
  443TMC3    C8 6662   1.197   0.547  16.999 -0.6998 -0.0293 -0.7940
  443TMC3    O1 6663   0.928   0.034  16.896  0.2135  0.4083 -0.1995
  443TMC3    O2 6664   1.267   0.559  17.101 -0.0849 -0.1738  0.5120
  444MPD2     C 6665   1.285   4.555  17.228  0.0903  1.0304 -0.0984
  444MPD2    C1 6666   1.200   4.466  17.165  0.1927  0.0906 -0.0107
  444MPD2    C2 6667   1.252   4.351  17.111  0.7646 -0.1678  0.0020
  444MPD2    C3 6668   1.391   4.325  17.112 -0.5346  0.2849 -0.1515
  444MPD2    C4 6669   1.474   4.413  17.177  0.3000 -0.2436  0.8812
  444MPD2    C5 6670   1.419   4.524  17.233 -0.4383 -0.5460 -0.0623
  444MPD2     H 6671   1.186   4.282  17.058 -0.2063  1.6377 -1.1235
  444MPD2    H1 6672   1.580   4.399  17.194  0.4849  1.5678  1.1544
  444MPD2    H2 6673   1.245   4.637  17.287 -2.8716  1.2895 -2.4862
  444MPD2    H3 6674   1.493   4.592  17.274 -0.4991 -1.3564  1.4177
  444MPD2     N 6675   1.431   4.204  17.050  0.5757  0.0072  0.4727
  444MPD2    H5 6676   1.365   4.153  16.993  0.9271 -1.3456  1.3010
  444MPD2    N1 6677   1.060   4.476  17.180 -0.1538 -0.4895 -0.0401
  444MPD2    H7 6678   1.008   4.395  17.146  0.9952 -1.0849 -0.3942
  445TMC3    C1 6679   1.587   4.033  16.980 -0.1191  0.6711  0.4330
  445TMC3    C2 6680   1.491   3.930  17.008  0.2597  0.7071 -0.0987
  445TMC3    C3 6681   1.519   3.802  16.977  0.7310  0.0558  0.1921
  445TMC3    C4 6682   1.704   4.004  16.924 -0.4494 -0.4064 -0.2173
  445TMC3    C5 6683   1.720   3.877  16.877  0.8108 -0.0684  0.0881
  445TMC3    C6 6684   1.630   3.771  16.903  0.5826 -0.1014  0.6372
  445TMC3     C 6685   1.569   4.166  17.042 -0.1643 -0.5738 -0.5260
  445TMC3     O 6686   1.672   4.227  17.069  0.4142 -0.0644 -0.3307
  445TMC3     H 6687   1.396   3.952  17.056 -0.2486 -1.8884  0.0614
  445TMC3    H1 6688   1.767   4.087  16.894  0.4811 -0.3177  1.9847
  445TMC3    H2 6689   1.643   3.678  16.849  1.4402 -0.4160  1.3936
  445TMC3    C7 6690   1.829   3.853  16.777 -0.4820  0.0110 -0.1324
  445TMC3    C8 6691   1.420   3.697  16.986  0.1636  0.6429  0.2198
  445TMC3    O1 6692   1.871   3.950  16.721  0.6179 -0.4383  0.2765
  445TMC3    O2 6693   1.304   3.727  16.963  0.1157 -0.3545  0.2040
  446MPD2     C 6694   1.649   0.779  11.082 -0.1203  0.0596  0.2271
  446MPD2    C1 6695   1.589   0.853  10.988 -0.1121 -0.9699  0.5770
  446MPD2    C2 6696   1.647   0.972  10.948 -0.3886 -0.1605 -0.6893
  446MPD2    C3 6697   1.777   1.013  10.990  0.3453  0.2212  0.2329
  446MPD2    C4 6698   1.839   0.929  11.080  0.6152  0.2479 -0.2747
  446MPD2    C5 6699   1.772   0.812  11.124  0.1114  0.9860  0.6312
  446MPD2     H 6700   1.582   1.033  10.886  0.1498  0.6531 -0.4551
  446MPD2    H1 6701   1.939   0.950  11.119  0.2919 -0.2539  0.8261
  446MPD2    H2 6702   1.618   0.685  11.126  1.6839 -0.9796 -0.7010
  446MPD2    H3 6703   1.817   0.750  11.201  0.6479  0.1728 -0.3446
  446MPD2     N 6704   1.831   1.133  10.941 -0.0317  0.8038  0.0378
  446MPD2    H5 6705   1.768   1.181  10.877  0.3806  1.4542  0.1135
  446MPD2    N1 6706   1.464   0.820  10.935 -0.1270 -0.0959 -0.1553
  446MPD2    H7 6707   1.410   0.892  10.888 -1.0313 -1.2581 -0.8962
  447TMC3    C1 6708   1.982   1.311  10.884 -0.0742  0.5820 -0.9245
  447TMC3    C2 6709   1.881   1.370  10.805  0.4134 -0.2352 -0.2674
  447TMC3    C3 6710   1.925   1.454  10.708  0.7469 -0.0826 -0.3868
  447TMC3    C4 6711   2.116   1.353  10.876  0.3381  0.1374  0.5434
  447TMC3    C5 6712   2.142   1.430  10.763 -0.7407 -0.2757 -0.1270
  447TMC3    C6 6713   2.057   1.482  10.680 -0.8692  0.1337 -0.4685
  447TMC3     C 6714   1.952   1.193  10.965 -0.7062 -0.2620  0.0853
  447TMC3     O 6715   2.020   1.171  11.059  0.9166  0.2897 -0.0096
  447TMC3     H 6716   1.777   1.343  10.823  1.3252 -3.7506 -0.4259
  447TMC3    H1 6717   2.186   1.284  10.921  0.1094 -0.8476 -0.6058
  447TMC3    H2 6718   2.089   1.539  10.593  1.2991 -1.5377 -0.7404
  447TMC3    C7 6719   2.283   1.446  10.734 -0.4375  0.3949 -0.1071
  447TMC3    C8 6720   1.834   1.487  10.596 -1.1055  0.1579  0.5317
  447TMC3    O1 6721   2.311   1.487  10.620 -0.6073 -0.4128 -0.5909
  447TMC3    O2 6722   1.882   1.496  10.484 -0.0120  0.4768  0.1877
  448TMC3    C1 6723   4.290   0.451  16.677  0.2144 -0.3886  0.3395
  448TMC3    C2 6724   4.293   0.370  16.562 -0.2592  0.3882  0.1706
  448TMC3    C3 6725   4.406   0.292  16.533  0.2182  0.1888 -0.5629
  448TMC3    C4 6726   4.393   0.450  16.765 -0.4165 -0.0590 -0.4324
  448TMC3    C5 6727   4.497   0.366  16.740  0.4025 -0.1215  0.7253
  448TMC3    C6 6728   4.504   0.295  16.625  0.0954  1.0474  0.4760
  448TMC3     C 6729   4.197   0.557  16.679  0.9949  0.3778 -0.4500
  448TMC3     O 6730   4.160   0.610  16.575  0.1635 -0.0202 -0.1222
  448TMC3     H 6731   4.209   0.367  16.493  0.9591 -2.6903 -1.1726
  448TMC3    H1 6732   4.394   0.510  16.855 -0.4344 -1.1087  0.2671
  448TMC3    H2 6733   4.593   0.235  16.612 -0.1098  1.3400 -2.2631
  448TMC3    C7 6734   4.598   0.331  16.842  0.0213  1.2014 -1.2126
  448TMC3    C8 6735   4.373   0.155  16.505 -0.2614  0.0486 -0.3497
  448TMC3    O1 6736   4.713   0.346  16.801 -0.7992  0.0700  0.3527
  448TMC3    O2 6737   4.421   0.074  16.583 -0.5267  0.2990 -0.2069
  449MPD2     C 6738   1.210   4.053  14.502 -0.0003  0.0760 -0.1557
  449MPD2    C1 6739   1.158   4.166  14.440  0.1330  0.2022 -0.0826
  449MPD2    C2 6740   1.025   4.191  14.438  0.1012  0.0635 -0.8799
  449MPD2    C3 6741   0.937   4.104  14.495  0.3304  0.3945 -0.4484
  449MPD2    C4 6742   0.982   3.999  14.566 -0.8265 -0.3701  1.0121
  449MPD2    C5 6743   1.119   3.971  14.567  0.9052 -0.1226 -0.4499
  449MPD2     H 6744   0.991   4.279  14.384 -0.9578  1.7449  2.5332
  449MPD2    H1 6745   0.917   3.932  14.622 -1.8427  0.4905  0.8583
  449MPD2    H2 6746   1.315   4.029  14.502  0.2411  1.1384  0.4692
  449MPD2    H3 6747   1.143   3.878  14.617 -0.2398  0.6482  1.5606
  449MPD2     N 6748   0.799   4.129  14.479 -0.5228 -0.4374  0.9843
  449MPD2    H5 6749   0.776   4.186  14.399 -0.6126 -1.5032  0.2594
  449MPD2    N1 6750   1.231   4.254  14.363 -0.4847  0.5849 -0.3902
  449MPD2    H7 6751   1.195   4.345  14.335 -2.3731 -0.6253 -1.8767
  450TMC3    C1 6752   1.372   4.312  14.200 -0.0883 -0.2883 -0.0290
  450TMC3    C2 6753   1.379   4.242  14.079  0.1971  0.4947 -0.0610
  450TMC3    C3 6754   1.313   4.304  13.972  0.6735 -0.3950 -0.3737
  450TMC3    C4 6755   1.313   4.442  14.203  0.1906  0.0263 -0.1516
  450TMC3    C5 6756   1.242   4.491  14.099 -0.1929  0.1648  0.8106
  450TMC3    C6 6757   1.249   4.421  13.980  1.1900  0.2371  0.7168
  450TMC3     C 6758   1.349   4.219  14.304  0.6005 -0.1951 -0.0630
  450TMC3     O 6759   1.402   4.110  14.307  0.2899  0.0295 -0.2675
  450TMC3     H 6760   1.384   4.134  14.087  0.7530  0.6135  1.2446
  450TMC3    H1 6761   1.297   4.485  14.301  0.5813  0.0719 -0.1076
  450TMC3    H2 6762   1.183   4.446  13.898  0.9557  0.3853  0.9493
  450TMC3    C7 6763   1.110   4.536  14.144 -0.4532 -0.5957  0.6174
  450TMC3    C8 6764   1.271   4.219  13.854  0.5589 -0.1076 -0.6429
  450TMC3    O1 6765   1.072   4.485  14.248 -0.2853  0.0078  0.0435
  450TMC3    O2 6766   1.155   4.233  13.810 -0.0449 -0.6094  0.2171
  451MPD2     C 6767   2.665   2.444   1.141 -0.2132  0.1118 -0.0940
  451MPD2    C1 6768   2.605   2.456   1.016 -0.3324 -0.2901  0.1540
  451MPD2    C2 6769   2.627   2.354   0.925 -0.0701  0.4526  0.1928
  451MPD2    C3 6770   2.712   2.249   0.949 -0.0697 -0.1580  0.1254
  451MPD2    C4 6771   2.788   2.249   1.063  0.4277  0.5543  0.1640
  451MPD2    C5 6772   2.763   2.348   1.155  0.5921 -0.0715 -1.0903
  451MPD2     H 6773   2.572   2.361   0.832  0.2728  1.6424  0.0755
  451MPD2    H1 6774   2.866   2.179   1.089  2.0022  1.4063 -2.3042
  451MPD2    H2 6775   2.649   2.515   1.221 -0.0099 -0.7228  0.6850
  451MPD2    H3 6776   2.829   2.361   1.240  0.0732  0.9541 -0.8409
  451MPD2     N 6777   2.743   2.150   0.849 -0.1605 -0.1214 -0.8380
  451MPD2    H5 6778   2.822   2.091   0.872 -1.0129 -0.7859  0.3527
  451MPD2    N1 6779   2.527   2.574   0.981 -0.1179 -0.3463  0.4635
  451MPD2    H7 6780   2.549   2.652   1.043 -1.6897 -0.0292  0.6248
  452TMC3    C1 6781   2.705   1.995   0.678  0.1893 -0.5545  0.0774
  452TMC3    C2 6782   2.613   1.907   0.639 -0.6767 -0.0191 -0.3854
  452TMC3    C3 6783   2.644   1.807   0.549  0.1080 -0.0921 -0.6550
  452TMC3    C4 6784   2.836   1.981   0.630 -0.4894 -0.4922  0.2894
  452TMC3    C5 6785   2.863   1.890   0.531 -0.3402 -0.1119  0.2926
  452TMC3    C6 6786   2.770   1.793   0.499 -0.5228 -0.1297 -0.1824
  452TMC3     C 6787   2.676   2.122   0.736 -0.7092 -0.0971  0.4275
  452TMC3     O 6788   2.582   2.182   0.688 -0.0177 -0.3141  0.1265
  452TMC3     H 6789   2.511   1.943   0.649 -0.0187  2.1500 -1.3957
  452TMC3    H1 6790   2.903   2.062   0.655  0.8274 -1.0580 -1.4714
  452TMC3    H2 6791   2.790   1.711   0.430 -0.0693  0.5413 -0.8482
  452TMC3    C7 6792   2.989   1.910   0.457 -0.4100  0.1927  0.1045
  452TMC3    C8 6793   2.542   1.712   0.509  0.0499  0.3381 -0.0248
  452TMC3    O1 6794   3.052   2.010   0.499  1.0588 -0.3370  0.0068
  452TMC3    O2 6795   2.434   1.721   0.567 -0.3216 -0.1852 -0.9953
  453TMC3    C1 6796   3.803   4.182  11.684 -0.7071 -0.2290 -0.4092
  453TMC3    C2 6797   3.716   4.082  11.734  0.5362 -0.7568 -0.2259
  453TMC3    C3 6798   3.653   4.004  11.641 -0.1432 -0.2193  0.5355
  453TMC3    C4 6799   3.828   4.205  11.553 -0.2887 -0.0811 -0.0180
  453TMC3    C5 6800   3.757   4.127  11.460  0.9852 -0.1873 -0.3695
  453TMC3    C6 6801   3.670   4.029  11.506 -0.2176 -0.3253 -0.2430
  453TMC3     C 6802   3.879   4.257  11.775  0.4642  1.0545 -0.4254
  453TMC3     O 6803   3.932   4.358  11.735  0.4453  0.6116 -0.4438
  453TMC3     H 6804   3.681   4.074  11.836  0.8735  2.5331  0.1599
  453TMC3    H1 6805   3.908   4.273  11.525 -1.9405  1.9193  0.1419
  453TMC3    H2 6806   3.617   3.967  11.435 -1.7921 -1.4117  1.8994
  453TMC3    C7 6807   3.789   4.123  11.323  0.7606 -0.5367 -0.4059
  453TMC3    C8 6808   3.570   3.900  11.691 -0.2317 -0.7996 -0.2477
  453TMC3    O1 6809   3.902   4.159  11.290  0.3027  0.1124  0.2590
  453TMC3    O2 6810   3.572   3.870  11.808 -0.1184 -0.1148  0.2205
  454MPD2     C 6811   2.574   3.917  15.776 -0.2124  0.3519  0.6079
  454MPD2    C1 6812   2.464   3.992  15.740 -0.4488  0.2554 -0.2497
  454MPD2    C2 6813   2.445   4.110  15.798  0.2722 -0.0730  0.0469
  454MPD2    C3 6814   2.526   4.158  15.899  0.4227 -0.1483 -0.7104
  454MPD2    C4 6815   2.637   4.095  15.930  0.5272  0.4348  0.1855
  454MPD2    C5 6816   2.661   3.970  15.869  0.9290 -0.9862  0.3940
  454MPD2     H 6817   2.361   4.165  15.756 -0.8193  0.2674  2.6757
  454MPD2    H1 6818   2.712   4.126  16.001 -0.8961 -0.1253  1.9382
  454MPD2    H2 6819   2.597   3.822  15.730  0.6840  0.0993  1.6001
  454MPD2    H3 6820   2.750   3.910  15.885  1.4409  0.4497  2.8829
  454MPD2     N 6821   2.482   4.263  15.980  0.6097 -1.4456 -0.0927
  454MPD2    H5 6822   2.532   4.268  16.068  1.5527 -0.8888 -0.6696
  454MPD2    N1 6823   2.374   3.949  15.640  0.1831  0.1914  0.8998
  454MPD2    H7 6824   2.296   4.012  15.621 -0.5539 -0.8549  0.4838
  455TMC3    C1 6825   2.291   4.311  16.095  0.1153 -0.0285  0.6119
  455TMC3    C2 6826   2.194   4.400  16.110  0.0448  0.0347  0.8366
  455TMC3    C3 6827   2.071   4.379  16.179  0.6479 -0.1349 -0.2210
  455TMC3    C4 6828   2.268   4.184  16.130 -0.5205 -0.2191 -0.1242
  455TMC3    C5 6829   2.146   4.159  16.194  0.2003  0.5965  0.2133
  455TMC3    C6 6830   2.051   4.252  16.230 -0.7094  0.8943  0.7081
  455TMC3     C 6831   2.355   4.324  15.968 -0.5652 -0.5726 -0.3889
  455TMC3     O 6832   2.274   4.337  15.876 -0.5813  0.5696  0.5524
  455TMC3     H 6833   2.217   4.498  16.070  0.3550 -0.2597  0.2853
  455TMC3    H1 6834   2.343   4.111  16.103 -2.1137 -1.4686 -1.1520
  455TMC3    H2 6835   1.969   4.230  16.298 -1.9841  1.0168 -0.7948
  455TMC3    C7 6836   2.110   4.028  16.179 -0.6805 -0.0158  0.1924
  455TMC3    C8 6837   2.008   4.480  16.260 -0.2138  0.0953  0.0104
  455TMC3    O1 6838   2.167   3.962  16.095  0.8173 -0.2230 -0.6095
  455TMC3    O2 6839   1.937   4.443  16.353 -0.0694  0.0653  0.3568
  456MPD2     C 6840   0.053   3.614  16.036  0.0968  0.6240  0.1632
  456MPD2    C1 6841   0.143   3.660  16.132  0.7324 -0.4019  1.1618
  456MPD2    C2 6842   0.105   3.767  16.211  0.3806 -0.5351 -0.2998
  456MPD2    C3 6843   4.710   3.822  16.209 -0.4584  0.3188 -0.2903
  456MPD2    C4 6844   4.621   3.770  16.118 -0.3090 -0.2202 -0.0581
  456MPD2    C5 6845   4.662   3.665  16.036  0.0002  0.7348  0.1941
  456MPD2     H 6846   0.183   3.811  16.271  1.2353  0.3377 -2.0418
  456MPD2    H1 6847   4.520   3.809  16.112  0.2682  1.0419 -1.5815
  456MPD2    H2 6848   0.076   3.528  15.974  1.4498 -1.6943  3.8690
  456MPD2    H3 6849   4.591   3.622  15.967 -2.5621  1.0541  2.6191
  456MPD2     N 6850   4.686   3.925  16.300  0.4996 -0.2149 -0.1704
  456MPD2    H5 6851   0.022   3.945  16.368 -0.3063  0.9342  0.3489
  456MPD2    N1 6852   0.280   3.623  16.133  0.2496  0.4219 -0.1347
  456MPD2    H7 6853   0.312   3.554  16.065  2.0982  0.4934  0.6654
  457TMC3    C1 6854   4.540   4.072  16.418  0.3880  0.2835 -0.0382
  457TMC3    C2 6855   4.445   4.168  16.410 -0.2521  0.3600 -0.1670
  457TMC3    C3 6856   4.414   4.224  16.531 -0.4635 -0.4913  0.0456
  457TMC3    C4 6857   4.595   4.033  16.539 -0.6797 -0.6228 -0.4362
  457TMC3    C5 6858   4.553   4.093  16.659  0.2004  0.0509 -0.1945
  457TMC3    C6 6859   4.457   4.185  16.657 -0.0543  0.6709 -0.0256
  457TMC3     C 6860   4.567   4.001  16.296 -0.0427 -1.0107  0.0495
  457TMC3     O 6861   4.483   4.005  16.206  0.8404 -0.6540  0.0914
  457TMC3     H 6862   4.408   4.201  16.313  0.6662 -1.6797 -1.2211
  457TMC3    H1 6863   4.665   3.952  16.553 -0.2200 -0.4644 -1.7965
  457TMC3    H2 6864   4.419   4.220  16.753 -0.7364 -0.6549  0.1884
  457TMC3    C7 6865   4.619   4.052  16.778  0.0430  0.8446  0.4563
  457TMC3    C8 6866   4.349   4.354  16.521  0.1237 -0.5545 -0.2757
  457TMC3    O1 6867   4.673   3.938  16.775 -0.2692  0.1878 -0.3040
  457TMC3    O2 6868   4.361   4.434  16.613 -0.4615 -0.3313 -0.1549
  458MPD2     C 6869   2.364   3.718  12.734  0.0706 -0.7452 -0.1078
  458MPD2    C1 6870   2.455   3.625  12.777  0.8574 -0.1088  0.9951
  458MPD2    C2 6871   2.423   3.522  12.856 -0.2653  0.2611 -0.1268
  458MPD2    C3 6872   2.292   3.501  12.888  0.9025  0.3109 -0.5266
  458MPD2    C4 6873   2.196   3.587  12.835 -0.3183 -0.3176 -0.2584
  458MPD2    C5 6874   2.235   3.700  12.769 -0.0396 -0.2447  0.4484
  458MPD2     H 6875   2.500   3.451  12.884 -2.0197 -2.2886 -1.7857
  458MPD2    H1 6876   2.090   3.575  12.856 -0.3676 -1.0465 -0.9165
  458MPD2    H2 6877   2.384   3.809  12.679 -1.3752 -2.4980 -3.5438
  458MPD2    H3 6878   2.168   3.782  12.746 -0.5377 -0.5798  0.7119
  458MPD2     N 6879   2.261   3.386  12.969  0.4550 -0.7678  0.3616
  458MPD2    H5 6880   2.339   3.321  12.977  0.3181 -1.1325 -1.3101
  458MPD2    N1 6881   2.595   3.637  12.745  0.2212  0.1066 -0.2872
  458MPD2    H7 6882   2.652   3.567  12.790 -0.5432 -0.7193 -0.5944
  459TMC3    C1 6883   2.804   3.723  12.679 -0.5027 -0.5695  0.2099
  459TMC3    C2 6884   2.888   3.761  12.576 -0.0020 -0.0953 -0.8353
  459TMC3    C3 6885   3.023   3.736  12.594  0.0955 -0.1828  0.3405
  459TMC3    C4 6886   2.849   3.660  12.791 -0.1926 -0.3029 -0.9280
  459TMC3    C5 6887   2.983   3.637  12.797  0.1551  0.8400 -0.0728
  459TMC3    C6 6888   3.072   3.675  12.705 -0.1061 -0.3922  0.2215
  459TMC3     C 6889   2.655   3.724  12.658 -0.1707 -0.8437  0.0390
  459TMC3     O 6890   2.605   3.789  12.570 -0.3881  0.4885  0.3002
  459TMC3     H 6891   2.850   3.811  12.488 -0.7858 -2.5146 -1.8602
  459TMC3    H1 6892   2.789   3.638  12.879 -0.2791 -0.4490 -1.0240
  459TMC3    H2 6893   3.175   3.643  12.715 -0.4241 -0.5558  3.0001
  459TMC3    C7 6894   3.028   3.543  12.897  0.3549  0.0847 -0.5738
  459TMC3    C8 6895   3.123   3.752  12.489 -0.4525 -0.1454 -0.3817
  459TMC3    O1 6896   2.941   3.464  12.934  0.3182  0.5316 -0.0554
  459TMC3    O2 6897   3.234   3.698  12.502  0.2803 -0.5273 -0.3360
  460MPD2     C 6898   1.465   1.523  10.622 -0.4910  0.4615  0.4319
  460MPD2    C1 6899   1.586   1.504  10.559 -0.3382  0.5655  0.0970
  460MPD2    C2 6900   1.592   1.467  10.424 -0.3373  0.0973  0.5842
  460MPD2    C3 6901   1.469   1.448  10.357  0.8521 -0.1614  0.1308
  460MPD2    C4 6902   1.353   1.468  10.423  0.2995  0.4090 -0.2405
  460MPD2    C5 6903   1.346   1.507  10.559  0.0070  0.0661  0.1856
  460MPD2     H 6904   1.679   1.463  10.360 -0.3074 -0.7677  0.6746
  460MPD2    H1 6905   1.262   1.451  10.367  0.1981  2.5565 -0.7192
  460MPD2    H2 6906   1.467   1.564  10.723 -2.8431 -0.9345  1.0567
  460MPD2    H3 6907   1.255   1.530  10.613 -1.5240 -1.6367 -1.6347
  460MPD2     N 6908   1.461   1.397  10.222  0.0203  0.0872  0.1942
  460MPD2    H5 6909   1.368   1.397  10.182  0.6321 -0.0773 -1.2321
  460MPD2    N1 6910   1.707   1.503  10.639 -0.1105 -0.1283  0.3399
  460MPD2    H7 6911   1.697   1.507  10.740  0.9449  0.2163  0.4342
  461TMC3    C1 6912   1.524   1.348   9.997 -0.2047  0.0702 -0.0923
  461TMC3    C2 6913   1.597   1.270   9.911  0.0926 -0.6702  0.5772
  461TMC3    C3 6914   1.579   1.276   9.777  0.3728 -0.6117  0.1430
  461TMC3    C4 6915   1.429   1.435   9.948  0.5797  0.5138 -0.3429
  461TMC3    C5 6916   1.415   1.436   9.814 -0.2985  0.1163  0.3653
  461TMC3    C6 6917   1.485   1.362   9.721 -0.2189 -0.0671  0.7722
  461TMC3     C 6918   1.562   1.355  10.137 -0.0790 -0.1178 -0.1232
  461TMC3     O 6919   1.684   1.342  10.159 -0.0823  0.0047 -0.2427
  461TMC3     H 6920   1.660   1.190   9.948 -0.5285 -1.4354 -0.0302
  461TMC3    H1 6921   1.366   1.500  10.009  0.2036 -2.2454  2.1954
  461TMC3    H2 6922   1.485   1.387   9.616 -0.2108 -1.7844  0.3669
  461TMC3    C7 6923   1.332   1.540   9.759  0.3079 -0.2371  0.3719
  461TMC3    C8 6924   1.637   1.173   9.694  0.5249 -0.4976  0.1378
  461TMC3    O1 6925   1.321   1.643   9.826 -0.0388 -0.3101 -0.1010
  461TMC3    O2 6926   1.748   1.130   9.727 -0.4160 -0.3464 -0.3675
  462TMC3    C1 6927   1.758   2.728   0.222  0.2191  0.0320  0.2823
  462TMC3    C2 6928   1.872   2.677   0.277  0.4049  0.3547  0.1166
  462TMC3    C3 6929   1.879   2.552   0.324 -0.5346  0.1367 -0.3682
  462TMC3    C4 6930   1.646   2.649   0.197 -0.9270 -0.5217 -0.3231
  462TMC3    C5 6931   1.662   2.518   0.247  0.2160  0.1999 -0.7670
  462TMC3    C6 6932   1.769   2.469   0.311  0.0281  0.0335 -0.1891
  462TMC3     C 6933   1.771   2.832   0.121  0.3903  0.1466  0.2176
  462TMC3     O 6934   1.694   2.835   0.023 -0.1347 -0.0319 -0.2575
  462TMC3     H 6935   1.963   2.735   0.262  1.3370 -0.7722  1.4585
  462TMC3    H1 6936   1.558   2.682   0.144 -1.7527  1.1321  2.0995
  462TMC3    H2 6937   1.765   2.386   0.381 -0.1376 -1.4883 -2.0019
  462TMC3    C7 6938   1.565   2.414   0.215 -1.2498 -0.6237  0.0947
  462TMC3    C8 6939   2.007   2.501   0.375  0.0505 -0.0379 -0.1394
  462TMC3    O1 6940   1.583   2.309   0.279  0.3508  0.7299  0.1131
  462TMC3    O2 6941   2.078   2.586   0.420 -0.0323 -0.5114  0.0226
  463MPD2     C 6942   3.210   1.712   1.819 -0.2772 -0.1826 -0.4877
  463MPD2    C1 6943   3.079   1.676   1.823  0.6994  0.0787 -0.2635
  463MPD2    C2 6944   2.986   1.779   1.835  0.0670  0.0588  0.4703
  463MPD2    C3 6945   3.021   1.909   1.857 -0.0763 -0.1375 -0.2718
  463MPD2    C4 6946   3.151   1.947   1.855  0.4922  1.1048  0.0938
  463MPD2    C5 6947   3.247   1.844   1.843 -0.1394  0.2814  0.5955
  463MPD2     H 6948   2.882   1.757   1.812 -0.5383  1.9424  1.4115
  463MPD2    H1 6949   3.189   2.049   1.858  0.4081  1.0832  1.8756
  463MPD2    H2 6950   3.283   1.639   1.787  2.0508  1.9818 -0.1232
  463MPD2    H3 6951   3.351   1.872   1.830 -0.1071 -1.0280 -1.9541
  463MPD2     N 6952   2.932   2.022   1.857 -1.1195  0.1228 -0.1209
  463MPD2    H5 6953   2.976   2.114   1.867  0.9034 -0.7353 -1.0760
  463MPD2    N1 6954   3.022   1.554   1.794 -0.1325  0.2742  0.3454
  463MPD2    H7 6955   2.921   1.547   1.802  0.0887 -1.2172  1.8220
  464TMC3    C1 6956   3.007   1.333   1.720  0.6581  0.1050 -0.3872
  464TMC3    C2 6957   2.894   1.362   1.647  0.6623  0.1801  0.4125
  464TMC3    C3 6958   2.831   1.257   1.581 -0.4456 -0.4131 -0.6107
  464TMC3    C4 6959   3.044   1.207   1.737  0.4728  0.4534 -0.3959
  464TMC3    C5 6960   2.977   1.104   1.667  0.1437 -0.2865  0.3667
  464TMC3    C6 6961   2.861   1.124   1.597 -0.1481 -0.2935  0.2612
  464TMC3     C 6962   3.091   1.435   1.780  0.1722 -0.2299  0.6280
  464TMC3     O 6963   3.200   1.401   1.823 -0.4071  0.8776 -0.0295
  464TMC3     H 6964   2.882   1.464   1.611  1.4174  0.1059 -0.0544
  464TMC3    H1 6965   3.127   1.188   1.804  0.1641 -2.9335 -0.9619
  464TMC3    H2 6966   2.811   1.044   1.545  0.0907  0.0025 -0.4213
  464TMC3    C7 6967   3.007   0.965   1.716 -0.4901 -0.2286  0.5799
  464TMC3    C8 6968   2.700   1.294   1.532  0.0092  0.7797  0.0640
  464TMC3    O1 6969   3.108   0.953   1.786 -0.3075 -0.1761  0.0609
  464TMC3    O2 6970   2.643   1.223   1.450 -0.2956 -0.0630  0.0461
  465MPD2     C 6971   3.857   4.461  16.860  0.3084 -0.3694  0.3187
  465MPD2    C1 6972   3.757   4.413  16.935 -0.2738 -0.0257 -0.0014
  465MPD2    C2 6973   3.630   4.386  16.887  0.5494 -1.0102 -0.2189
  465MPD2    C3 6974   3.610   4.420  16.758  0.3555  0.2270 -0.5019
  465MPD2    C4 6975   3.703   4.462  16.677 -0.1034 -0.4228  0.1322
  465MPD2    C5 6976   3.832   4.484  16.725 -0.1781  0.2823  0.3389
  465MPD2     H 6977   3.546   4.345  16.943 -0.4778 -0.5426 -1.4100
  465MPD2    H1 6978   3.685   4.467  16.570 -0.5473 -3.4115  0.0612
  465MPD2    H2 6979   3.959   4.478  16.895  0.5696  1.6112 -1.4032
  465MPD2    H3 6980   3.914   4.531  16.673  0.5739  1.2194  2.3718
  465MPD2     N 6981   3.490   4.383  16.709  0.3702  0.2244  0.0812
  465MPD2    H5 6982   3.420   4.351  16.775  0.8079 -0.0233  0.4261
  465MPD2    N1 6983   3.781   4.384  17.072  1.1711  0.2332  0.4311
  465MPD2    H7 6984   3.700   4.372  17.132  0.2627  1.1726 -0.5896
  466TMC3    C1 6985   3.095   4.374  16.679 -0.0512  0.7347 -0.4980
  466TMC3    C2 6986   3.039   4.447  16.573 -0.7044  0.4636 -0.2770
  466TMC3    C3 6987   3.113   4.459  16.458  0.5805 -1.0703 -0.1652
  466TMC3    C4 6988   3.225   4.331  16.677 -0.2211  0.2711 -0.0248
  466TMC3    C5 6989   3.298   4.362  16.567  0.3008  0.3679 -0.2489
  466TMC3    C6 6990   3.244   4.420  16.456 -0.6095 -0.1117 -0.1763
  466TMC3     C 6991   3.032   4.373  16.807 -0.2605  0.0469 -0.5555
  466TMC3     O 6992   3.069   4.287  16.887 -0.6661 -0.5956 -0.3531
  466TMC3     H 6993   2.937   4.485  16.581 -0.5112  0.8203  0.5507
  466TMC3    H1 6994   3.276   4.282  16.760 -1.5565 -0.6695  0.2371
  466TMC3    H2 6995   3.297   4.435  16.363  0.4710  0.0459  0.4666
  466TMC3    C7 6996   3.440   4.401  16.584  0.6955 -0.4700 -0.1751
  466TMC3    C8 6997   3.108   4.579  16.377  0.6768 -0.2118  0.5209
  466TMC3    O1 6998   3.483   4.462  16.489  0.2762  0.3200  0.0382
  466TMC3    O2 6999   3.148   4.572  16.263  0.0800  0.0479  0.1937
  467TMC3    C1 7000   4.666   3.177  13.976  0.1619  0.2325 -0.1895
  467TMC3    C2 7001   4.718   3.270  13.892 -0.1247 -0.5178 -0.3028
  467TMC3    C3 7002   4.676   3.271  13.765 -0.4715  0.0782 -0.7660
  467TMC3    C4 7003   4.572   3.084  13.931 -0.2714 -0.0237 -0.0619
  467TMC3    C5 7004   4.536   3.087  13.800 -0.5735 -0.6905 -0.4337
  467TMC3    C6 7005   4.589   3.180  13.710 -0.9692  0.5163 -0.1826
  467TMC3     C 7006   0.026   3.118  14.063 -0.5383 -0.1908  0.1348
  467TMC3     O 7007   0.097   3.210  14.110 -0.2907 -0.1322 -0.1459
  467TMC3     H 7008   0.047   3.343  13.938 -1.8937  0.3084  0.9115
  467TMC3    H1 7009   4.530   3.013  14.002  1.5242 -0.9619  0.0690
  467TMC3    H2 7010   4.550   3.193  13.610  0.7324 -1.1291 -1.0558
  467TMC3    C7 7011   4.426   3.012  13.749  0.1339 -0.2288  0.8318
  467TMC3    C8 7012   0.007   3.351  13.664  0.5247  0.2857 -0.7192
  467TMC3    O1 7013   4.418   2.996  13.629  0.6435 -0.1442 -0.0830
  467TMC3    O2 7014   0.062   3.457  13.697 -0.3805  0.6304 -0.0878
  468MPD2     C 7015   3.572   1.605  10.532  0.5627  0.7293  0.3605
  468MPD2    C1 7016   3.619   1.624  10.661  0.2364 -0.6844 -1.2810
  468MPD2    C2 7017   3.702   1.527  10.713  0.5058  0.8536  0.8917
  468MPD2    C3 7018   3.733   1.411  10.639  0.2011  0.1411  0.1807
  468MPD2    C4 7019   3.684   1.399  10.516  0.3499  0.6844  0.2817
  468MPD2    C5 7020   3.599   1.496  10.461  0.4483 -0.5147 -0.1631
  468MPD2     H 7021   3.736   1.541  10.815  0.4731  2.5968  0.6663
  468MPD2    H1 7022   3.683   1.306  10.461  2.7473 -0.5849  2.3604
  468MPD2    H2 7023   3.507   1.675  10.480 -0.3991  0.5095  1.2627
  468MPD2    H3 7024   3.550   1.485  10.364 -2.4637  1.6361  1.0352
  468MPD2     N 7025   3.798   1.296  10.688  0.2435  0.4464 -0.2206
  468MPD2    H5 7026   3.803   1.218  10.623  0.5188 -0.8807  1.3886
  468MPD2    N1 7027   3.604   1.744  10.732 -0.5659  0.4893  0.1693
  468MPD2    H7 7028   3.648   1.746  10.823 -1.2521 -0.7183  0.5222
  469TMC3    C1 7029   3.481   1.940  10.803 -0.2262  0.4907 -0.0297
  469TMC3    C2 7030   3.569   1.939  10.903  0.4987  0.0254 -0.1657
  469TMC3    C3 7031   3.526   1.981  11.029 -0.0020  0.6481 -0.0238
  469TMC3    C4 7032   3.350   1.977  10.820  0.2971 -0.5084 -0.8805
  469TMC3    C5 7033   3.311   2.025  10.942 -0.0947 -0.6619 -0.0885
  469TMC3    C6 7034   3.394   2.024  11.051  0.0834 -0.5543  0.1723
  469TMC3     C 7035   3.520   1.847  10.695  0.1405 -0.2166 -0.6564
  469TMC3     O 7036   3.458   1.870  10.590  0.7106 -0.0074 -0.3022
  469TMC3     H 7037   3.674   1.917  10.884  0.7142  1.3825 -0.5608
  469TMC3    H1 7038   3.292   1.959  10.730 -1.5548 -0.5230  0.3315
  469TMC3    H2 7039   3.364   2.046  11.153  0.6236 -2.1810  0.6832
  469TMC3    C7 7040   3.169   2.036  10.974  0.3343  0.8255  0.1610
  469TMC3    C8 7041   3.604   1.969  11.153  0.0820  0.3567  0.0501
  469TMC3    O1 7042   3.133   2.024  11.089  0.2588  0.2905 -0.0765
  469TMC3    O2 7043   3.549   1.932  11.256 -0.0188  0.0167 -0.0472
  470TMC3    C1 7044   1.067   2.488   0.151 -0.5157 -0.5003 -0.2248
  470TMC3    C2 7045   1.142   2.567   0.228 -0.1676  0.9499 -0.4054
  470TMC3    C3 7046   1.175   2.514   0.346  0.5126 -0.0203  0.4738
  470TMC3    C4 7047   1.031   2.365   0.189  0.1542  0.4745  0.4396
  470TMC3    C5 7048   1.059   2.315   0.314  0.4916  0.2368  0.8034
  470TMC3    C6 7049   1.132   2.398   0.395 -0.8673 -0.8209  0.0482
  470TMC3     C 7050   1.006   2.560   0.038  0.7956 -0.2617  0.0272
  470TMC3     O 7051   1.029   2.676   0.014 -0.1898  0.1599 -0.0969
  470TMC3     H 7052   1.202   2.652   0.197 -0.9226  1.0733 -1.5091
  470TMC3    H1 7053   0.992   2.295   0.116  0.1201  1.4100 -0.4303
  470TMC3    H2 7054   1.148   2.379   0.500 -0.5443 -1.4203 -0.1033
  470TMC3    C7 7055   1.000   2.195   0.362  0.2496  0.1627 -0.5776
  470TMC3    C8 7056   1.262   2.597   0.429  0.5824 -0.5768 -0.4577
  470TMC3    O1 7057   0.934   2.137   0.274  1.2593 -0.0173  0.4343
  470TMC3    O2 7058   1.255   2.718   0.405 -0.4759 -0.1222 -0.1511
  471MPD2     C 7059   1.480   3.392  16.479  0.3023  0.4616 -0.2185
  471MPD2    C1 7060   1.548   3.281  16.425  0.3466  0.2475 -0.7482
  471MPD2    C2 7061   1.655   3.225  16.486 -0.0392  0.0527 -0.1546
  471MPD2    C3 7062   1.702   3.277  16.601 -0.3546  0.1342 -0.3142
  471MPD2    C4 7063   1.635   3.388  16.651 -0.2565 -0.2241  0.5288
  471MPD2    C5 7064   1.525   3.443  16.593  0.1635 -0.2077  0.5409
  471MPD2     H 7065   1.697   3.136  16.442  0.9471 -0.5112  1.9211
  471MPD2    H1 7066   1.662   3.420  16.751 -0.5509  0.6162  0.3403
  471MPD2    H2 7067   1.383   3.416  16.437 -0.9997 -1.7162  1.5458
  471MPD2    H3 7068   1.471   3.526  16.636 -0.5951  0.2726 -1.3025
  471MPD2     N 7069   1.777   3.186  16.679  0.4027  0.4985  0.3062
  471MPD2    H5 7070   1.807   3.100  16.634  0.8046  0.8804 -0.1431
  471MPD2    N1 7071   1.489   3.200  16.321 -0.4593 -0.3502  0.7647
  471MPD2    H7 7072   1.539   3.117  16.293  0.4292 -0.9048  3.9313
  472TMC3    C1 7073   1.321   3.096  16.215 -1.0346 -0.4418  0.5735
  472TMC3    C2 7074   1.221   3.097  16.122  0.8193 -0.3526 -0.6493
  472TMC3    C3 7075   1.170   2.974  16.079 -0.5888  0.2893 -0.6161
  472TMC3    C4 7076   1.375   2.982  16.263 -0.0870 -0.0525 -0.0915
  472TMC3    C5 7077   1.323   2.861  16.225 -0.0116 -0.3958  0.5359
  472TMC3    C6 7078   1.220   2.863  16.135  0.8654  0.1554 -0.9773
  472TMC3     C 7079   1.368   3.215  16.268 -0.0552 -0.1338 -0.5836
  472TMC3     O 7080   1.311   3.316  16.238 -0.2155 -0.4498  0.2586
  472TMC3     H 7081   1.176   3.190  16.090 -0.0204 -1.1859 -1.8467
  472TMC3    H1 7082   1.443   2.979  16.348  1.3429  1.4300 -1.1672
  472TMC3    H2 7083   1.183   2.767  16.102 -3.7773  0.8991  2.0457
  472TMC3    C7 7084   1.303   2.772  16.329  0.5469 -0.5630  0.4928
  472TMC3    C8 7085   1.030   2.969  16.107  0.6334 -0.4401  0.4429
  472TMC3    O1 7086   1.383   2.757  16.415  0.0674  0.2461  0.1428
  472TMC3    O2 7087   0.998   2.908  16.210  0.5576  0.7104 -0.1658
  473MPD2     C 7088   1.573   0.298  13.691  0.0659 -0.0484 -0.2669
  473MPD2    C1 7089   1.460   0.381  13.685  0.5861  0.4987  0.1491
  473MPD2    C2 7090   1.452   0.494  13.766 -0.0896 -0.6584 -0.2712
  473MPD2    C3 7091   1.552   0.513  13.865 -0.0638  0.4073 -1.0287
  473MPD2    C4 7092   1.657   0.424  13.874 -0.0972  0.0402  0.0642
  473MPD2    C5 7093   1.662   0.310  13.793 -0.5300 -0.8095  0.4914
  473MPD2     H 7094   1.371   0.564  13.748 -0.4038 -0.9044  0.1688
  473MPD2    H1 7095   1.742   0.439  13.940  1.9971  0.7472 -2.8164
  473MPD2    H2 7096   1.594   0.217  13.622  1.9322  0.1004  0.1249
  473MPD2    H3 7097   1.740   0.237  13.805  0.7334  0.6918  1.4538
  473MPD2     N 7098   1.561   0.617  13.961  0.3888 -0.2063  0.3057
  473MPD2    H5 7099   1.648   0.633  14.011  0.2591 -1.3501  0.9084
  473MPD2    N1 7100   1.366   0.364  13.583  0.8398  0.9057 -0.1093
  473MPD2    H7 7101   1.298   0.439  13.576  0.4738  0.6776  0.9868
  474TMC3    C1 7102   1.503   0.822  14.067  0.1467  0.1770 -0.1174
  474TMC3    C2 7103   1.401   0.904  14.101 -0.2428 -0.8078 -0.0890
  474TMC3    C3 7104   1.432   0.990  14.200 -0.1584  0.2570 -0.3622
  474TMC3    C4 7105   1.630   0.825  14.116 -0.3250  0.2368 -0.3520
  474TMC3    C5 7106   1.653   0.905  14.223 -0.5771  0.0522  0.6994
  474TMC3    C6 7107   1.553   0.999  14.261  0.0864 -0.4836 -0.1091
  474TMC3     C 7108   1.465   0.714  13.978  0.4072  0.7965 -0.0522
  474TMC3     O 7109   1.359   0.717  13.922 -0.0295  0.3011 -0.5174
  474TMC3     H 7110   1.302   0.886  14.061 -0.6051 -0.4010  0.6289
  474TMC3    H1 7111   1.713   0.768  14.077  0.6272  1.3810  0.0175
  474TMC3    H2 7112   1.570   1.064  14.347  0.0266  1.8960 -1.8794
  474TMC3    C7 7113   1.786   0.924  14.282  0.1510 -0.2067  0.4717
  474TMC3    C8 7114   1.332   1.095  14.229 -0.1704 -0.6776  0.4446
  474TMC3    O1 7115   1.874   0.848  14.239 -0.2153  0.0581 -0.2032
  474TMC3    O2 7116   1.216   1.076  14.192  0.6770  0.0494  0.2612
  475MPD2     C 7117   4.150   4.026  11.086 -0.0022 -0.2053 -0.3675
  475MPD2    C1 7118   4.249   4.070  10.995  0.2238 -0.4102  0.0494
  475MPD2    C2 7119   4.223   4.055  10.862  0.4545  0.4422  0.2267
  475MPD2    C3 7120   4.110   3.983  10.819  0.3473  0.8375 -0.0647
  475MPD2    C4 7121   4.019   3.934  10.914  0.0847 -0.1104  0.0808
  475MPD2    C5 7122   4.039   3.960  11.043 -0.1863 -0.2781  0.6278
  475MPD2     H 7123   4.282   4.106  10.786 -1.2360  3.6686  1.0998
  475MPD2    H1 7124   3.930   3.874  10.898 -0.1847  0.6019 -1.0897
  475MPD2    H2 7125   4.161   4.042  11.193 -1.2320  2.8672 -0.7204
  475MPD2    H3 7126   3.956   3.939  11.109 -1.4236  0.0034 -0.8416
  475MPD2     N 7127   4.091   3.961  10.680  0.3771  0.0891  0.6427
  475MPD2    H5 7128   4.165   3.995  10.620 -0.9356  2.3903  0.3127
  475MPD2    N1 7129   4.366   4.128  11.041 -0.4427 -0.6091  0.4902
  475MPD2    H7 7130   4.373   4.145  11.141 -1.0947 -2.1621  0.8014
  476TMC3    C1 7131   4.576   4.236  11.036 -0.5952  0.3924  0.8660
  476TMC3    C2 7132   4.705   4.227  10.986  0.0814  0.0167 -0.2152
  476TMC3    C3 7133   0.064   4.309  11.046  0.3877  0.7098  0.0790
  476TMC3    C4 7134   4.546   4.320  11.144  0.4601  0.8097  0.0901
  476TMC3    C5 7135   4.650   4.390  11.204  0.2084  0.1269  0.7629
  476TMC3    C6 7136   0.044   4.385  11.155  0.0165 -0.2784  0.2981
  476TMC3     C 7137   4.475   4.155  10.965  0.2479  0.4884 -0.7237
  476TMC3     O 7138   4.507   4.114  10.854  0.1060 -0.7140 -0.5958
  476TMC3     H 7139   4.726   4.173  10.894  0.9969 -0.6993  0.4049
  476TMC3    H1 7140   4.444   4.331  11.178  0.5579  0.4295  0.5070
  476TMC3    H2 7141   0.123   4.451  11.187  0.6299 -0.1789 -1.3780
  476TMC3    C7 7142   4.607   4.508  11.276 -0.1129  0.7923 -0.4882
  476TMC3    C8 7143   0.192   4.319  10.979  0.6114  0.0173 -0.0579
  476TMC3    O1 7144   4.516   4.492  11.356 -0.1416  0.3873 -0.9213
  476TMC3    O2 7145   0.256   4.421  10.983 -0.2167 -0.1076  0.3251
  477MPD2     C 7146   2.289   1.258  11.879  0.4045 -0.3981 -0.2910
  477MPD2    C1 7147   2.331   1.150  11.795 -0.3997 -0.8242 -0.2952
  477MPD2    C2 7148   2.357   1.023  11.854  0.5563 -0.1092 -0.4817
  477MPD2    C3 7149   2.342   1.011  11.989  0.5899  1.2241 -0.2500
  477MPD2    C4 7150   2.289   1.106  12.063 -0.1542  0.4552 -0.2793
  477MPD2    C5 7151   2.258   1.229  12.011  0.3956  0.1542 -0.1627
  477MPD2     H 7152   2.398   0.938  11.800  0.9016 -0.5915  0.5428
  477MPD2    H1 7153   2.279   1.093  12.170  2.4356  3.3800  0.3219
  477MPD2    H2 7154   2.267   1.360  11.850  0.1841 -0.0221  1.1631
  477MPD2    H3 7155   2.223   1.307  12.077  1.2261 -0.1484  0.6424
  477MPD2     N 7156   2.365   0.896  12.066  0.1699 -0.0173 -0.2589
  477MPD2    H5 7157   2.354   0.909  12.166  2.2067  0.7385 -0.1255
  477MPD2    N1 7158   2.338   1.168  11.651 -0.2976 -0.5986 -0.1659
  477MPD2    H7 7159   2.295   1.253  11.616 -2.2933 -1.3082  0.5710
  478TMC3    C1 7160   2.386   1.113  11.434  0.0609  0.4355  0.2675
  478TMC3    C2 7161   2.312   1.223  11.394 -0.5502 -0.2721  0.1464
  478TMC3    C3 7162   2.281   1.225  11.259 -0.0304  0.2961  0.4544
  478TMC3    C4 7163   2.423   1.018  11.346  0.1506  0.3232  0.4272
  478TMC3    C5 7164   2.377   1.023  11.213  0.0555  0.3515  0.3945
  478TMC3    C6 7165   2.319   1.136  11.163 -0.9802 -0.3077 -0.1521
  478TMC3     C 7166   2.389   1.077  11.568 -0.1624 -0.0491 -0.0802
  478TMC3     O 7167   2.459   0.979  11.593  0.5493 -0.2724 -0.7402
  478TMC3     H 7168   2.295   1.314  11.450  2.5845 -0.7186  1.8608
  478TMC3    H1 7169   2.484   0.935  11.380 -0.6200 -0.1263  0.7082
  478TMC3    H2 7170   2.291   1.152  11.060 -1.0744 -1.1537 -0.2503
  478TMC3    C7 7171   2.353   0.901  11.145 -0.1100 -0.3189  0.1464
  478TMC3    C8 7172   2.252   1.353  11.202  0.1546  0.2324  0.4453
  478TMC3    O1 7173   2.416   0.806  11.179 -0.0166 -0.1300 -0.5480
  478TMC3    O2 7174   2.315   1.387  11.102  0.0359  0.2756 -0.2370
  479MPD2     C 7175   1.030   2.468  15.461  0.3741 -0.6361  0.0968
  479MPD2    C1 7176   0.971   2.398  15.571 -0.1218  0.4534  0.2512
  479MPD2    C2 7177   0.986   2.449  15.701 -0.0626 -0.2869  0.8365
  479MPD2    C3 7178   1.055   2.567  15.718 -0.7170  0.5317  0.1207
  479MPD2    C4 7179   1.120   2.626  15.613 -0.1795 -0.2422 -0.2004
  479MPD2    C5 7180   1.108   2.576  15.486  0.3357 -0.6867 -0.0985
  479MPD2     H 7181   0.931   2.402  15.782 -2.1059 -0.8043 -0.8616
  479MPD2    H1 7182   1.175   2.718  15.629 -1.1478  0.1801  0.6221
  479MPD2    H2 7183   1.025   2.437  15.357 -1.0707 -0.9749  0.2718
  479MPD2    H3 7184   1.167   2.624  15.408 -0.4286 -2.3786 -1.7256
  479MPD2     N 7185   1.073   2.630  15.846 -0.3653  0.2903  0.2592
  479MPD2    H5 7186   1.158   2.683  15.859 -1.2724  2.0302 -0.9183
  479MPD2    N1 7187   0.883   2.289  15.558  0.4883  0.5484 -0.1955
  479MPD2    H7 7188   0.845   2.281  15.464 -1.7060  0.3043  0.7172
  480TMC3    C1 7189   0.640   2.477  15.964  0.2386  0.0460  0.0360
  480TMC3    C2 7190   0.593   2.521  15.845 -0.2042  0.6074  0.2556
  480TMC3    C3 7191   0.662   2.610  15.763 -0.4447  0.0057  0.5847
  480TMC3    C4 7192   0.767   2.518  16.004 -0.0397 -0.8425 -0.5338
  480TMC3    C5 7193   0.838   2.598  15.917  0.3009 -0.0251 -0.3281
  480TMC3    C6 7194   0.786   2.658  15.801  0.1441  0.0605  0.5446
  480TMC3     C 7195   0.583   2.355  16.022  0.0557  0.3259  0.2964
  480TMC3     O 7196   0.645   2.284  16.097 -0.1977  0.2556  0.0649
  480TMC3     H 7197   0.500   2.482  15.805  0.3871 -0.9783  0.4321
  480TMC3    H1 7198   0.819   2.478  16.090 -1.5923  0.1782  0.8891
  480TMC3    H2 7199   0.843   2.731  15.746  1.2552 -1.8138 -0.7792
  480TMC3    C7 7200   0.982   2.606  15.946 -0.7450 -0.6688 -0.3049
  480TMC3    C8 7201   0.608   2.642  15.631  0.9583  0.1260 -0.0716
  480TMC3    O1 7202   1.026   2.606  16.060 -0.3831  0.7494  0.3258
  480TMC3    O2 7203   0.491   2.608  15.615  0.0099  0.0275  0.0809
  481MPD2     C 7204   2.867   1.814  13.952 -0.4448 -0.2934 -0.4289
  481MPD2    C1 7205   2.770   1.746  14.020 -0.7219  0.6950  1.1482
  481MPD2    C2 7206   2.796   1.684  14.138  0.5257  0.1496 -0.1107
  481MPD2    C3 7207   2.925   1.676  14.189 -0.5920 -0.0329  0.3364
  481MPD2    C4 7208   3.021   1.742  14.123  0.2347  0.3935  0.5432
  481MPD2    C5 7209   2.997   1.813  14.007  0.4992 -0.1161 -0.2810
  481MPD2     H 7210   2.714   1.649  14.200 -0.0810  1.4413 -0.1958
  481MPD2    H1 7211   3.121   1.747  14.163  0.5267  2.3944 -0.4543
  481MPD2    H2 7212   2.839   1.885  13.875 -1.4453 -0.3594 -0.1205
  481MPD2    H3 7213   3.078   1.867  13.959  0.2536  1.9556  1.6593
  481MPD2     N 7214   2.955   1.603  14.312  0.2820 -0.2574  0.5771
  481MPD2    H5 7215   3.048   1.615  14.351  0.4293  1.4121 -0.2645
  481MPD2    N1 7216   2.644   1.758  13.962  0.1742  0.1441 -0.1898
  481MPD2    H7 7217   2.627   1.813  13.878  0.3920  0.3945 -0.0691
  482TMC3    C1 7218   2.417   1.710  13.929  0.2053 -0.7099 -0.2069
  482TMC3    C2 7219   2.325   1.609  13.955 -0.6176  0.0067 -0.7895
  482TMC3    C3 7220   2.193   1.635  13.984  0.5065 -0.4905  0.1350
  482TMC3    C4 7221   2.375   1.841  13.939  0.3365  0.0021 -1.8871
  482TMC3    C5 7222   2.243   1.862  13.984  0.1584  0.3829 -0.9001
  482TMC3    C6 7223   2.148   1.762  13.993 -0.4169 -0.8545  0.2886
  482TMC3     C 7224   2.533   1.694  14.010  0.0397 -0.3100 -0.1270
  482TMC3     O 7225   2.526   1.595  14.087 -0.5723  0.3894 -0.5043
  482TMC3     H 7226   2.358   1.506  13.964 -1.4683 -0.3051 -1.2040
  482TMC3    H1 7227   2.443   1.926  13.945  0.8959 -0.6256  0.5058
  482TMC3    H2 7228   2.050   1.793  14.029 -0.8505 -0.7792 -0.9817
  482TMC3    C7 7229   2.197   2.000  13.983  1.3174 -0.1487  0.0553
  482TMC3    C8 7230   2.099   1.545  13.919  0.1901 -0.3495 -0.0347
  482TMC3    O1 7231   2.082   2.019  14.013 -0.0274 -0.3871 -0.0457
  482TMC3    O2 7232   2.136   1.434  13.885  0.0106 -0.0263 -0.2173
  483TMC3    C1 7233   0.884   1.068   1.076  0.1594  0.5225 -0.3872
  483TMC3    C2 7234   0.921   1.204   1.088  0.6888  0.4335 -0.2653
  483TMC3    C3 7235   1.054   1.239   1.083  0.0860  0.2855 -0.4021
  483TMC3    C4 7236   0.979   0.969   1.083  0.0023  0.2742  0.3284
  483TMC3    C5 7237   1.109   1.011   1.099 -0.1713 -0.2832 -0.6647
  483TMC3    C6 7238   1.154   1.144   1.092  0.3515 -0.1428  0.2809
  483TMC3     C 7239   0.743   1.035   1.051  0.1831  0.1981  0.3404
  483TMC3     O 7240   0.662   1.118   1.086 -0.6077 -0.2879  0.0365
  483TMC3     H 7241   0.843   1.279   1.074  0.6596  0.3651 -0.4650
  483TMC3    H1 7242   0.953   0.864   1.090  1.2576 -0.1955 -1.8869
  483TMC3    H2 7243   1.261   1.157   1.082  0.2787  0.5719  0.4572
  483TMC3    C7 7244   1.219   0.910   1.108 -0.1885 -1.3818  0.5806
  483TMC3    C8 7245   1.081   1.339   0.985 -0.1814  0.2591 -0.2523
  483TMC3    O1 7246   1.322   0.945   1.161 -0.1581 -0.0400 -0.0383
  483TMC3    O2 7247   0.986   1.381   0.922 -0.4545 -0.2104  0.7028
  484MPD2     C 7248   3.075   3.905  12.163  0.1302  0.1913  0.7823
  484MPD2    C1 7249   3.157   3.857  12.267  0.5097  0.9220  0.2493
  484MPD2    C2 7250   3.289   3.825  12.240 -0.3387  0.3020  0.1238
  484MPD2    C3 7251   3.345   3.827  12.116  0.4156  1.1143  0.2219
  484MPD2    C4 7252   3.259   3.864  12.015 -0.3041  0.4496 -1.0331
  484MPD2    C5 7253   3.132   3.911  12.035  0.5609  0.2349  0.2230
  484MPD2     H 7254   3.346   3.807  12.330  0.3557 -0.3025 -0.4341
  484MPD2    H1 7255   3.293   3.867  11.912 -0.4103 -1.3180 -1.1329
  484MPD2    H2 7256   2.970   3.923  12.181 -0.1074 -0.1808 -0.2540
  484MPD2    H3 7257   3.065   3.935  11.953  0.2750  1.2063  0.7408
  484MPD2     N 7258   3.479   3.794  12.090 -0.2917 -0.0584 -0.7614
  484MPD2    H5 7259   3.490   3.787  11.989 -1.9847 -1.3423 -0.8781
  484MPD2    N1 7260   3.089   3.849  12.394  0.0170 -0.5662  0.1762
  484MPD2    H7 7261   2.995   3.888  12.395 -0.0491 -0.6887 -1.2926
  485TMC3    C1 7262   3.697   3.711  12.140  0.2881 -0.6812  0.1102
  485TMC3    C2 7263   3.802   3.716  12.228  0.6684 -0.4030  0.5002
  485TMC3    C3 7264   3.927   3.687  12.178 -0.1047 -0.5788  0.1080
  485TMC3    C4 7265   3.706   3.685  12.012 -0.2172 -0.0043  0.0105
  485TMC3    C5 7266   3.829   3.649  11.970  0.2024 -0.3421 -0.2569
  485TMC3    C6 7267   3.936   3.647  12.050  0.6634  0.2891  0.1633
  485TMC3     C 7268   3.572   3.757  12.186 -0.3146  0.6320 -0.2736
  485TMC3     O 7269   3.562   3.766  12.306  0.5759  0.0010 -0.4449
  485TMC3     H 7270   3.778   3.758  12.326  1.3757  0.5343  0.2712
  485TMC3    H1 7271   3.621   3.677  11.944  0.4253 -0.2912 -0.7511
  485TMC3    H2 7272   4.031   3.609  12.015 -0.5203 -0.7306 -1.8988
  485TMC3    C7 7273   3.857   3.709  11.841  0.0767  0.6355 -0.0797
  485TMC3    C8 7274   4.034   3.777  12.204  0.2460  0.0884  0.2120
  485TMC3    O1 7275   3.794   3.668  11.742  0.0454  0.3151  0.0886
  485TMC3    O2 7276   4.085   3.828  12.105  0.3320 -0.0385 -0.2578
  486MPD2     C 7277   0.489   2.787  13.222 -0.1156 -0.1837 -0.4290
  486MPD2    C1 7278   0.449   2.715  13.107 -0.2124 -0.9567 -0.0527
  486MPD2    C2 7279   0.442   2.789  12.989 -0.4096 -0.3131  1.0654
  486MPD2    C3 7280   0.479   2.925  12.981  0.4664  0.8540  0.0900
  486MPD2    C4 7281   0.530   2.986  13.095 -0.6271  0.1117  0.1801
  486MPD2    C5 7282   0.542   2.919  13.214  0.6229  0.1675  0.3268
  486MPD2     H 7283   0.406   2.743  12.899 -1.2877  3.0787 -0.3257
  486MPD2    H1 7284   0.563   3.089  13.103  1.4655 -0.6894  1.9246
  486MPD2    H2 7285   0.500   2.740  13.319  1.1455 -1.4742 -1.1979
  486MPD2    H3 7286   0.590   2.967  13.298 -0.0782 -0.5789  1.1627
  486MPD2     N 7287   0.470   2.995  12.862  0.1846 -0.3178 -0.7386
  486MPD2    H5 7288   0.481   3.096  12.861 -0.8095 -0.2037  0.1684
  486MPD2    N1 7289   0.412   2.573  13.125  0.5671 -0.0195  0.2227
  486MPD2    H7 7290   0.415   2.525  13.214 -3.7472 -0.2449  0.2342
  487TMC3    C1 7291   0.356   2.353  13.054 -0.4631 -0.6021  0.1812
  487TMC3    C2 7292   0.264   2.284  12.978  0.6277 -1.2009  0.0008
  487TMC3    C3 7293   0.219   2.164  13.018 -0.5418  0.3005 -0.1943
  487TMC3    C4 7294   0.403   2.299  13.169  0.5870 -0.3458  0.2362
  487TMC3    C5 7295   0.356   2.179  13.210 -0.6964  0.7858 -0.2938
  487TMC3    C6 7296   0.269   2.105  13.135 -0.0207  0.3084  0.8069
  487TMC3     C 7297   0.373   2.494  13.019 -1.0770 -0.1861  0.1439
  487TMC3     O 7298   0.350   2.521  12.901 -0.2185  0.2483 -0.0802
  487TMC3     H 7299   0.232   2.330  12.885 -0.6130 -0.1983  0.9198
  487TMC3    H1 7300   0.464   2.358  13.236 -1.2879  0.8984  0.8530
  487TMC3    H2 7301   0.225   2.010  13.163  0.9061 -0.2639  0.3121
  487TMC3    C7 7302   0.384   2.130  13.341  0.1104 -0.0284 -0.2147
  487TMC3    C8 7303   0.080   2.162  13.032  0.6505 -0.7885 -0.4041
  487TMC3    O1 7304   0.299   2.055  13.385  0.4437  0.6014 -0.2949
  487TMC3    O2 7305   0.044   2.190  13.146  0.3932  0.2758  0.5897
  488MPD2     C 7306   0.736   4.432  16.266 -0.3476 -0.4316  0.3085
  488MPD2    C1 7307   0.743   4.520  16.372 -0.4558 -0.0744  1.0157
  488MPD2    C2 7308   0.664   4.499  16.480 -0.0477  0.3008 -0.2501
  488MPD2    C3 7309   0.576   4.396  16.483  0.0069 -0.1321  0.2728
  488MPD2    C4 7310   0.566   4.309  16.376  0.0657 -0.3325  0.2265
  488MPD2    C5 7311   0.633   4.341  16.263 -0.0964  0.6904 -0.9414
  488MPD2     H 7312   0.647   4.569  16.561  1.5954  2.0275 -1.3747
  488MPD2    H1 7313   0.499   4.224  16.374  1.6379 -1.5382 -1.4777
  488MPD2    H2 7314   0.803   4.445  16.181 -2.0030  3.6566 -0.3785
  488MPD2    H3 7315   0.623   4.284  16.171  0.2620 -1.5508  0.3996
  488MPD2     N 7316   0.504   4.380  16.602  0.5524 -0.1755  0.1739
  488MPD2    H5 7317   0.523   4.444  16.678  1.6215  1.8758 -1.8454
  488MPD2    N1 7318   0.836   4.625  16.380 -0.6008  0.4761 -0.0454
  488MPD2    H7 7319   0.828   4.680  16.465  0.3957  0.5108  0.0216
  489TMC3    C1 7320   0.348   4.311  16.755 -0.4822 -0.0615 -0.4376
  489TMC3    C2 7321   0.441   4.370  16.835  0.4464  0.3447  0.0113
  489TMC3    C3 7322   0.403   4.466  16.924 -0.4320  0.2957  0.4791
  489TMC3    C4 7323   0.219   4.343  16.760  0.0068  0.2956 -0.5143
  489TMC3    C5 7324   0.188   4.444  16.848 -0.3344 -0.0333 -1.1890
  489TMC3    C6 7325   0.278   4.510  16.933  0.5076 -0.3097  0.1874
  489TMC3     C 7326   0.397   4.299  16.622  0.0590 -0.1469 -0.1662
  489TMC3     O 7327   0.345   4.221  16.550 -0.5905  0.4196  1.0647
  489TMC3     H 7328   0.544   4.338  16.830  0.2033 -0.3666 -0.5463
  489TMC3    H1 7329   0.149   4.300  16.689 -1.5261  0.2962  0.9840
  489TMC3    H2 7330   0.256   4.587  17.006  2.8234 -0.1288  0.6922
  489TMC3    C7 7331   0.050   4.473  16.865  0.6053  0.2745 -0.1228
  489TMC3    C8 7332   0.506   4.567  16.942  0.7057 -0.1438  0.0348
  489TMC3    O1 7333   4.703   4.438  16.781 -0.0182 -0.0360  0.6007
  489TMC3    O2 7334   0.593   4.578  16.855 -0.3107 -0.2622  0.2497
  490MPD2     C 7335   1.331   4.158  17.420  0.1904  0.9681 -0.3565
  490MPD2    C1 7336   1.418   4.057  17.386 -0.2252  0.3408 -0.6125
  490MPD2    C2 7337   1.553   4.077  17.410 -1.0348  0.6571  0.7702
  490MPD2    C3 7338   1.595   4.196  17.458  0.5302  0.2773 -0.1835
  490MPD2    C4 7339   1.508   4.305  17.473  0.3140 -0.1107  0.2937
  490MPD2    C5 7340   1.371   4.279  17.464 -0.5098 -0.3351 -0.4911
  490MPD2     H 7341   1.626   4.001  17.387  0.2968  1.3120  2.9393
  490MPD2    H1 7342   1.533   4.407  17.498  0.6342 -0.3821  1.0704
  490MPD2    H2 7343   1.225   4.135  17.431  0.4178  0.0778 -0.0001
  490MPD2    H3 7344   1.308   4.357  17.504 -0.0026  0.8275 -1.9882
  490MPD2     N 7345   1.734   4.210  17.476  0.2269 -0.1892 -0.0676
  490MPD2    H5 7346   1.799   4.138  17.444  0.0832  0.7320 -2.4449
  490MPD2    N1 7347   1.385   3.931  17.333 -0.9192  0.2901  0.0163
  490MPD2    H7 7348   1.461   3.865  17.320 -1.6330 -0.7953  1.4129
  491TMC3    C1 7349   1.240   3.765  17.267 -0.0292  0.1543  0.1850
  491TMC3    C2 7350   1.322   3.673  17.327 -0.5488 -0.4549 -0.4928
  491TMC3    C3 7351   1.277   3.542  17.327  0.3916  0.5420 -0.8554
  491TMC3    C4 7352   1.120   3.723  17.212  0.0558 -0.5001  0.1398
  491TMC3    C5 7353   1.088   3.591  17.202  0.5695 -0.3344 -0.4002
  491TMC3    C6 7354   1.159   3.495  17.274 -0.6985 -0.4177 -0.0568
  491TMC3     C 7355   1.261   3.904  17.287  0.2839  0.0623 -0.0902
  491TMC3     O 7356   1.165   3.970  17.279  0.3155 -0.5883  0.6801
  491TMC3     H 7357   1.420   3.703  17.360 -0.2894 -1.0062 -0.7753
  491TMC3    H1 7358   1.055   3.799  17.170 -0.0204 -0.9989 -0.6456
  491TMC3    H2 7359   1.133   3.390  17.271  0.1052 -0.6651  1.7557
  491TMC3    C7 7360   0.981   3.546  17.120  0.1904 -0.2572 -0.3139
  491TMC3    C8 7361   1.369   3.444  17.385 -0.0329  0.1188 -0.9398
  491TMC3    O1 7362   0.924   3.440  17.147  0.3960  0.5576  0.0917
  491TMC3    O2 7363   1.455   3.481  17.471  0.2023  0.1338  0.3553
  492MPD2     C 7364   2.198   3.515  11.854  0.1756  0.2499 -0.2463
  492MPD2    C1 7365   2.080   3.493  11.785 -0.1543 -0.4675 -0.4097
  492MPD2    C2 7366   1.981   3.428  11.854  0.4420  0.3464 -0.4261
  492MPD2    C3 7367   1.999   3.388  11.986  0.1062  0.4971 -0.2932
  492MPD2    C4 7368   2.114   3.424  12.046  0.1839  0.4599  0.2287
  492MPD2    C5 7369   2.213   3.496  11.986  0.0021 -0.2696 -0.4520
  492MPD2     H 7370   1.897   3.396  11.794  2.5830 -0.7875 -2.8187
  492MPD2    H1 7371   2.126   3.417  12.154 -2.4086  0.2160  0.4989
  492MPD2    H2 7372   2.284   3.562  11.807 -1.0836  1.6083 -1.2099
  492MPD2    H3 7373   2.293   3.520  12.055  0.4577 -1.3768 -0.5924
  492MPD2     N 7374   1.904   3.316  12.061  0.3070  0.6310  0.3293
  492MPD2    H5 7375   1.909   3.316  12.162 -0.4585 -3.6503  0.3535
  492MPD2    N1 7376   2.061   3.545  11.655  0.0847 -0.2490 -0.5805
  492MPD2    H7 7377   2.142   3.588  11.610  0.9528 -1.4589 -0.1942
  493TMC3    C1 7378   1.974   3.556  11.443  0.0955 -0.1261  0.2109
  493TMC3    C2 7379   2.093   3.600  11.396 -0.1092  0.2627 -0.1393
  493TMC3    C3 7380   2.106   3.647  11.266 -0.4573  0.0045  0.6971
  493TMC3    C4 7381   1.871   3.535  11.356  0.2092  0.2168 -0.1752
  493TMC3    C5 7382   1.883   3.578  11.228 -0.9137  0.0889 -0.1757
  493TMC3    C6 7383   1.998   3.635  11.178 -0.0792  1.3014  0.4953
  493TMC3     C 7384   1.948   3.535  11.581  0.1046 -0.2851 -0.7023
  493TMC3     O 7385   1.836   3.499  11.616  0.0922 -0.6375  0.7308
  493TMC3     H 7386   2.184   3.612  11.454  0.9246  0.0707 -1.7517
  493TMC3    H1 7387   1.780   3.486  11.388  0.6738  0.0972  0.9603
  493TMC3    H2 7388   2.009   3.663  11.074  1.1113  2.9750  1.0649
  493TMC3    C7 7389   1.793   3.537  11.123  0.8871 -0.1428 -0.1757
  493TMC3    C8 7390   2.198   3.760  11.253 -0.3299 -0.5354  0.5843
  493TMC3    O1 7391   1.837   3.534  11.009  0.1342 -0.4334 -0.0869
  493TMC3    O2 7392   2.298   3.760  11.323 -0.2304 -0.2564  0.5017
  494TMC3    C1 7393   2.265   0.857   0.602  0.1239  0.2586 -0.8521
  494TMC3    C2 7394   2.385   0.801   0.611 -0.4309  0.1661  0.8624
  494TMC3    C3 7395   2.436   0.741   0.501 -0.0650 -0.3802  0.3150
  494TMC3    C4 7396   2.195   0.869   0.486 -0.0244  0.2137  0.1616
  494TMC3    C5 7397   2.251   0.809   0.382  0.1556 -0.4768 -0.0598
  494TMC3    C6 7398   2.364   0.746   0.385 -0.4946  0.3919  0.2911
  494TMC3     C 7399   2.190   0.892   0.723  0.0915  0.1316 -0.2480
  494TMC3     O 7400   2.249   0.960   0.807 -0.1316 -0.0852  0.4647
  494TMC3     H 7401   2.431   0.782   0.708  0.3262  1.5277  0.7714
  494TMC3    H1 7402   2.096   0.912   0.478  1.0209  2.8184  1.0720
  494TMC3    H2 7403   2.388   0.688   0.297  0.6021  0.8871  0.2629
  494TMC3    C7 7404   2.194   0.821   0.255 -0.3601 -0.4440 -0.1460
  494TMC3    C8 7405   2.561   0.676   0.496  0.1038 -0.6150  0.3147
  494TMC3    O1 7406   2.278   0.855   0.172 -0.7135  0.4374  0.5534
  494TMC3    O2 7407   2.567   0.602   0.404  0.1702  0.5122 -0.4907
  495TMC3    C1 7408   1.273   2.726  14.917  0.1119 -0.3381  0.2484
  495TMC3    C2 7409   1.240   2.781  14.798 -0.0969 -0.4097  0.6278
  495TMC3    C3 7410   1.134   2.864  14.794 -0.2501  0.7250 -0.0766
  495TMC3    C4 7411   1.199   2.746  15.027  0.6803  0.0568 -0.0321
  495TMC3    C5 7412   1.094   2.829  15.019 -0.3132 -0.6415  0.1199
  495TMC3    C6 7413   1.054   2.887  14.904  0.0964 -0.4573 -0.9965
  495TMC3     C 7414   1.311   2.588  14.887 -0.1411  0.0631 -0.5079
  495TMC3     O 7415   1.248   2.513  14.963  0.2378  0.0854  0.0232
  495TMC3     H 7416   1.293   2.763  14.705  1.0952  1.3147  0.9702
  495TMC3    H1 7417   1.226   2.701  15.121 -1.0895 -1.7815 -0.3972
  495TMC3    H2 7418   0.972   2.957  14.902  1.9033  1.6717 -0.9007
  495TMC3    C7 7419   1.004   2.834  15.127  0.0751  0.9650 -0.0090
  495TMC3    C8 7420   1.052   2.842  14.674 -0.4701  0.8319 -0.4112
  495TMC3    O1 7421   1.055   2.833  15.238 -0.0912  0.1167 -0.4248
  495TMC3    O2 7422   0.943   2.897  14.688 -0.2653 -0.1883 -0.1378
  496MPD2     C 7423   3.062   2.728  15.165 -0.6558  0.2592 -0.4030
  496MPD2    C1 7424   3.098   2.669  15.282  0.5759  0.0764  0.4691
  496MPD2    C2 7425   3.001   2.646  15.375 -0.8744 -0.4165 -0.3335
  496MPD2    C3 7426   2.871   2.695  15.347 -0.4543  0.1993 -0.2591
  496MPD2    C4 7427   2.850   2.774  15.240 -0.6399  0.1446 -0.1478
  496MPD2    C5 7428   2.938   2.774  15.140  0.3825 -0.5123 -0.8925
  496MPD2     H 7429   3.036   2.596  15.465 -1.2152 -0.3309 -0.1559
  496MPD2    H1 7430   2.752   2.818  15.229 -1.1373 -1.4462 -2.1902
  496MPD2    H2 7431   3.136   2.715  15.087  0.2001 -2.0647  0.7737
  496MPD2    H3 7432   2.927   2.826  15.045  2.8382  0.7533 -0.4950
  496MPD2     N 7433   2.765   2.687  15.443 -0.0864  0.1647 -0.4366
  496MPD2    H5 7434   2.679   2.732  15.412 -1.8682 -0.7096  3.2473
  496MPD2    N1 7435   3.234   2.619  15.291 -0.0804 -0.0794 -0.1086
  496MPD2    H7 7436   3.300   2.642  15.218  0.0353 -1.3481 -0.3983
  497TMC3    C1 7437   2.613   2.608  15.603 -0.0753 -0.0698  0.0489
  497TMC3    C2 7438   2.525   2.582  15.500  0.1957 -0.2113 -0.2840
  497TMC3    C3 7439   2.391   2.555  15.524  0.2346  1.1971  0.7030
  497TMC3    C4 7440   2.578   2.587  15.733 -0.7647 -0.2008  0.4172
  497TMC3    C5 7441   2.447   2.545  15.756 -0.3933  0.1568  0.0819
  497TMC3    C6 7442   2.353   2.534  15.656 -0.8327 -0.5692  0.2625
  497TMC3     C 7443   2.752   2.626  15.567  0.3427  0.5715 -0.1762
  497TMC3     O 7444   2.834   2.583  15.643 -0.6106  0.7197 -0.0514
  497TMC3     H 7445   2.563   2.580  15.399 -0.4826 -2.1827 -0.4931
  497TMC3    H1 7446   2.651   2.584  15.814  0.5460 -0.4280 -0.7744
  497TMC3    H2 7447   2.260   2.484  15.680 -0.0668 -2.0562  0.1246
  497TMC3    C7 7448   2.422   2.462  15.868  0.1337  0.4794  0.1180
  497TMC3    C8 7449   2.313   2.489  15.426  0.0714  0.3682  0.0630
  497TMC3    O1 7450   2.369   2.353  15.847  0.3167 -0.1526 -0.2289
  497TMC3    O2 7451   2.211   2.435  15.465  0.0652 -0.2403 -0.1306
  498MPD2     C 7452   4.215   3.840   9.728 -0.8144  0.3238 -0.2594
  498MPD2    C1 7453   4.233   3.859   9.865  0.0347 -0.2125 -0.5582
  498MPD2    C2 7454   4.201   3.749   9.945  0.4028  0.0320  0.4529
  498MPD2    C3 7455   4.149   3.624   9.895  0.0905  0.9438 -0.6406
  498MPD2    C4 7456   4.137   3.608   9.757 -0.2410  0.4559  0.6226
  498MPD2    C5 7457   4.170   3.720   9.672 -0.1375  0.2568  0.4718
  498MPD2     H 7458   4.204   3.756  10.053 -1.2086 -1.4215  0.5867
  498MPD2    H1 7459   4.109   3.518   9.703 -0.5553  1.9173 -1.6663
  498MPD2    H2 7460   4.233   3.923   9.660 -0.7214  0.9369  0.5203
  498MPD2    H3 7461   4.154   3.711   9.565 -0.6853 -0.5443  0.6222
  498MPD2     N 7462   4.112   3.525   9.986  0.2843  0.0698  0.0359
  498MPD2    H5 7463   4.141   3.538  10.082  0.0536  0.8951 -0.0105
  498MPD2    N1 7464   4.265   3.984   9.928  0.0777  0.4626 -0.0334
  498MPD2    H7 7465   4.303   3.978  10.022 -1.1469  0.9167  0.4958
  499TMC3    C1 7466   4.326   4.206   9.898  0.0289  0.0058  0.7908
  499TMC3    C2 7467   4.427   4.185   9.988 -0.4344 -0.2770  0.2121
  499TMC3    C3 7468   4.529   4.271   9.986  0.0766 -0.4307 -0.6560
  499TMC3    C4 7469   4.331   4.320   9.815 -0.1752 -0.1618 -0.3552
  499TMC3    C5 7470   4.437   4.405   9.818 -0.1733  0.2475 -0.3912
  499TMC3    C6 7471   4.543   4.382   9.903 -0.3823 -0.1214  0.2238
  499TMC3     C 7472   4.240   4.100   9.866  0.3162  0.1948  0.5887
  499TMC3     O 7473   4.169   4.122   9.767  0.1995 -0.4142 -0.3601
  499TMC3     H 7474   4.418   4.117  10.071  0.8947  0.5864  1.0659
  499TMC3    H1 7475   4.243   4.339   9.755 -1.1316  3.7870  2.3384
  499TMC3    H2 7476   4.626   4.451   9.898 -0.0837 -0.4785  0.2664
  499TMC3    C7 7477   4.445   4.516   9.723  0.6637  0.5875 -0.5470
  499TMC3    C8 7478   4.604   4.273  10.113  0.5124 -0.0497 -0.9559
  499TMC3    O1 7479   4.526   4.600   9.754 -0.2366 -0.9614  0.1243
  499TMC3    O2 7480   4.592   4.164  10.172  0.2512 -0.5003  0.0203
  500MPD2     C 7481   0.710   4.604  10.885  0.0329 -0.6596 -0.4330
  500MPD2    C1 7482   0.783   4.663  10.791  0.2391 -0.1279 -0.8356
  500MPD2    C2 7483   0.725   4.705  10.673  0.2143  0.3304 -0.2261
  500MPD2    C3 7484   0.588   4.687  10.658  0.6512  0.4078  0.8554
  500MPD2    C4 7485   0.512   4.626  10.765 -0.0829 -0.8901 -0.6822
  500MPD2    C5 7486   0.577   4.581  10.875  1.1795  0.1805 -0.2687
  500MPD2     H 7487   0.786   0.009  10.593  0.5120 -0.9963 -0.6639
  500MPD2    H1 7488   0.405   4.612  10.756 -0.2903  0.1447  0.1369
  500MPD2    H2 7489   0.747   4.569  10.981 -0.5465  0.9514  0.3893
  500MPD2    H3 7490   0.524   4.528  10.954  1.3080  1.8845  0.9679
  500MPD2     N 7491   0.511   4.714  10.541 -0.4270  0.1310  0.1466
  500MPD2    H5 7492   0.413   4.687  10.547 -0.1055 -1.3544 -1.2671
  500MPD2    N1 7493   0.924   4.683  10.808 -0.4437  0.6115 -0.3652
  500MPD2    H7 7494   0.976   4.718  10.729  2.5185 -0.8364  0.9582
  501TMC3    C1 7495   1.147   4.686  10.907 -0.2986 -0.2292 -0.3214
  501TMC3    C2 7496   1.180   0.072  10.851 -0.2472  0.3461  0.4150
  501TMC3    C3 7497   1.314   0.106  10.861 -0.3352 -0.8666 -0.0458
  501TMC3    C4 7498   1.240   4.616  10.983  0.7529  0.1219 -0.8663
  501TMC3    C5 7499   1.374   4.651  10.975 -0.6807  0.0278  0.3272
  501TMC3    C6 7500   1.414   0.029  10.908  0.6421  0.5499 -0.1849
  501TMC3     C 7501   1.002   4.656  10.922 -0.1544 -0.0599 -0.5857
  501TMC3     O 7502   0.977   4.601  11.026 -0.6055  0.2795  0.0246
  501TMC3     H 7503   1.100   0.135  10.813  1.2350  1.4800 -0.8066
  501TMC3    H1 7504   1.203   4.537  11.046  2.1181  1.1230  1.1983
  501TMC3    H2 7505   1.515   0.069  10.911  1.4348 -1.5784  1.9094
  501TMC3    C7 7506   1.471   4.568  11.040 -0.0248  0.0824 -0.1703
  501TMC3    C8 7507   1.356   0.208  10.769 -0.1209 -0.3224 -0.1842
  501TMC3    O1 7508   1.573   4.622  11.080 -0.0776 -0.5842  0.5514
  501TMC3    O2 7509   1.454   0.271  10.805 -0.0504  0.1133 -0.2045
  502TMC3    C1 7510   0.323   4.348  15.288  0.4794  0.2798 -0.0407
  502TMC3    C2 7511   0.383   4.465  15.332  0.6828 -0.3323 -0.0151
  502TMC3    C3 7512   0.315   4.550  15.408  0.5178  0.1394 -0.4281
  502TMC3    C4 7513   0.196   4.317  15.330 -0.9485  0.1307  0.2529
  502TMC3    C5 7514   0.126   4.416  15.402 -0.2434  0.1418 -0.1287
  502TMC3    C6 7515   0.187   4.531  15.444  0.0987 -0.2976 -0.1948
  502TMC3     C 7516   0.411   4.242  15.246  0.1639 -0.2201 -0.0719
  502TMC3     O 7517   0.525   4.275  15.213 -0.3342  0.7166 -0.3616
  502TMC3     H 7518   0.487   4.475  15.305  0.3795 -0.4620 -1.2428
  502TMC3    H1 7519   0.143   4.227  15.299  0.9224 -1.5982  2.1261
  502TMC3    H2 7520   0.120   4.604  15.489 -0.5345 -0.0416 -1.5428
  502TMC3    C7 7521   0.010   4.369  15.475  0.2177 -0.4741 -0.3150
  502TMC3    C8 7522   0.370   4.678  15.432 -0.1148  0.1213  0.8637
  502TMC3    O1 7523   0.005   4.362  15.595  0.2172  0.1846 -0.4026
  502TMC3    O2 7524   0.290   0.029  15.460 -0.3146  0.2885  0.0380
  503MPD2     C 7525   2.628   4.389  16.787 -0.4328 -0.5638 -0.0653
  503MPD2    C1 7526   2.611   4.411  16.922 -0.0172 -0.3913  0.3116
  503MPD2    C2 7527   2.661   4.317  17.013  0.1813 -0.7576  0.5644
  503MPD2    C3 7528   2.727   4.205  16.967 -0.0192  0.2464 -0.9583
  503MPD2    C4 7529   2.744   4.189  16.831  0.7859  0.4378 -0.0449
  503MPD2    C5 7530   2.695   4.281  16.745 -0.3536  0.8297 -0.7329
  503MPD2     H 7531   2.661   4.332  17.121  0.6394  1.8445  0.1925
  503MPD2    H1 7532   2.813   4.111  16.802  0.6064  0.2666 -0.0131
  503MPD2    H2 7533   2.591   4.466  16.721 -1.1278 -0.0371  0.9564
  503MPD2    H3 7534   2.719   4.276  16.639  2.2256  2.9948 -0.2383
  503MPD2     N 7535   2.791   4.110  17.059  0.2985 -0.3249  0.6611
  503MPD2    H5 7536   2.855   4.043  17.019  0.2010  0.2956 -0.5421
  503MPD2    N1 7537   2.554   4.525  16.975 -0.4052 -0.0697 -0.1515
  503MPD2    H7 7538   2.555   4.532  17.077  2.4346  0.6506 -0.2207
  504TMC3    C1 7539   2.854   3.988  17.235 -0.6034  0.1901  0.2110
  504TMC3    C2 7540   2.816   3.926  17.353  0.3453  0.0744  0.2435
  504TMC3    C3 7541   2.908   3.885  17.447 -0.4364 -0.4474  0.7892
  504TMC3    C4 7542   2.986   4.005  17.205  0.4541 -0.2459  0.2726
  504TMC3    C5 7543   3.074   3.960  17.299  0.0129 -0.4559  0.2371
  504TMC3    C6 7544   3.043   3.898  17.418  0.3368  0.8532  0.3952
  504TMC3     C 7545   2.776   4.098  17.186  0.2786 -0.5657  0.2846
  504TMC3     O 7546   2.684   4.142  17.260 -0.0657 -0.0458 -0.1428
  504TMC3     H 7547   2.715   3.945  17.389 -0.2248 -1.6624 -0.4059
  504TMC3    H1 7548   3.025   4.075  17.132  0.8805  1.4156  2.0947
  504TMC3    H2 7549   3.121   3.855  17.480 -0.3210  1.0421  1.3592
  504TMC3    C7 7550   3.213   3.977  17.258 -0.3037 -0.5658 -0.6457
  504TMC3    C8 7551   2.868   3.853  17.588  0.4320 -0.6787  0.5510
  504TMC3    O1 7552   3.238   3.957  17.140 -0.7166 -0.2319 -0.1370
  504TMC3    O2 7553   2.749   3.837  17.619 -0.0194 -0.3274  0.7841
  505MPD2     C 7554   3.423   3.146  10.881 -0.2044  0.5550  0.3658
  505MPD2    C1 7555   3.477   3.035  10.947  0.5620 -0.2882  0.3887
  505MPD2    C2 7556   3.589   3.042  11.025  0.1685  0.2572  0.4103
  505MPD2    C3 7557   3.664   3.165  11.031 -0.0980  0.2657 -0.5678
  505MPD2    C4 7558   3.609   3.276  10.973 -0.0180 -0.0179  0.0693
  505MPD2    C5 7559   3.493   3.262  10.902 -0.3947  0.0930  0.7675
  505MPD2     H 7560   3.630   2.950  11.064  2.5236  0.9136 -0.4903
  505MPD2    H1 7561   3.658   3.372  10.965  1.1712 -0.3874  2.9049
  505MPD2    H2 7562   3.346   3.137  10.805 -2.1560  1.4135  2.2535
  505MPD2    H3 7563   3.472   3.357  10.855  2.5888 -0.1202 -0.9893
  505MPD2     N 7564   3.787   3.188  11.095 -0.4419  0.0173 -0.6149
  505MPD2    H5 7565   3.820   3.281  11.070  2.0218 -0.3349  1.2739
  505MPD2    N1 7566   3.419   2.909  10.915 -0.6304  0.3686 -0.0760
  505MPD2    H7 7567   3.344   2.918  10.848 -1.0338 -0.1511  0.3059
  506TMC3    C1 7568   3.388   2.686  10.910 -0.2862 -0.0971 -0.0179
  506TMC3    C2 7569   3.384   2.689  10.769 -0.4615 -0.1490 -0.6950
  506TMC3    C3 7570   3.427   2.582  10.698 -0.1804 -0.1337 -0.6340
  506TMC3    C4 7571   3.410   2.566  10.968 -0.5137 -0.1768 -0.7018
  506TMC3    C5 7572   3.456   2.457  10.891  0.2254 -0.3254 -0.5159
  506TMC3    C6 7573   3.451   2.460  10.754 -0.0653 -0.7273 -0.0091
  506TMC3     C 7574   3.440   2.796  10.981  0.5839 -0.6181  0.1286
  506TMC3     O 7575   3.497   2.765  11.086 -0.0541 -0.6855  0.4523
  506TMC3     H 7576   3.370   2.784  10.719  0.2389 -1.5856 -3.6070
  506TMC3    H1 7577   3.382   2.547  11.071  1.0204  0.6254 -0.1321
  506TMC3    H2 7578   3.493   2.379  10.695  2.1972 -1.9273  3.2183
  506TMC3    C7 7579   3.576   2.412  10.954  0.1418  0.2614 -0.6555
  506TMC3    C8 7580   3.412   2.599  10.554  0.1499  0.7059 -0.1321
  506TMC3    O1 7581   3.613   2.298  10.936  0.3608  0.1997  0.4039
  506TMC3    O2 7582   3.365   2.504  10.494  0.2432  0.3286  0.2417
  507TMC3    C1 7583   4.590   4.125  13.941  0.3322  0.4580  0.3609
  507TMC3    C2 7584   4.506   4.149  13.837 -0.2910  1.1429  0.4889
  507TMC3    C3 7585   4.406   4.248  13.855 -1.0228 -0.1280 -0.2718
  507TMC3    C4 7586   4.593   4.204  14.055  0.1268 -0.3252 -0.2206
  507TMC3    C5 7587   4.490   4.291  14.072 -0.8602  0.0657  0.0831
  507TMC3    C6 7588   4.407   4.326  13.968 -0.0897 -0.2983  0.1211
  507TMC3     C 7589   4.677   4.001  13.928  0.4489  0.5518 -0.5399
  507TMC3     O 7590   4.699   3.974  13.813  0.3418 -0.1357 -0.2067
  507TMC3     H 7591   4.502   4.095  13.743  1.5658 -0.9696  1.6240
  507TMC3    H1 7592   4.665   4.177  14.132  1.2705  0.4693 -1.0064
  507TMC3    H2 7593   4.328   4.401  13.970  0.9464  0.8105 -0.8251
  507TMC3    C7 7594   4.426   4.264  14.193 -0.4236  1.1329  0.0723
  507TMC3    C8 7595   4.270   4.218  13.816  0.7099 -0.2642  0.6806
  507TMC3    O1 7596   4.484   4.251  14.299  0.3719  0.1302  0.0583
  507TMC3    O2 7597   4.185   4.278  13.883 -0.2942 -0.8842 -1.0946
  508MPD2     C 7598   3.785   1.356  16.079  0.2348 -0.9990 -0.1177
  508MPD2    C1 7599   3.923   1.339  16.091  0.3125 -0.1160 -0.2053
  508MPD2    C2 7600   3.991   1.349  15.971 -0.9376 -0.4653 -0.3350
  508MPD2    C3 7601   3.927   1.388  15.854 -0.1379  0.1690  0.2825
  508MPD2    C4 7602   3.789   1.416  15.843 -0.1054 -0.2399 -0.5621
  508MPD2    C5 7603   3.722   1.394  15.958  0.6517 -0.0737  0.8672
  508MPD2     H 7604   4.099   1.347  15.968 -0.9697 -0.7801 -1.2406
  508MPD2    H1 7605   3.739   1.454  15.754 -0.0755  0.7826 -0.1455
  508MPD2    H2 7606   3.717   1.342  16.162 -1.4937  1.2504 -1.1566
  508MPD2    H3 7607   3.615   1.409  15.959  0.5903 -0.4986 -1.1139
  508MPD2     N 7608   4.015   1.419  15.749  0.0755  0.3947 -0.1565
  508MPD2    H5 7609   4.111   1.431  15.778  0.4069 -0.2418 -0.9894
  508MPD2    N1 7610   3.993   1.310  16.206 -0.0943 -0.6884  0.3524
  508MPD2    H7 7611   4.094   1.321  16.202 -0.2492  0.3188 -0.4722
  509TMC3    C1 7612   4.136   1.648  15.373 -0.6189  0.0342  0.3974
  509TMC3    C2 7613   4.262   1.650  15.416 -0.4983 -0.1937 -0.0460
  509TMC3    C3 7614   4.303   1.549  15.501 -0.3629 -0.1981  0.0302
  509TMC3    C4 7615   4.044   1.559  15.431  0.2175  0.3691 -0.2397
  509TMC3    C5 7616   4.086   1.474  15.525  0.1980 -0.0264 -0.1097
  509TMC3    C6 7617   4.217   1.462  15.558 -0.4871  0.0621 -0.1282
  509TMC3     C 7618   4.080   1.749  15.284  0.5094 -0.3545 -0.3288
  509TMC3     O 7619   3.960   1.739  15.270  0.1673 -0.1978  0.2311
  509TMC3     H 7620   4.341   1.697  15.359  0.9086 -2.7228 -0.1718
  509TMC3    H1 7621   3.937   1.556  15.413  0.5574  1.0202 -2.3547
  509TMC3    H2 7622   4.251   1.397  15.637  3.0878  0.7197 -1.0907
  509TMC3    C7 7623   3.975   1.425  15.612  0.7507  0.8720  0.2984
  509TMC3    C8 7624   4.409   1.587  15.599  0.0133  0.1540  0.0050
  509TMC3    O1 7625   3.863   1.414  15.568 -0.0208 -0.1400 -0.1802
  509TMC3    O2 7626   4.450   1.506  15.681  0.3592  0.0379 -0.0812
  510MPD2     C 7627   2.468   2.903  14.361 -0.4080 -0.0707  0.3080
  510MPD2    C1 7628   2.487   2.956  14.493  0.5587 -0.4516 -0.4443
  510MPD2    C2 7629   2.616   3.003  14.529  0.0581  0.2912 -0.1071
  510MPD2    C3 7630   2.720   3.006  14.431 -0.0410  0.6880  0.2741
  510MPD2    C4 7631   2.694   2.949  14.310  0.8687 -0.0504  0.7189
  510MPD2    C5 7632   2.576   2.890  14.272  0.2663 -0.1478  0.7011
  510MPD2     H 7633   2.641   3.051  14.624 -1.0512  0.3264  0.1687
  510MPD2    H1 7634   2.752   2.965  14.220 -2.5879  3.7012 -0.8134
  510MPD2    H2 7635   2.373   2.857  14.336  0.5525 -2.3113  0.7751
  510MPD2    H3 7636   2.552   2.861  14.170 -3.9267 -2.1274  2.2567
  510MPD2     N 7637   2.843   3.071  14.464  0.3730  0.2970  0.1184
  510MPD2    H5 7638   2.848   3.098  14.561 -0.5538 -1.3740  0.6303
  510MPD2    N1 7639   2.376   2.924  14.580  0.1426  0.1518 -0.3392
  510MPD2    H7 7640   2.292   2.887  14.537 -2.1250  2.7020  1.8847
  511TMC3    C1 7641   2.272   2.849  14.782 -0.7952  0.3720  1.0489
  511TMC3    C2 7642   2.237   2.884  14.910 -0.3931  0.1877  0.1121
  511TMC3    C3 7643   2.189   2.784  14.992  0.1703  0.6452  0.1036
  511TMC3    C4 7644   2.258   2.721  14.737  0.0970 -0.1306  0.3654
  511TMC3    C5 7645   2.210   2.627  14.822 -0.5811  0.5145  0.0984
  511TMC3    C6 7646   2.169   2.658  14.952  0.2057 -1.0323  0.1985
  511TMC3     C 7647   2.377   2.928  14.718  0.4629  0.4189 -0.9449
  511TMC3     O 7648   2.462   2.963  14.798  0.3684 -0.4072  0.1022
  511TMC3     H 7649   2.269   2.978  14.956 -3.3318  1.2160  0.0316
  511TMC3    H1 7650   2.310   2.693  14.646 -2.0756 -2.2816 -0.2152
  511TMC3    H2 7651   2.142   2.583  15.025 -1.4834  0.5376  1.1935
  511TMC3    C7 7652   2.193   2.493  14.770  0.6499 -0.0189 -0.0118
  511TMC3    C8 7653   2.163   2.822  15.135 -0.6294  0.2550 -0.2151
  511TMC3    O1 7654   2.259   2.466  14.674 -0.0929 -0.3785 -0.3234
  511TMC3    O2 7655   2.208   2.930  15.175  0.1891 -0.3355 -0.0589
  512TMC3    C1 7656   0.870   2.660  13.518 -0.1695 -0.6897 -0.4592
  512TMC3    C2 7657   0.981   2.615  13.570  0.3542  0.7435 -0.3784
  512TMC3    C3 7658   1.030   2.500  13.517 -0.0842  0.2978  0.3743
  512TMC3    C4 7659   0.799   2.599  13.418 -0.5747 -0.5364  0.3602
  512TMC3    C5 7660   0.851   2.478  13.370  1.1675 -0.3349  0.5718
  512TMC3    C6 7661   0.982   2.438  13.409  0.0676  0.4593 -0.4195
  512TMC3     C 7662   0.803   2.772  13.576 -0.7710 -0.4737 -0.4945
  512TMC3     O 7663   0.690   2.792  13.541 -0.4417 -0.0381 -0.3313
  512TMC3     H 7664   1.031   2.667  13.650  0.3245 -1.0310  0.7940
  512TMC3    H1 7665   0.705   2.643  13.385 -0.6297  0.3685  1.7165
  512TMC3    H2 7666   1.045   2.361  13.368  0.0385  0.3838 -0.3218
  512TMC3    C7 7667   0.784   2.415  13.260  0.2598  0.2674 -0.1631
  512TMC3    C8 7668   1.149   2.429  13.576  0.1899  0.4520 -0.0603
  512TMC3    O1 7669   0.668   2.447  13.235  0.2298  0.2262  0.1828
  512TMC3    O2 7670   1.168   2.312  13.550 -0.5434  0.7515 -0.2463
  513MPD2     C 7671   3.287   2.719  13.349 -0.0139  0.3142  0.2526
  513MPD2    C1 7672   3.316   2.605  13.280 -0.1577  0.1950  0.4781
  513MPD2    C2 7673   3.444   2.544  13.301 -0.4016  0.1061  0.0727
  513MPD2    C3 7674   3.537   2.602  13.380  0.4657  0.6676 -0.3556
  513MPD2    C4 7675   3.506   2.707  13.460 -0.3763  0.4558  0.6002
  513MPD2    C5 7676   3.383   2.762  13.437 -0.2264 -0.0283  0.0914
  513MPD2     H 7677   3.466   2.450  13.251  2.2939  1.7028 -1.7605
  513MPD2    H1 7678   3.579   2.748  13.530  2.7111 -3.0471 -0.5764
  513MPD2    H2 7679   3.197   2.779  13.341 -0.7794 -0.9070 -0.3619
  513MPD2    H3 7680   3.367   2.855  13.491  0.0385  1.0000 -1.6104
  513MPD2     N 7681   3.665   2.546  13.369 -0.1862  0.8881  0.0712
  513MPD2    H5 7682   3.665   2.461  13.312  2.1668  1.1164 -0.2809
  513MPD2    N1 7683   3.225   2.542  13.191  0.3099 -0.1465  0.1700
  513MPD2    H7 7684   3.259   2.451  13.160  1.3932  0.8597 -1.5788
  514TMC3    C1 7685   3.073   2.516  13.029  0.4293 -0.2272  0.8090
  514TMC3    C2 7686   3.089   2.569  12.903 -0.0462  0.6039  0.2465
  514TMC3    C3 7687   3.140   2.490  12.803 -0.7145 -0.9107 -0.0657
  514TMC3    C4 7688   3.093   2.386  13.049 -0.1446 -0.5883 -0.3507
  514TMC3    C5 7689   3.131   2.303  12.948 -0.0710  0.2108 -0.6572
  514TMC3    C6 7690   3.151   2.355  12.822  0.0183 -0.1205  0.4353
  514TMC3     C 7691   3.126   2.601  13.125 -0.0177 -0.4934 -0.0795
  514TMC3     O 7692   3.102   2.722  13.112 -0.4291 -0.6367  0.4770
  514TMC3     H 7693   3.055   2.669  12.882  0.8721  1.0579  0.9080
  514TMC3    H1 7694   3.079   2.340  13.146  3.1421 -0.5836  0.1120
  514TMC3    H2 7695   3.186   2.298  12.737  0.6366 -0.7736  1.1228
  514TMC3    C7 7696   3.250   2.243  12.994  0.0535 -0.8659  0.5119
  514TMC3    C8 7697   3.097   2.535  12.669  0.2405 -0.1312  0.1695
  514TMC3    O1 7698   3.288   2.281  13.105 -0.1990 -0.2234  0.3502
  514TMC3    O2 7699   3.025   2.630  12.666  0.3603  0.5183  0.4628
  515MPD2     C 7700   1.346   4.398  15.221  0.4114 -0.0249 -0.0187
  515MPD2    C1 7701   1.341   4.411  15.085  0.0697  0.2825  0.0124
  515MPD2    C2 7702   1.437   4.491  15.010  0.0148  0.3450 -0.5641
  515MPD2    C3 7703   1.524   4.576  15.082  0.2157  0.7461  0.2791
  515MPD2    C4 7704   1.519   4.566  15.220 -0.2062  0.1343 -0.6179
  515MPD2    C5 7705   1.446   4.469  15.280 -0.2332  0.2184 -0.3411
  515MPD2     H 7706   1.430   4.493  14.902  4.9517 -2.0591 -0.9122
  515MPD2    H1 7707   1.599   4.610  15.278 -2.4102  0.7051  1.9726
  515MPD2    H2 7708   1.279   4.335  15.277  1.8685  0.3678  2.1645
  515MPD2    H3 7709   1.458   4.453  15.387 -1.2762 -1.7454 -0.5308
  515MPD2     N 7710   1.624   4.657  15.033 -0.0337  0.0737  0.6506
  515MPD2    H5 7711   1.677   4.708  15.102 -1.5517  2.5353  0.0056
  515MPD2    N1 7712   1.249   4.335  15.006 -0.4205 -0.0787 -0.5754
  515MPD2    H7 7713   1.234   4.369  14.911  2.0122  1.0145 -0.5793
  516TMC3    C1 7714   1.085   4.178  14.959 -0.1420  0.6930 -0.0049
  516TMC3    C2 7715   1.019   4.277  14.884 -0.9433  0.9454 -0.1009
  516TMC3    C3 7716   0.896   4.251  14.835 -0.1748 -0.3248  0.2597
  516TMC3    C4 7717   1.029   4.052  14.980 -0.2828 -0.0545 -0.0199
  516TMC3    C5 7718   0.897   4.044  14.945 -0.3344 -0.6744 -0.4325
  516TMC3    C6 7719   0.833   4.131  14.862  0.1876 -0.2470  0.7786
  516TMC3     C 7720   1.184   4.225  15.057  0.3707  1.0647 -0.5843
  516TMC3     O 7721   1.211   4.157  15.158  0.4198 -0.5331 -0.4274
  516TMC3     H 7722   1.046   4.382  14.891  3.6843 -0.1774 -1.1100
  516TMC3    H1 7723   1.094   3.971  15.009  1.4911  1.4609  0.2674
  516TMC3    H2 7724   0.733   4.112  14.823  0.5092 -0.9223  0.2879
  516TMC3    C7 7725   0.854   3.907  14.961 -0.3000  0.4087  0.4709
  516TMC3    C8 7726   0.820   4.359  14.781  0.6971 -0.8576  0.2744
  516TMC3    O1 7727   0.912   3.856  15.056  0.2106 -0.0669 -0.1011
  516TMC3    O2 7728   0.695   4.349  14.779  0.2494  0.8114  0.7665
  517MPD2     C 7729   0.853   1.230  17.434 -0.0844  0.1748 -0.0419
  517MPD2    C1 7730   0.944   1.186  17.526  0.5234  0.1896 -0.1790
  517MPD2    C2 7731   0.998   1.275  17.616 -0.0301 -0.5692 -0.1158
  517MPD2    C3 7732   0.949   1.404  17.628  0.1361  0.7706  0.6243
  517MPD2    C4 7733   0.848   1.440  17.539  0.0372  0.0516  0.3430
  517MPD2    C5 7734   0.800   1.357  17.443 -0.7750 -0.9353  0.0422
  517MPD2     H 7735   1.075   1.233  17.678 -0.0665  0.5066  0.6607
  517MPD2    H1 7736   0.805   1.540  17.540 -0.6150 -0.2276  0.0847
  517MPD2    H2 7737   0.811   1.173  17.351 -0.9363  0.2398  0.3430
  517MPD2    H3 7738   0.732   1.396  17.368 -0.4351 -0.4342 -0.0091
  517MPD2     N 7739   0.977   1.495  17.737  0.2792  0.0374  0.6120
  517MPD2    H5 7740   0.928   1.584  17.743  3.3580  1.7194  0.2503
  517MPD2    N1 7741   1.000   1.056  17.515  0.0053  0.0678 -0.5669
  517MPD2    H7 7742   1.072   1.029  17.581 -0.2690 -0.7897 -0.6262
  518TMC3    C1 7743   1.018   0.838  17.439  0.0066  0.2459  0.6485
  518TMC3    C2 7744   0.942   0.728  17.425 -0.4941  0.2945 -0.7638
  518TMC3    C3 7745   1.010   0.607  17.418 -1.1249  1.2199 -0.1325
  518TMC3    C4 7746   1.149   0.834  17.398 -0.6730  0.5868 -0.5722
  518TMC3    C5 7747   1.207   0.714  17.360 -0.3264  0.7475  0.2370
  518TMC3    C6 7748   1.142   0.597  17.376 -0.9505 -0.3778 -0.3519
  518TMC3     C 7749   0.951   0.961  17.429  0.3391  0.0001  0.1244
  518TMC3     O 7750   0.852   0.961  17.359 -0.1270  0.1117  0.5159
  518TMC3     H 7751   0.834   0.732  17.433 -0.4629 -1.3661  0.5369
  518TMC3    H1 7752   1.204   0.926  17.383  1.7203 -0.1412  3.6549
  518TMC3    H2 7753   1.195   0.503  17.361 -2.2414 -1.4118  1.7113
  518TMC3    C7 7754   1.348   0.714  17.385 -0.1105  0.2272  0.3924
  518TMC3    C8 7755   0.934   0.485  17.424 -0.1315  0.3401  0.7172
  518TMC3    O1 7756   1.368   0.779  17.487  0.4380 -0.0344 -0.0337
  518TMC3    O2 7757   0.978   0.388  17.360 -0.0011 -0.2829 -0.1752
  519MPD2     C 7758   3.350   3.965  14.388 -0.8147 -0.4769 -0.0945
  519MPD2    C1 7759   3.266   3.925  14.284 -0.3989  0.2485  0.1168
  519MPD2    C2 7760   3.318   3.832  14.192  0.7555  0.5971 -0.0952
  519MPD2    C3 7761   3.446   3.793  14.202 -0.0276 -0.3659 -0.0722
  519MPD2    C4 7762   3.530   3.825  14.308  0.6779  0.3310 -0.6144
  519MPD2    C5 7763   3.474   3.909  14.404  0.2732  0.0690  0.1755
  519MPD2     H 7764   3.258   3.787  14.114  2.4147 -1.0757 -0.4003
  519MPD2    H1 7765   3.631   3.789  14.322  0.6769  0.7684  0.5227
  519MPD2    H2 7766   3.318   4.046  14.452  0.0682 -0.2722  0.0729
  519MPD2    H3 7767   3.542   3.937  14.483  0.5555 -0.2206  0.0368
  519MPD2     N 7768   3.506   3.713  14.101 -0.0359 -0.3296  0.1079
  519MPD2    H5 7769   3.605   3.693  14.116  0.5259  0.8148 -2.1106
  519MPD2    N1 7770   3.133   3.976  14.286 -0.2835 -0.7466 -0.7590
  519MPD2    H7 7771   3.103   4.026  14.369  1.0748 -1.9084  0.4435
  520TMC3    C1 7772   3.550   3.608  13.887 -0.1807  0.4695  0.8989
  520TMC3    C2 7773   3.495   3.537  13.780  0.6906  0.3934 -0.2513
  520TMC3    C3 7774   3.563   3.545  13.663  0.0175 -0.3732  0.7938
  520TMC3    C4 7775   3.677   3.665  13.881  0.1306  0.1793 -0.7635
  520TMC3    C5 7776   3.744   3.654  13.765 -1.1219  0.4087  0.0773
  520TMC3    C6 7777   3.687   3.597  13.653 -0.6056 -0.0604  0.6482
  520TMC3     C 7778   3.452   3.659  13.980 -0.2076  0.0547 -0.1406
  520TMC3     O 7779   3.335   3.663  13.946  0.5028 -0.1279 -0.0893
  520TMC3     H 7780   3.394   3.500  13.794  1.2789 -1.3194 -0.5176
  520TMC3    H1 7781   3.733   3.709  13.963  1.7854 -0.4204 -1.5657
  520TMC3    H2 7782   3.736   3.593  13.556 -2.5461  1.5494 -0.4007
  520TMC3    C7 7783   3.885   3.650  13.781 -0.7380 -0.0028 -0.0370
  520TMC3    C8 7784   3.489   3.552  13.537  0.1391  0.1973 -0.1702
  520TMC3    O1 7785   3.933   3.712  13.875  0.0121  0.5616  0.4053
  520TMC3    O2 7786   3.533   3.607  13.441 -0.1901 -0.4666 -0.1709
  521MPD2     C 7787   3.209   2.119  17.716 -0.3576  0.5773  0.2364
  521MPD2    C1 7788   3.192   2.024  17.616  0.2553 -0.3523 -0.3876
  521MPD2    C2 7789   3.297   1.975  17.540 -0.4522 -1.3227 -0.3071
  521MPD2    C3 7790   3.421   2.036  17.560  0.2021  0.4461  0.2781
  521MPD2    C4 7791   3.434   2.136  17.647  0.2753  1.0056 -0.5516
  521MPD2    C5 7792   3.332   2.175  17.722  0.1651 -0.8847  0.1005
  521MPD2     H 7793   3.281   1.891  17.475 -0.1794 -0.9525 -0.8514
  521MPD2    H1 7794   3.529   2.187  17.661 -0.3857  2.0978 -0.1198
  521MPD2    H2 7795   3.134   2.138   0.049 -1.4736 -1.6084 -0.2963
  521MPD2    H3 7796   3.343   2.252   0.054  0.3558  0.3091 -1.1641
  521MPD2     N 7797   3.527   1.982  17.476 -0.3485  0.0836 -0.1301
  521MPD2    H5 7798   3.502   1.911  17.407  1.9695 -0.2126 -0.6557
  521MPD2    N1 7799   3.061   1.971  17.610  0.0805 -0.2429 -0.2152
  521MPD2    H7 7800   2.991   2.019  17.665  0.3849  0.5372 -0.5012
  522TMC3    C1 7801   3.722   1.963  17.370 -0.0657 -0.7086  0.1573
  522TMC3    C2 7802   3.852   1.921  17.392 -0.0043  0.5930 -0.4410
  522TMC3    C3 7803   3.934   1.925  17.286 -0.6676  0.2065  0.0832
  522TMC3    C4 7804   3.682   2.003  17.251 -0.8560  0.0023  0.7146
  522TMC3    C5 7805   3.772   2.029  17.155 -0.0027  0.3647  1.2756
  522TMC3    C6 7806   3.905   1.993  17.174  0.9260 -0.1789  0.6914
  522TMC3     C 7807   3.656   2.016  17.482 -0.4766 -0.1393  0.2498
  522TMC3     O 7808   3.716   2.075  17.572 -0.4875 -0.3749  0.5107
  522TMC3     H 7809   3.874   1.867  17.483  1.2573  2.8161  0.5780
  522TMC3    H1 7810   3.580   2.038  17.239 -1.6987 -1.4947  3.4244
  522TMC3    H2 7811   3.987   2.000  17.104 -0.6846  1.0352 -1.0660
  522TMC3    C7 7812   3.745   2.105  17.030 -0.1881 -0.1047 -0.2190
  522TMC3    C8 7813   4.040   1.832  17.288  0.4424  0.4646 -0.6856
  522TMC3    O1 7814   3.845   2.137  16.974  0.0432  0.0272 -0.6265
  522TMC3    O2 7815   4.094   1.806  17.390 -0.1450  0.1008 -0.3908
  523MPD2     C 7816   1.101   1.533   9.477 -0.2896 -0.2152  0.2339
  523MPD2    C1 7817   1.178   1.598   9.572 -0.2284 -0.4020  0.0146
  523MPD2    C2 7818   1.162   1.733   9.581 -0.4072  0.1203  0.1452
  523MPD2    C3 7819   1.070   1.806   9.500 -0.3385 -0.2119  0.1936
  523MPD2    C4 7820   1.003   1.736   9.403 -0.1315 -0.0653 -0.3555
  523MPD2    C5 7821   1.023   1.603   9.388 -0.3829  0.4369 -0.4287
  523MPD2     H 7822   1.223   1.793   9.647  0.2466 -2.0619  1.5482
  523MPD2    H1 7823   0.936   1.789   9.335  0.5875  1.2014 -0.0837
  523MPD2    H2 7824   1.098   1.425   9.472  1.6638 -0.2761  0.6671
  523MPD2    H3 7825   0.960   1.553   9.316  1.3592 -1.1149 -0.8516
  523MPD2     N 7826   1.060   1.948   9.498 -0.2280 -0.1193 -0.2476
  523MPD2    H5 7827   0.993   1.982   9.430 -1.2708  0.1801  0.9358
  523MPD2    N1 7828   1.256   1.509   9.651  0.2876 -0.4947 -0.1975
  523MPD2    H7 7829   1.261   1.415   9.613 -0.5248 -0.3147 -0.7616
  524TMC3    C1 7830   1.111   2.182   9.546 -0.6380 -0.2196 -0.4559
  524TMC3    C2 7831   1.009   2.213   9.461  0.1528 -0.3275  0.7232
  524TMC3    C3 7832   0.995   2.340   9.430 -0.1255  0.1549  0.3187
  524TMC3    C4 7833   1.215   2.266   9.584  0.2942 -0.0034 -1.1716
  524TMC3    C5 7834   1.190   2.396   9.546 -0.2673 -0.1055  0.6254
  524TMC3    C6 7835   1.085   2.437   9.465 -0.1669 -0.1292  0.7342
  524TMC3     C 7836   1.129   2.041   9.570  0.5006 -0.4679  0.0761
  524TMC3     O 7837   1.232   2.013   9.630  0.6279  0.5883 -0.3782
  524TMC3     H 7838   0.928   2.144   9.445  0.3622 -0.1228 -1.1950
  524TMC3    H1 7839   1.310   2.232   9.625 -0.6156 -2.1719 -0.8829
  524TMC3    H2 7840   1.078   2.538   9.427 -1.0858 -0.5080 -0.1003
  524TMC3    C7 7841   1.288   2.488   9.595  0.1715 -0.9658 -0.1210
  524TMC3    C8 7842   0.862   2.380   9.385  0.4664  0.1942 -0.1347
  524TMC3    O1 7843   1.368   2.438   9.676  0.5138 -0.3443 -0.8011
  524TMC3    O2 7844   0.805   2.298   9.317 -0.1479 -0.7771  0.2156
  525MPD2     C 7845   0.349   3.852  14.550 -0.1217  0.0150  0.1442
  525MPD2    C1 7846   0.283   3.898  14.656 -0.6725  0.0779  0.1380
  525MPD2    C2 7847   0.218   4.022  14.643 -0.1574 -0.1432 -0.1024
  525MPD2    C3 7848   0.204   4.094  14.525  0.3471 -0.6056 -0.4319
  525MPD2    C4 7849   0.262   4.040  14.415 -0.0802  0.1176  0.3662
  525MPD2    C5 7850   0.339   3.923  14.434 -0.5773  0.5178 -0.2367
  525MPD2     H 7851   0.164   4.057  14.731 -0.9746 -0.4056 -0.5030
  525MPD2    H1 7852   0.266   4.069  14.311  0.3115  1.5190  0.7774
  525MPD2    H2 7853   0.400   3.757  14.546  1.5049  0.7576  3.2298
  525MPD2    H3 7854   0.377   3.880  14.342  0.9207  2.2566 -0.4395
  525MPD2     N 7855   0.128   4.208  14.502 -0.0282 -0.0712  1.2128
  525MPD2    H5 7856   0.120   4.239  14.406 -0.8434  2.0066  1.9637
  525MPD2    N1 7857   0.278   3.843  14.779 -0.5071 -0.0548  0.1180
  525MPD2    H7 7858   0.235   3.895  14.855  1.1886  0.0365  0.9917
  526TMC3    C1 7859   0.249   3.681  14.938  0.3008  0.2171 -0.2277
  526TMC3    C2 7860   0.130   3.736  14.969  0.1072  0.4043  0.5917
  526TMC3    C3 7861   0.067   3.678  15.070  0.0003  0.1784  0.4072
  526TMC3    C4 7862   0.304   3.573  14.996 -0.0003  0.4679  0.4373
  526TMC3    C5 7863   0.239   3.520  15.101  0.7492 -0.1736  0.5815
  526TMC3    C6 7864   0.116   3.568  15.144 -0.0463  0.1858  0.0055
  526TMC3     C 7865   0.309   3.719  14.814 -1.3680  0.0472  0.2300
  526TMC3     O 7866   0.324   3.629  14.729 -0.1073  0.3961  0.4357
  526TMC3     H 7867   0.083   3.818  14.916 -1.9619 -0.2881  1.3769
  526TMC3    H1 7868   0.390   3.529  14.948  1.1915  0.6341  2.4379
  526TMC3    H2 7869   0.053   3.521  15.219  1.0505 -2.4475 -0.7066
  526TMC3    C7 7870   0.270   3.386  15.157 -0.5755 -0.9523 -0.0575
  526TMC3    C8 7871   4.659   3.675  15.067  0.5257 -0.0572  0.3687
  526TMC3    O1 7872   0.241   3.372  15.275 -0.3290 -0.1225  0.0446
  526TMC3    O2 7873   4.602   3.656  15.175 -0.2284 -0.7876 -0.0735
  527MPD2     C 7874   2.682   1.888   1.496  0.0045 -0.2390 -0.4473
  527MPD2    C1 7875   2.588   1.832   1.416  0.5677  0.6966 -1.0328
  527MPD2    C2 7876   2.624   1.726   1.336  0.0399 -0.5370 -0.0977
  527MPD2    C3 7877   2.747   1.659   1.350 -1.1641  0.0042 -0.0449
  527MPD2    C4 7878   2.836   1.712   1.441 -0.4466 -0.2379 -0.1698
  527MPD2    C5 7879   2.803   1.828   1.502  0.3693  0.2811 -1.1526
  527MPD2     H 7880   2.544   1.685   1.276 -0.4471 -1.6307  1.3271
  527MPD2    H1 7881   2.938   1.677   1.452 -0.6010 -0.7518 -0.3710
  527MPD2    H2 7882   2.664   1.984   1.542 -0.1520  0.0622 -1.1353
  527MPD2    H3 7883   2.883   1.869   1.564  1.8139 -1.8512 -1.5938
  527MPD2     N 7884   2.768   1.546   1.268  0.2142  0.1191 -0.7097
  527MPD2    H5 7885   2.694   1.520   1.203 -0.8432 -0.3623  0.7001
  527MPD2    N1 7886   2.453   1.882   1.396 -0.3054  0.0616  0.6273
  527MPD2    H7 7887   2.408   1.843   1.313  2.4113  0.2410 -0.9340
  528TMC3    C1 7888   2.246   1.969   1.452  0.1857 -0.0316  0.5135
  528TMC3    C2 7889   2.189   1.864   1.383 -0.5139 -0.5913  0.0918
  528TMC3    C3 7890   2.056   1.834   1.395 -0.1891  0.2417  0.3993
  528TMC3    C4 7891   2.164   2.048   1.528 -0.1561  0.7718  0.2846
  528TMC3    C5 7892   2.034   2.018   1.530 -0.1466 -0.2821  0.1478
  528TMC3    C6 7893   1.973   1.918   1.464 -0.2148  0.1308 -0.6227
  528TMC3     C 7894   2.386   1.970   1.476 -0.0452  0.3453 -0.0144
  528TMC3     O 7895   2.424   2.018   1.583  0.1271  0.2901  0.0440
  528TMC3     H 7896   2.245   1.794   1.322 -0.8061  0.6632 -1.6134
  528TMC3    H1 7897   2.198   2.143   1.567 -0.6041 -0.3848  3.4384
  528TMC3    H2 7898   1.867   1.902   1.480 -0.1309  2.6773  2.3309
  528TMC3    C7 7899   1.938   2.113   1.594  0.1031 -0.1182  0.6282
  528TMC3    C8 7900   2.010   1.746   1.289 -0.4855 -0.3220 -0.1931
  528TMC3    O1 7901   1.820   2.087   1.623 -0.5643  0.6314 -0.1392
  528TMC3    O2 7902   2.087   1.703   1.203 -0.5257 -0.1248  0.4660
  529MPD2     C 7903   0.134   0.515   0.522 -0.6432  0.9940  0.5344
  529MPD2    C1 7904   0.091   0.389   0.518  0.1810  0.0990 -0.0478
  529MPD2    C2 7905   4.716   0.364   0.435 -0.1760 -0.1655 -0.0034
  529MPD2    C3 7906   4.649   0.467   0.364  0.2262  0.2579  0.1059
  529MPD2    C4 7907   4.702   0.590   0.369  0.4063 -0.1012 -1.2737
  529MPD2    C5 7908   0.078   0.610   0.447 -0.1650 -0.0177 -0.5493
  529MPD2     H 7909   4.676   0.263   0.438 -0.7321  0.0768  0.8212
  529MPD2    H1 7910   4.658   0.668   0.309 -1.6076 -0.1234  0.1754
  529MPD2    H2 7911   0.220   0.548   0.579  0.8083 -1.4606 -0.2714
  529MPD2    H3 7912   0.126   0.707   0.446 -0.4507  0.1210 -1.0598
  529MPD2     N 7913   4.550   0.440   0.266  0.5153  0.1089  0.2768
  529MPD2    H5 7914   4.531   0.519   0.205 -3.2974 -0.3680  0.8977
  529MPD2    N1 7915   0.163   0.282   0.579  0.0585  1.1603 -0.1152
  529MPD2    H7 7916   0.138   0.185   0.562  2.0099  0.1156  2.9540
  530TMC3    C1 7917   0.332   0.184   0.718  0.1757  0.4354 -0.2050
  530TMC3    C2 7918   0.417   0.198   0.831 -0.1497 -0.0424 -0.5274
  530TMC3    C3 7919   0.511   0.104   0.857  0.0603  0.7996 -0.0464
  530TMC3    C4 7920   0.336   0.068   0.645  0.1889  0.2958 -0.0598
  530TMC3    C5 7921   0.444   4.716   0.672  0.5520  0.1673 -0.0784
  530TMC3    C6 7922   0.542   0.001   0.769 -0.4779  0.9867  0.3707
  530TMC3     C 7923   0.259   0.302   0.673  0.4276  0.4809  0.3075
  530TMC3     O 7924   0.293   0.407   0.729 -0.3532 -0.8327 -0.2347
  530TMC3     H 7925   0.408   0.277   0.906  0.1798  0.0838 -0.6200
  530TMC3    H1 7926   0.281   0.056   0.552 -0.3201  0.8418  0.1737
  530TMC3    H2 7927   0.617   4.662   0.791 -3.7350 -2.0139  1.2198
  530TMC3    C7 7928   0.428   4.580   0.614 -0.1560  0.2540 -0.8733
  530TMC3    C8 7929   0.560   0.108   0.996 -0.5064  0.2046  0.5924
  530TMC3    O1 7930   0.370   4.565   0.509 -0.3441 -0.2028  0.8389
  530TMC3    O2 7931   0.492   0.146   1.087  0.2981 -0.2795 -0.4067
  531MPD2     C 7932   3.640   1.904  13.020  0.0206 -0.7226 -0.1099
  531MPD2    C1 7933   3.631   2.032  13.073  0.1324 -0.7321  0.1614
  531MPD2    C2 7934   3.516   2.108  13.044 -0.4577 -0.6081  0.0309
  531MPD2    C3 7935   3.423   2.073  12.947 -0.0090 -0.2835  0.0865
  531MPD2    C4 7936   3.438   1.950  12.895  0.5025  0.1873 -0.2473
  531MPD2    C5 7937   3.542   1.867  12.924  0.3050  0.5765 -0.1043
  531MPD2     H 7938   3.507   2.212  13.074 -0.9385 -1.0152  1.2827
  531MPD2    H1 7939   3.369   1.916  12.818  0.2912 -1.4096  0.6594
  531MPD2    H2 7940   3.722   1.840  13.051  1.4514  0.9176 -0.4939
  531MPD2    H3 7941   3.547   1.770  12.874 -0.0163  0.9241 -0.8075
  531MPD2     N 7942   3.305   2.141  12.917 -0.2457 -0.2897  0.0933
  531MPD2    H5 7943   3.257   2.107  12.834  1.2295 -0.7021 -0.6044
  531MPD2    N1 7944   3.732   2.077  13.161 -0.5665  1.1429 -0.1105
  531MPD2    H7 7945   3.799   2.005  13.186  0.4009  1.5069 -1.6209
  532TMC3    C1 7946   3.847   2.236  13.308  0.6312 -0.6366 -0.0120
  532TMC3    C2 7947   3.830   2.375  13.319 -0.0230 -0.1712  0.2307
  532TMC3    C3 7948   3.849   2.435  13.441  0.3507  0.2540  0.1935
  532TMC3    C4 7949   3.869   2.161  13.417 -0.0189 -0.2206  0.3484
  532TMC3    C5 7950   3.874   2.226  13.543  0.1318  0.6078 -0.1819
  532TMC3    C6 7951   3.871   2.362  13.551 -0.2035 -0.2946 -0.3068
  532TMC3     C 7952   3.738   2.202  13.222  0.4836 -0.2570  0.5201
  532TMC3     O 7953   3.658   2.290  13.231  0.0314  0.1708  0.5026
  532TMC3     H 7954   3.822   2.439  13.232  0.7757  0.2543  0.4626
  532TMC3    H1 7955   3.864   2.055  13.398 -1.2245 -0.2337  0.7332
  532TMC3    H2 7956   3.898   2.418  13.640 -0.5798 -0.0023 -0.3781
  532TMC3    C7 7957   3.945   2.167  13.651  0.6737  0.7942  0.4762
  532TMC3    C8 7958   3.765   2.552  13.464  0.5056  0.0713 -0.6214
  532TMC3    O1 7959   3.995   2.241  13.739  0.1920 -0.2708 -0.6618
  532TMC3    O2 7960   3.782   2.620  13.562  0.0141 -0.2209 -0.4710
  533TMC3    C1 7961   0.041   4.416  14.567 -0.0430  0.0978 -0.2756
  533TMC3    C2 7962   0.092   4.523  14.635 -0.2919  0.8128 -0.0620
  533TMC3    C3 7963   0.030   4.645  14.624 -0.8248 -0.0253 -0.4664
  533TMC3    C4 7964   4.674   4.427  14.488  0.1259 -0.4586 -0.5030
  533TMC3    C5 7965   4.604   4.540  14.503  0.0627 -0.5280  0.2573
  533TMC3    C6 7966   4.648   4.653  14.559  0.4505 -0.3102 -0.2482
  533TMC3     C 7967   0.080   4.284  14.604  0.0570 -0.0674  0.0149
  533TMC3     O 7968   0.108   4.269  14.721  0.1730  0.0450 -0.6243
  533TMC3     H 7969   0.175   4.510  14.704 -1.1107  0.1600  0.7925
  533TMC3    H1 7970   4.628   4.335  14.456  1.9259 -1.1766 -1.0402
  533TMC3    H2 7971   4.596   0.012  14.558 -1.1897 -1.2040 -0.3605
  533TMC3    C7 7972   4.486   4.502  14.582  0.6507  0.3580  0.1660
  533TMC3    C8 7973   0.100   0.027  14.668  0.0249  0.2713  0.6948
  533TMC3    O1 7974   4.481   4.388  14.625  0.3967  0.0855  0.3072
  533TMC3    O2 7975   0.207   0.012  14.726  0.2304 -0.9961 -0.3223
  534MPD2     C 7976   2.997   0.671   1.780 -0.1577 -0.5011 -0.1683
  534MPD2    C1 7977   2.905   0.734   1.703  0.5706  0.3266 -0.8313
  534MPD2    C2 7978   2.799   0.664   1.652  0.0966  0.3432 -1.3235
  534MPD2    C3 7979   2.789   0.531   1.681 -0.5200 -0.0889  0.5616
  534MPD2    C4 7980   2.883   0.463   1.759 -0.0805 -0.2959 -0.4358
  534MPD2    C5 7981   2.984   0.542   1.813 -0.0991 -0.3364  0.4847
  534MPD2     H 7982   2.730   0.725   1.595  1.2305  2.3427 -0.5721
  534MPD2    H1 7983   2.878   0.356   1.779 -2.2427  0.0261  0.7048
  534MPD2    H2 7984   3.080   0.726   1.823  0.3159 -0.3916 -1.2236
  534MPD2    H3 7985   3.060   0.500   1.879 -0.0692  1.4874  1.6076
  534MPD2     N 7986   2.685   0.454   1.637  0.0332  0.5410  0.0366
  534MPD2    H5 7987   2.702   0.354   1.627 -2.5188 -0.0473  1.3688
  534MPD2    N1 7988   2.913   0.873   1.681  0.3374  0.2368  0.2215
  534MPD2    H7 7989   2.835   0.911   1.630  1.3547 -2.0050 -2.9928
  535TMC3    C1 7990   2.479   0.391   1.534  0.4049  0.1647  0.8995
  535TMC3    C2 7991   2.343   0.415   1.537 -0.3805 -0.3048 -0.3066
  535TMC3    C3 7992   2.262   0.336   1.461 -0.6020 -0.5168  0.2286
  535TMC3    C4 7993   2.541   0.297   1.455  0.8750 -0.3553 -0.0015
  535TMC3    C5 7994   2.455   0.218   1.384  0.3635  0.4216 -0.7512
  535TMC3    C6 7995   2.318   0.234   1.391 -0.3160 -0.3068  0.1031
  535TMC3     C 7996   2.566   0.501   1.586  0.4573  0.7201  0.8482
  535TMC3     O 7997   2.525   0.615   1.579 -0.1141 -0.1680  0.4001
  535TMC3     H 7998   2.307   0.501   1.592  1.3166 -0.2619  0.7160
  535TMC3    H1 7999   2.648   0.286   1.449  0.8125 -0.6930 -0.5096
  535TMC3    H2 8000   2.251   0.173   1.331  2.5352 -0.5029 -2.8979
  535TMC3    C7 8001   2.502   0.162   1.260 -0.0773  0.0515  0.3348
  535TMC3    C8 8002   2.125   0.370   1.442  0.8735  0.0451 -0.8634
  535TMC3    O1 8003   2.435   0.073   1.213  0.8044  0.3759 -0.4607
  535TMC3    O2 8004   2.070   0.308   1.351 -0.4515 -0.0995 -0.7933
  536MPD2     C 8005   0.836   3.326  16.038 -0.5878  0.3673 -0.3760
  536MPD2    C1 8006   0.712   3.300  16.097 -0.0646 -0.4545  0.2028
  536MPD2    C2 8007   0.598   3.337  16.030  0.5822 -0.0386  0.2357
  536MPD2    C3 8008   0.605   3.374  15.894 -0.7155  0.6487  0.4830
  536MPD2    C4 8009   0.729   3.384  15.837 -0.3263 -0.0367  0.7445
  536MPD2    C5 8010   0.844   3.370  15.907  0.1852  0.1669 -0.2864
  536MPD2     H 8011   0.500   3.326  16.075 -0.0286  1.2944 -0.7498
  536MPD2    H1 8012   0.731   3.419  15.735  1.5219 -0.4403  0.6284
  536MPD2    H2 8013   0.924   3.312  16.100 -0.2959 -0.2545 -0.9287
  536MPD2    H3 8014   0.932   3.391  15.848  0.1841  0.2819 -0.2452
  536MPD2     N 8015   0.493   3.408  15.817  0.2114 -0.0138  0.0518
  536MPD2    H5 8016   0.519   3.430  15.721  0.9860  1.2813  0.5595
  536MPD2    N1 8017   0.715   3.238  16.226 -0.1543  0.8517 -0.3052
  536MPD2    H7 8018   0.805   3.235  16.273 -2.1113  0.4665  3.3830
  537TMC3    C1 8019   0.640   3.136  16.428 -0.6792  0.1914 -0.1314
  537TMC3    C2 8020   0.743   3.187  16.495 -0.4088 -0.0745  0.9812
  537TMC3    C3 8021   0.761   3.142  16.620  0.0586  0.3085  0.1078
  537TMC3    C4 8022   0.552   3.044  16.481 -0.3978 -0.3861 -0.4436
  537TMC3    C5 8023   0.582   2.990  16.601  0.1934 -0.2072  0.0375
  537TMC3    C6 8024   0.695   3.032  16.671 -0.4647 -0.2112  0.8697
  537TMC3     C 8025   0.608   3.183  16.291 -0.3344 -0.2957  0.0972
  537TMC3     O 8026   0.499   3.146  16.252  0.2458  0.0401  0.0338
  537TMC3     H 8027   0.793   3.277  16.461 -1.7977  0.4713  0.3555
  537TMC3    H1 8028   0.476   2.988  16.429 -0.1615  0.0283 -1.2395
  537TMC3    H2 8029   0.713   2.997  16.772 -0.4214  1.1560  1.3365
  537TMC3    C7 8030   0.501   2.880  16.648  0.3699  0.0725 -0.4468
  537TMC3    C8 8031   0.798   3.237  16.724  0.2119  0.2083 -0.9877
  537TMC3    O1 8032   0.385   2.888  16.611 -0.9703 -0.5157 -0.6973
  537TMC3    O2 8033   0.849   3.194  16.828 -0.0297  0.3098 -0.2517
  538TMC3    C1 8034   2.658   1.810  11.161  0.2224 -0.2370  0.3563
  538TMC3    C2 8035   2.754   1.749  11.092  0.2413 -0.5764  0.3452
  538TMC3    C3 8036   2.753   1.751  10.957 -0.1924 -0.4012  0.4489
  538TMC3    C4 8037   2.543   1.848  11.099  0.8193  0.1219  0.4188
  538TMC3    C5 8038   2.538   1.832  10.967 -0.8282 -0.7966 -0.5524
  538TMC3    C6 8039   2.644   1.783  10.895  0.6470 -0.1830  0.1010
  538TMC3     C 8040   2.663   1.794  11.308 -0.2471  0.2164  0.2878
  538TMC3     O 8041   2.558   1.830  11.364  0.4822  0.3796  0.9665
  538TMC3     H 8042   2.841   1.706  11.140 -0.2496 -0.6100  1.2020
  538TMC3    H1 8043   2.459   1.882  11.158  1.1219  1.8518 -0.1643
  538TMC3    H2 8044   2.634   1.790  10.787 -1.2905  0.2954  0.3103
  538TMC3    C7 8045   2.407   1.848  10.900  0.4734  0.7327 -0.6096
  538TMC3    C8 8046   2.878   1.708  10.888 -0.8537  0.4018  0.2913
  538TMC3    O1 8047   2.313   1.873  10.973  0.7146  0.4930  0.1771
  538TMC3    O2 8048   2.962   1.654  10.961 -0.0479 -0.0404 -0.4264
  539MPD2     C 8049   2.094   1.586  11.089 -0.2559  0.8707  0.6022
  539MPD2    C1 8050   2.065   1.521  11.207 -0.1788 -0.6216 -0.1987
  539MPD2    C2 8051   1.944   1.547  11.266 -0.7394 -0.0405  0.0541
  539MPD2    C3 8052   1.854   1.633  11.216 -0.7785  0.4483  0.1849
  539MPD2    C4 8053   1.879   1.698  11.099 -0.3119  0.3870 -0.6635
  539MPD2    C5 8054   1.999   1.672  11.040  0.1359 -0.3350 -0.2816
  539MPD2     H 8055   1.920   1.500  11.361  3.5294  2.2079  2.2126
  539MPD2    H1 8056   1.805   1.756  11.045 -1.5288 -0.2969  0.2568
  539MPD2    H2 8057   2.185   1.574  11.031 -0.0390  0.3347  1.0564
  539MPD2    H3 8058   2.007   1.716  10.941  0.4098  0.9194  0.2955
  539MPD2     N 8059   1.726   1.645  11.278  0.2515  0.0247  0.1003
  539MPD2    H5 8060   1.714   1.596  11.366 -1.1558  2.3023  1.1736
  539MPD2    N1 8061   2.151   1.419  11.267 -0.0138 -0.1572 -0.1652
  539MPD2    H7 8062   2.108   1.374  11.348 -1.4680 -3.8249 -3.0045
  540TMC3    C1 8063   1.484   1.638  11.271 -0.0498 -0.1518 -0.2793
  540TMC3    C2 8064   1.409   1.561  11.191  0.1001 -0.1918 -0.5214
  540TMC3    C3 8065   1.299   1.503  11.253 -0.3396 -0.0773  0.2448
  540TMC3    C4 8066   1.475   1.633  11.407  0.1030  0.3694  0.1883
  540TMC3    C5 8067   1.374   1.567  11.463  0.2738 -0.0565 -0.4453
  540TMC3    C6 8068   1.274   1.508  11.391  0.2012 -0.0294  0.2480
  540TMC3     C 8069   1.608   1.682  11.208 -0.4347 -0.2613  0.8392
  540TMC3     O 8070   1.591   1.713  11.088 -0.0551  0.1834  0.6198
  540TMC3     H 8071   1.416   1.562  11.083 -0.0295  0.5252 -0.5177
  540TMC3    H1 8072   1.552   1.666  11.476 -0.8563  1.4822  0.7256
  540TMC3    H2 8073   1.196   1.449  11.437 -2.3920  2.6088 -0.7733
  540TMC3    C7 8074   1.325   1.597  11.603 -0.1533 -0.5292  0.2898
  540TMC3    C8 8075   1.227   1.403  11.177 -0.4146 -0.0442  0.4212
  540TMC3    O1 8076   1.238   1.518  11.643  0.4569 -0.0883 -0.7946
  540TMC3    O2 8077   1.120   1.359  11.216 -0.1122 -0.0636 -0.4858
  541MPD2     C 8078   4.715   2.561  13.460 -0.3325 -0.3109 -0.0460
  541MPD2    C1 8079   4.633   2.505  13.364  0.6799  0.2550  0.3478
  541MPD2    C2 8080   4.656   2.537  13.232 -0.0841  0.5046  0.8083
  541MPD2    C3 8081   0.005   2.641  13.207 -0.4273  0.4601  0.3719
  541MPD2    C4 8082   0.083   2.694  13.304 -0.0468  0.1117 -0.3564
  541MPD2    C5 8083   0.075   2.654  13.437 -0.7528  0.1422  0.1375
  541MPD2     H 8084   4.601   2.498  13.147 -0.9725 -0.5525  1.8741
  541MPD2    H1 8085   0.140   2.782  13.277 -2.1313  1.8460  0.8770
  541MPD2    H2 8086   4.704   2.535  13.565 -0.2679  3.5844  0.9308
  541MPD2    H3 8087   0.139   2.690  13.517 -0.5541  2.1534 -0.9213
  541MPD2     N 8088   0.019   2.689  13.077 -0.2380 -0.6766  0.1832
  541MPD2    H5 8089   4.733   2.622  13.004  1.5821 -1.8990  0.7533
  541MPD2    N1 8090   4.530   2.424  13.410 -0.3217 -0.3739 -0.3203
  541MPD2    H7 8091   4.519   2.411  13.510 -0.8263  0.3557 -0.2865
  542TMC3    C1 8092   0.077   2.827  12.903  0.4297  0.0922  0.7809
  542TMC3    C2 8093   0.110   2.722  12.822 -0.6083  0.3041  0.9701
  542TMC3    C3 8094   0.062   2.724  12.687 -0.4855 -0.2411 -0.3619
  542TMC3    C4 8095   0.014   2.941  12.848  0.2098  0.2285  0.3471
  542TMC3    C5 8096   4.713   2.942  12.714 -0.0658  0.1579 -0.5870
  542TMC3    C6 8097   4.720   2.827  12.637 -0.1584 -0.5549 -0.1711
  542TMC3     C 8098   0.059   2.816  13.043 -0.1215 -0.1031  0.4150
  542TMC3     O 8099   0.066   2.914  13.117  0.0192 -0.6895  0.1496
  542TMC3     H 8100   0.154   2.630  12.858 -1.1012  0.0541  0.9309
  542TMC3    H1 8101   4.728   3.025  12.913  1.0697  1.1070 -0.5161
  542TMC3    H2 8102   4.704   2.829  12.530  1.7550 -0.3616 -0.4610
  542TMC3    C7 8103   4.616   3.035  12.663  0.1951  0.6901  0.0083
  542TMC3    C8 8104   0.128   2.640  12.593 -0.5829 -0.2272  0.8854
  542TMC3    O1 8105   4.654   3.145  12.629 -0.4630 -0.2084  0.8092
  542TMC3    O2 8106   0.074   2.614  12.487  0.0765  0.0031  0.3496
  543TMC3    C1 8107   4.364   3.978  17.222 -0.2075  0.6854  0.1273
  543TMC3    C2 8108   4.450   3.875  17.267 -0.2358  0.4807  0.3871
  543TMC3    C3 8109   4.501   3.894  17.393  0.0754 -0.2889  0.8386
  543TMC3    C4 8110   4.342   4.088  17.299  0.1827 -0.2870  0.0878
  543TMC3    C5 8111   4.406   4.104  17.418  0.0394  0.0595 -0.5966
  543TMC3    C6 8112   4.484   4.009  17.465 -0.1774  0.3187  0.1407
  543TMC3     C 8113   4.283   3.944  17.100 -0.4056 -0.0335 -0.3184
  543TMC3     O 8114   4.263   3.832  17.062 -0.3360 -0.7372  0.2812
  543TMC3     H 8115   4.486   3.798  17.200 -0.3655  0.9094 -0.1692
  543TMC3    H1 8116   4.269   4.162  17.268  1.5720  0.9472 -0.2565
  543TMC3    H2 8117   4.533   4.031  17.559 -0.8038  0.8299  0.3424
  543TMC3    C7 8118   4.396   4.232  17.491 -0.1570  0.3151 -0.4937
  543TMC3    C8 8119   4.562   3.771  17.445  0.7540  0.2848  0.1640
  543TMC3    O1 8120   4.442   4.235  17.603 -0.4012  0.4049 -0.7054
  543TMC3    O2 8121   4.544   3.666  17.389  0.7500 -0.7613 -0.2281
  544MPD2     C 8122   0.132   3.544   0.046  0.0062  0.2695  0.2565
  544MPD2    C1 8123   0.031   3.489  17.714  0.1737  0.2245 -0.5431
  544MPD2    C2 8124   4.694   3.579  17.633 -0.3445  0.0796 -0.1672
  544MPD2    C3 8125   4.727   3.711  17.616 -0.1619  1.1620  0.4695
  544MPD2    C4 8126   0.083   3.762  17.708 -0.2009  0.1892 -0.2976
  544MPD2    C5 8127   0.164   3.683   0.039  1.0115 -0.2938  0.0433
  544MPD2     H 8128   4.618   3.528  17.576  0.0571 -0.8777  0.1589
  544MPD2    H1 8129   0.107   3.868  17.707 -1.1431  0.4002 -0.5654
  544MPD2    H2 8130   0.199   3.482   0.105  0.9679 -0.2135 -1.3377
  544MPD2    H3 8131   0.243   3.729   0.098 -0.1992  1.8922 -0.0448
  544MPD2     N 8132   4.654   3.806  17.536  0.6798  0.0751  0.0130
  544MPD2    H5 8133   4.677   3.905  17.543  0.6347  0.1403 -0.7753
  544MPD2    N1 8134   0.010   3.351  17.714 -0.3641 -0.0075  0.0255
  544MPD2    H7 8135   0.068   3.296   0.033  0.1200 -1.2933 -1.5420
  545TMC3    C1 8136   4.654   3.134  17.649 -0.3145 -0.9015 -0.4794
  545TMC3    C2 8137   4.614   3.064  17.539  0.3770  0.2646  0.2930
  545TMC3    C3 8138   4.642   2.933  17.542 -0.5538 -0.0829  0.7347
  545TMC3    C4 8139   4.735   3.084   0.008  0.1567 -0.2735  0.3170
  545TMC3    C5 8140   0.028   2.953   0.003  0.0542 -0.0633 -0.4143
  545TMC3    C6 8141   4.723   2.876  17.642 -0.3434  0.2418  0.9788
  545TMC3     C 8142   4.657   3.280  17.632 -0.5943 -0.1867  0.1961
  545TMC3     O 8143   4.617   3.319  17.524  0.1129  0.1140 -0.0100
  545TMC3     H 8144   4.557   3.118  17.464  2.4237  1.0051 -0.7403
  545TMC3    H1 8145   0.039   3.145   0.089 -0.9202  0.1416  0.5319
  545TMC3    H2 8146   0.033   2.779  17.631 -0.2550  0.6832 -2.3828
  545TMC3    C7 8147   0.112   2.897   0.113  0.1533 -0.2057  0.0927
  545TMC3    C8 8148   4.627   2.847  17.418  0.6302  0.0396 -0.2504
  545TMC3    O1 8149   0.162   2.972   0.198  0.0740  0.0404  0.1347
  545TMC3    O2 8150   4.636   2.727  17.445 -0.0568  0.1561 -0.2333
  546MPD2     C 8151   0.869   3.751  17.424 -0.0865  0.7638  0.4114
  546MPD2    C1 8152   0.783   3.798  17.328 -0.5944 -0.2539 -0.3298
  546MPD2    C2 8153   0.764   3.935  17.330  0.8188  0.2920 -0.8213
  546MPD2    C3 8154   0.832   4.023  17.417 -0.3527 -0.2009 -0.0655
  546MPD2    C4 8155   0.919   3.970  17.506 -0.6632 -0.7903 -0.2731
  546MPD2    C5 8156   0.941   3.838  17.503  0.2593  0.4001  0.2641
  546MPD2     H 8157   0.693   3.991  17.269 -1.1279  1.4018  2.4472
  546MPD2    H1 8158   0.975   4.025  17.581 -1.3655 -1.5623  0.8152
  546MPD2    H2 8159   0.890   3.646  17.440 -0.1517  0.9498  1.6807
  546MPD2    H3 8160   1.023   3.797  17.561  0.2128 -0.3977 -0.2412
  546MPD2     N 8161   0.817   4.162  17.425  0.2425  0.2186  0.3536
  546MPD2    H5 8162   0.877   4.217  17.485  0.3053  0.9220 -0.3457
  546MPD2    N1 8163   0.708   3.704  17.249  0.4617  0.2378 -0.9277
  546MPD2    H7 8164   0.734   3.607  17.266  1.1779  0.6414  0.2247
  547TMC3    C1 8165   0.566   3.614  17.083 -0.1570 -0.0529 -0.1878
  547TMC3    C2 8166   0.468   3.627  16.987 -0.5227  0.4324 -0.1750
  547TMC3    C3 8167   0.377   3.528  16.970 -0.0766  0.5661 -0.3790
  547TMC3    C4 8168   0.578   3.495  17.158  0.8237 -1.0063 -0.3375
  547TMC3    C5 8169   0.491   3.397  17.133  0.2863  0.0566  0.4125
  547TMC3    C6 8170   0.391   3.412  17.041 -0.0222  0.2558 -0.2249
  547TMC3     C 8171   0.624   3.734  17.144  1.1888 -0.7495  0.2680
  547TMC3     O 8172   0.594   3.846  17.101 -0.4483 -0.2908  0.1510
  547TMC3     H 8173   0.455   3.728  16.948 -0.8231  0.2377 -0.5831
  547TMC3    H1 8174   0.660   3.482  17.228  0.5461 -4.2779 -0.5968
  547TMC3    H2 8175   0.318   3.333  17.031 -2.5473  2.3112  1.9566
  547TMC3    C7 8176   0.536   3.279  17.204  0.3292  0.3259  0.0042
  547TMC3    C8 8177   0.279   3.535  16.864  0.6022  0.1442 -0.0705
  547TMC3    O1 8178   0.602   3.292  17.306 -0.2781  0.1191  0.3797
  547TMC3    O2 8179   0.218   3.642  16.849 -0.2776 -0.4352  0.6291
  548MPD2     C 8180   0.822   4.247  12.861 -0.1506  0.4409 -0.2089
  548MPD2    C1 8181   0.795   4.152  12.778  0.0513 -0.1089  0.3576
  548MPD2    C2 8182   0.877   4.041  12.759 -0.0859 -0.1988  0.8229
  548MPD2    C3 8183   0.992   4.031  12.828 -0.1404  0.0869 -0.3332
  548MPD2    C4 8184   1.017   4.127  12.927 -0.2954 -0.0787 -0.0022
  548MPD2    C5 8185   0.926   4.226  12.944 -0.8609  0.9933  0.2328
  548MPD2     H 8186   0.848   3.963  12.690 -3.5758  2.1152 -0.3349
  548MPD2    H1 8187   1.098   4.121  12.999 -1.0933  0.3106  0.9365
  548MPD2    H2 8188   0.754   4.330  12.875 -0.3209 -0.5430  4.8894
  548MPD2    H3 8189   0.943   4.299  13.022  2.1500  0.8594 -0.3068
  548MPD2     N 8190   1.076   3.918  12.810 -0.8167  0.1173  0.0625
  548MPD2    H5 8191   1.043   3.852  12.740 -2.4992  1.2351 -0.2088
  548MPD2    N1 8192   0.672   4.174  12.715 -0.7465  0.0448 -0.0948
  548MPD2    H7 8193   0.613   4.255  12.730  0.0791  0.0166  3.1336
  549TMC3    C1 8194   0.473   4.112  12.604  0.6995 -0.2698  0.4496
  549TMC3    C2 8195   0.446   4.247  12.601  0.4193  0.5187  0.0318
  549TMC3    C3 8196   0.315   4.281  12.627 -0.1393  0.5525  0.1718
  549TMC3    C4 8197   0.383   4.014  12.637 -0.1753 -0.4830  0.3009
  549TMC3    C5 8198   0.258   4.056  12.665  0.6070  0.5057 -0.9313
  549TMC3    C6 8199   0.219   4.187  12.651  0.0365  0.0282  0.4559
  549TMC3     C 8200   0.603   4.072  12.649  0.6619  0.1856 -0.3425
  549TMC3     O 8201   0.645   3.968  12.600  0.4039  0.4031  0.1670
  549TMC3     H 8202   0.510   4.329  12.568 -0.9430  2.2134  1.5905
  549TMC3    H1 8203   0.416   3.911  12.644 -1.0858 -0.8813 -1.1600
  549TMC3    H2 8204   0.117   4.219  12.673  0.6172  0.6093  2.3344
  549TMC3    C7 8205   0.152   3.972  12.606  0.1576  0.4607 -0.0342
  549TMC3    C8 8206   0.259   4.392  12.556 -0.1529 -0.7181 -0.0242
  549TMC3    O1 8207   0.069   4.039  12.552 -0.0535  0.6135  0.2079
  549TMC3    O2 8208   0.154   4.356  12.500  0.6561 -0.1759 -0.0894
  550TMC3    C1 8209   3.878   2.022  12.372  0.4101  0.5345 -0.6030
  550TMC3    C2 8210   3.858   2.121  12.465  0.0270  0.1163 -0.2636
  550TMC3    C3 8211   3.947   2.222  12.476  0.3582  0.2819 -0.3914
  550TMC3    C4 8212   3.990   2.017  12.298  0.0516 -0.5450  0.5680
  550TMC3    C5 8213   4.081   2.117  12.306 -0.1725  0.3353  0.2803
  550TMC3    C6 8214   4.059   2.220  12.399 -0.7993 -0.1351 -0.9168
  550TMC3     C 8215   3.763   1.989  12.291  0.4448  0.4288  0.1671
  550TMC3     O 8216   3.654   1.965  12.337  0.1596 -0.2045 -0.0108
  550TMC3     H 8217   3.760   2.123  12.511  1.2163  1.1510  2.2379
  550TMC3    H1 8218   4.014   1.922  12.251  3.0680  0.8739 -0.7532
  550TMC3    H2 8219   4.128   2.303  12.401 -0.4821 -0.4296  0.1666
  550TMC3    C7 8220   4.121   2.156  12.172  0.2568  0.2855  0.1515
  550TMC3    C8 8221   3.919   2.334  12.561  0.0756 -0.2198 -0.0741
  550TMC3    O1 8222   4.073   2.090  12.080 -0.0490  0.2818 -0.0793
  550TMC3    O2 8223   3.983   2.436  12.538  0.8394  0.3497 -0.0433
  551TMC3    C1 8224   1.880   4.352  13.360  0.0011  0.4665 -0.3820
  551TMC3    C2 8225   1.990   4.292  13.312  0.1694  0.0697  0.7578
  551TMC3    C3 8226   2.107   4.330  13.364  0.0477  0.4271 -0.4635
  551TMC3    C4 8227   1.884   4.433  13.470 -0.7928  0.2716  0.1296
  551TMC3    C5 8228   2.009   4.463  13.531  0.2986 -0.0005  0.2251
  551TMC3    C6 8229   2.122   4.411  13.471 -0.3799 -0.2618  0.1685
  551TMC3     C 8230   1.758   4.352  13.284 -0.2326 -0.0799  0.7355
  551TMC3     O 8231   1.768   4.332  13.163  0.3618  0.4609  0.2821
  551TMC3     H 8232   1.989   4.245  13.214 -0.1691 -0.0285  0.8094
  551TMC3    H1 8233   1.792   4.481  13.501 -1.7431 -0.8670 -0.9270
  551TMC3    H2 8234   2.221   4.424  13.513 -0.4071 -3.5026  1.3018
  551TMC3    C7 8235   2.012   4.493  13.667 -0.4684 -0.1868  0.1287
  551TMC3    C8 8236   2.210   4.346  13.259  0.2828 -0.3106 -0.7641
  551TMC3    O1 8237   2.121   4.506  13.720  0.3440 -0.3924  0.7888
  551TMC3    O2 8238   2.210   4.272  13.166 -0.1267  0.7115 -0.2666
  552MPD2     C 8239   3.842   2.278  14.069 -0.3993 -0.4847  1.0700
  552MPD2    C1 8240   3.817   2.149  14.111 -0.1786  0.9756  0.3975
  552MPD2    C2 8241   3.883   2.102  14.220 -0.8982 -0.1221  0.4463
  552MPD2    C3 8242   3.953   2.191  14.306 -0.5320 -0.4298  0.2312
  552MPD2    C4 8243   3.960   2.323  14.270 -0.4307 -0.0024 -0.1633
  552MPD2    C5 8244   3.912   2.371  14.151  0.0242 -0.3103  0.2175
  552MPD2     H 8245   3.874   1.995  14.234 -1.0060 -0.1701  0.0084
  552MPD2    H1 8246   3.997   2.395  14.342  1.5582 -0.5757 -0.6118
  552MPD2    H2 8247   3.814   2.321  13.974  2.1843  0.8473  0.9234
  552MPD2    H3 8248   3.902   2.474  14.120  2.4476 -0.0683  0.2293
  552MPD2     N 8249   4.012   2.151  14.426  0.2789 -0.3398 -0.2915
  552MPD2    H5 8250   4.047   2.231  14.478  1.6927 -1.3237  0.2395
  552MPD2    N1 8251   3.755   2.052  14.023  0.0979 -0.9015  0.3949
  552MPD2    H7 8252   3.756   1.956  14.056 -0.6819 -0.9245  0.3604
  553TMC3    C1 8253   3.643   1.963  13.840  0.3733 -0.5682  0.7387
  553TMC3    C2 8254   3.630   1.970  13.700 -0.3971 -1.0116  0.4198
  553TMC3    C3 8255   3.580   1.865  13.629 -0.5650  1.0147  0.1100
  553TMC3    C4 8256   3.611   1.848  13.905  0.3901  0.5915 -0.0730
  553TMC3    C5 8257   3.562   1.746  13.829  0.2251 -0.0297  0.6220
  553TMC3    C6 8258   3.544   1.751  13.692 -0.5225 -0.7731 -0.1971
  553TMC3     C 8259   3.695   2.082  13.902 -0.2313 -0.4203  0.0159
  553TMC3     O 8260   3.671   2.192  13.849 -0.3812  0.4072 -0.9378
  553TMC3     H 8261   3.668   2.057  13.647 -0.8688 -0.1820  1.4375
  553TMC3    H1 8262   3.618   1.836  14.012  0.7421  2.0978  0.0741
  553TMC3    H2 8263   3.505   1.672  13.630 -0.7699  0.4592 -1.6087
  553TMC3    C7 8264   3.599   1.616  13.867  0.4115 -0.1159 -0.2772
  553TMC3    C8 8265   3.638   1.843  13.506 -0.6734  0.5208 -0.6607
  553TMC3    O1 8266   3.521   1.531  13.824  0.6206  0.3951 -0.3664
  553TMC3    O2 8267   3.756   1.867  13.488  0.5892 -0.4285 -0.6770
  554TMC3    C1 8268   0.919   1.556  11.650 -0.1784 -0.8911  0.0488
  554TMC3    C2 8269   0.880   1.454  11.571  0.0553  0.1368  0.0990
  554TMC3    C3 8270   0.869   1.473  11.440  0.2529  0.2765  0.0942
  554TMC3    C4 8271   0.968   1.675  11.599  0.5138  0.4198 -0.3025
  554TMC3    C5 8272   0.962   1.687  11.467  0.5655  0.0418  0.6336
  554TMC3    C6 8273   0.912   1.592  11.384 -0.3896  0.5985 -0.1718
  554TMC3     C 8274   0.913   1.531  11.792  0.4318  0.1793  0.0252
  554TMC3     O 8275   0.883   1.627  11.862 -0.1308 -0.2981 -0.4387
  554TMC3     H 8276   0.832   1.367  11.615  0.7270 -0.0649  0.4426
  554TMC3    H1 8277   0.996   1.757  11.663 -0.0057 -1.3626  2.2039
  554TMC3    H2 8278   0.901   1.609  11.278  2.1198  0.4877 -0.4577
  554TMC3    C7 8279   1.057   1.777  11.394 -0.8933 -0.2346 -0.0901
  554TMC3    C8 8280   0.823   1.360  11.357  0.1829 -0.5258  0.3423
  554TMC3    O1 8281   1.070   1.762  11.271 -0.5115  0.1656 -0.0264
  554TMC3    O2 8282   0.786   1.258  11.412 -0.6242  0.5491  0.8353
  555TMC3    C1 8283   4.390   0.701  15.488 -0.2998 -0.4461 -0.8603
  555TMC3    C2 8284   4.496   0.734  15.573 -0.2820  0.1271 -0.2783
  555TMC3    C3 8285   4.546   0.645  15.656  0.0625 -0.4774 -0.0601
  555TMC3    C4 8286   4.349   0.570  15.473 -0.5120  0.4841 -0.3753
  555TMC3    C5 8287   4.411   0.480  15.558 -0.1942 -0.4680  0.4295
  555TMC3    C6 8288   4.503   0.516  15.650 -0.0394 -0.2216 -0.4154
  555TMC3     C 8289   4.345   0.803  15.389 -0.0169  0.2831 -0.2143
  555TMC3     O 8290   4.409   0.904  15.392  0.4282 -0.5427  0.0631
  555TMC3     H 8291   4.533   0.836  15.582  2.4808 -0.7072 -2.4460
  555TMC3    H1 8292   4.309   0.531  15.380 -0.2317 -1.3503  0.2648
  555TMC3    H2 8293   4.529   0.437  15.720 -2.0796 -0.8428 -0.3409
  555TMC3    C7 8294   4.369   0.342  15.566  0.4298  0.4965  0.6010
  555TMC3    C8 8295   4.621   0.685  15.773  0.4480 -0.5977 -0.5019
  555TMC3    O1 8296   4.259   0.308  15.521  0.4253  0.1435  1.0628
  555TMC3    O2 8297   4.607   0.803  15.802 -0.2849 -0.1068 -0.3216
  556MPD2     C 8298   3.135   2.827  10.548 -0.3321  0.3029  0.0568
  556MPD2    C1 8299   3.057   2.727  10.604  0.3609  0.7457 -0.4177
  556MPD2    C2 8300   3.013   2.625  10.518 -0.2783 -0.2970  0.1649
  556MPD2    C3 8301   3.047   2.613  10.387  0.4680 -0.1616  0.0271
  556MPD2    C4 8302   3.129   2.717  10.339  0.0334  0.4555  0.2407
  556MPD2    C5 8303   3.169   2.817  10.417 -0.3137  0.4405 -0.2131
  556MPD2     H 8304   2.949   2.545  10.555 -0.1278 -0.5731 -0.1633
  556MPD2    H1 8305   3.136   2.728  10.231 -3.0888  0.0403 -0.0220
  556MPD2    H2 8306   3.164   2.919  10.597  0.9391 -0.1908  0.2202
  556MPD2    H3 8307   3.229   2.896  10.373  1.3012 -1.4997 -1.4923
  556MPD2     N 8308   3.015   2.495  10.310  0.1217  0.4377  0.1356
  556MPD2    H5 8309   2.953   2.430  10.357 -1.0031  1.8398  0.5596
  556MPD2    N1 8310   3.016   2.720  10.745 -0.0170 -0.1720 -0.0618
  556MPD2    H7 8311   2.966   2.636  10.773  0.5665 -0.2847  0.6545
  557TMC3    C1 8312   3.066   2.305  10.162 -0.0512 -0.0661 -0.6780
  557TMC3    C2 8313   3.123   2.258  10.048 -0.3550 -0.2074  0.0413
  557TMC3    C3 8314   3.128   2.126  10.022 -0.1700  0.6933  0.1549
  557TMC3    C4 8315   3.010   2.220  10.248 -0.5993  0.4785  0.0010
  557TMC3    C5 8316   3.017   2.087  10.215 -0.8123 -0.5627 -0.2089
  557TMC3    C6 8317   3.089   2.031  10.114 -0.1652 -0.1850  0.6601
  557TMC3     C 8318   3.073   2.454  10.191  0.0133  0.2171 -0.1481
  557TMC3     O 8319   3.151   2.512  10.117 -0.1104 -0.0474 -0.0869
  557TMC3     H 8320   3.182   2.322   9.984 -0.6647  0.7354  0.6823
  557TMC3    H1 8321   2.974   2.252  10.345 -1.9133  0.9057 -0.6317
  557TMC3    H2 8322   3.102   1.924  10.100 -0.8920 -0.3267  1.0303
  557TMC3    C7 8323   2.982   2.003  10.328  0.0480  0.1360 -0.0836
  557TMC3    C8 8324   3.117   2.092   9.881 -0.1517 -0.9479 -0.1240
  557TMC3    O1 8325   2.883   2.043  10.389  0.7024 -0.3163  0.3693
  557TMC3    O2 8326   3.147   2.175   9.797  0.3737 -0.4072 -0.2957
  558TMC3    C1 8327   0.451   0.048  10.321 -0.0383 -0.3556 -0.3806
  558TMC3    C2 8328   0.340   0.099  10.365  0.0898  0.0441 -0.2941
  558TMC3    C3 8329   0.253   0.132  10.266 -0.1023  0.0373 -0.1562
  558TMC3    C4 8330   0.489   0.035  10.191 -0.6236 -0.2931 -0.3442
  558TMC3    C5 8331   0.399   0.072  10.096  0.0713  0.1340  0.1186
  558TMC3    C6 8332   0.275   0.125  10.134  0.2569  0.3892  0.7810
  558TMC3     C 8333   0.556   0.014  10.413 -0.0106  0.2077 -0.0890
  558TMC3     O 8334   0.671   0.030  10.384  0.3484  0.3121 -0.0879
  558TMC3     H 8335   0.310   0.105  10.469  1.4385 -1.5828  0.1914
  558TMC3    H1 8336   0.590   0.001  10.170  0.0140  1.8003 -0.7360
  558TMC3    H2 8337   0.203   0.178  10.072 -1.1756 -2.2931  0.1718
  558TMC3    C7 8338   0.470   0.149   9.990  0.0870 -0.7213 -0.0483
  558TMC3    C8 8339   0.150   0.216  10.316 -0.2249 -0.7545 -1.3213
  558TMC3    O1 8340   0.571   0.209  10.020  0.2086 -0.1557  0.1063
  558TMC3    O2 8341   0.040   0.203  10.263  0.3303 -0.4441 -0.0208
  559MPD2     C 8342   0.745   1.078  10.304  0.4185  1.2922 -0.3722
  559MPD2    C1 8343   0.694   1.015  10.424 -0.0885 -0.8776  0.3271
  559MPD2    C2 8344   0.789   0.960  10.509 -0.4738  0.4264 -0.4964
  559MPD2    C3 8345   0.920   0.951  10.484 -0.3140 -0.3024  0.3390
  559MPD2    C4 8346   0.966   1.002  10.365 -0.5109 -0.2330 -0.3564
  559MPD2    C5 8347   0.877   1.077  10.285  0.1169 -0.1799 -0.3439
  559MPD2     H 8348   0.744   0.914  10.596  1.8077 -1.4181 -0.2899
  559MPD2    H1 8349   1.070   0.992  10.338 -0.7108 -0.1598 -1.1505
  559MPD2    H2 8350   0.691   1.131  10.227 -2.4190 -1.9021 -0.5893
  559MPD2    H3 8351   0.910   1.129  10.196 -0.4177  1.8198  0.6110
  559MPD2     N 8352   0.992   0.876  10.583 -0.0125  0.2570 -0.1540
  559MPD2    H5 8353   0.935   0.826  10.649 -0.0700 -0.8849 -1.0694
  559MPD2    N1 8354   0.559   1.021  10.470 -0.2010 -0.0822  0.1866
  559MPD2    H7 8355   0.533   0.995  10.564  1.3297 -0.1696  0.5966
  560TMC3    C1 8356   1.187   0.744  10.647  0.1861 -0.4585 -0.9413
  560TMC3    C2 8357   1.107   0.638  10.654 -0.1244 -0.2049 -0.8116
  560TMC3    C3 8358   1.125   0.545  10.755  0.0442  0.2829 -0.3409
  560TMC3    C4 8359   1.285   0.773  10.740 -0.2131  0.2538  0.2510
  560TMC3    C5 8360   1.290   0.686  10.845 -0.1856  0.9835  0.4941
  560TMC3    C6 8361   1.222   0.568  10.851  0.0655  0.1677  0.4650
  560TMC3     C 8362   1.127   0.855  10.563  0.2571 -0.8945  0.3707
  560TMC3     O 8363   1.211   0.935  10.522  0.2318 -0.3790  0.2933
  560TMC3     H 8364   1.029   0.611  10.584 -0.0490 -0.7332 -0.6992
  560TMC3    H1 8365   1.327   0.873  10.732  1.7222 -0.5672  0.3040
  560TMC3    H2 8366   1.238   0.495  10.930 -1.9703  0.3861  1.1045
  560TMC3    C7 8367   1.407   0.691  10.936  0.4233 -0.3222  0.7672
  560TMC3    C8 8368   0.999   0.496  10.804  0.5356  0.4044 -0.5693
  560TMC3    O1 8369   1.454   0.589  10.982 -0.0505 -0.0408  0.4914
  560TMC3    O2 8370   0.898   0.526  10.739  0.3867 -0.1101  0.8480
  561TMC3    C1 8371   3.334   0.177  11.353 -0.0813 -0.0266 -0.2917
  561TMC3    C2 8372   3.271   0.133  11.459  0.4137 -0.4973  0.1261
  561TMC3    C3 8373   3.205   0.221  11.532  0.6222  0.3153  0.3317
  561TMC3    C4 8374   3.331   0.309  11.311 -0.5843  0.9907 -0.0179
  561TMC3    C5 8375   3.262   0.397  11.389  0.2229 -1.0883  0.3870
  561TMC3    C6 8376   3.192   0.356  11.499 -0.1235 -0.7572  0.2880
  561TMC3     C 8377   3.432   0.087  11.298  0.2644  0.2321 -0.2343
  561TMC3     O 8378   3.422   4.706  11.332  0.0111 -0.1757 -0.1330
  561TMC3     H 8379   3.247   0.027  11.467 -0.4542 -0.3187 -0.1229
  561TMC3    H1 8380   3.384   0.339  11.222 -0.0666 -0.1211 -0.0797
  561TMC3    H2 8381   3.165   0.432  11.571  0.3220 -1.1071  0.8197
  561TMC3    C7 8382   3.262   0.538  11.356  0.5820 -0.0853  0.6346
  561TMC3    C8 8383   3.157   0.178  11.662  0.4717  0.7872 -0.5210
  561TMC3    O1 8384   3.182   0.596  11.430  0.5041  0.0169  0.0163
  561TMC3    O2 8385   3.197   0.075  11.714  0.1861 -0.0136  0.1762
  562TMC3    C1 8386   4.477   0.693  16.375  0.5454  0.6592  0.1797
  562TMC3    C2 8387   4.390   0.799  16.342 -0.2193  0.1934  0.4456
  562TMC3    C3 8388   4.345   0.811  16.214 -0.8341  0.6062 -0.0732
  562TMC3    C4 8389   4.501   0.589  16.289  0.1700 -0.6275 -0.5569
  562TMC3    C5 8390   4.448   0.596  16.164 -0.9733 -0.0625 -0.4348
  562TMC3    C6 8391   4.368   0.704  16.129  0.0532  0.5662  0.3040
  562TMC3     C 8392   4.540   0.684  16.503  0.2225  0.6475 -0.0236
  562TMC3     O 8393   4.632   0.608  16.510  0.2102 -0.6514 -0.7751
  562TMC3     H 8394   4.362   0.875  16.415 -0.2316 -2.0956  2.8099
  562TMC3    H1 8395   4.544   0.500  16.334 -1.1118 -1.0750 -0.2395
  562TMC3    H2 8396   4.323   0.702  16.030 -0.1535 -1.4826  0.4314
  562TMC3    C7 8397   4.448   0.487  16.072 -0.2868  0.4298 -0.0100
  562TMC3    C8 8398   4.235   0.905  16.199 -0.2412  0.1786 -0.0687
  562TMC3    O1 8399   4.389   0.499  15.966 -0.5743  0.3208  0.5226
  562TMC3    O2 8400   4.195   0.976  16.289 -0.3974  0.4649  0.3241
  563MPD2     C 8401   1.628   2.445  15.666 -0.6648  0.0202  0.2213
  563MPD2    C1 8402   1.662   2.461  15.801  0.1661 -0.3347  0.6143
  563MPD2    C2 8403   1.784   2.436  15.845 -0.2939  0.6161 -0.2543
  563MPD2    C3 8404   1.879   2.372  15.765  0.2759  0.0870  0.1061
  563MPD2    C4 8405   1.841   2.340  15.636 -0.5831  0.4132  0.8708
  563MPD2    C5 8406   1.715   2.381  15.588 -0.4339  0.2894  0.7843
  563MPD2     H 8407   1.811   2.466  15.946  1.5613 -1.4109 -0.1578
  563MPD2    H1 8408   1.905   2.278  15.574  0.0107  1.1312  0.7728
  563MPD2    H2 8409   1.540   2.479  15.614 -0.9237 -1.2209 -0.1524
  563MPD2    H3 8410   1.702   2.374  15.481  0.5615  1.4262  0.5763
  563MPD2     N 8411   1.988   2.319  15.831 -0.1440 -0.0344 -0.0209
  563MPD2    H5 8412   1.995   2.338  15.930  1.8287  0.1922 -0.2077
  563MPD2    N1 8413   1.555   2.510  15.887 -0.4984 -0.4615  0.7218
  563MPD2    H7 8414   1.460   2.508  15.851 -0.1256  0.5110 -0.3138
  564TMC3    C1 8415   1.449   2.512  16.095  1.4215  0.1004 -0.0122
  564TMC3    C2 8416   1.338   2.461  16.033  0.0800  0.2437 -0.2092
  564TMC3    C3 8417   1.261   2.375  16.108  0.3831  0.4787 -0.6339
  564TMC3    C4 8418   1.478   2.481  16.226  0.5603  0.0019 -0.5791
  564TMC3    C5 8419   1.407   2.381  16.296  0.4051 -0.6004  0.3895
  564TMC3    C6 8420   1.294   2.338  16.234 -0.4490  0.2142  0.5543
  564TMC3     C 8421   1.567   2.544  16.021  0.1272 -0.0709 -0.3645
  564TMC3     O 8422   1.671   2.556  16.081  0.7955 -0.3789 -0.5142
  564TMC3     H 8423   1.306   2.492  15.934  0.6657  2.3899  0.2751
  564TMC3    H1 8424   1.568   2.517  16.273  1.7677 -2.8460 -0.7099
  564TMC3    H2 8425   1.255   2.249  16.281  0.4771 -0.8166 -0.6262
  564TMC3    C7 8426   1.488   2.263  16.318 -0.2757 -0.7949  0.6111
  564TMC3    C8 8427   1.221   2.251  16.035 -0.2218  0.1864 -0.3835
  564TMC3    O1 8428   1.462   2.177  16.406 -0.7814  0.1131  0.1575
  564TMC3    O2 8429   1.140   2.183  16.085 -0.0746 -0.2454 -0.2589
  565TMC3    C1 8430   2.745   4.044  10.509 -0.8655 -0.1691 -0.1893
  565TMC3    C2 8431   2.750   3.970  10.625 -0.2814 -0.0563 -0.0532
  565TMC3    C3 8432   2.688   3.848  10.630 -0.2459  0.2485  0.2357
  565TMC3    C4 8433   2.679   3.991  10.401 -0.4269  0.1662  0.4053
  565TMC3    C5 8434   2.624   3.859  10.409  0.2760 -0.1229  0.0162
  565TMC3    C6 8435   2.625   3.787  10.533  0.1501  0.0447 -0.3194
  565TMC3     C 8436   2.801   4.180  10.505 -0.2339  0.1595 -0.2881
  565TMC3     O 8437   2.819   4.224  10.394  0.2940 -0.0752  0.0733
  565TMC3     H 8438   2.817   3.998  10.705  1.2133  0.0950 -1.3637
  565TMC3    H1 8439   2.662   4.047  10.310 -0.9954  0.2334  0.5529
  565TMC3    H2 8440   2.626   3.679  10.525 -0.3338 -0.0476  0.9199
  565TMC3    C7 8441   2.584   3.790  10.283  0.1660 -0.1359  0.7540
  565TMC3    C8 8442   2.694   3.787  10.763 -0.3005 -0.2294 -0.3357
  565TMC3    O1 8443   2.516   3.688  10.292  0.2614 -0.1825  0.5309
  565TMC3    O2 8444   2.767   3.848  10.841 -0.0110 -0.4258 -0.4639
  566MPD2     C 8445   3.738   0.222  14.156 -0.2107  0.1121 -0.0328
  566MPD2    C1 8446   3.848   0.187  14.085  0.2126 -0.1032  0.6993
  566MPD2    C2 8447   3.824   0.113  13.966 -0.5698 -0.0665  0.4472
  566MPD2    C3 8448   3.697   0.082  13.925 -0.0780  0.0235  0.6198
  566MPD2    C4 8449   3.586   0.109  14.000  0.2957 -0.2030 -0.7721
  566MPD2    C5 8450   3.611   0.177  14.117  0.1514  0.7526 -0.4332
  566MPD2     H 8451   3.909   0.101  13.900 -0.9524 -0.1982 -0.0200
  566MPD2    H1 8452   3.487   0.079  13.968  0.0532  0.6829 -0.8533
  566MPD2    H2 8453   3.739   0.270  14.253 -4.8659 -1.1729  0.6591
  566MPD2    H3 8454   3.531   0.200  14.187  1.0237  0.7963  0.5512
  566MPD2     N 8455   3.666   0.036  13.788  0.0722 -0.1675 -1.2342
  566MPD2    H5 8456   3.576   4.725  13.780  0.4156 -1.2741  1.2459
  566MPD2    N1 8457   3.972   0.246  14.121 -0.0452 -0.0295 -0.2616
  566MPD2    H7 8458   3.969   0.314  14.197 -0.6734 -1.4403  0.9790
  567TMC3    C1 8459   4.213   0.310  14.114  0.1780 -0.5102 -0.0830
  567TMC3    C2 8460   4.312   0.340  14.024  0.3809 -0.0819  0.4847
  567TMC3    C3 8461   4.427   0.410  14.068 -0.2804 -0.0620  0.2211
  567TMC3    C4 8462   4.230   0.327  14.245  1.3644 -0.6040 -0.0615
  567TMC3    C5 8463   4.338   0.403  14.287 -0.2596 -0.4574 -0.1888
  567TMC3    C6 8464   4.441   0.437  14.201  0.7491  0.1913 -0.9652
  567TMC3     C 8465   4.100   0.233  14.061 -0.1154  0.0001  0.3229
  567TMC3     O 8466   4.117   0.181  13.953 -0.4803 -0.3690  0.2620
  567TMC3     H 8467   4.308   0.310  13.920 -0.9995 -1.1033  0.8354
  567TMC3    H1 8468   4.152   0.303  14.316  1.0923 -0.2615 -0.2464
  567TMC3    H2 8469   4.519   0.503  14.237 -1.3646  2.0686  0.1719
  567TMC3    C7 8470   4.363   0.411  14.428  0.1781  1.1719  0.7057
  567TMC3    C8 8471   4.500   0.482  13.975 -0.0697  0.0302 -0.5088
  567TMC3    O1 8472   4.480   0.433  14.457  0.1819 -0.2253  0.7184
  567TMC3    O2 8473   4.446   0.523  13.873  0.5038 -0.2602  0.8049
  568MPD2     C 8474   1.258   0.706  16.293 -0.0633  0.2623  0.4046
  568MPD2    C1 8475   1.291   0.800  16.387 -1.2853  0.3812  0.6343
  568MPD2    C2 8476   1.299   0.935  16.349  0.7310 -0.3745 -0.5640
  568MPD2    C3 8477   1.267   0.977  16.225 -0.0751  0.1318  0.0359
  568MPD2    C4 8478   1.234   0.883  16.127  0.5858  0.1362 -0.4383
  568MPD2    C5 8479   1.227   0.752  16.161  0.1075  0.1004  0.1617
  568MPD2     H 8480   1.341   1.007  16.418 -0.5389 -0.4625  0.2992
  568MPD2    H1 8481   1.218   0.908  16.023 -0.6479 -0.9814 -0.5118
  568MPD2    H2 8482   1.231   0.603  16.316 -0.7668  0.3079 -0.2109
  568MPD2    H3 8483   1.192   0.677  16.091  1.0444 -1.5703  1.5071
  568MPD2     N 8484   1.259   1.116  16.201  0.1222 -0.3926  1.0238
  568MPD2    H5 8485   1.291   1.171  16.280 -0.1060  1.0777  0.0955
  568MPD2    N1 8486   1.340   0.752  16.511 -0.9288  0.5626 -0.0123
  568MPD2    H7 8487   1.364   0.654  16.518  1.1956  1.0039 -1.2693
  569TMC3    C1 8488   1.200   1.315  16.102 -0.1769  0.8683 -0.3669
  569TMC3    C2 8489   1.157   1.362  16.221  0.2826  0.1753 -0.2008
  569TMC3    C3 8490   1.209   1.492  16.262  0.4301 -1.2375 -0.3472
  569TMC3    C4 8491   1.266   1.390  16.009  0.3519  0.4924  0.7890
  569TMC3    C5 8492   1.291   1.521  16.042 -0.1097  0.5047 -0.4497
  569TMC3    C6 8493   1.277   1.568  16.174  0.7416  0.3197 -0.2622
  569TMC3     C 8494   1.203   1.175  16.088  0.3337  0.4045  0.2999
  569TMC3     O 8495   1.156   1.136  15.985  0.5834  0.1295 -0.4211
  569TMC3     H 8496   1.105   1.294  16.287  0.0547  1.0428  0.5287
  569TMC3    H1 8497   1.296   1.356  15.910 -0.2808 -2.3051  1.5437
  569TMC3    H2 8498   1.307   1.664  16.215 -1.1476  0.8552 -0.1441
  569TMC3    C7 8499   1.342   1.618  15.942 -0.3590  0.0173  0.3250
  569TMC3    C8 8500   1.217   1.510  16.408  0.2872 -0.1790  0.2147
  569TMC3    O1 8501   1.387   1.574  15.841 -0.0543  0.0180  0.0951
  569TMC3    O2 8502   1.144   1.441  16.472  0.7103 -0.2657 -0.2854
  570TMC3    C1 8503   0.980   0.056  16.305 -0.6163  0.0423 -0.1425
  570TMC3    C2 8504   1.078   0.094  16.213 -0.4449  0.5415 -0.8340
  570TMC3    C3 8505   1.136   0.211  16.243  0.0949 -0.1474 -0.1408
  570TMC3    C4 8506   0.938   0.141  16.403  0.3261  0.1094  0.0972
  570TMC3    C5 8507   0.988   0.263  16.404  0.4927 -1.2643 -0.6284
  570TMC3    C6 8508   1.095   0.301  16.334 -0.2471  0.4281 -0.0746
  570TMC3     C 8509   0.933   4.659  16.289  0.2307  0.2849 -0.4824
  570TMC3     O 8510   0.956   4.605  16.179  0.2159  0.1517  0.3231
  570TMC3     H 8511   1.111   0.029  16.133  1.1360 -1.7356  1.6959
  570TMC3    H1 8512   0.869   0.112  16.482  0.1353  0.4778  0.0657
  570TMC3    H2 8513   1.158   0.381  16.371 -0.1050 -0.2319  1.1243
  570TMC3    C7 8514   0.958   0.346  16.520 -0.2391  0.4045  0.4875
  570TMC3    C8 8515   1.260   0.251  16.176 -0.9264 -0.0470  0.0238
  570TMC3    O1 8516   0.931   0.286  16.620 -0.5352 -0.2403 -0.7706
  570TMC3    O2 8517   1.302   0.362  16.197  0.0220 -0.9240 -0.0599
  571MPD2     C 8518   4.587   3.373   1.202 -0.1827 -0.3534 -0.6008
  571MPD2    C1 8519   4.458   3.406   1.222 -1.2828 -0.6469  0.0860
  571MPD2    C2 8520   4.363   3.320   1.164  0.2674 -0.0946 -0.1810
  571MPD2    C3 8521   4.393   3.220   1.081 -0.2314 -0.1545 -0.5869
  571MPD2    C4 8522   4.526   3.190   1.056  0.6115 -0.2123  0.0621
  571MPD2    C5 8523   4.618   3.268   1.118 -0.8270  0.5096  0.0917
  571MPD2     H 8524   4.260   3.354   1.172  0.3029  0.1120 -0.5838
  571MPD2    H1 8525   4.560   3.116   0.984 -2.6017 -1.7146  0.0943
  571MPD2    H2 8526   4.662   3.426   1.259  0.5137  1.2995 -3.0576
  571MPD2    H3 8527   4.725   3.252   1.107 -0.8714  0.4374 -0.2307
  571MPD2     N 8528   4.299   3.144   1.011 -0.7286 -0.2349  0.0321
  571MPD2    H5 8529   4.341   3.078   0.947  0.6945  1.1617 -0.4870
  571MPD2    N1 8530   4.424   3.520   1.304  0.6311  0.1807 -0.8704
  571MPD2    H7 8531   4.502   3.566   1.352  0.1443 -1.5565  1.5713
  572TMC3    C1 8532   4.095   3.030   0.989 -0.3666 -0.5078  0.1214
  572TMC3    C2 8533   4.016   2.963   1.079  0.0116  0.1921 -0.3024
  572TMC3    C3 8534   3.965   2.842   1.046 -0.1529 -0.0531 -0.5758
  572TMC3    C4 8535   4.123   2.994   0.862  0.9642 -0.7842  0.3832
  572TMC3    C5 8536   4.057   2.875   0.832 -0.7309 -0.1620 -0.0711
  572TMC3    C6 8537   3.992   2.794   0.917  0.4553  0.0205  0.0422
  572TMC3     C 8538   4.166   3.140   1.047  0.0773  0.0353  0.2259
  572TMC3     O 8539   4.109   3.191   1.145 -0.8904  0.3045 -0.2648
  572TMC3     H 8540   4.047   2.984   1.180 -0.1712 -0.5206 -0.0999
  572TMC3    H1 8541   4.178   3.056   0.792  1.2957 -0.6654  0.7481
  572TMC3    H2 8542   3.946   2.702   0.884  2.0056 -0.7821  0.1313
  572TMC3    C7 8543   4.053   2.843   0.698  0.4448 -0.2226 -0.1021
  572TMC3    C8 8544   3.944   2.742   1.149  0.5209 -0.4295  0.5450
  572TMC3    O1 8545   3.944   2.801   0.659  1.1809 -0.0909  0.0419
  572TMC3    O2 8546   3.992   2.632   1.136 -0.0650 -0.2811  0.1686
  573MPD2     C 8547   4.676   1.399   0.572  0.4020 -0.8207  0.0577
  573MPD2    C1 8548   4.642   1.432   0.439 -0.4157  0.1828  0.0048
  573MPD2    C2 8549   4.709   1.534   0.379 -1.1389 -0.5675  0.8419
  573MPD2    C3 8550   0.074   1.606   0.445 -0.8711  0.0985 -0.0187
  573MPD2    C4 8551   0.100   1.574   0.581 -0.1478 -0.0092 -0.6152
  573MPD2    C5 8552   0.034   1.472   0.636  0.3932  0.0771 -0.5248
  573MPD2     H 8553   4.689   1.557   0.275 -0.0738  1.8334  1.1634
  573MPD2    H1 8554   0.185   1.614   0.635  0.3913  0.1321 -1.5674
  573MPD2    H2 8555   4.629   1.313   0.618  1.6808 -1.1567  0.7376
  573MPD2    H3 8556   0.068   1.448   0.737 -1.6259 -2.5556 -0.4792
  573MPD2     N 8557   0.144   1.710   0.385  0.3331 -0.2568 -0.7600
  573MPD2    H5 8558   0.183   1.779   0.449 -2.6302  0.9399 -0.2242
  573MPD2    N1 8559   4.549   1.345   0.376 -0.0605 -0.3275  0.2374
  573MPD2    H7 8560   4.509   1.271   0.434 -0.0524  0.3496  1.1147
  574TMC3    C1 8561   0.221   1.841   0.195  0.3801 -0.5004  1.1636
  574TMC3    C2 8562   0.218   1.960   0.264  0.9562 -0.3811 -0.4327
  574TMC3    C3 8563   0.230   2.077   0.197 -0.1059 -0.1607 -0.0621
  574TMC3    C4 8564   0.228   1.840   0.061 -0.7595  0.3147  0.3625
  574TMC3    C5 8565   0.244   1.961  17.737  0.3548  0.3684  0.4436
  574TMC3    C6 8566   0.242   2.084   0.056 -0.4208  0.5007 -0.6012
  574TMC3     C 8567   0.156   1.724   0.252 -0.4107 -0.8142 -0.4576
  574TMC3     O 8568   0.122   1.645   0.163 -0.1741  0.4178 -0.1920
  574TMC3     H 8569   0.181   1.962   0.366  3.3434  1.1500  0.4140
  574TMC3    H1 8570   0.211   1.757  17.737 -1.5268  1.7803 -1.2727
  574TMC3    H2 8571   0.246   2.180   0.007  1.8671 -0.0601 -1.5318
  574TMC3    C7 8572   0.238   1.964  17.594 -0.1422  0.3565  0.3433
  574TMC3    C8 8573   0.242   2.198   0.275  0.3032 -0.3637  0.1960
  574TMC3    O1 8574   0.200   1.864  17.537 -0.0573  0.2009  0.1498
  574TMC3    O2 8575   0.263   2.188   0.394 -0.1795  0.2797  0.2356
  575TMC3    C1 8576   2.859   3.932  11.567  0.2342 -0.2602  0.7726
  575TMC3    C2 8577   2.833   3.852  11.680  0.1657 -0.3668 -0.2237
  575TMC3    C3 8578   2.772   3.727  11.655  0.5915  0.3750 -0.1193
  575TMC3    C4 8579   2.847   3.880  11.447 -0.4334  1.0787  0.2249
  575TMC3    C5 8580   2.803   3.755  11.428 -0.4857  0.2943 -0.7995
  575TMC3    C6 8581   2.759   3.668  11.531  0.2052 -0.1602  0.1715
  575TMC3     C 8582   2.920   4.067  11.575  0.4081 -0.2221  0.1734
  575TMC3     O 8583   2.969   4.116  11.475  0.0145 -0.8417 -0.6724
  575TMC3     H 8584   2.845   3.894  11.779 -1.0137 -0.4478 -0.0482
  575TMC3    H1 8585   2.880   3.937  11.362  1.5582 -1.6172 -0.7847
  575TMC3    H2 8586   2.733   3.563  11.516  2.6747 -0.6384 -0.6934
  575TMC3    C7 8587   2.777   3.723  11.294  0.3667 -0.3462 -0.7563
  575TMC3    C8 8588   2.745   3.651  11.772 -0.0566 -0.2229  0.2652
  575TMC3    O1 8589   2.859   3.762  11.212  0.0048 -0.3300 -0.4138
  575TMC3    O2 8590   2.821   3.675  11.869 -0.4921 -0.1956 -0.1821
  576MPD2     C 8591   2.100   0.552  12.617 -0.3320  0.6802 -0.7700
  576MPD2    C1 8592   2.143   0.670  12.549  0.1886 -0.7224 -0.2947
  576MPD2    C2 8593   2.066   0.780  12.561  0.0861  0.1769 -0.1693
  576MPD2    C3 8594   1.960   0.785  12.645  0.1949  0.2951 -0.8836
  576MPD2    C4 8595   1.911   0.667  12.704 -0.0840 -0.8696  0.1785
  576MPD2    C5 8596   1.981   0.555  12.682 -0.1470 -0.3231 -0.6557
  576MPD2     H 8597   2.094   0.870  12.509 -0.2524 -0.9280 -2.2386
  576MPD2    H1 8598   1.827   0.659  12.772 -0.6385  0.7762 -0.2968
  576MPD2    H2 8599   2.155   0.459  12.619 -3.5129 -1.2280 -1.6799
  576MPD2    H3 8600   1.952   0.464  12.734 -1.1632 -0.2986 -1.1892
  576MPD2     N 8601   1.893   0.909  12.663 -0.2375  0.3390 -0.0703
  576MPD2    H5 8602   1.905   0.980  12.592  1.5891  0.1325  0.0433
  576MPD2    N1 8603   2.255   0.677  12.467 -0.0381 -0.5291 -0.5500
  576MPD2    H7 8604   2.285   0.761  12.419 -0.4891 -1.3213 -2.2146
  577TMC3    C1 8605   2.424   0.591  12.334 -0.3188 -0.3401 -0.2723
  577TMC3    C2 8606   2.524   0.505  12.316 -0.0453  0.5885 -0.0314
  577TMC3    C3 8607   2.590   0.505  12.195  0.2918  0.1172  0.0134
  577TMC3    C4 8608   2.390   0.686  12.242 -0.9284 -0.0935 -0.0832
  577TMC3    C5 8609   2.465   0.695  12.126  0.4996  0.2619  0.5679
  577TMC3    C6 8610   2.564   0.604  12.102  0.4461 -0.2140  0.7027
  577TMC3     C 8611   2.331   0.563  12.435  0.4863 -0.3840  0.0235
  577TMC3     O 8612   2.314   0.448  12.473  0.3819  0.0083 -0.2582
  577TMC3     H 8613   2.543   0.437  12.398 -0.7315 -0.8977 -1.1157
  577TMC3    H1 8614   2.292   0.734  12.240 -0.7470  0.1956 -2.0998
  577TMC3    H2 8615   2.631   0.626  12.019  0.2604  2.2805  1.2086
  577TMC3    C7 8616   2.420   0.778  12.018  0.3060  0.1255 -0.0046
  577TMC3    C8 8617   2.701   0.414  12.188 -0.1653 -0.5450  0.0945
  577TMC3    O1 8618   2.450   0.744  11.907 -0.0729  0.0064  0.6447
  577TMC3    O2 8619   2.722   0.348  12.291 -0.1394  0.0421 -0.1934
  578MPD2     C 8620   0.627   0.492   0.989  0.2419 -0.6344 -0.0945
  578MPD2    C1 8621   0.714   0.426   0.904 -0.5212 -0.9173 -0.2036
  578MPD2    C2 8622   0.832   0.383   0.955  0.5714  0.2483 -0.0171
  578MPD2    C3 8623   0.865   0.401   1.086 -0.2567 -0.6386 -0.2518
  578MPD2    C4 8624   0.782   0.464   1.171 -0.0837  0.4281  0.7933
  578MPD2    C5 8625   0.663   0.505   1.121  0.0355  0.5488 -0.1841
  578MPD2     H 8626   0.909   0.331   0.900 -0.2910 -1.0020 -0.0496
  578MPD2    H1 8627   0.802   0.487   1.275 -0.4473  2.2284  0.4709
  578MPD2    H2 8628   0.531   0.517   0.945  0.1872  0.2105  0.5133
  578MPD2    H3 8629   0.586   0.549   1.184 -0.0031 -1.4282  1.1282
  578MPD2     N 8630   0.989   0.347   1.128  0.1819  0.1883  0.8795
  578MPD2    H5 8631   1.040   0.297   1.055  0.6559  0.1557  1.2304
  578MPD2    N1 8632   0.668   0.409   0.764 -0.3638  0.5200 -0.6288
  578MPD2    H7 8633   0.578   0.445   0.734 -1.9806 -0.5698  2.9682
  579TMC3    C1 8634   1.162   0.290   1.273  0.1754  0.4364 -0.1771
  579TMC3    C2 8635   1.244   0.369   1.341 -0.2425 -0.7677  0.2345
  579TMC3    C3 8636   1.378   0.329   1.346  0.1824 -0.5895 -0.4802
  579TMC3    C4 8637   1.199   0.188   1.193 -1.0571  0.3985 -0.3660
  579TMC3    C5 8638   1.332   0.153   1.201  0.5534  0.4350  0.6560
  579TMC3    C6 8639   1.421   0.212   1.288  0.8540  0.0122 -0.3545
  579TMC3     C 8640   1.032   0.349   1.262  0.1215  0.4294  0.0914
  579TMC3     O 8641   0.976   0.391   1.363 -0.1330  0.1739  0.4848
  579TMC3     H 8642   1.208   0.453   1.400  1.1407  1.9837 -2.8599
  579TMC3    H1 8643   1.124   0.129   1.142  0.3649 -2.3718  0.7229
  579TMC3    H2 8644   1.528   0.196   1.295  1.0182  1.4942  0.4784
  579TMC3    C7 8645   1.392   0.051   1.111 -0.6449 -0.9194 -0.5710
  579TMC3    C8 8646   1.462   0.415   1.439  0.3042 -0.4631 -0.2077
  579TMC3    O1 8647   1.515   0.036   1.120  0.2730 -0.2968  0.5341
  579TMC3    O2 8648   1.416   0.519   1.480  0.1948  0.4524 -0.2474
  580TMC3    C1 8649   0.443   4.198  12.225  0.0214 -0.0162  0.4863
  580TMC3    C2 8650   0.572   4.217  12.270 -0.6934  0.1975 -0.4573
  580TMC3    C3 8651   0.647   4.109  12.307  0.5991 -0.3196 -0.8952
  580TMC3    C4 8652   0.393   4.071  12.212  0.3583  0.1800  0.2691
  580TMC3    C5 8653   0.473   3.966  12.251 -0.1310  0.2268  0.1489
  580TMC3    C6 8654   0.597   3.980  12.301  0.0693  0.0752 -0.3706
  580TMC3     C 8655   0.393   4.297  12.137  0.0841  0.1836 -0.1592
  580TMC3     O 8656   0.462   4.354  12.052 -0.7426 -0.0191 -0.5255
  580TMC3     H 8657   0.608   4.319  12.258  0.3249  0.2721  3.2435
  580TMC3    H1 8658   0.296   4.048  12.170  0.9166 -0.3468 -0.7328
  580TMC3    H2 8659   0.645   3.902  12.359  1.4742  0.9314 -0.3808
  580TMC3    C7 8660   0.418   3.828  12.242 -0.4722 -0.4638 -0.2034
  580TMC3    C8 8661   0.786   4.122  12.280 -0.5226  0.8990 -0.0903
  580TMC3    O1 8662   0.301   3.804  12.262 -0.2622  0.0888  0.1056
  580TMC3    O2 8663   0.817   4.237  12.301  0.0303  0.2316 -0.0277
  581MPD2     C 8664   3.120   3.072  15.232  0.6231 -0.0376 -0.6371
  581MPD2    C1 8665   3.047   3.164  15.300  0.3411 -0.3888 -0.1063
  581MPD2    C2 8666   2.993   3.268  15.234  0.1158 -0.3557  0.3102
  581MPD2    C3 8667   3.008   3.281  15.094 -0.3809 -0.6192  0.5237
  581MPD2    C4 8668   3.083   3.189  15.024  0.4624 -1.0349  0.2475
  581MPD2    C5 8669   3.125   3.075  15.094 -0.4755  0.4759  0.0312
  581MPD2     H 8670   2.928   3.331  15.294  1.0317  0.9314 -0.0649
  581MPD2    H1 8671   3.103   3.190  14.918 -4.9798 -1.2524 -0.7468
  581MPD2    H2 8672   3.159   2.981  15.275 -1.2821  0.1993  1.5884
  581MPD2    H3 8673   3.158   2.989  15.037  1.0298  0.4420  0.9444
  581MPD2     N 8674   2.937   3.371  15.014  0.1839  0.1311 -0.2132
  581MPD2    H5 8675   2.958   3.368  14.915  0.3212 -0.6104 -0.1603
  581MPD2    N1 8676   3.002   3.144  15.428  0.3067 -0.7795 -0.2309
  581MPD2    H7 8677   2.935   3.212  15.463 -0.6190 -0.9453 -1.6546
  582TMC3    C1 8678   2.963   3.030  15.630  0.1048  0.2816 -0.4507
  582TMC3    C2 8679   2.982   3.110  15.738 -0.4012  0.0188 -0.3366
  582TMC3    C3 8680   2.870   3.133  15.815 -0.4912 -0.3225  0.6844
  582TMC3    C4 8681   2.851   2.971  15.592 -0.6463 -0.7988 -0.0579
  582TMC3    C5 8682   2.743   2.997  15.660 -0.1699  0.2602 -0.1472
  582TMC3    C6 8683   2.747   3.085  15.757 -0.6812  0.3272 -0.4788
  582TMC3     C 8684   3.044   3.042  15.513 -0.5898  0.0975 -0.3672
  582TMC3     O 8685   3.134   2.959  15.501 -0.3794  0.6468  0.0101
  582TMC3     H 8686   3.076   3.161  15.754 -0.3238  0.2442 -1.5597
  582TMC3    H1 8687   2.852   2.921  15.495  2.4421  4.5451 -2.7749
  582TMC3    H2 8688   2.650   3.105  15.802 -0.3415 -0.5562  0.6451
  582TMC3    C7 8689   2.643   3.004  15.572 -0.0477  0.4914  0.6447
  582TMC3    C8 8690   2.866   3.255  15.887 -0.0335  0.1002  0.2869
  582TMC3    O1 8691   2.595   2.899  15.526 -0.4799  0.1067  0.7174
  582TMC3    O2 8692   2.757   3.279  15.939 -0.0859 -0.4194  0.2838
  583MPD2     C 8693   2.843   0.362  16.928 -0.1747  0.3455  0.1704
  583MPD2    C1 8694   2.771   0.434  16.836 -0.9748 -0.7100 -0.8231
  583MPD2    C2 8695   2.670   0.523  16.882 -0.6679 -0.3994 -0.2387
  583MPD2    C3 8696   2.656   0.545  17.022 -0.1208  0.4828 -0.0194
  583MPD2    C4 8697   2.737   0.474  17.109  0.0280  0.2099  0.2121
  583MPD2    C5 8698   2.825   0.385  17.059 -1.1229  0.0971 -0.4750
  583MPD2     H 8699   2.602   0.586  16.826 -2.8393 -1.9814  0.6423
  583MPD2    H1 8700   2.738   0.476  17.217 -0.6424  2.9350  0.1453
  583MPD2    H2 8701   2.913   0.286  16.894  1.3750  1.4856  0.8117
  583MPD2    H3 8702   2.890   0.331  17.128 -1.1379  0.2932 -0.3074
  583MPD2     N 8703   2.565   0.631  17.070  0.1582 -0.6291  0.1064
  583MPD2    H5 8704   2.509   0.686  17.006  1.0932 -2.6395 -2.4329
  583MPD2    N1 8705   2.774   0.420  16.697 -0.2821  0.9251  0.6614
  583MPD2    H7 8706   2.722   0.488  16.642 -0.3572 -1.8191 -2.6104
  584TMC3    C1 8707   2.384   0.693  17.220 -0.2196 -0.0870  0.9528
  584TMC3    C2 8708   2.400   0.823  17.196  0.6637  0.5731 -0.3848
  584TMC3    C3 8709   2.325   0.915  17.257  0.9788  0.2701  0.0897
  584TMC3    C4 8710   2.289   0.639  17.303  0.4888 -0.1369  0.1493
  584TMC3    C5 8711   2.209   0.739  17.362  0.8711 -0.3196  0.4420
  584TMC3    C6 8712   2.224   0.872  17.340 -0.0475  0.0792 -0.0534
  584TMC3     C 8713   2.504   0.604  17.197  0.0417 -0.0698 -0.5686
  584TMC3     O 8714   2.516   0.513  17.278 -0.1016  0.6925  0.5138
  584TMC3     H 8715   2.476   0.859  17.128 -0.8279  2.6437 -0.9557
  584TMC3    H1 8716   2.271   0.532  17.306 -1.6230  0.2671  2.2212
  584TMC3    H2 8717   2.178   0.950  17.399  1.3452 -0.5538  1.8763
  584TMC3    C7 8718   2.143   0.708  17.479  0.4241 -0.5542 -0.5685
  584TMC3    C8 8719   2.392   1.037  17.286 -0.1493 -0.3349  0.3264
  584TMC3    O1 8720   2.192   0.623  17.550 -0.1303 -0.2355  0.0304
  584TMC3    O2 8721   2.508   1.046  17.322  0.1335 -0.0698  0.2264
  585MPD2     C 8722   2.192   4.503   0.567 -0.0488  0.0680  0.1542
  585MPD2    C1 8723   2.287   4.458   0.483  0.3265 -0.0045 -0.3197
  585MPD2    C2 8724   2.248   4.406   0.360  0.0168  0.0266  0.8632
  585MPD2    C3 8725   2.118   4.393   0.325 -0.1355  0.5412 -0.0351
  585MPD2    C4 8726   2.019   4.445   0.410 -0.2065 -0.7651 -0.1923
  585MPD2    C5 8727   2.059   4.499   0.529 -0.1773  0.5525  0.1918
  585MPD2     H 8728   2.330   4.359   0.306 -0.5114  2.5156 -2.1633
  585MPD2    H1 8729   1.915   4.450   0.381 -0.3704 -1.5886  0.2598
  585MPD2    H2 8730   2.224   4.552   0.659  0.2828 -0.1392  0.1526
  585MPD2    H3 8731   1.988   4.544   0.597  0.5782  1.8356  0.1458
  585MPD2     N 8732   2.078   4.335   0.203 -0.4807  0.1724 -0.0431
  585MPD2    H5 8733   1.978   4.334   0.185 -0.5889  2.5430  0.3738
  585MPD2    N1 8734   2.419   4.473   0.533  0.5697  0.1822 -0.1420
  585MPD2    H7 8735   2.433   4.526   0.619 -0.5351  0.1901  0.0256
  586TMC3    C1 8736   2.090   4.251  17.721  0.2169 -0.7084 -0.8572
  586TMC3    C2 8737   2.164   4.171  17.640  0.3463 -0.0458  0.4362
  586TMC3    C3 8738   2.114   4.153  17.518 -0.2145 -0.7970  0.0190
  586TMC3    C4 8739   1.982   4.318  17.683  0.8854 -0.5532  0.0134
  586TMC3    C5 8740   1.936   4.290  17.560  0.3311  0.3634 -0.9616
  586TMC3    C6 8741   2.000   4.207  17.475  0.0810  0.0356  0.4107
  586TMC3     C 8742   2.154   4.268   0.112  0.4787 -0.2611 -0.0728
  586TMC3     O 8743   2.277   4.252   0.110 -0.4281 -0.0175  0.2766
  586TMC3     H 8744   2.257   4.126  17.673  0.0893  0.1597  1.4629
  586TMC3    H1 8745   1.933   4.393   0.001 -0.0832  0.0826 -1.5086
  586TMC3    H2 8746   1.952   4.190  17.380  1.5708  0.4545 -0.4172
  586TMC3    C7 8747   1.793   4.312  17.541  0.4439 -0.5496 -0.4092
  586TMC3    C8 8748   2.199   4.093  17.422 -0.4067 -0.3136 -0.3693
  586TMC3    O1 8749   1.741   4.416  17.577  0.4980  0.4153  0.2044
  586TMC3    O2 8750   2.268   3.998  17.455  0.2623 -0.1937  0.0429
  587TMC3    C1 8751   3.792   2.938  16.791 -0.2237 -0.1235  0.4186
  587TMC3    C2 8752   3.923   2.989  16.778  0.3356  0.2732  0.1519
  587TMC3    C3 8753   4.018   2.933  16.861 -0.1648 -0.8227 -0.5823
  587TMC3    C4 8754   3.763   2.832  16.882  0.2079  1.4993  0.3743
  587TMC3    C5 8755   3.868   2.762  16.938 -0.7285  0.1052  0.4243
  587TMC3    C6 8756   3.996   2.816  16.927 -0.1029 -0.0196 -0.0962
  587TMC3     C 8757   3.690   3.013  16.722  0.2759 -0.4904  0.6363
  587TMC3     O 8758   3.722   3.118  16.668  0.5510 -0.1433  0.0478
  587TMC3     H 8759   3.949   3.070  16.711  2.0997  2.3554  3.3511
  587TMC3    H1 8760   3.659   2.816  16.909  0.5939  0.6019  1.3436
  587TMC3    H2 8761   4.071   2.777  16.994  0.5150  1.0247 -0.1749
  587TMC3    C7 8762   3.843   2.657  17.040 -0.1178  0.3793  0.4596
  587TMC3    C8 8763   4.111   3.017  16.923  0.8162 -0.0956  0.6044
  587TMC3    O1 8764   3.937   2.611  17.106  0.0345 -0.5046 -0.7372
  587TMC3    O2 8765   4.206   2.959  16.979  0.1411  0.8032  0.4099
  588TMC3    C1 8766   2.079   0.738   9.912  0.0810  0.2520 -0.8740
  588TMC3    C2 8767   2.014   0.624   9.932 -0.0337  0.5750 -0.3359
  588TMC3    C3 8768   2.060   0.548  10.038 -0.2331  0.3315  0.1855
  588TMC3    C4 8769   2.203   0.766   9.966 -0.1615 -0.2375  1.0723
  588TMC3    C5 8770   2.250   0.693  10.066 -0.1778  0.5503  0.5261
  588TMC3    C6 8771   2.176   0.579  10.103 -0.0507  0.8096 -0.4430
  588TMC3     C 8772   2.033   0.816   9.796  0.0839  0.3107 -0.0312
  588TMC3     O 8773   1.949   0.773   9.719  0.1163  0.1477  0.3275
  588TMC3     H 8774   1.916   0.609   9.889 -0.1535 -2.3699  0.9877
  588TMC3    H1 8775   2.264   0.843   9.921  0.3069 -1.6235 -0.6541
  588TMC3    H2 8776   2.217   0.535  10.193  2.1221  0.1012 -1.7612
  588TMC3    C7 8777   2.347   0.750  10.158 -0.4385  0.1879 -0.1184
  588TMC3    C8 8778   1.978   0.430  10.071  0.4272  0.1148 -0.3599
  588TMC3    O1 8779   2.420   0.667  10.211 -0.0095  0.0052  0.3347
  588TMC3    O2 8780   1.863   0.445  10.040 -0.1511  0.1477  0.6173
  589TMC3    C1 8781   1.292   3.296   0.911 -0.3718 -0.5407  0.3154
  589TMC3    C2 8782   1.386   3.322   1.008 -0.4727 -0.1316 -0.2182
  589TMC3    C3 8783   1.484   3.225   1.026 -0.4541 -0.2588  0.2411
  589TMC3    C4 8784   1.305   3.193   0.824  0.2890 -0.1373 -0.5988
  589TMC3    C5 8785   1.406   3.105   0.843 -0.3118 -0.6143 -0.5892
  589TMC3    C6 8786   1.502   3.115   0.951 -0.1727 -0.0068 -0.1213
  589TMC3     C 8787   1.200   3.401   0.875  0.3131  0.0030 -0.1239
  589TMC3     O 8788   1.116   3.372   0.793 -0.0866 -0.1899  0.5518
  589TMC3     H 8789   1.375   3.403   1.079  1.6596 -0.2656  0.2668
  589TMC3    H1 8790   1.224   3.174   0.754 -0.4455  0.5731  0.0527
  589TMC3    H2 8791   1.577   3.039   0.965  0.5800  0.4772 -1.5785
  589TMC3    C7 8792   1.411   2.993   0.747 -0.0115 -0.0931  0.5592
  589TMC3    C8 8793   1.582   3.239   1.132  0.2327 -0.0043 -0.2971
  589TMC3    O1 8794   1.331   2.994   0.654  0.0829 -0.0190  0.2458
  589TMC3    O2 8795   1.555   3.299   1.236 -0.0414 -0.4897 -0.2370
  590MPD2     C 8796   4.566   1.075  16.159 -0.1007 -0.5516  0.8777
  590MPD2    C1 8797   4.554   1.155  16.267  0.1061 -0.1601  0.2225
  590MPD2    C2 8798   4.665   1.233  16.306 -0.5014  0.6158  0.1775
  590MPD2    C3 8799   0.054   1.224  16.242 -0.0684  0.1111 -0.6375
  590MPD2    C4 8800   0.059   1.134  16.139  0.4214 -0.1256 -0.4702
  590MPD2    C5 8801   4.688   1.060  16.104 -0.1383  0.3980 -0.3024
  590MPD2     H 8802   4.649   1.305  16.385 -2.6466 -1.5109  1.6646
  590MPD2    H1 8803   0.136   1.132  16.063  0.9814  0.4855  0.0890
  590MPD2    H2 8804   4.479   1.026  16.115  0.2566  0.2125 -0.6566
  590MPD2    H3 8805   4.682   1.010  16.008  0.4300  1.5703 -0.9372
  590MPD2     N 8806   0.151   1.322  16.265  0.1651  0.0194  0.1656
  590MPD2    H5 8807   0.141   1.387  16.342 -0.7829  0.2236 -0.1319
  590MPD2    N1 8808   4.425   1.163  16.324 -0.5028 -0.1706 -0.7563
  590MPD2    H7 8809   4.355   1.108  16.276  0.2458  0.4062 -2.5232
  591TMC3    C1 8810   0.374   1.415  16.218 -0.2520 -0.2965  0.9759
  591TMC3    C2 8811   0.493   1.396  16.157  0.3852  0.0243  0.5118
  591TMC3    C3 8812   0.554   1.508  16.109 -0.0407  0.6866 -0.5141
  591TMC3    C4 8813   0.320   1.538  16.246  0.1236  0.8205 -0.3089
  591TMC3    C5 8814   0.392   1.651  16.206 -0.7472 -0.5156 -0.2428
  591TMC3    C6 8815   0.507   1.635  16.131 -0.1587 -0.1346  0.0131
  591TMC3     C 8816   0.275   1.304  16.206 -0.9362 -0.7467 -0.2159
  591TMC3     O 8817   0.312   1.202  16.152 -0.1918  0.6609  0.0669
  591TMC3     H 8818   0.528   1.294  16.141  1.1019  0.2952  0.3470
  591TMC3    H1 8819   0.223   1.546  16.292 -0.0700 -0.0313 -0.5606
  591TMC3    H2 8820   0.559   1.721  16.090 -2.1569 -0.2161 -2.6818
  591TMC3    C7 8821   0.327   1.784  16.199 -0.2862  0.2497  0.5182
  591TMC3    C8 8822   0.668   1.471  16.021 -0.4708 -0.0819 -0.1781
  591TMC3    O1 8823   0.208   1.779  16.209  0.2380 -0.1205  0.2927
  591TMC3    O2 8824   0.701   1.356  16.003 -0.3653 -0.3920  0.6835
  592MPD2     C 8825   1.444   3.378  11.842 -0.4822 -0.0188  0.2081
  592MPD2    C1 8826   1.403   3.405  11.972 -0.1175 -0.1063  0.0463
  592MPD2    C2 8827   1.296   3.341  12.031  0.2747 -0.2590 -0.3591
  592MPD2    C3 8828   1.211   3.261  11.953 -0.0585 -0.1169  0.3226
  592MPD2    C4 8829   1.246   3.251  11.815 -0.7772  0.0807 -0.2123
  592MPD2    C5 8830   1.365   3.301  11.757 -0.1371 -0.0797  0.0071
  592MPD2     H 8831   1.279   3.359  12.137  1.7871 -3.2828  0.3933
  592MPD2    H1 8832   1.188   3.198  11.740  1.4083 -0.4034 -1.5872
  592MPD2    H2 8833   1.533   3.424  11.803 -0.9528 -0.4866 -1.4122
  592MPD2    H3 8834   1.390   3.300  11.652  1.2431 -0.7952  0.3420
  592MPD2     N 8835   1.095   3.204  12.014  0.2470  0.0153 -0.3256
  592MPD2    H5 8836   1.086   3.206  12.115 -2.6739  0.4058 -0.6154
  592MPD2    N1 8837   1.488   3.499  12.040 -0.2232  0.4365 -0.0376
  592MPD2    H7 8838   1.556   3.551  11.986 -0.5729  1.1902  0.2429
  593TMC3    C1 8839   1.571   3.646  12.185  0.1646  0.0512 -0.2220
  593TMC3    C2 8840   1.540   3.737  12.276 -0.0337  0.0036 -0.4924
  593TMC3    C3 8841   1.634   3.830  12.318 -0.7822 -0.0057  0.4847
  593TMC3    C4 8842   1.696   3.641  12.117 -0.5545  0.0608 -0.0136
  593TMC3    C5 8843   1.791   3.734  12.159 -0.0898 -0.0675 -0.6247
  593TMC3    C6 8844   1.761   3.827  12.258 -0.2097 -0.1835 -0.0794
  593TMC3     C 8845   1.466   3.546  12.168 -0.1220  0.0842 -0.3223
  593TMC3     O 8846   1.388   3.518  12.261 -0.3211  0.3268 -0.2588
  593TMC3     H 8847   1.436   3.751  12.302  0.3277  0.5198  0.6859
  593TMC3    H1 8848   1.718   3.565  12.043  2.0041  2.4461 -1.7264
  593TMC3    H2 8849   1.841   3.897  12.279 -0.3239  0.0590 -0.4404
  593TMC3    C7 8850   1.899   3.763  12.069 -0.0146  0.4098  0.7719
  593TMC3    C8 8851   1.600   3.950  12.389 -0.0793  0.2700  1.0653
  593TMC3    O1 8852   1.863   3.774  11.952 -0.5797 -0.2955 -0.4987
  593TMC3    O2 8853   1.480   3.959  12.409  0.0591  0.3926 -0.4375
  594MPD2     C 8854   4.723   2.050  14.808 -0.1510  0.0442  0.2245
  594MPD2    C1 8855   4.618   2.144  14.775 -0.1813  0.0057 -0.0322
  594MPD2    C2 8856   4.653   2.265  14.712 -0.5865 -0.0348  0.1721
  594MPD2    C3 8857   0.049   2.299  14.699 -0.0171  0.4764  0.4170
  594MPD2    C4 8858   0.144   2.213  14.755 -0.1392  0.0831 -0.2513
  594MPD2    C5 8859   0.106   2.107  14.827  0.6583 -0.3052  0.0849
  594MPD2     H 8860   4.579   2.334  14.673 -1.5745 -0.7784  0.7451
  594MPD2    H1 8861   0.248   2.243  14.760 -0.4657  0.9551  1.5069
  594MPD2    H2 8862   4.699   1.952  14.847  2.4348 -0.7589 -0.2046
  594MPD2    H3 8863   0.188   2.050  14.870  0.8867 -2.4021 -3.1066
  594MPD2     N 8864   0.088   2.423  14.635  0.4480 -0.1284 -0.8859
  594MPD2    H5 8865   0.017   2.486  14.600  0.4655  1.0276  1.1689
  594MPD2    N1 8866   4.486   2.096  14.788  0.3564 -0.0314 -0.3559
  594MPD2    H7 8867   4.471   2.003  14.825  2.2753 -0.7258 -1.2866
  595TMC3    C1 8868   0.427   2.728  14.490  0.0146 -0.2316  0.7907
  595TMC3    C2 8869   0.371   2.598  14.488 -0.4111  0.2582 -0.0685
  595TMC3    C3 8870   0.246   2.583  14.545  0.1987  0.2419  0.1016
  595TMC3    C4 8871   0.360   2.832  14.539 -0.0609 -0.5520  0.6484
  595TMC3    C5 8872   0.234   2.812  14.589 -0.0844  0.1721  0.3858
  595TMC3    C6 8873   0.178   2.687  14.596 -0.0206  0.8026 -0.2549
  595TMC3     C 8874   0.573   2.748  14.482 -0.3397  0.1259  0.0409
  595TMC3     O 8875   0.617   2.863  14.507  0.2656 -0.3703  0.3365
  595TMC3     H 8876   0.423   2.512  14.448  0.3023  0.8573 -0.4265
  595TMC3    H1 8877   0.408   2.927  14.561 -1.0403  0.0552  0.0953
  595TMC3    H2 8878   0.082   2.674  14.644  1.0245 -1.6732  1.2111
  595TMC3    C7 8879   0.189   2.915  14.683  0.1419 -0.0957  0.0929
  595TMC3    C8 8880   0.213   2.450  14.595  0.0643  0.2960  0.1558
  595TMC3    O1 8881   0.173   3.027  14.634  0.1066  1.0322 -0.5559
  595TMC3    O2 8882   0.310   2.380  14.590  0.1710 -0.1201  0.1995
  596MPD2     C 8883   3.482   0.568  16.477 -0.0845 -0.0835 -0.2199
  596MPD2    C1 8884   3.398   0.657  16.418 -0.2135 -0.1696  0.2752
  596MPD2    C2 8885   3.367   0.639  16.285 -0.9218  0.0209  0.4755
  596MPD2    C3 8886   3.420   0.526  16.213 -0.6454  1.2237 -0.3072
  596MPD2    C4 8887   3.514   0.443  16.278 -0.0158 -0.9271  0.4363
  596MPD2    C5 8888   3.545   0.470  16.410 -0.2855  0.6612  0.5099
  596MPD2     H 8889   3.312   0.709  16.223 -0.5882 -0.0959  0.0489
  596MPD2    H1 8890   3.565   0.370  16.217 -0.3396 -0.8946  0.1304
  596MPD2    H2 8891   3.525   0.598  16.572 -0.7446 -1.7489  0.5912
  596MPD2    H3 8892   3.632   0.426  16.458  0.9893  1.7944 -0.7439
  596MPD2     N 8893   3.394   0.492  16.078  0.1557  0.0872 -0.4151
  596MPD2    H5 8894   3.421   0.401  16.042 -1.1006  0.2072 -1.6876
  596MPD2    N1 8895   3.337   0.767  16.492  0.5592 -0.0080 -0.2077
  596MPD2    H7 8896   3.273   0.822  16.435 -0.1149 -1.8995 -1.2977
  597TMC3    C1 8897   3.262   0.910  16.673  0.1521  0.4356 -0.3447
  597TMC3    C2 8898   3.259   1.015  16.589 -0.5198  0.4915 -0.0195
  597TMC3    C3 8899   3.224   1.130  16.647 -0.3203  0.3779  0.5966
  597TMC3    C4 8900   3.239   0.924  16.805 -0.2999  0.2496  0.4016
  597TMC3    C5 8901   3.200   1.047  16.851  0.2210 -0.3270 -1.0446
  597TMC3    C6 8902   3.188   1.151  16.773 -1.0335 -0.4862  0.1498
  597TMC3     C 8903   3.342   0.793  16.625 -0.4974  0.3273 -0.0874
  597TMC3     O 8904   3.395   0.722  16.709 -0.2768  0.4649 -0.5295
  597TMC3     H 8905   3.279   1.006  16.483 -1.4984 -1.2207 -0.0605
  597TMC3    H1 8906   3.261   0.841  16.872  2.5662 -0.5741 -1.5820
  597TMC3    H2 8907   3.167   1.250  16.811 -1.2029 -0.8021  0.8825
  597TMC3    C7 8908   3.144   1.053  16.983 -0.7468 -0.0031 -0.1791
  597TMC3    C8 8909   3.247   1.251  16.575 -0.2544 -0.0548  0.8452
  597TMC3    O1 8910   3.175   0.971  17.066  0.3219  0.3217 -0.1900
  597TMC3    O2 8911   3.218   1.361  16.619 -0.8292  0.1621  0.0291
  598TMC3    C1 8912   1.698   1.859  15.314  0.1896 -1.1117  0.7934
  598TMC3    C2 8913   1.565   1.804  15.313  0.8930  0.3217 -0.2964
  598TMC3    C3 8914   1.524   1.774  15.189  0.2548 -0.3870  0.7934
  598TMC3    C4 8915   1.771   1.896  15.205  0.1473  0.1660 -0.7495
  598TMC3    C5 8916   1.725   1.866  15.084  0.0501 -0.3384 -0.2611
  598TMC3    C6 8917   1.597   1.806  15.077 -0.2829 -0.0010 -0.4635
  598TMC3     C 8918   1.767   1.854  15.434  0.1343  0.2675  0.6743
  598TMC3     O 8919   1.857   1.940  15.441  0.1519  0.3450  0.4863
  598TMC3     H 8920   1.513   1.781  15.405 -0.7148  2.1711 -0.7504
  598TMC3    H1 8921   1.876   1.922  15.213  0.0076  0.6299 -0.4737
  598TMC3    H2 8922   1.559   1.771  14.982  1.3808  0.8545 -1.4457
  598TMC3    C7 8923   1.795   1.902  14.967 -0.4500 -0.3693  0.1435
  598TMC3    C8 8924   1.418   1.670  15.166 -0.5755  0.6057 -0.9019
  598TMC3    O1 8925   1.789   1.823  14.874  0.4841 -0.0516 -0.3378
  598TMC3    O2 8926   1.419   1.607  15.058 -1.1211 -0.1936  0.4030
  599MPD2     C 8927   1.997   4.219  15.794  0.3600  0.5141 -0.5579
  599MPD2    C1 8928   1.960   4.089  15.836 -0.0116 -0.1395  0.5339
  599MPD2    C2 8929   1.875   4.065  15.943  0.3246 -0.2815 -0.0437
  599MPD2    C3 8930   1.820   4.171  16.004 -0.8891  0.1108 -0.2780
  599MPD2    C4 8931   1.850   4.293  15.961  0.5715  0.1829 -1.0821
  599MPD2    C5 8932   1.938   4.318  15.861 -0.1974 -0.2681  0.6264
  599MPD2     H 8933   1.846   3.967  15.979  0.7142  0.1157  1.3681
  599MPD2    H1 8934   1.804   4.380  16.006  1.1981  0.4129 -0.8842
  599MPD2    H2 8935   2.052   4.249  15.705  0.0224  2.0946 -0.2368
  599MPD2    H3 8936   1.962   4.420  15.833 -2.0399  0.0638  0.2427
  599MPD2     N 8937   1.729   4.158  16.118 -0.4773  0.1950 -0.0949
  599MPD2    H5 8938   1.690   4.247  16.147  0.9273  1.2565 -1.5086
  599MPD2    N1 8939   2.020   3.988  15.762  0.1981 -0.1914  0.4577
  599MPD2    H7 8940   2.068   4.015  15.677 -2.0758 -0.9537 -1.0633
  600TMC3    C1 8941   1.612   4.077  16.297 -0.5255  0.4175  0.4098
  600TMC3    C2 8942   1.545   3.970  16.356  0.2855  0.7826 -0.5259
  600TMC3    C3 8943   1.499   3.983  16.481 -0.4070 -0.5664 -0.6867
  600TMC3    C4 8944   1.624   4.191  16.369  0.0402  0.7782 -0.0045
  600TMC3    C5 8945   1.576   4.208  16.496 -0.3712 -0.5076  0.5971
  600TMC3    C6 8946   1.522   4.098  16.559  0.1082 -0.5687  0.0674
  600TMC3     C 8947   1.667   4.049  16.165 -0.1216  0.0708  0.5567
  600TMC3     O 8948   1.655   3.938  16.115  0.3436 -0.9779 -0.6838
  600TMC3     H 8949   1.536   3.877  16.300  3.3873 -0.0515  0.3175
  600TMC3    H1 8950   1.696   4.263  16.331  0.3282  0.0269 -0.8848
  600TMC3    H2 8951   1.503   4.103  16.666 -0.7709 -1.4817 -0.0464
  600TMC3    C7 8952   1.563   4.341  16.548  0.2639  0.2100 -1.0832
  600TMC3    C8 8953   1.418   3.889  16.548  0.0716 -0.1033  0.8486
  600TMC3    O1 8954   1.557   4.336  16.671 -0.5495  0.3226 -0.1408
  600TMC3    O2 8955   1.400   3.893  16.670  0.1298 -0.3300  0.6658
  601MPD2     C 8956   4.285   2.648   0.289  0.1345  0.5897 -0.1060
  601MPD2    C1 8957   4.166   2.720   0.306  0.7388 -0.8412  0.0937
  601MPD2    C2 8958   4.131   2.779   0.428 -0.4694  0.1733 -0.0453
  601MPD2    C3 8959   4.221   2.760   0.532 -0.3311 -0.1925  0.1582
  601MPD2    C4 8960   4.343   2.698   0.517 -0.6080 -0.7079  0.1779
  601MPD2    C5 8961   4.369   2.635   0.394  0.0049  0.1222 -0.7919
  601MPD2     H 8962   4.045   2.843   0.443 -1.2897 -0.5273 -1.7802
  601MPD2    H1 8963   4.419   2.688   0.593 -0.3610  0.4049  0.0865
  601MPD2    H2 8964   4.308   2.597   0.195 -0.5886 -1.3989  0.7877
  601MPD2    H3 8965   4.464   2.587   0.373 -0.1020  0.3964 -1.9302
  601MPD2     N 8966   4.177   2.803   0.659 -0.0039 -0.4499 -0.6440
  601MPD2    H5 8967   4.252   2.807   0.728 -1.5788 -0.3402  1.0761
  601MPD2    N1 8968   4.080   2.736   0.191  0.6670  0.4901  0.4127
  601MPD2    H7 8969   4.022   2.819   0.190  1.0108  0.7346  1.4329
  602TMC3    C1 8970   3.970   2.680   0.004  0.2913  0.4919 -0.1168
  602TMC3    C2 8971   3.987   2.807  17.694  0.2388 -0.0369 -0.3211
  602TMC3    C3 8972   3.912   2.839  17.588  0.2254  0.6737 -0.7944
  602TMC3    C4 8973   3.869   2.594  17.709 -0.1957 -0.1297 -0.1974
  602TMC3    C5 8974   3.796   2.632  17.604  0.4093  0.0235  0.8238
  602TMC3    C6 8975   3.818   2.753  17.546  0.8155  0.1573 -0.0257
  602TMC3     C 8976   4.064   2.638   0.100 -0.0238 -0.1165 -0.5747
  602TMC3     O 8977   4.090   2.518   0.101 -0.2599  0.4817 -0.1060
  602TMC3     H 8978   4.060   2.881  17.723  2.2507 -2.1636  0.0316
  602TMC3    H1 8979   3.856   2.503   0.023 -0.4374 -0.2800 -0.4847
  602TMC3    H2 8980   3.771   2.769  17.450 -0.5158 -0.2603  0.5603
  602TMC3    C7 8981   3.668   2.560  17.588  1.0899  0.0132  0.7465
  602TMC3    C8 8982   3.874   2.978  17.564 -0.4028  0.0167 -0.4784
  602TMC3    O1 8983   3.657   2.448  17.637  0.0292  0.3551 -0.4991
  602TMC3    O2 8984   3.959   3.062  17.581  0.1549  0.3475  0.3815
  603TMC3    C1 8985   1.821   3.186  11.493 -0.0571 -0.2172  0.0827
  603TMC3    C2 8986   1.831   3.150  11.621 -0.6382  0.2587  0.4622
  603TMC3    C3 8987   1.956   3.131  11.674 -0.4772 -0.0692  0.1026
  603TMC3    C4 8988   1.924   3.219  11.417 -0.5268 -0.7210 -0.0443
  603TMC3    C5 8989   2.045   3.189  11.472  0.9678  0.2924  0.2537
  603TMC3    C6 8990   2.069   3.160  11.604 -0.4993 -0.3128 -0.6007
  603TMC3     C 8991   1.693   3.193  11.427 -0.0707 -0.2937  0.1597
  603TMC3     O 8992   1.689   3.251  11.320  0.4481  0.2351  0.7662
  603TMC3     H 8993   1.747   3.146  11.690 -2.7049  1.4335 -1.9554
  603TMC3    H1 8994   1.909   3.263  11.319  2.5561  1.4900  0.4795
  603TMC3    H2 8995   2.163   3.112  11.626 -0.4380  0.9316  1.9163
  603TMC3    C7 8996   2.152   3.156  11.383 -0.6804  0.2233 -0.2366
  603TMC3    C8 8997   1.982   3.053  11.796  0.1832 -0.9526 -0.0418
  603TMC3    O1 8998   2.263   3.140  11.434 -0.2313 -0.1087 -0.3413
  603TMC3    O2 8999   2.094   3.032  11.835  0.3158 -0.9022  0.2837
  604MPD2     C 9000   1.873   1.264  16.089  0.7958  0.6644  0.2306
  604MPD2    C1 9001   1.964   1.351  16.129  0.7843  0.4653  0.2893
  604MPD2    C2 9002   2.066   1.391  16.038  0.3061  0.0019  0.0509
  604MPD2    C3 9003   2.070   1.330  15.914 -0.4307 -0.2742 -0.0565
  604MPD2    C4 9004   1.960   1.259  15.869 -0.3103  0.1125 -0.6435
  604MPD2    C5 9005   1.863   1.223  15.958  0.5410  0.0241  0.6100
  604MPD2     H 9006   2.137   1.467  16.068 -0.4027  2.0904 -3.6855
  604MPD2    H1 9007   1.956   1.227  15.765  2.7605 -0.6563 -0.5387
  604MPD2    H2 9008   1.818   1.215  16.169  1.5697 -1.8184 -0.7583
  604MPD2    H3 9009   1.785   1.155  15.925  0.1726  1.9554 -2.4879
  604MPD2     N 9010   2.166   1.384  15.827 -1.1762 -0.1013  0.7945
  604MPD2    H5 9011   2.224   1.463  15.855 -0.5814 -0.7800  1.4730
  604MPD2    N1 9012   1.951   1.396  16.256  0.0876  0.4439  0.1670
  604MPD2    H7 9013   1.867   1.375  16.309  1.1307 -0.1111  1.5964
  605TMC3    C1 9014   1.988   1.531  16.438  0.8951 -0.2413 -0.4033
  605TMC3    C2 9015   2.075   1.549  16.542 -0.3184  0.3609  0.1190
  605TMC3    C3 9016   2.082   1.670  16.592  0.2177 -0.3399 -0.1459
  605TMC3    C4 9017   1.893   1.625  16.414 -0.2416 -0.5091  0.1167
  605TMC3    C5 9018   1.897   1.747  16.476 -0.5011 -0.6017 -0.1016
  605TMC3    C6 9019   1.991   1.774  16.574 -0.0536  0.1582 -0.2249
  605TMC3     C 9020   2.041   1.468  16.323  0.5497  0.5154 -0.6368
  605TMC3     O 9021   2.161   1.463  16.321 -0.0258  0.3425 -0.0073
  605TMC3     H 9022   2.151   1.472  16.557 -1.4908 -0.4971  1.6491
  605TMC3    H1 9023   1.823   1.608  16.334  0.6727  0.9021 -0.9865
  605TMC3    H2 9024   2.014   1.876  16.603 -0.9327  0.2935 -0.0125
  605TMC3    C7 9025   1.816   1.857  16.427 -0.1359 -0.2047  0.3135
  605TMC3    C8 9026   2.210   1.723  16.631  0.1175  0.3986  0.5342
  605TMC3    O1 9027   1.787   1.950  16.498 -0.3968 -0.1431  0.5154
  605TMC3    O2 9028   2.238   1.840  16.634  0.7799  0.2455  0.2103
  606TMC3    C1 9029   3.501   0.820  17.146  0.5479  0.0787 -0.2084
  606TMC3    C2 9030   3.533   0.839  17.283 -0.6702 -0.2308  0.1375
  606TMC3    C3 9031   3.575   0.726  17.350 -0.4414  0.3926  0.1783
  606TMC3    C4 9032   3.507   0.702  17.080 -0.5140 -1.1323 -0.1064
  606TMC3    C5 9033   3.542   0.592  17.154 -0.0141 -0.1412  0.2586
  606TMC3    C6 9034   3.588   0.600  17.291 -0.5642  0.0790  0.2543
  606TMC3     C 9035   3.504   0.944  17.068  1.0402  0.1871 -0.0510
  606TMC3     O 9036   3.458   1.040  17.127  0.1658  0.0674  0.0365
  606TMC3     H 9037   3.529   0.929  17.342  0.8497 -0.2502  0.2525
  606TMC3    H1 9038   3.468   0.690  16.980  0.0782  0.6506 -0.5557
  606TMC3    H2 9039   3.626   0.511  17.339 -1.5230 -0.3328  0.2517
  606TMC3    C7 9040   3.551   0.465  17.088  0.0932  0.0589  0.5237
  606TMC3    C8 9041   3.608   0.735  17.487  0.0854 -0.7037 -0.2534
  606TMC3    O1 9042   3.537   0.477  16.966 -0.0687 -0.4441 -0.1489
  606TMC3    O2 9043   3.530   0.794  17.556 -0.3066  0.7056 -0.0556
  607MPD2     C 9044   1.345   2.691  12.011  0.8506 -0.3714 -0.0808
  607MPD2    C1 9045   1.372   2.725  12.147 -0.1055 -0.0795 -0.1493
  607MPD2    C2 9046   1.384   2.621  12.234 -0.2540 -0.5281 -1.1336
  607MPD2    C3 9047   1.372   2.488  12.196  0.2503  0.1071 -0.0873
  607MPD2    C4 9048   1.341   2.455  12.070 -0.5261 -0.4111  0.3145
  607MPD2    C5 9049   1.329   2.559  11.979  0.1741  0.4241 -0.3115
  607MPD2     H 9050   1.411   2.635  12.338 -2.2037  2.1542 -0.9847
  607MPD2    H1 9051   1.321   2.353  12.039 -2.2937  0.5639 -1.7244
  607MPD2    H2 9052   1.334   2.771  11.939  2.5036  0.8671  1.0465
  607MPD2    H3 9053   1.296   2.544  11.877 -0.0866 -3.3554  0.3283
  607MPD2     N 9054   1.404   2.393  12.296 -0.1744 -0.4389  0.7995
  607MPD2    H5 9055   1.428   2.427  12.389  1.1869 -1.2608  0.7488
  607MPD2    N1 9056   1.418   2.853  12.184 -0.3667  0.4643  0.0982
  607MPD2    H7 9057   1.419   2.874  12.283 -1.4044 -1.4889  0.5117
  608TMC3    C1 9058   1.532   3.051  12.160 -0.1081  0.7198  0.2862
  608TMC3    C2 9059   1.575   3.026  12.288 -0.3471  0.3465  0.8894
  608TMC3    C3 9060   1.699   3.070  12.325 -0.3287  0.5680  0.0492
  608TMC3    C4 9061   1.598   3.133  12.072  0.0951  0.1446  0.5777
  608TMC3    C5 9062   1.722   3.176  12.112 -0.0119 -0.4598 -0.9771
  608TMC3    C6 9063   1.774   3.145  12.234  1.0813  0.1476  0.1932
  608TMC3     C 9064   1.442   2.954  12.094 -0.2949 -0.4044 -0.0315
  608TMC3     O 9065   1.432   2.956  11.972  0.1606  0.1764  0.8443
  608TMC3     H 9066   1.507   2.994  12.367 -0.5553 -0.1167  0.5230
  608TMC3    H1 9067   1.558   3.150  11.973  0.2468  0.6248  0.5987
  608TMC3    H2 9068   1.869   3.182  12.271  0.3069  1.9829  0.3123
  608TMC3    C7 9069   1.787   3.264  12.011  0.0159 -0.1731  0.7652
  608TMC3    C8 9070   1.759   3.017  12.449  0.7226  0.3655 -0.0114
  608TMC3    O1 9071   1.737   3.280  11.902 -0.1815  0.1325  0.1517
  608TMC3    O2 9072   1.868   3.066  12.483 -0.0804 -0.7668  0.2139
  609TMC3    C1 9073   4.435   2.596   9.232 -0.0800 -0.6140  0.4354
  609TMC3    C2 9074   4.407   2.487   9.152 -0.7454 -0.3773  0.6218
  609TMC3    C3 9075   4.516   2.437   9.083 -0.7242  0.4618 -0.3793
  609TMC3    C4 9076   4.555   2.660   9.232 -0.1268 -0.4148 -0.7609
  609TMC3    C5 9077   4.663   2.599   9.175  0.0525 -0.0588  0.2746
  609TMC3    C6 9078   4.639   2.496   9.092 -0.3280  0.2021  0.7900
  609TMC3     C 9079   4.335   2.647   9.331  0.3594 -0.4564  0.5653
  609TMC3     O 9080   4.373   2.716   9.425 -0.3859 -0.3235  0.5312
  609TMC3     H 9081   4.315   2.431   9.160  0.6344 -2.7128  0.1305
  609TMC3    H1 9082   4.572   2.750   9.289 -0.7889 -0.4092 -0.5633
  609TMC3    H2 9083   4.720   2.451   9.035 -0.8230  0.8046 -0.3927
  609TMC3    C7 9084   0.052   2.667   9.177  0.6149 -0.5160  0.1910
  609TMC3    C8 9085   4.490   2.300   9.024  0.1814  0.6931 -0.0965
  609TMC3    O1 9086   0.148   2.600   9.143  1.0019  0.1864 -0.0825
  609TMC3    O2 9087   4.369   2.268   9.016  0.8812  0.4738  0.6738
  610TMC3    C1 9088   1.747   3.375  12.890  0.7260 -0.2224  0.3754
  610TMC3    C2 9089   1.835   3.423  12.792 -0.5779  0.0687  0.5477
  610TMC3    C3 9090   1.899   3.328  12.726  0.4047  0.0060  0.4696
  610TMC3    C4 9091   1.728   3.242  12.914 -0.6199  0.0521  0.0496
  610TMC3    C5 9092   1.808   3.149  12.848  0.7636 -0.1287  0.0264
  610TMC3    C6 9093   1.898   3.189  12.755  0.1858  0.2840 -0.6035
  610TMC3     C 9094   1.705   3.464  12.993 -0.4300 -0.2533 -0.1729
  610TMC3     O 9095   1.607   3.413  13.049 -0.0784 -0.2048 -0.5098
  610TMC3     H 9096   1.842   3.530  12.775  0.1679 -0.3423 -1.6066
  610TMC3    H1 9097   1.684   3.210  13.008 -1.6196 -2.4885 -1.2847
  610TMC3    H2 9098   1.961   3.114  12.707  0.4353  1.9909 -2.9512
  610TMC3    C7 9099   1.853   3.034  12.924 -0.4803  0.5520  0.4710
  610TMC3    C8 9100   2.000   3.375  12.643  0.4387 -0.0277 -0.4515
  610TMC3    O1 9101   1.971   3.022  12.912 -0.2336 -0.3192  0.4839
  610TMC3    O2 9102   1.988   3.493  12.626 -0.1700 -0.0578  0.2463
  611MPD2     C 9103   1.329   3.134  10.884 -0.9557  0.2189  0.0006
  611MPD2    C1 9104   1.328   3.146  10.748  0.4803  0.6124  0.4150
  611MPD2    C2 9105   1.447   3.146  10.678  0.2500 -0.2731  0.1705
  611MPD2    C3 9106   1.568   3.140  10.736 -0.8887  0.3397 -0.4015
  611MPD2    C4 9107   1.571   3.122  10.872 -0.5447  0.0902  0.0942
  611MPD2    C5 9108   1.453   3.123  10.946 -0.2058 -0.4715 -0.2144
  611MPD2     H 9109   1.435   3.154  10.571 -0.1709  1.1544  0.3310
  611MPD2    H1 9110   1.667   3.101  10.918 -0.9179  0.3117  0.9835
  611MPD2    H2 9111   1.240   3.130  10.946  0.0553  0.0016  1.4369
  611MPD2    H3 9112   1.452   3.113  11.054  0.6373  0.3593 -0.1284
  611MPD2     N 9113   1.688   3.154  10.661  0.5912 -0.0490  0.2396
  611MPD2    H5 9114   1.767   3.175  10.721  0.8932 -1.3855  0.3269
  611MPD2    N1 9115   1.198   3.154  10.700  0.8745 -0.0701  0.3108
  611MPD2    H7 9116   1.123   3.150  10.768 -1.3753 -0.8945 -2.2269
  612TMC3    C1 9117   1.845   3.156  10.489  0.1420  0.8093  0.6293
  612TMC3    C2 9118   1.942   3.120  10.577  0.2237 -0.4910 -0.3039
  612TMC3    C3 9119   2.073   3.143  10.543 -0.1288 -0.1598 -0.2521
  612TMC3    C4 9120   1.876   3.216  10.366  0.4082  0.1481 -0.3600
  612TMC3    C5 9121   2.011   3.236  10.340 -0.0075  0.0773 -0.2047
  612TMC3    C6 9122   2.110   3.209  10.428 -0.6802 -0.4358 -0.5174
  612TMC3     C 9123   1.704   3.147  10.524  0.0901 -0.8741 -0.2045
  612TMC3     O 9124   1.619   3.132  10.436 -0.1094 -0.3111  0.9110
  612TMC3     H 9125   1.919   3.074  10.673 -0.7347 -0.1736 -0.3874
  612TMC3    H1 9126   1.799   3.252  10.299  0.0894 -1.0278 -0.6237
  612TMC3    H2 9127   2.209   3.245  10.403 -0.2299 -1.1196  0.2706
  612TMC3    C7 9128   2.061   3.243  10.201 -0.0187  0.0958  0.7002
  612TMC3    C8 9129   2.179   3.114  10.639  0.2801 -0.3743  0.3283
  612TMC3    O1 9130   2.176   3.211  10.180 -0.2913  0.7320  0.1303
  612TMC3    O2 9131   2.292   3.114  10.594 -0.0548 -0.6675 -0.3393
  613MPD2     C 9132   0.353   0.122  16.655  0.0560  0.1562  0.2609
  613MPD2    C1 9133   0.403   0.044  16.552 -1.0052  0.2855  0.1036
  613MPD2    C2 9134   0.338   4.664  16.531 -0.4565 -0.3799  1.0653
  613MPD2    C3 9135   0.209   4.641  16.571 -0.1020 -0.6657 -0.1883
  613MPD2    C4 9136   0.158   4.721  16.668  0.1608 -0.3763 -0.6620
  613MPD2    C5 9137   0.235   0.087  16.721 -0.6410  0.0650  0.2794
  613MPD2     H 9138   0.386   4.598  16.459 -0.7592 -0.3725  0.8571
  613MPD2    H1 9139   0.059   4.706  16.709  0.1604 -2.5417 -1.4505
  613MPD2    H2 9140   0.406   0.213  16.680  0.0185  1.1691 -3.2411
  613MPD2    H3 9141   0.186   0.157  16.788 -1.1503  0.6368 -0.6901
  613MPD2     N 9142   0.134   4.533  16.526  0.3407  0.1764  0.2841
  613MPD2    H5 9143   0.039   4.532  16.560 -0.0972  0.6060 -0.9162
  613MPD2    N1 9144   0.520   0.095  16.487 -0.4415  0.3028 -0.3596
  613MPD2    H7 9145   0.570   0.171  16.532 -0.7828 -0.4656  1.3310
  614TMC3    C1 9146   0.627   0.138  16.274 -0.1823  0.2371 -1.0160
  614TMC3    C2 9147   0.636   0.068  16.156  0.2582  0.8810 -0.0597
  614TMC3    C3 9148   0.623   0.131  16.031  0.5554 -0.1889 -0.0386
  614TMC3    C4 9149   0.586   0.269  16.280 -0.2402  0.3307 -0.0383
  614TMC3    C5 9150   0.551   0.320  16.157  0.4765  0.6015  0.0361
  614TMC3    C6 9151   0.570   0.261  16.033 -0.2695 -0.2257 -0.5068
  614TMC3     C 9152   0.542   0.054  16.358 -0.6182 -0.5471 -0.4153
  614TMC3     O 9153   0.472   4.708  16.291  0.1125 -0.4334 -0.3514
  614TMC3     H 9154   0.678   4.705  16.159  2.4260  1.7231 -1.8642
  614TMC3    H1 9155   0.568   0.324  16.372 -2.5124 -0.2669 -0.1456
  614TMC3    H2 9156   0.529   0.309  15.945  0.9108 -1.0530 -1.5047
  614TMC3    C7 9157   0.463   0.435  16.165 -0.0365  0.0440  0.1258
  614TMC3    C8 9158   0.560   0.035  15.938  0.7649 -0.0905  0.0034
  614TMC3    O1 9159   0.484   0.517  16.256 -0.1689  0.2573  0.0488
  614TMC3    O2 9160   0.551   0.072  15.826  0.0564  0.0538 -0.0493
  615MPD2     C 9161   4.267   2.056  16.521 -0.0467  0.8250  0.0289
  615MPD2    C1 9162   4.195   2.147  16.446  0.1360 -0.0586  0.6325
  615MPD2    C2 9163   4.177   2.133  16.312  0.2926 -0.4443 -0.0349
  615MPD2    C3 9164   4.236   2.030  16.251 -0.8475  0.1346  0.4213
  615MPD2    C4 9165   4.307   1.935  16.321  0.4161 -1.1562  0.0752
  615MPD2    C5 9166   4.336   1.952  16.458 -0.2235 -0.1632  0.0575
  615MPD2     H 9167   4.128   2.217  16.264 -0.3374  0.6280  2.4889
  615MPD2    H1 9168   4.368   1.859  16.274  1.1641  0.4044 -1.5019
  615MPD2    H2 9169   4.276   2.068  16.628 -2.4028  2.2587  0.0745
  615MPD2    H3 9170   4.403   1.888  16.513 -1.5940 -0.2252  1.6346
  615MPD2     N 9171   4.222   2.023  16.108 -0.1390  0.0974 -0.5268
  615MPD2    H5 9172   4.182   2.108  16.069  0.1211  1.7222  2.7327
  615MPD2    N1 9173   4.128   2.254  16.505 -0.1796 -0.3864 -0.4642
  615MPD2    H7 9174   4.072   2.307  16.439 -1.7670 -0.6371  0.6820
  616TMC3    C1 9175   4.098   2.442  16.644  0.4082  0.0951  0.4418
  616TMC3    C2 9176   4.198   2.532  16.666  0.2011  0.3485  0.0830
  616TMC3    C3 9177   4.160   2.663  16.637 -0.3372 -0.2827 -0.0126
  616TMC3    C4 9178   3.976   2.466  16.589  0.5339  1.3186  0.2752
  616TMC3    C5 9179   3.951   2.598  16.562 -0.2031  0.0639  0.1976
  616TMC3    C6 9180   4.033   2.700  16.593 -0.1138 -0.3201  0.5657
  616TMC3     C 9181   4.155   2.309  16.627  0.3360  0.9092 -0.5300
  616TMC3     O 9182   4.235   2.280  16.716  0.4057 -0.2288 -0.0102
  616TMC3     H 9183   4.302   2.505  16.675 -0.3593 -2.0247 -0.3401
  616TMC3    H1 9184   3.903   2.386  16.590  3.1226 -1.0438  1.1614
  616TMC3    H2 9185   4.015   2.794  16.541  0.3761  0.1518  1.2547
  616TMC3    C7 9186   3.825   2.648  16.513  0.4217 -0.0605 -0.2353
  616TMC3    C8 9187   4.258   2.765  16.608  0.4074 -0.0892  0.1559
  616TMC3    O1 9188   3.797   2.761  16.548  0.0781 -0.0537  0.3087
  616TMC3    O2 9189   4.213   2.880  16.607  0.1947  1.0215  0.1558
  617MPD2     C 9190   2.615   4.648  13.525 -0.3456 -0.3341 -1.2325
  617MPD2    C1 9191   2.673   4.611  13.645 -0.6857  0.3671 -0.4288
  617MPD2    C2 9192   2.600   4.580  13.756 -0.2863  0.5994 -0.2502
  617MPD2    C3 9193   2.466   4.592  13.758 -0.3084  0.1026  0.1913
  617MPD2    C4 9194   2.406   4.605  13.632 -0.8772 -0.1396 -0.2059
  617MPD2    C5 9195   2.481   4.644  13.525  0.1826  0.3173  0.6026
  617MPD2     H 9196   2.648   4.551  13.848  1.0155 -1.2285 -1.4989
  617MPD2    H1 9197   2.300   4.613  13.610 -0.8759  1.3119  0.3370
  617MPD2    H2 9198   2.670   4.694  13.444  2.2085  0.7891  1.1381
  617MPD2    H3 9199   2.423   4.664  13.436 -1.0858  0.1784  1.3900
  617MPD2     N 9200   2.386   4.569  13.872 -0.0922 -0.0012  0.2437
  617MPD2    H5 9201   2.285   4.563  13.861 -0.2737  2.7322  0.5128
  617MPD2    N1 9202   2.818   4.616  13.648 -0.3190  0.6946 -0.4104
  617MPD2    H7 9203   2.877   4.605  13.566  0.6639  0.0231  0.3904
  618TMC3    C1 9204   3.002   4.555  13.753  0.1810  0.1254 -0.0551
  618TMC3    C2 9205   2.993   4.438  13.689 -0.3367 -0.0382  0.1871
  618TMC3    C3 9206   3.104   4.384  13.621  0.3167  0.0766  0.5831
  618TMC3    C4 9207   3.124   4.621  13.757  0.4176  0.0177 -0.0821
  618TMC3    C5 9208   3.224   4.568  13.677 -0.1826 -0.0763  0.0428
  618TMC3    C6 9209   3.225   4.454  13.605  0.7040  0.1673  0.1849
  618TMC3     C 9210   2.880   4.620  13.769 -0.3397  0.3486 -0.3161
  618TMC3     O 9211   2.850   4.652  13.884  0.2828  0.0213  0.0503
  618TMC3     H 9212   2.909   4.369  13.689  0.2940 -0.8191 -0.5480
  618TMC3    H1 9213   3.131   4.722  13.796 -0.5482  0.3945 -0.8651
  618TMC3    H2 9214   3.310   4.427  13.544  0.7271  3.9809 -1.4880
  618TMC3    C7 9215   3.350   4.646  13.674 -0.5580  0.8139  0.2929
  618TMC3    C8 9216   3.063   4.297  13.508  0.4381  0.7234 -0.3549
  618TMC3    O1 9217   3.385   4.699  13.777  0.2768 -0.2968  0.0730
  618TMC3    O2 9218   2.950   4.261  13.507 -0.2129 -0.0682 -0.5263
  619MPD2     C 9219   3.809   0.932  13.755 -0.9538 -0.5305  0.3379
  619MPD2    C1 9220   3.754   1.009  13.657 -0.6747  0.2439  0.0433
  619MPD2    C2 9221   3.611   1.019  13.645 -0.2640 -0.1605 -0.3515
  619MPD2    C3 9222   3.534   0.932  13.729  0.3012  0.6655  0.0019
  619MPD2    C4 9223   3.592   0.839  13.807 -0.1157  0.2108 -0.7876
  619MPD2    C5 9224   3.725   0.844  13.823  0.0491  0.4763 -0.1987
  619MPD2     H 9225   3.579   1.103  13.584 -2.0447 -2.2050 -2.1939
  619MPD2    H1 9226   3.528   0.779  13.870  1.5056 -0.7795 -0.0736
  619MPD2    H2 9227   3.915   0.933  13.777 -0.8001  1.2362 -0.4273
  619MPD2    H3 9228   3.780   0.774  13.885  1.5289  2.7342  0.9922
  619MPD2     N 9229   3.396   0.941  13.735 -0.0714  0.2665 -0.1985
  619MPD2    H5 9230   3.346   0.882  13.801  0.2477  0.3817  0.1486
  619MPD2    N1 9231   3.822   1.108  13.589 -0.1362 -0.7381 -0.1460
  619MPD2    H7 9232   3.772   1.167  13.523  1.3782  1.1944  0.4331
  620TMC3    C1 9233   4.024   1.237  13.518 -0.5642 -0.2179  0.2196
  620TMC3    C2 9234   3.985   1.222  13.385 -0.9729 -0.0954 -0.0705
  620TMC3    C3 9235   4.032   1.313  13.296 -0.8890 -0.3056 -0.1530
  620TMC3    C4 9236   4.098   1.338  13.573  0.2774  0.3882  0.5907
  620TMC3    C5 9237   4.135   1.430  13.480 -0.5637  0.0228  0.6124
  620TMC3    C6 9238   4.111   1.417  13.343  0.5912  0.2147  0.1995
  620TMC3     C 9239   3.958   1.146  13.612  0.0947  0.3635  0.1568
  620TMC3     O 9240   4.035   1.117  13.702 -0.1819  0.3386  0.1253
  620TMC3     H 9241   3.921   1.141  13.351 -0.7740 -0.1098 -0.4052
  620TMC3    H1 9242   4.114   1.343  13.680  2.4318  0.2175  0.2680
  620TMC3    H2 9243   4.137   1.495  13.272  1.8809 -0.2647  0.1375
  620TMC3    C7 9244   4.103   1.566  13.518 -0.0148  0.0273 -0.6060
  620TMC3    C8 9245   3.925   1.354  13.213 -0.6508 -0.6066  0.1296
  620TMC3    O1 9246   4.026   1.619  13.441 -0.1604  0.0506 -0.5903
  620TMC3    O2 9247   3.876   1.267  13.139 -0.0090 -0.5166  0.0910
  621MPD2     C 9248   4.658   1.492   9.809  0.7651 -0.3873 -0.8132
  621MPD2    C1 9249   4.703   1.498   9.940  0.0564 -0.3290  0.5774
  621MPD2    C2 9250   0.053   1.596   9.974 -0.0450  0.0037 -0.5051
  621MPD2    C3 9251   0.067   1.707   9.891 -0.2099 -0.0745 -0.2944
  621MPD2    C4 9252   4.731   1.716   9.775 -0.8739  0.5539 -0.1472
  621MPD2    C5 9253   4.666   1.606   9.728 -0.0395  0.1198 -0.2950
  621MPD2     H 9254   0.113   1.590  10.064 -1.6042  1.1127  0.6215
  621MPD2    H1 9255   0.002   1.800   9.707  0.2372  0.4858 -0.1217
  621MPD2    H2 9256   4.590   1.416   9.772  0.0581  0.6888 -1.7470
  621MPD2    H3 9257   4.611   1.604   9.635  0.3251 -1.1513 -0.4778
  621MPD2     N 9258   0.149   1.822   9.932 -0.0093  0.8295  0.3622
  621MPD2    H5 9259   0.212   1.809  10.010 -0.0661  0.1516  0.2938
  621MPD2    N1 9260   4.677   1.398  10.042  0.0353  0.4384  0.2562
  621MPD2    H7 9261   4.725   1.408  10.131  0.0699  0.4199  0.2395
  622TMC3    C1 9262   4.575   1.197  10.132  0.0181  0.3881  0.3688
  622TMC3    C2 9263   4.558   1.255  10.255  0.2147 -0.4168 -0.7614
  622TMC3    C3 9264   4.444   1.203  10.325  0.5546 -0.0119 -0.0803
  622TMC3    C4 9265   4.493   1.095  10.085 -0.2477 -0.1858 -0.7225
  622TMC3    C5 9266   4.385   1.049  10.166 -0.1589 -0.6084 -1.0372
  622TMC3    C6 9267   4.354   1.100  10.291  0.1877  0.1444 -0.4262
  622TMC3     C 9268   4.594   1.285  10.021  0.4331 -0.0353  0.1949
  622TMC3     O 9269   4.542   1.243   9.919  0.8112 -0.7229 -0.6018
  622TMC3     H 9270   4.621   1.328  10.305 -0.5007 -1.0293  1.0600
  622TMC3    H1 9271   4.525   1.043   9.996 -2.2252 -1.0931 -0.9241
  622TMC3    H2 9272   4.257   1.088  10.338  0.5472  1.3794  0.6023
  622TMC3    C7 9273   4.265   1.004  10.091 -0.0374  0.1858 -0.7243
  622TMC3    C8 9274   4.399   1.280  10.434  0.0224  0.7494  0.2436
  622TMC3    O1 9275   4.182   0.923  10.137  0.0750 -0.1189 -0.1487
  622TMC3    O2 9276   4.477   1.311  10.522  0.3038 -0.6040 -0.1565
  623MPD2     C 9277   2.699   2.222  15.829 -0.1129 -0.7454  0.7645
  623MPD2    C1 9278   2.646   2.117  15.891 -0.6168 -0.0787 -0.0068
  623MPD2    C2 9279   2.708   2.073  16.004  0.3840  0.7497 -0.4409
  623MPD2    C3 9280   2.821   2.127  16.048 -0.0836 -0.5820 -0.5409
  623MPD2    C4 9281   2.883   2.234  15.989  0.2548  0.0790  0.0560
  623MPD2    C5 9282   2.814   2.273  15.876  0.3605  0.4025 -0.2000
  623MPD2     H 9283   2.661   1.998  16.067 -1.7212  1.5196 -1.0956
  623MPD2    H1 9284   2.974   2.282  16.025  0.2261  0.6602 -0.6477
  623MPD2    H2 9285   2.656   2.258  15.736 -0.6991 -0.2605  1.2273
  623MPD2    H3 9286   2.856   2.349  15.811 -1.5957  0.4429 -1.4458
  623MPD2     N 9287   2.867   2.066  16.168  1.3076  0.1810  0.0641
  623MPD2    H5 9288   2.833   1.976  16.202 -2.3108  0.5419 -2.5397
  623MPD2    N1 9289   2.515   2.065  15.851  0.1869  0.0200  0.3623
  623MPD2    H7 9290   2.458   2.124  15.790 -0.3660 -1.5608 -0.6309
  624TMC3    C1 9291   3.062   2.059  16.593  1.1038  0.1894 -0.4056
  624TMC3    C2 9292   2.952   1.991  16.637  0.3831 -0.3260  0.0359
  624TMC3    C3 9293   2.849   1.978  16.552  0.7297 -0.3088  0.5784
  624TMC3    C4 9294   3.067   2.113  16.462  0.4904  0.6929 -0.0131
  624TMC3    C5 9295   2.961   2.087  16.384  0.0452 -0.5966 -0.3527
  624TMC3    C6 9296   2.844   2.035  16.427 -0.6410  0.8499  0.3774
  624TMC3     C 9297   3.178   2.076  16.689  0.1401  0.3887  0.6797
  624TMC3     O 9298   3.186   2.004  16.786  0.5945  0.5591 -0.2007
  624TMC3     H 9299   2.951   1.950  16.737 -2.1395 -1.5987 -0.5124
  624TMC3    H1 9300   3.165   2.140  16.423  1.0913  0.4711  1.3364
  624TMC3    H2 9301   2.748   2.046  16.378 -0.9193 -3.2349  0.0141
  624TMC3    C7 9302   2.972   2.120  16.240 -0.8420  0.1786  0.5279
  624TMC3    C8 9303   2.721   1.926  16.598 -0.7265  0.4561  0.3893
  624TMC3    O1 9304   3.075   2.179  16.198  0.2889  0.9316  0.1521
  624TMC3    O2 9305   2.617   1.969  16.553  0.3005  0.1311 -0.5697
  625MPD2     C 9306   3.911   3.323   0.427  0.4078 -0.6002  0.9454
  625MPD2    C1 9307   3.945   3.449   0.463  0.7023  0.0972  0.1471
  625MPD2    C2 9308   4.053   3.470   0.536 -0.4573 -0.0356  0.2358
  625MPD2    C3 9309   4.141   3.370   0.566  0.0969  0.3345  0.2665
  625MPD2    C4 9310   4.111   3.243   0.533  0.1899  0.0509  0.2400
  625MPD2    C5 9311   3.987   3.218   0.474 -0.5859 -0.4516  0.0933
  625MPD2     H 9312   4.075   3.567   0.578  2.8130 -0.4456 -0.5732
  625MPD2    H1 9313   4.176   3.160   0.558 -1.5674 -1.8848 -1.5969
  625MPD2    H2 9314   3.825   3.293   0.368  0.0621 -1.5641  1.9277
  625MPD2    H3 9315   3.956   3.117   0.450 -0.6677  0.0850 -2.0551
  625MPD2     N 9316   4.259   3.408   0.633  0.0530 -0.7004  0.3768
  625MPD2    H5 9317   4.281   3.505   0.651 -1.8256 -0.1283 -0.4082
  625MPD2    N1 9318   3.866   3.561   0.427 -0.3987  0.2243  0.0984
  625MPD2    H7 9319   3.900   3.654   0.448  2.3616 -0.7745  0.0403
  626TMC3    C1 9320   3.677   3.699   0.375  0.1120 -0.8862  0.5337
  626TMC3    C2 9321   3.572   3.711   0.293 -0.0347 -0.5262 -0.3061
  626TMC3    C3 9322   3.477   3.808   0.319 -0.3353  0.2046 -0.4684
  626TMC3    C4 9323   3.702   3.773   0.482 -0.6882 -0.3035  0.7484
  626TMC3    C5 9324   3.611   3.877   0.505 -1.3496 -0.3362 -0.0404
  626TMC3    C6 9325   3.495   3.884   0.435  0.0269 -0.4517 -0.2512
  626TMC3     C 9326   3.737   3.563   0.379 -0.1279  0.5150 -0.8874
  626TMC3     O 9327   3.662   3.467   0.351 -0.4892  0.6399  0.0238
  626TMC3     H 9328   3.567   3.648   0.205  0.7615 -0.7913 -0.1648
  626TMC3    H1 9329   3.797   3.785   0.532  0.9471  0.3488 -2.5206
  626TMC3    H2 9330   3.424   3.963   0.455 -0.6795 -1.2364  0.3471
  626TMC3    C7 9331   3.626   3.955   0.628  0.1638  0.3908  0.0230
  626TMC3    C8 9332   3.359   3.825   0.233 -0.6261 -0.4364  0.0965
  626TMC3    O1 9333   3.738   4.001   0.657  0.4921  0.5760 -0.0038
  626TMC3    O2 9334   3.378   3.795   0.116 -0.4244  0.2586 -0.4171
  627MPD2     C 9335   2.538   3.333  14.370 -0.4387 -0.2028  0.6447
  627MPD2    C1 9336   2.473   3.361  14.489 -0.1478  0.2993 -0.4445
  627MPD2    C2 9337   2.342   3.322  14.498  0.4172  0.1282  0.0879
  627MPD2    C3 9338   2.274   3.264  14.392  0.1964 -0.1894 -0.0272
  627MPD2    C4 9339   2.341   3.232  14.279 -1.0907 -0.2924  0.0301
  627MPD2    C5 9340   2.471   3.259  14.274  0.9457  0.3675 -0.2495
  627MPD2     H 9341   2.286   3.346  14.588 -1.3994  1.7935 -1.4690
  627MPD2    H1 9342   2.307   3.170  14.197  1.9677 -2.1620  0.1848
  627MPD2    H2 9343   2.644   3.352  14.361 -0.7061  0.0684 -2.0527
  627MPD2    H3 9344   2.529   3.232  14.186  0.4950 -1.1850 -0.0767
  627MPD2     N 9345   2.136   3.228  14.413 -0.2698 -0.3866 -0.0850
  627MPD2    H5 9346   2.100   3.243  14.507  1.6979 -0.1032  0.6306
  627MPD2    N1 9347   2.524   3.437  14.597  0.7546 -0.2690 -0.7755
  627MPD2    H7 9348   2.466   3.459  14.677  0.6005 -1.5909 -0.5221
  628TMC3    C1 9349   2.682   3.519  14.742 -0.0176  0.3151 -0.1628
  628TMC3    C2 9350   2.743   3.459  14.846 -0.1343 -0.1656 -0.1722
  628TMC3    C3 9351   2.785   3.535  14.955 -0.8804  0.2481 -0.4036
  628TMC3    C4 9352   2.651   3.650  14.742 -0.4003  0.5615 -0.6199
  628TMC3    C5 9353   2.677   3.720  14.860 -1.3585 -0.2250 -0.7973
  628TMC3    C6 9354   2.754   3.667  14.965 -0.0734 -0.4360  1.0830
  628TMC3     C 9355   2.657   3.443  14.627 -0.5539 -0.1929 -0.0109
  628TMC3     O 9356   2.749   3.372  14.587 -0.0155 -0.2796 -0.4966
  628TMC3     H 9357   2.762   3.352  14.843 -0.5664 -0.3035  1.6205
  628TMC3    H1 9358   2.594   3.693  14.660 -0.7334 -1.2092 -1.3208
  628TMC3    H2 9359   2.765   3.728  15.054  0.1285  1.6094 -0.3499
  628TMC3    C7 9360   2.624   3.854  14.884 -0.0101  0.7181  0.1326
  628TMC3    C8 9361   2.861   3.471  15.065  1.1124  0.0315 -0.1066
  628TMC3    O1 9362   2.661   3.908  14.990 -0.6352  0.1505 -0.0519
  628TMC3    O2 9363   2.845   3.515  15.178 -0.7723 -0.4188  0.0677
  629MPD2     C 9364   4.728   2.959  16.485 -0.6194 -0.3093  0.1640
  629MPD2    C1 9365   4.731   2.821  16.468 -0.4763  0.3157 -0.1674
  629MPD2    C2 9366   4.608   2.760  16.488 -0.2629  0.7826  0.1416
  629MPD2    C3 9367   4.493   2.815  16.530 -0.3512  0.3573 -0.0575
  629MPD2    C4 9368   4.497   2.950  16.563 -0.5566  0.2908  0.2365
  629MPD2    C5 9369   4.616   3.018  16.545  0.0475  0.2533  0.1058
  629MPD2     H 9370   4.608   2.653  16.469  2.0763  0.5148  1.5348
  629MPD2    H1 9371   4.416   3.011  16.601  0.9367  1.2432  1.8850
  629MPD2    H2 9372   0.080   3.021  16.474  0.2783 -1.2497  2.0762
  629MPD2    H3 9373   4.620   3.122  16.575  3.3344 -0.2298  1.2454
  629MPD2     N 9374   4.386   2.722  16.573 -0.3864  0.5154  0.5732
  629MPD2    H5 9375   4.397   2.622  16.560 -0.7037  0.6018 -0.3341
  629MPD2    N1 9376   0.113   2.754  16.444 -1.0058 -0.0361 -0.1959
  629MPD2    H7 9377   0.190   2.820  16.436 -0.8112 -0.1420  0.7914
  630TMC3    C1 9378   0.272   2.580  16.400  0.8043  0.0826  0.1396
  630TMC3    C2 9379   0.353   2.680  16.344 -0.1662  0.3733 -0.1740
  630TMC3    C3 9380   0.480   2.635  16.307 -0.1751  0.6798 -0.5249
  630TMC3    C4 9381   0.311   2.447  16.417  0.3582 -0.1787 -0.1674
  630TMC3    C5 9382   0.440   2.415  16.387 -0.8316  0.7354  0.3516
  630TMC3    C6 9383   0.528   2.511  16.342  0.9240 -1.1157  0.1657
  630TMC3     C 9384   0.131   2.619  16.441  0.0692 -0.2716 -0.0323
  630TMC3     O 9385   0.045   2.534  16.443  0.4963 -0.3893  0.0907
  630TMC3     H 9386   0.337   2.787  16.348 -0.4416  0.3700 -1.1241
  630TMC3    H1 9387   0.245   2.368  16.452 -0.9398  0.2685 -1.6002
  630TMC3    H2 9388   0.635   2.494  16.334  1.4326  2.4787 -0.8646
  630TMC3    C7 9389   0.496   2.301  16.446 -0.0427  0.1912  0.2759
  630TMC3    C8 9390   0.571   2.735  16.260 -0.1314  0.3872 -0.0665
  630TMC3    O1 9391   0.457   2.262  16.551  0.1739 -0.2888  0.4501
  630TMC3    O2 9392   0.683   2.726  16.309  0.4258  0.0195 -0.5283
  631MPD2     C 9393   3.555   1.934  15.549  0.5562 -0.2428  0.3467
  631MPD2    C1 9394   3.633   2.019  15.468 -0.0284  0.2307  0.6451
  631MPD2    C2 9395   3.768   1.995  15.472 -0.0795 -0.4285  0.1553
  631MPD2    C3 9396   3.828   1.896  15.549 -0.5740  0.4819 -0.6240
  631MPD2    C4 9397   3.747   1.819  15.629 -0.0776  0.6056 -0.8740
  631MPD2    C5 9398   3.615   1.842  15.623  0.2178  0.3732 -0.2460
  631MPD2     H 9399   3.834   2.055  15.410  0.9496 -0.7799  0.9155
  631MPD2    H1 9400   3.781   1.747  15.702  0.0069  2.6289  1.0856
  631MPD2    H2 9401   3.450   1.959  15.552  0.7283  0.9793 -3.3471
  631MPD2    H3 9402   3.553   1.785  15.691 -1.3459  1.9693 -0.3207
  631MPD2     N 9403   3.967   1.895  15.558  0.3797 -0.2142 -0.4978
  631MPD2    H5 9404   4.009   1.949  15.483 -0.4451 -1.3613 -1.7845
  631MPD2    N1 9405   3.574   2.137  15.403  0.0991  1.0112 -0.4237
  631MPD2    H7 9406   3.476   2.153  15.421 -0.6820 -1.2035 -2.7412
  632TMC3    C1 9407   3.561   2.331  15.271 -0.0549  0.3027  0.3302
  632TMC3    C2 9408   3.470   2.381  15.361 -0.5913  0.4066  0.2999
  632TMC3    C3 9409   3.428   2.515  15.354 -0.2098  0.1932  0.2676
  632TMC3    C4 9410   3.617   2.416  15.182 -0.5278  0.0638  0.1497
  632TMC3    C5 9411   3.587   2.547  15.190  0.4403  0.3107 -0.1679
  632TMC3    C6 9412   3.491   2.602  15.270 -0.6921 -0.3287  0.4652
  632TMC3     C 9413   3.637   2.215  15.309 -0.3435 -0.5569 -0.6194
  632TMC3     O 9414   3.747   2.197  15.251 -0.6645  0.3948  0.3753
  632TMC3     H 9415   3.412   2.315  15.425 -0.8668 -0.9270 -1.3282
  632TMC3    H1 9416   3.691   2.386  15.109  1.1188  1.0653  1.3745
  632TMC3    H2 9417   3.459   2.705  15.259 -2.2746 -0.9662 -0.8512
  632TMC3    C7 9418   3.665   2.624  15.092 -1.0815 -0.2973  0.7146
  632TMC3    C8 9419   3.291   2.549  15.393 -0.3179  0.4333 -0.3419
  632TMC3    O1 9420   3.698   2.576  14.984 -0.0214  0.2221  0.6930
  632TMC3    O2 9421   3.253   2.511  15.499 -0.3339 -0.5049 -0.4727
  633MPD2     C 9422   3.314   0.444  17.440 -0.0465 -0.4267  0.4518
  633MPD2    C1 9423   3.255   0.353  17.353  0.0340 -0.0407  0.0247
  633MPD2    C2 9424   3.235   0.224  17.405 -0.3199 -0.0709 -0.5837
  633MPD2    C3 9425   3.296   0.180  17.524  0.4447 -0.2140 -0.2053
  633MPD2    C4 9426   3.372   0.271  17.596 -0.8917  0.6844  0.0006
  633MPD2    C5 9427   3.381   0.403  17.557  0.7017  0.1855 -0.4694
  633MPD2     H 9428   3.185   0.146  17.348  0.0754  0.4796 -1.6779
  633MPD2    H1 9429   3.436   0.244  17.679  0.1347  0.5086 -0.8467
  633MPD2    H2 9430   3.330   0.551  17.425  1.4253 -0.8436 -0.9126
  633MPD2    H3 9431   3.441   0.469  17.618  1.5265 -2.0811  1.1555
  633MPD2     N 9432   3.303   0.050  17.569 -0.2533 -0.5108 -0.4852
  633MPD2    H5 9433   3.371   0.038  17.644 -0.7889 -1.8447 -0.2167
  633MPD2    N1 9434   3.204   0.398  17.228  0.0680  0.0307 -0.0644
  633MPD2    H7 9435   3.168   0.329  17.163  0.7240 -1.0055  0.6623
  634TMC3    C1 9436   3.168   0.551  17.056 -0.1177  0.3812 -0.6538
  634TMC3    C2 9437   3.226   0.460  16.969  0.6545 -0.6035  0.0910
  634TMC3    C3 9438   3.194   0.484  16.838 -0.4530  0.5086 -0.0119
  634TMC3    C4 9439   3.088   0.655  17.023  0.2484 -0.1794 -0.2849
  634TMC3    C5 9440   3.063   0.671  16.889 -0.8352 -0.3271  0.4412
  634TMC3    C6 9441   3.117   0.587  16.796 -0.7089 -0.8145  0.4651
  634TMC3     C 9442   3.189   0.534  17.198  0.4295  0.5051 -0.5029
  634TMC3     O 9443   3.182   0.635  17.270  0.5967 -0.1152 -0.3594
  634TMC3     H 9444   3.301   0.391  17.006  1.8630  1.3607  1.2618
  634TMC3    H1 9445   3.065   0.729  17.099  0.6001 -1.6483  1.2543
  634TMC3    H2 9446   3.073   0.598  16.697  1.3106  0.8108 -0.2784
  634TMC3    C7 9447   2.949   0.752  16.847 -0.8279 -0.7776 -0.7172
  634TMC3    C8 9448   3.205   0.372  16.753 -0.1261  0.2667 -0.6155
  634TMC3    O1 9449   2.927   0.763  16.725 -0.3656  0.1690  0.1095
  634TMC3    O2 9450   3.216   0.259  16.803 -0.2846  0.3477 -0.2591
  635TMC3    C1 9451   4.300   3.665   1.431 -0.2837  0.0746  0.2383
  635TMC3    C2 9452   4.177   3.718   1.457  0.0538 -0.2443 -0.5714
  635TMC3    C3 9453   4.167   3.793   1.571 -0.4717  0.7254  0.2560
  635TMC3    C4 9454   4.401   3.669   1.521 -0.2823  0.4023 -0.0323
  635TMC3    C5 9455   4.385   3.739   1.640 -0.2767  0.6546 -0.1792
  635TMC3    C6 9456   4.268   3.804   1.664 -0.3562  0.2840  0.3759
  635TMC3     C 9457   4.298   3.565   1.323  0.0509 -0.0263  0.4837
  635TMC3     O 9458   4.186   3.534   1.281 -0.2863  0.0906 -0.2205
  635TMC3     H 9459   4.095   3.706   1.387 -1.7596  1.3883  1.2419
  635TMC3    H1 9460   4.498   3.624   1.508 -1.6351 -2.6398  0.5195
  635TMC3    H2 9461   4.255   3.861   1.755  1.4666 -1.0678  1.4964
  635TMC3    C7 9462   4.492   3.730   1.738  0.4813  0.1830 -0.0071
  635TMC3    C8 9463   4.032   3.798   1.621  0.1725 -0.5902  0.6401
  635TMC3    O1 9464   4.589   3.659   1.711  0.7069  0.1494  0.4610
  635TMC3    O2 9465   3.945   3.741   1.556  0.3712  0.0033 -0.0459
  636MPD2     C 9466   4.376   0.212  15.983 -0.3156 -0.4661 -0.7611
  636MPD2    C1 9467   4.457   0.238  16.095 -0.6031 -0.4482  0.9499
  636MPD2    C2 9468   4.519   0.127  16.155  0.1395  0.3425  0.8079
  636MPD2    C3 9469   4.496   4.733  16.108 -0.0159 -0.4442 -0.0215
  636MPD2    C4 9470   4.409   4.713  16.004  0.0170 -0.0339 -0.2095
  636MPD2    C5 9471   4.353   0.085  15.941 -0.0431 -0.0532 -0.5831
  636MPD2     H 9472   4.594   0.134  16.232  2.3816 -2.3936 -1.0872
  636MPD2    H1 9473   4.376   4.616  15.969  0.4907 -0.1156 -0.4288
  636MPD2    H2 9474   4.340   0.293  15.920  1.2643  1.4144  0.7601
  636MPD2    H3 9475   4.283   0.067  15.860  2.1152  0.8939 -2.6733
  636MPD2     N 9476   4.568   4.625  16.169 -0.0651 -0.2787  0.4071
  636MPD2    H5 9477   4.634   4.654  16.241  1.3644 -2.2974 -0.0645
  636MPD2    N1 9478   4.494   0.367  16.132  0.2170 -0.0010  0.6415
  636MPD2    H7 9479   4.554   0.382  16.212 -0.8544 -1.7142  1.7725
  637TMC3    C1 9480   4.630   4.399  16.206  0.9653  0.0679 -0.3504
  637TMC3    C2 9481   4.684   4.441  16.327 -0.5978  0.0956 -0.4093
  637TMC3    C3 9482   0.056   4.364  16.378 -0.2864  0.0306  0.3479
  637TMC3    C4 9483   4.668   4.285  16.135  0.2994  0.3606 -0.2936
  637TMC3    C5 9484   0.046   4.228  16.178 -0.1081  0.3285 -0.1092
  637TMC3    C6 9485   0.100   4.259  16.299  0.5697 -0.3974 -0.4911
  637TMC3     C 9486   4.547   4.492  16.136  0.9219  0.0449  0.5242
  637TMC3     O 9487   4.462   4.433  16.068  0.1005  0.0729  0.2517
  637TMC3     H 9488   4.652   4.538  16.365  4.2679  0.2242  3.4138
  637TMC3    H1 9489   4.620   4.265  16.040  1.5230  2.6636 -1.3889
  637TMC3    H2 9490   0.183   4.200  16.337  0.3762  2.0884  3.8490
  637TMC3    C7 9491   0.144   4.211  16.071 -0.1196  0.3006  0.0371
  637TMC3    C8 9492   0.166   4.448  16.422 -0.6418  0.1579 -0.4641
  637TMC3    O1 9493   0.109   4.168  15.961 -0.1816 -0.0958  0.3976
  637TMC3    O2 9494   0.257   4.456  16.338  0.0631 -0.8510 -0.4377
  638MPD2     C 9495   4.166   4.675  14.628  0.2037 -0.2233 -0.0413
  638MPD2    C1 9496   4.261   4.579  14.653 -0.7022 -0.3687 -0.8350
  638MPD2    C2 9497   4.227   4.471  14.735  0.1140 -0.3658  0.0655
  638MPD2    C3 9498   4.096   4.450  14.772 -0.0200 -0.6050 -0.3222
  638MPD2    C4 9499   3.998   4.551  14.746  0.4112  0.2164  0.5810
  638MPD2    C5 9500   4.038   4.654  14.668 -0.4920  0.4611 -0.5307
  638MPD2     H 9501   4.300   4.398  14.769 -0.1417 -0.7787 -0.2757
  638MPD2    H1 9502   3.896   4.535  14.779  0.1444  0.0038 -0.3440
  638MPD2    H2 9503   4.191   0.023  14.564 -0.4273 -0.0935 -0.1118
  638MPD2    H3 9504   3.971   4.735  14.642  0.2893  1.9549  2.0990
  638MPD2     N 9505   4.063   4.329  14.854 -0.2715  0.3805 -0.1354
  638MPD2    H5 9506   4.138   4.270  14.889  0.2330  0.8809 -0.3599
  638MPD2    N1 9507   4.386   4.599  14.589 -0.0961  0.1868 -0.1775
  638MPD2    H7 9508   4.399   4.679  14.528  0.3128  0.0624 -0.2488
  639TMC3    C1 9509   3.938   4.179  14.957  0.6242 -0.2027 -0.0613
  639TMC3    C2 9510   3.892   4.062  14.914  0.4094  0.4878  0.8191
  639TMC3    C3 9511   3.903   3.955  14.988  0.1375  0.1964  0.8150
  639TMC3    C4 9512   4.013   4.185  15.066 -0.7934  0.5744  0.2620
  639TMC3    C5 9513   4.009   4.078  15.154  0.3937  0.5635  0.1868
  639TMC3    C6 9514   3.963   3.961  15.107 -0.2524 -0.9067  0.2153
  639TMC3     C 9515   3.935   4.290  14.872 -0.8071 -0.4509  0.1345
  639TMC3     O 9516   3.830   4.319  14.821 -0.6625 -0.1357  0.8952
  639TMC3     H 9517   3.868   4.053  14.808  0.0833  0.2569  0.9118
  639TMC3    H1 9518   4.033   4.283  15.108 -1.5593  1.0859 -0.5733
  639TMC3    H2 9519   3.963   3.875  15.173  2.5214 -1.0925 -0.0091
  639TMC3    C7 9520   4.099   4.081  15.269  0.4419 -0.1694 -0.2310
  639TMC3    C8 9521   3.893   3.823  14.922 -0.4643  0.3845  1.3401
  639TMC3    O1 9522   4.052   4.015  15.362 -0.0172 -0.1213  0.0691
  639TMC3    O2 9523   3.977   3.739  14.953  0.5197 -0.2349  0.4875
  640MPD2     C 9524   1.052   3.797   9.984 -1.0397 -0.6357 -0.3696
  640MPD2    C1 9525   0.956   3.832   9.898 -0.1829  0.2718 -0.2388
  640MPD2    C2 9526   0.834   3.860   9.952 -0.0500  0.0152  0.2243
  640MPD2    C3 9527   0.814   3.860  10.091 -0.1440  0.3898 -0.2371
  640MPD2    C4 9528   0.920   3.839  10.173  0.2568  0.5441 -0.6138
  640MPD2    C5 9529   1.038   3.808  10.119 -0.3700 -0.2376 -0.8624
  640MPD2     H 9530   0.754   3.856   9.879  1.8323 -0.7705 -1.7569
  640MPD2    H1 9531   0.905   3.820  10.279  3.9369 -0.1755 -0.2187
  640MPD2    H2 9532   1.149   3.760   9.952 -0.6571  1.3874 -1.6032
  640MPD2    H3 9533   1.121   3.781  10.184 -1.5823  1.2085  1.3157
  640MPD2     N 9534   0.688   3.850  10.155  0.2239 -0.3932  0.3093
  640MPD2    H5 9535   0.688   3.858  10.256  0.6238  2.9356  0.0470
  640MPD2    N1 9536   0.977   3.812   9.759 -0.0022 -0.3733  0.6656
  640MPD2    H7 9537   1.047   3.745   9.730 -1.3818 -0.8691 -1.4766
  641TMC3    C1 9538   0.916   3.823   9.547  0.9145 -0.2377  1.0997
  641TMC3    C2 9539   0.917   3.682   9.538 -0.1367 -0.6360 -0.2997
  641TMC3    C3 9540   0.902   3.630   9.410 -0.5089 -0.2928  0.6461
  641TMC3    C4 9541   0.902   3.905   9.441  0.0042  0.3763  0.2310
  641TMC3    C5 9542   0.899   3.845   9.312 -0.0630  0.1279 -0.4458
  641TMC3    C6 9543   0.893   3.710   9.301  0.2806  0.0477  0.0415
  641TMC3     C 9544   0.889   3.866   9.671 -0.2673 -0.3582 -0.1064
  641TMC3     O 9545   0.812   3.964   9.678  0.3417  0.0266  0.0493
  641TMC3     H 9546   0.911   3.623   9.628  1.4885 -0.4992 -0.1068
  641TMC3    H1 9547   0.891   4.011   9.461 -0.3697  0.3861 -0.0384
  641TMC3    H2 9548   0.882   3.667   9.202 -0.3564 -1.0535  0.5866
  641TMC3    C7 9549   0.879   3.916   9.188 -0.4119  0.5084  1.0638
  641TMC3    C8 9550   0.888   3.493   9.386  0.2658 -0.0742 -0.0445
  641TMC3    O1 9551   0.839   3.853   9.092  0.3467  0.2802  0.5788
  641TMC3    O2 9552   0.813   3.440   9.302  0.1362  0.0272  0.0831
  642TMC3    C1 9553   1.258   3.773  12.844  0.1691  0.3169  0.1740
  642TMC3    C2 9554   1.394   3.787  12.801 -0.1469 -0.1091 -0.6706
  642TMC3    C3 9555   1.447   3.689  12.725  0.6058  0.5371  0.5828
  642TMC3    C4 9556   1.177   3.673  12.810  0.2847 -0.1494 -0.4469
  642TMC3    C5 9557   1.240   3.571  12.738 -0.0156  0.0824  0.0114
  642TMC3    C6 9558   1.379   3.573  12.704  0.6676 -0.0615  0.0368
  642TMC3     C 9559   1.195   3.901  12.879  0.2235 -0.0400  0.2496
  642TMC3     O 9560   1.260   3.984  12.939 -0.0494  0.1684  0.1298
  642TMC3     H 9561   1.445   3.879  12.827 -1.4928  0.4131  0.1160
  642TMC3    H1 9562   1.073   3.680  12.842  0.7427 -0.7318  1.1324
  642TMC3    H2 9563   1.427   3.490  12.652 -0.3519 -0.1399 -0.7767
  642TMC3    C7 9564   1.169   3.452  12.687  0.4882  0.2850 -0.2934
  642TMC3    C8 9565   1.584   3.692  12.665  1.0759 -0.0969  0.1897
  642TMC3    O1 9566   1.214   3.385  12.595 -0.3757 -0.5664 -0.1762
  642TMC3    O2 9567   1.621   3.595  12.598  0.3056 -0.1830 -0.0821
  643TMC3    C1 9568   0.645   2.960   0.115 -0.2318  0.2890  0.1268
  643TMC3    C2 9569   0.526   2.898   0.116  0.2546 -0.6492 -0.0676
  643TMC3    C3 9570   0.506   2.803   0.018  0.4950 -0.0101  0.0867
  643TMC3    C4 9571   0.743   2.932   0.014 -0.0494 -0.2289  0.3705
  643TMC3    C5 9572   0.721   2.835  17.670  1.0107 -0.2224  0.4480
  643TMC3    C6 9573   0.609   2.760  17.684  0.2062  0.4688 -0.3231
  643TMC3     C 9574   0.653   3.070   0.209 -0.1813 -0.1207  0.4210
  643TMC3     O 9575   0.544   3.113   0.249 -0.3818  0.2044  0.1501
  643TMC3     H 9576   0.448   2.919   0.189  1.8091  0.5675  1.2303
  643TMC3    H1 9577   0.832   2.991   0.000 -1.1176  0.9034 -1.6194
  643TMC3    H2 9578   0.578   2.685  17.613 -0.9640  1.1871 -0.5618
  643TMC3    C7 9579   0.711   2.898  17.538 -1.2113 -0.7348  0.3342
  643TMC3    C8 9580   0.394   2.828  17.670  0.5761 -0.0012  0.1303
  643TMC3    O1 9581   0.712   3.021  17.556 -0.1493  0.3666 -0.4801
  643TMC3    O2 9582   0.373   2.743  17.584 -0.2906  0.7158  0.5384
  644MPD2     C 9583   1.543   3.825   9.605 -0.3947 -0.7349  0.2098
  644MPD2    C1 9584   1.421   3.791   9.548 -0.2293 -0.4006 -0.2583
  644MPD2    C2 9585   1.305   3.864   9.567  1.0303  0.4249  0.0548
  644MPD2    C3 9586   1.305   3.977   9.643 -0.1435  0.0642 -0.8506
  644MPD2    C4 9587   1.425   4.017   9.697 -0.2420  0.5150  0.2961
  644MPD2    C5 9588   1.539   3.939   9.688  0.1355 -0.1339  0.0081
  644MPD2     H 9589   1.210   3.818   9.543  0.2035  1.1984  1.8018
  644MPD2    H1 9590   1.431   4.102   9.764  0.3576  1.1541 -0.5738
  644MPD2    H2 9591   1.633   3.766   9.593  0.4990  0.3220  1.6823
  644MPD2    H3 9592   1.628   3.980   9.734 -0.2561  0.2257  0.4576
  644MPD2     N 9593   1.189   4.051   9.663  0.5098  0.5382 -0.4390
  644MPD2    H5 9594   1.106   4.034   9.606  1.1268 -0.5490 -1.0065
  644MPD2    N1 9595   1.410   3.674   9.470  0.3373  0.2267  0.5625
  644MPD2    H7 9596   1.497   3.627   9.446 -1.2313 -1.8158 -1.1422
  645TMC3    C1 9597   1.030   4.198   9.768  0.7446  0.2453  0.3261
  645TMC3    C2 9598   0.949   4.198   9.876  0.2154 -0.3177 -0.7390
  645TMC3    C3 9599   0.823   4.237   9.858 -0.1058 -0.2213 -0.1571
  645TMC3    C4 9600   0.985   4.235   9.649 -1.1838 -0.1621  1.3141
  645TMC3    C5 9601   0.854   4.275   9.632  0.3964  0.4763  0.2030
  645TMC3    C6 9602   0.769   4.270   9.737 -0.0911 -0.4293  0.0458
  645TMC3     C 9603   1.159   4.124   9.782  0.3661  0.1367  0.1455
  645TMC3     O 9604   1.226   4.136   9.885 -0.2009  0.1858 -0.6045
  645TMC3     H 9605   0.986   4.157   9.970  2.3777  1.6156 -0.7305
  645TMC3    H1 9606   1.047   4.240   9.561 -1.3220 -2.8113  1.0598
  645TMC3    H2 9607   0.667   4.306   9.729  0.6854  1.1601 -3.0146
  645TMC3    C7 9608   0.821   4.371   9.528 -0.5502 -0.1884 -0.2228
  645TMC3    C8 9609   0.741   4.241   9.976  0.4858  0.5403  0.1156
  645TMC3    O1 9610   0.702   4.396   9.510  0.0301  0.7695 -0.1893
  645TMC3    O2 9611   0.794   4.260  10.086  0.6216 -0.2016 -0.5163
  646MPD2     C 9612   4.602   3.075  15.014  0.4383  0.0335  0.2449
  646MPD2    C1 9613   4.506   2.995  14.954  0.0105 -0.5811 -0.5403
  646MPD2    C2 9614   4.431   3.039  14.854  0.6414 -0.4763  0.1012
  646MPD2    C3 9615   4.442   3.167  14.808 -0.2841 -0.0656 -0.4248
  646MPD2    C4 9616   4.541   3.248  14.868 -0.1294 -0.4240  0.3665
  646MPD2    C5 9617   4.619   3.205  14.975  0.0450  0.4374  0.2366
  646MPD2     H 9618   4.363   2.972  14.802 -0.7513  1.7375 -0.9243
  646MPD2    H1 9619   4.540   3.354  14.841  2.1338 -1.9621 -5.9270
  646MPD2    H2 9620   4.668   3.036  15.091  0.3908 -1.0056 -0.2390
  646MPD2    H3 9621   4.694   3.271  15.016  0.2300 -1.0627  2.2828
  646MPD2     N 9622   4.372   3.211  14.694  0.0428 -0.8464  0.1723
  646MPD2    H5 9623   4.290   3.159  14.664  0.2921 -1.0882 -0.0934
  646MPD2    N1 9624   4.507   2.861  14.993  0.2529  0.5867 -0.6451
  646MPD2    H7 9625   4.575   2.825  15.060  0.0094  1.4576  0.0719
  647TMC3    C1 9626   4.475   2.633  14.955  0.7783 -0.8213  0.4162
  647TMC3    C2 9627   4.396   2.522  14.988 -0.2851 -0.1737  0.2281
  647TMC3    C3 9628   4.464   2.410  15.022 -0.1844 -0.2139 -0.1103
  647TMC3    C4 9629   4.611   2.626  14.954 -0.7130  0.3948  0.2160
  647TMC3    C5 9630   4.669   2.505  14.985 -0.3250  0.2479 -0.7655
  647TMC3    C6 9631   4.602   2.391  15.009  0.1497 -0.6028 -0.1880
  647TMC3     C 9632   4.414   2.763  14.953  0.3295 -0.3047 -0.5933
  647TMC3     O 9633   4.309   2.770  14.890  0.4935 -0.2358  0.0821
  647TMC3     H 9634   4.291   2.541  15.008 -0.9372 -2.9205 -0.6307
  647TMC3    H1 9635   4.661   2.703  14.896  0.5010  1.3602  2.5435
  647TMC3    H2 9636   4.655   2.297  15.018 -0.0368 -0.7781 -0.8475
  647TMC3    C7 9637   0.079   2.507  14.966  0.3664 -0.3216  0.0084
  647TMC3    C8 9638   4.388   2.289  15.070  0.0296  0.6105 -0.5118
  647TMC3    O1 9639   0.134   2.602  14.907  0.2190  0.0543 -0.3262
  647TMC3    O2 9640   4.457   2.209  15.133  0.3794  0.8042  0.5444
  648TMC3    C1 9641   3.243   0.497  15.906  0.4018  0.0732 -0.1187
  648TMC3    C2 9642   3.273   0.369  15.892 -0.4652 -0.1964  0.6669
  648TMC3    C3 9643   3.172   0.276  15.878 -0.0228  0.0728  0.1171
  648TMC3    C4 9644   3.115   0.545  15.892 -0.0315 -0.3094  0.1019
  648TMC3    C5 9645   3.017   0.454  15.869 -0.6994  0.2956 -0.0666
  648TMC3    C6 9646   3.041   0.322  15.863 -0.0124 -0.3359 -0.3921
  648TMC3     C 9647   3.325   0.572  15.995  0.0163 -0.1525 -0.1040
  648TMC3     O 9648   3.316   0.695  15.997  0.0027  0.0133  0.3544
  648TMC3     H 9649   3.376   0.338  15.901 -0.0728  0.4137 -1.6652
  648TMC3    H1 9650   3.096   0.650  15.909 -0.0341 -0.5623  1.6493
  648TMC3    H2 9651   2.953   0.263  15.841 -1.1553  0.5303  1.8345
  648TMC3    C7 9652   2.887   0.500  15.827  0.3433 -0.7333  0.0426
  648TMC3    C8 9653   3.200   0.154  15.820 -0.3681  0.0411  0.2557
  648TMC3    O1 9654   2.823   0.424  15.756  0.6817 -0.0841  0.0506
  648TMC3    O2 9655   3.096   0.097  15.790  0.4452  0.3674 -0.0473
  649TMC3    C1 9656   2.822   1.206  13.285  0.2217 -0.8846  0.3727
  649TMC3    C2 9657   2.934   1.128  13.288  0.0271 -0.7154  0.7003
  649TMC3    C3 9658   2.928   1.011  13.354 -0.5622  0.2458  0.2635
  649TMC3    C4 9659   2.701   1.162  13.335 -0.0263  0.2416 -0.1149
  649TMC3    C5 9660   2.690   1.038  13.387 -0.0892 -0.0750  0.0415
  649TMC3    C6 9661   2.806   0.963  13.398  0.3960 -0.1228  0.5311
  649TMC3     C 9662   2.818   1.320  13.201 -0.5044 -0.3040  0.4456
  649TMC3     O 9663   2.709   1.376  13.177 -1.0535 -0.1729 -0.2622
  649TMC3     H 9664   3.028   1.155  13.241 -0.5558  1.7164  0.9355
  649TMC3    H1 9665   2.621   1.235  13.338  0.4733  0.8547 -1.3782
  649TMC3    H2 9666   2.795   0.865  13.445 -1.1466 -0.0779  0.2433
  649TMC3    C7 9667   2.556   1.001  13.429 -0.6243 -0.4236 -0.1680
  649TMC3    C8 9668   3.037   0.919  13.359  0.2689  0.6008  0.6711
  649TMC3    O1 9669   2.461   1.069  13.391 -0.7069 -0.5242 -0.0182
  649TMC3    O2 9670   3.012   0.803  13.390 -0.8235  0.3199 -0.1630
  650TMC3    C1 9671   0.384   3.040  12.660  0.6135 -0.2636  0.6413
  650TMC3    C2 9672   0.310   3.140  12.728 -0.3263  0.0669  0.4276
  650TMC3    C3 9673   0.227   3.216  12.652 -0.3318  0.2102 -0.1468
  650TMC3    C4 9674   0.378   3.025  12.533  0.6357 -0.2238 -0.1895
  650TMC3    C5 9675   0.304   3.114  12.457  0.0163  0.6426 -0.0060
  650TMC3    C6 9676   0.213   3.197  12.518 -0.2139  0.1294 -0.0404
  650TMC3     C 9677   0.438   2.939  12.742 -0.3076  0.7067 -0.9368
  650TMC3     O 9678   0.453   2.825  12.701 -0.2357  0.2761  0.6721
  650TMC3     H 9679   0.325   3.163  12.833  0.0516  2.1296 -0.0854
  650TMC3    H1 9680   0.431   2.954  12.470  2.0327  0.5953  0.0720
  650TMC3    H2 9681   0.168   3.276  12.460  0.7677 -0.0610 -1.0620
  650TMC3    C7 9682   0.376   3.167  12.344 -0.0149  0.8632  0.1058
  650TMC3    C8 9683   0.180   3.337  12.700  0.6033 -0.3502 -0.6913
  650TMC3    O1 9684   0.442   3.086  12.279  0.3646 -0.0402 -0.2756
  650TMC3    O2 9685   0.260   3.399  12.770  0.2194 -0.3151 -0.3903
  651MPD2     C 9686   4.242   0.779  10.469 -0.0582  0.6226 -0.0736
  651MPD2    C1 9687   4.264   0.866  10.570  0.3905 -0.2589  0.2773
  651MPD2    C2 9688   4.389   0.925  10.586  0.4581  0.2016  0.5008
  651MPD2    C3 9689   4.497   0.886  10.509 -0.4447  1.0600 -0.5624
  651MPD2    C4 9690   4.469   0.787  10.412 -0.8420 -0.0990 -0.5658
  651MPD2    C5 9691   4.346   0.741  10.389 -0.4627 -0.5822 -0.2665
  651MPD2     H 9692   4.407   0.997  10.665  0.8171 -1.5127  1.9646
  651MPD2    H1 9693   4.544   0.754  10.340 -1.0384  1.5984 -1.5434
  651MPD2    H2 9694   4.150   0.721  10.460 -0.1872  0.6152  1.3231
  651MPD2    H3 9695   4.335   0.661  10.317  2.2627 -1.1319 -0.0482
  651MPD2     N 9696   4.630   0.933  10.544 -0.7813  0.9259 -0.1211
  651MPD2    H5 9697   4.653   0.988  10.626  2.0674  1.1040 -1.0536
  651MPD2    N1 9698   4.171   0.907  10.660 -1.5663 -0.1962 -0.0622
  651MPD2    H7 9699   4.197   0.986  10.717  0.8222 -0.1377 -1.2460
  652TMC3    C1 9700   0.339   1.060  10.474  0.1389 -0.2072  0.3991
  652TMC3    C2 9701   0.232   0.982  10.434 -0.1580  0.1132  0.1124
  652TMC3    C3 9702   0.133   0.945  10.528  0.3135 -0.1511 -0.1255
  652TMC3    C4 9703   0.352   1.100  10.600 -0.1322  0.3651 -0.4967
  652TMC3    C5 9704   0.238   1.083  10.679  0.6201 -0.1167  0.0304
  652TMC3    C6 9705   0.139   0.997  10.654  0.1770 -0.2628  0.3768
  652TMC3     C 9706   0.457   1.063  10.388 -0.7573 -0.3669 -0.0102
  652TMC3     O 9707   0.444   1.054  10.268 -0.1483  0.1157 -0.1520
  652TMC3     H 9708   0.223   0.964  10.327  0.6027  3.3969 -0.5160
  652TMC3    H1 9709   0.445   1.142  10.636  0.8240 -0.9091 -1.4713
  652TMC3    H2 9710   0.064   0.970  10.727  0.3607  1.9280  1.3488
  652TMC3    C7 9711   0.245   1.151  10.805 -0.3908 -0.2518  0.2002
  652TMC3    C8 9712   4.736   0.925  10.458  0.2000  0.4443  0.4883
  652TMC3    O1 9713   0.159   1.114  10.888 -0.1115  0.0355 -0.2540
  652TMC3    O2 9714   0.003   0.891  10.338 -0.6017  0.0007  0.3435
  653MPD2     C 9715   2.944   0.356  17.600  0.5597  0.1853  0.0766
  653MPD2    C1 9716   2.855   0.452  17.565 -0.1299 -0.9936  0.6823
  653MPD2    C2 9717   2.750   0.412  17.483 -0.7324  0.0407 -0.4827
  653MPD2    C3 9718   2.732   0.281  17.449  0.3116  0.2854 -0.1281
  653MPD2    C4 9719   2.820   0.185  17.494 -0.0107 -0.1274  0.1718
  653MPD2    C5 9720   2.924   0.228  17.564  0.4105 -0.3746 -0.8195
  653MPD2     H 9721   2.693   0.493  17.439 -1.5433 -0.7333 -0.8364
  653MPD2    H1 9722   2.822   0.080  17.467  3.9812 -0.0851  0.4119
  653MPD2    H2 9723   3.030   0.380  17.661  1.4984  1.6316 -1.8077
  653MPD2    H3 9724   3.005   0.160  17.591  1.9062  1.8729  0.3288
  653MPD2     N 9725   2.630   0.248  17.356 -0.1602  0.1631  0.2769
  653MPD2    H5 9726   2.568   0.324  17.329 -1.1904 -1.0935 -0.8762
  653MPD2    N1 9727   2.855   0.590  17.603 -0.2039  0.4795  0.2609
  653MPD2    H7 9728   2.789   0.654  17.561 -0.4563  1.2411  1.8198
  654TMC3    C1 9729   2.494   0.111  17.209  0.8752  1.0873 -0.4198
  654TMC3    C2 9730   2.419   0.217  17.165  0.2035  0.2043 -0.5137
  654TMC3    C3 9731   2.394   0.223  17.030 -0.0875 -0.7114  0.3156
  654TMC3    C4 9732   2.526   0.003  17.127  0.5053 -0.0651  0.0441
  654TMC3    C5 9733   2.483   0.015  16.994 -0.1217  0.1317 -1.2363
  654TMC3    C6 9734   2.419   0.124  16.942 -0.7201  0.1959  0.3749
  654TMC3     C 9735   2.592   0.122  17.317 -0.0773  0.5385 -0.1013
  654TMC3     O 9736   2.628   0.014  17.363  0.4290 -0.4839 -0.3552
  654TMC3     H 9737   2.406   0.301  17.233  0.8803  0.5065 -0.7560
  654TMC3    H1 9738   2.602   4.668  17.153  0.1245 -0.1084  1.0423
  654TMC3    H2 9739   2.396   0.140  16.838  1.8794  0.9586 -0.0676
  654TMC3    C7 9740   2.511   4.634  16.911 -0.4205 -0.7029 -0.5040
  654TMC3    C8 9741   2.294   0.320  16.992 -0.3100 -0.0497  0.3994
  654TMC3    O1 9742   2.523   4.659  16.791 -0.1605  0.0203  0.1026
  654TMC3    O2 9743   2.219   0.370  17.080  0.8616 -0.3158  0.1673
  655MPD2     C 9744   3.812   0.739  15.659 -0.1390  0.8575  0.6179
  655MPD2    C1 9745   3.703   0.750  15.580 -0.5988  0.7940  0.5338
  655MPD2    C2 9746   3.694   0.675  15.463  0.2869  0.3472 -0.0016
  655MPD2    C3 9747   3.798   0.584  15.431 -0.5483  0.2429 -0.6174
  655MPD2    C4 9748   3.912   0.576  15.503 -0.5097 -0.0778 -0.7590
  655MPD2    C5 9749   3.909   0.647  15.619 -0.0110  0.1161 -0.1603
  655MPD2     H 9750   3.604   0.697  15.408 -1.8120 -0.5402  3.0766
  655MPD2    H1 9751   3.993   0.511  15.471  0.0739 -1.2903  3.1431
  655MPD2    H2 9752   3.823   0.784  15.757 -2.5254 -0.9095  1.7172
  655MPD2    H3 9753   4.001   0.656  15.674 -0.3195  0.5310  0.2873
  655MPD2     N 9754   3.792   0.508  15.308 -0.0197  0.3915  0.3218
  655MPD2    H5 9755   3.865   0.438  15.311 -0.4402  0.0016  1.6024
  655MPD2    N1 9756   3.595   0.838  15.606  0.0148  0.2827 -0.2339
  655MPD2    H7 9757   3.529   0.847  15.529 -2.3158 -0.6483  1.6442
  656TMC3    C1 9758   3.442   0.964  15.726 -0.2073 -0.5713 -0.0445
  656TMC3    C2 9759   3.365   0.988  15.842  0.3958 -0.3279 -0.4074
  656TMC3    C3 9760   3.269   1.081  15.832  0.0543 -0.0792 -0.1744
  656TMC3    C4 9761   3.409   1.027  15.610  0.4810  0.4651 -0.4294
  656TMC3    C5 9762   3.305   1.121  15.614 -0.8338  0.6098  0.2813
  656TMC3    C6 9763   3.240   1.160  15.728 -0.0074 -0.6084  0.2278
  656TMC3     C 9764   3.559   0.885  15.733  0.2338 -0.5138  0.1565
  656TMC3     O 9765   3.602   0.851  15.844  0.2288  0.1303  0.3219
  656TMC3     H 9766   3.401   0.952  15.938  0.8602  2.0461  0.3354
  656TMC3    H1 9767   3.473   1.026  15.522  0.6144 -1.3617 -0.3100
  656TMC3    H2 9768   3.160   1.231  15.741  1.9376  1.6033  0.1478
  656TMC3    C7 9769   3.226   1.118  15.498 -1.0955  0.1284 -0.2035
  656TMC3    C8 9770   3.193   1.104  15.954 -0.5037  0.0672 -0.6688
  656TMC3    O1 9771   3.269   1.056  15.399 -0.4179  0.0680  0.0591
  656TMC3    O2 9772   3.165   1.225  15.965 -0.3511  0.3241 -0.0156
  657TMC3    C1 9773   2.787   0.104  14.729 -0.1299 -0.4120 -0.3570
  657TMC3    C2 9774   2.790   0.103  14.868 -0.6590  0.2063  0.0637
  657TMC3    C3 9775   2.711   0.196  14.936  0.4270  0.4895 -1.0729
  657TMC3    C4 9776   2.715   0.205  14.663 -0.6161 -0.2226 -0.4588
  657TMC3    C5 9777   2.650   0.300  14.739 -0.2921  0.0186  0.3192
  657TMC3    C6 9778   2.638   0.293  14.871  0.3816 -0.5531 -0.1102
  657TMC3     C 9779   2.872   0.021  14.653  0.1505 -1.0526 -0.8601
  657TMC3     O 9780   2.861   0.026  14.533  0.5602 -0.1170 -0.1316
  657TMC3     H 9781   2.812   0.006  14.910  0.3776 -0.4143 -1.9274
  657TMC3    H1 9782   2.726   0.212  14.555 -0.5458  0.4670 -0.4046
  657TMC3    H2 9783   2.576   0.365  14.923 -1.1946 -3.7403  2.3738
  657TMC3    C7 9784   2.631   0.422  14.665  0.0001 -0.9235 -0.4555
  657TMC3    C8 9785   2.722   0.201  15.082  1.4146 -0.7415 -0.4368
  657TMC3    O1 9786   2.713   0.449  14.577  0.1655  0.6365 -0.3780
  657TMC3    O2 9787   2.682   0.305  15.132  0.5224  0.1245 -0.8993
  658MPD2     C 9788   4.271   0.386  14.933  0.7650  0.0127 -0.3331
  658MPD2    C1 9789   4.161   0.330  14.874 -1.0541 -0.6153  0.6408
  658MPD2    C2 9790   4.163   0.313  14.732 -0.2283  0.6954 -0.7516
  658MPD2    C3 9791   4.263   0.363  14.660  0.6759 -0.4498 -0.3641
  658MPD2    C4 9792   4.365   0.432  14.723  0.5525  0.5711 -0.6096
  658MPD2    C5 9793   4.372   0.429  14.855 -0.0473 -0.1953 -0.3490
  658MPD2     H 9794   4.078   0.272  14.678 -0.8247 -0.5001  1.1020
  658MPD2    H1 9795   4.457   0.462  14.675  1.9695  0.6128  2.1515
  658MPD2    H2 9796   4.280   0.407  15.039 -1.1529  2.6525 -0.6887
  658MPD2    H3 9797   4.463   0.460  14.904 -0.9695 -0.6172  1.6203
  658MPD2     N 9798   4.261   0.360  14.516  0.5181 -0.4964 -0.2066
  658MPD2    H5 9799   4.171   0.320  14.490 -1.4841  2.4765  2.0800
  658MPD2    N1 9800   4.045   0.306  14.955 -0.2613  0.0353 -0.3614
  658MPD2    H7 9801   4.043   0.363  15.040  2.3187 -3.4652  2.0281
  659TMC3    C1 9802   3.826   0.234  15.010 -0.0678  0.5885 -0.2405
  659TMC3    C2 9803   3.818   0.346  15.085 -0.0236  0.1070 -0.6159
  659TMC3    C3 9804   3.698   0.396  15.113  0.4099  0.0890 -0.2512
  659TMC3    C4 9805   3.715   0.186  14.946 -0.3209 -0.1388  0.4206
  659TMC3    C5 9806   3.596   0.253  14.962 -0.0252 -0.4324  0.0287
  659TMC3    C6 9807   3.585   0.351  15.060 -0.2500 -0.5523 -1.3402
  659TMC3     C 9808   3.942   0.219  14.923 -0.0483 -0.2641 -0.0330
  659TMC3     O 9809   3.932   0.148  14.826  0.8055  0.0093 -0.3345
  659TMC3     H 9810   3.907   0.389  15.130 -0.8377 -1.6858  2.6882
  659TMC3    H1 9811   3.718   0.096  14.886  0.2393  1.2064 -1.5720
  659TMC3    H2 9812   3.486   0.379  15.092  1.3524  1.8357  1.5506
  659TMC3    C7 9813   3.472   0.172  14.976 -0.3603  0.0255  0.1623
  659TMC3    C8 9814   3.688   0.502  15.221 -0.3236 -0.1800 -0.3237
  659TMC3    O1 9815   3.458   0.106  15.079 -0.1417 -0.0688 -0.0612
  659TMC3    O2 9816   3.588   0.571  15.204  0.2307 -0.1151  0.2979
  660MPD2     C 9817   2.440   4.048  12.871 -0.1558  0.7738 -0.0182
  660MPD2    C1 9818   2.325   4.120  12.882 -0.2613  0.2349  0.2613
  660MPD2    C2 9819   2.227   4.066  12.964  0.7946  0.5072  0.0870
  660MPD2    C3 9820   2.244   3.948  13.034  0.3260 -0.5583  0.0680
  660MPD2    C4 9821   2.364   3.885  13.013  0.1921 -0.1177  0.3778
  660MPD2    C5 9822   2.460   3.930  12.934  0.1470 -0.0479 -0.1428
  660MPD2     H 9823   2.138   4.128  12.971  0.9614  0.7919 -0.3425
  660MPD2    H1 9824   2.377   3.784  13.052 -3.3985 -0.4731  0.5847
  660MPD2    H2 9825   2.525   4.086  12.816  0.7640  1.1206  1.6213
  660MPD2    H3 9826   2.553   3.876  12.921 -1.7398 -2.9837 -1.2340
  660MPD2     N 9827   2.159   3.885  13.133  0.2105  0.0317 -0.0272
  660MPD2    H5 9828   2.195   3.799  13.173  1.6368  0.5136 -0.2851
  660MPD2    N1 9829   2.305   4.243  12.816  0.0497 -0.3835  0.2317
  660MPD2    H7 9830   2.215   4.286  12.834  0.2997  0.1044  0.3097
  661TMC3    C1 9831   2.322   4.421  12.666 -0.2059  0.3402 -0.4044
  661TMC3    C2 9832   2.400   4.503  12.588 -0.1241  0.6876 -0.1562
  661TMC3    C3 9833   2.333   4.604  12.520 -0.2452  0.1858 -0.1092
  661TMC3    C4 9834   2.186   4.436  12.665  0.2853 -0.3348 -0.1662
  661TMC3    C5 9835   2.125   4.539  12.607 -0.3049  0.1641 -0.7926
  661TMC3    C6 9836   2.196   4.628  12.524  0.1859  0.0938 -0.5268
  661TMC3     C 9837   2.383   4.296  12.714  0.0827 -0.6474 -0.3805
  661TMC3     O 9838   2.487   4.260  12.658 -0.5578  0.0544  0.1804
  661TMC3     H 9839   2.508   4.499  12.598 -0.0431  0.4678 -1.2161
  661TMC3    H1 9840   2.118   4.368  12.713  0.8036 -0.9531 -0.3142
  661TMC3    H2 9841   2.142   4.687  12.451  1.3244 -0.7223 -2.0198
  661TMC3    C7 9842   1.984   4.536  12.592 -0.2073  0.2191  0.3756
  661TMC3    C8 9843   2.402   4.643  12.400 -0.2817 -0.1449  0.0805
  661TMC3    O1 9844   1.922   4.640  12.602  1.0551 -0.4448  0.3129
  661TMC3    O2 9845   2.462   4.554  12.345  0.3598  0.3211 -0.4794
  662MPD2     C 9846   2.390   4.128  16.942  0.3779  0.1824 -0.1813
  662MPD2    C1 9847   2.420   4.038  17.044  0.4978  0.3748 -0.0055
  662MPD2    C2 9848   2.370   4.056  17.168 -0.4339  0.2481  0.0031
  662MPD2    C3 9849   2.277   4.153  17.197  0.0016  0.3054 -0.9460
  662MPD2    C4 9850   2.255   4.253  17.102  0.5793 -0.4335 -0.3534
  662MPD2    C5 9851   2.304   4.233  16.973  0.2769 -0.0154 -0.6744
  662MPD2     H 9852   2.409   3.985  17.240  0.8714 -0.6797 -1.6320
  662MPD2    H1 9853   2.180   4.329  17.118 -0.6188 -1.1880 -2.3885
  662MPD2    H2 9854   2.423   4.117  16.839  0.5131 -0.7923 -0.0292
  662MPD2    H3 9855   2.282   4.300  16.890  2.2995 -0.6051 -1.7045
  662MPD2     N 9856   2.207   4.177  17.318 -0.1542  0.2120  0.3158
  662MPD2    H5 9857   2.146   4.259  17.311  0.7320  0.8331 -0.1397
  662MPD2    N1 9858   2.493   3.922  17.014 -0.0299 -0.5153 -0.2957
  662MPD2    H7 9859   2.536   3.871  17.091 -0.6821 -0.4644  0.1002
  663TMC3    C1 9860   2.578   3.753  16.884 -0.2100  0.3411 -0.1008
  663TMC3    C2 9861   2.707   3.771  16.913  0.0079 -0.0126 -0.2189
  663TMC3    C3 9862   2.780   3.660  16.943  0.0979 -0.3897 -0.1825
  663TMC3    C4 9863   2.509   3.636  16.882  0.2753 -0.0222 -0.7143
  663TMC3    C5 9864   2.590   3.528  16.901 -0.0532  0.4758  0.3943
  663TMC3    C6 9865   2.719   3.540  16.932 -0.3184 -0.9131 -0.7065
  663TMC3     C 9866   2.507   3.876  16.884 -0.3917  0.4491 -0.7621
  663TMC3     O 9867   2.482   3.910  16.769  0.0022  0.4152 -0.0990
  663TMC3     H 9868   2.743   3.870  16.937 -1.2222  0.1959  0.7956
  663TMC3    H1 9869   2.401   3.632  16.881  0.3546 -2.7210  1.7666
  663TMC3    H2 9870   2.766   3.453  16.975  2.9543  1.1273 -0.2067
  663TMC3    C7 9871   2.531   3.396  16.934 -0.2329 -0.4275  0.0445
  663TMC3    C8 9872   2.860   3.661  17.068 -0.5162  0.2539  0.3949
  663TMC3    O1 9873   2.569   3.338  17.031 -0.0142  0.5529  0.1365
  663TMC3    O2 9874   2.973   3.707  17.052  0.9296 -0.4832 -0.1770
  664MPD2     C 9875   0.594   1.729  17.332 -0.5324 -0.1278 -0.6169
  664MPD2    C1 9876   0.637   1.859  17.351  0.7253  0.3347  0.2677
  664MPD2    C2 9877   0.655   1.907  17.482 -0.0650  0.4632 -0.0640
  664MPD2    C3 9878   0.622   1.828  17.590  0.4586  0.0561  0.0668
  664MPD2    C4 9879   0.575   1.702  17.571 -0.3873  0.0763 -0.8218
  664MPD2    C5 9880   0.559   1.656  17.441  0.2694  0.3308  0.6850
  664MPD2     H 9881   0.680   2.012  17.490 -0.0819  0.4613  0.0104
  664MPD2    H1 9882   0.547   1.628  17.646  0.0238 -0.9933 -1.7189
  664MPD2    H2 9883   0.594   1.674  17.239  2.2018  1.0326 -1.3137
  664MPD2    H3 9884   0.531   1.553  17.423 -1.5261  0.9259  0.0768
  664MPD2     N 9885   0.640   1.889  17.716  0.2204  0.0762 -0.1067
  664MPD2    H5 9886   0.677   1.983  17.716  0.7819 -0.1515  1.7507
  664MPD2    N1 9887   0.669   1.947  17.250 -0.2037 -0.3511  0.2226
  664MPD2    H7 9888   0.721   2.031  17.272  0.0814 -0.2530 -0.8073
  665TMC3    C1 9889   0.587   1.928   0.192 -0.1377 -0.1601 -0.8333
  665TMC3    C2 9890   0.562   1.881   0.316 -0.5674 -0.0577 -0.0742
  665TMC3    C3 9891   0.557   1.963   0.424  0.6278  0.0910 -1.1173
  665TMC3    C4 9892   0.604   2.063   0.163  0.6079 -0.1524  0.2236
  665TMC3    C5 9893   0.608   2.144   0.277  0.4320  0.0271 -0.1442
  665TMC3    C6 9894   0.572   2.093   0.402 -0.3776  0.0808 -0.3507
  665TMC3     C 9895   0.613   1.829   0.092 -0.5834 -0.1996  0.5103
  665TMC3     O 9896   0.601   1.711   0.123  0.2603 -0.1207  0.3838
  665TMC3     H 9897   0.551   1.776   0.340  0.0636 -0.2271 -0.5255
  665TMC3    H1 9898   0.642   2.107   0.072  0.3120 -0.5695 -0.1023
  665TMC3    H2 9899   0.563   2.161   0.486 -2.3647 -0.3006 -0.2512
  665TMC3    C7 9900   0.632   2.289   0.252 -0.2609 -0.7261 -0.1368
  665TMC3    C8 9901   0.493   1.912   0.538  0.1969 -0.7003 -0.7316
  665TMC3    O1 9902   0.639   2.325   0.133  0.4097 -0.5096  0.3020
  665TMC3    O2 9903   0.526   1.799   0.568 -0.3515 -0.0671  0.6762
  666TMC3    C1 9904   0.234   2.041   9.932 -0.1497  0.2351 -0.2251
  666TMC3    C2 9905   0.361   1.995   9.971  0.1121  0.4530  0.0051
  666TMC3    C3 9906   0.454   2.097  10.004  0.6408  0.1440  0.0859
  666TMC3    C4 9907   0.204   2.174   9.912  0.0500 -0.1765  0.1981
  666TMC3    C5 9908   0.299   2.265   9.952  0.4921 -0.0181 -0.3168
  666TMC3    C6 9909   0.417   2.232  10.003 -0.3869  0.7337 -0.6064
  666TMC3     C 9910   0.143   1.947   9.879 -0.2549 -0.0147 -0.1985
  666TMC3     O 9911   0.048   1.991   9.810 -0.0634 -0.5583 -0.3277
  666TMC3     H 9912   0.378   1.891   9.997  0.8805  0.5644 -0.0352
  666TMC3    H1 9913   0.107   2.204   9.875  0.3109  0.2367 -0.1663
  666TMC3    H2 9914   0.495   2.303  10.030  0.0641  0.1077 -0.2753
  666TMC3    C7 9915   0.241   2.396   9.971  0.3451  0.4775 -0.8189
  666TMC3    C8 9916   0.547   2.058  10.111 -0.0186 -0.5595  0.4721
  666TMC3    O1 9917   0.148   2.434   9.902  0.3775 -0.2251 -1.0366
  666TMC3    O2 9918   0.536   1.943  10.163 -0.1466 -0.1680 -0.2293
  667MPD2     C 9919   1.311   1.802  14.610  0.7556 -0.3811  0.6122
  667MPD2    C1 9920   1.255   1.848  14.728 -1.1945 -0.2574 -0.3855
  667MPD2    C2 9921   1.143   1.784  14.780  0.2957  0.2039  0.0478
  667MPD2    C3 9922   1.084   1.676  14.710  0.4421 -0.4187  0.3654
  667MPD2    C4 9923   1.138   1.637  14.589 -0.4683  0.0927 -0.3129
  667MPD2    C5 9924   1.247   1.707  14.539 -0.0904 -0.4460  0.0132
  667MPD2     H 9925   1.098   1.819  14.872 -0.5882  0.2730 -0.4116
  667MPD2    H1 9926   1.107   1.547  14.536 -1.5691  0.4573 -0.2765
  667MPD2    H2 9927   1.395   1.844  14.556 -0.0514 -1.6493 -1.6106
  667MPD2    H3 9928   1.282   1.673  14.442  0.4640  1.2288 -0.3708
  667MPD2     N 9929   0.980   1.597  14.770 -0.0587  0.5217 -0.4644
  667MPD2    H5 9930   0.937   1.522  14.716  3.9549 -1.5914 -0.7526
  667MPD2    N1 9931   1.309   1.953  14.802 -0.3240  0.2828 -0.1337
  667MPD2    H7 9932   1.254   1.984  14.881  0.2749  1.3822 -0.1443
  668TMC3    C1 9933   1.465   2.105  14.887 -0.7345 -0.0174  0.3950
  668TMC3    C2 9934   1.538   2.218  14.857 -0.1956  0.2446  0.6335
  668TMC3    C3 9935   1.557   2.311  14.960  0.1356  0.4027 -0.0690
  668TMC3    C4 9936   1.416   2.082  15.010 -0.8035 -0.3620  0.1275
  668TMC3    C5 9937   1.455   2.166  15.115  0.1888 -0.5592 -0.3186
  668TMC3    C6 9938   1.512   2.284  15.090  0.1008  0.3481 -0.1646
  668TMC3     C 9939   1.424   2.021  14.773  0.4639 -0.2379  0.2962
  668TMC3     O 9940   1.501   2.000  14.683 -0.5771  0.3343 -0.1519
  668TMC3     H 9941   1.595   2.222  14.765 -0.0071 -1.3263  0.6877
  668TMC3    H1 9942   1.376   1.984  15.033 -2.5433  0.3314  0.0524
  668TMC3    H2 9943   1.544   2.352  15.168 -2.3457  1.4246 -0.0950
  668TMC3    C7 9944   1.410   2.140  15.245 -0.1967  0.5405  0.0997
  668TMC3    C8 9945   1.640   2.428  14.951 -0.5117 -0.1603  0.6023
  668TMC3    O1 9946   1.482   2.188  15.332 -0.4284  0.8523 -0.1303
  668TMC3    O2 9947   1.649   2.491  15.055 -0.4857  0.5530  0.2483
  669TMC3    C1 9948   4.153   1.872  14.778 -0.4302 -0.1138  0.0807
  669TMC3    C2 9949   4.061   1.899  14.680 -0.7739  0.1863 -0.4143
  669TMC3    C3 9950   4.076   2.018  14.610 -0.0505  0.2991 -0.7801
  669TMC3    C4 9951   4.257   1.959  14.801  0.3008 -0.2221  0.7206
  669TMC3    C5 9952   4.264   2.064  14.723  0.2848 -0.0881 -0.1736
  669TMC3    C6 9953   4.180   2.111  14.631 -0.5283  0.7525  0.4386
  669TMC3     C 9954   4.136   1.749  14.844  0.6935  0.2365 -0.0923
  669TMC3     O 9955   4.018   1.717  14.870 -0.1836 -0.1379  0.5593
  669TMC3     H 9956   3.975   1.837  14.662 -1.6941  1.3848 -0.1675
  669TMC3    H1 9957   4.309   1.945  14.895 -0.9501 -0.8318  1.3133
  669TMC3    H2 9958   4.194   2.203  14.577  1.2857  0.1055 -0.1952
  669TMC3    C7 9959   4.374   2.152  14.732  0.9643 -0.2789 -0.1794
  669TMC3    C8 9960   4.010   2.024  14.481 -0.8210  0.1551 -0.3049
  669TMC3    O1 9961   4.370   2.260  14.680  0.7754 -0.2542  0.5631
  669TMC3    O2 9962   3.979   1.919  14.428 -0.3027 -0.0002  0.2430
  670MPD2     C 9963   2.452   4.240  13.607  0.4383 -0.4393  0.0263
  670MPD2    C1 9964   2.588   4.225  13.598 -0.9377 -0.2738  0.0481
  670MPD2    C2 9965   2.648   4.190  13.717 -0.6715  0.6759 -0.7225
  670MPD2    C3 9966   2.590   4.183  13.839  0.0471  0.5844  0.1889
  670MPD2    C4 9967   2.457   4.206  13.841 -0.1400  0.1058  0.2363
  670MPD2    C5 9968   2.394   4.240  13.727 -0.0140 -0.7912 -0.1967
  670MPD2     H 9969   2.756   4.184  13.704 -0.5558 -1.0281  1.1587
  670MPD2    H1 9970   2.390   4.198  13.925 -0.1470 -1.3504  0.0953
  670MPD2    H2 9971   2.388   4.260  13.522  0.8671 -0.4819 -0.3097
  670MPD2    H3 9972   2.287   4.255  13.721 -0.0459 -1.4673 -1.2859
  670MPD2     N 9973   2.658   4.127  13.947 -0.3394 -0.5021 -0.6144
  670MPD2    H5 9974   2.756   4.106  13.928 -0.1118  0.5578 -0.6102
  670MPD2    N1 9975   2.668   4.240  13.483  0.6180 -0.4027 -0.0088
  670MPD2    H7 9976   2.768   4.244  13.500  0.4892 -1.0316  0.9270
  671TMC3    C1 9977   2.696   4.034  14.161  0.2630 -0.4278 -0.3468
  671TMC3    C2 9978   2.827   4.015  14.122 -0.1597 -0.1988  0.0345
  671TMC3    C3 9979   2.913   3.991  14.225 -0.2926  0.9273  0.1128
  671TMC3    C4 9980   2.648   4.004  14.291  0.8105  0.4175 -0.5634
  671TMC3    C5 9981   2.740   3.946  14.379  0.1781 -0.0955 -0.5220
  671TMC3    C6 9982   2.875   3.950  14.353  0.1037  0.6597 -0.0770
  671TMC3     C 9983   2.600   4.079  14.064  0.4605  0.1344  0.4176
  671TMC3     O 9984   2.487   4.095  14.111 -0.2081  0.8715  0.0557
  671TMC3     H 9985   2.879   4.043  14.031  0.4666  0.5142  0.6083
  671TMC3    H1 9986   2.540   4.009  14.307  0.6007 -1.8105 -1.3416
  671TMC3    H2 9987   2.948   3.916  14.425 -2.8763 -1.4450  1.9668
  671TMC3    C7 9988   2.699   3.834  14.462  0.0407 -0.8776  0.6078
  671TMC3    C8 9989   3.045   3.952  14.185 -0.1345  0.6912  0.4521
  671TMC3    O1 9990   2.583   3.814  14.444 -0.5411 -0.9224  0.1098
  671TMC3    O2 9991   3.074   3.914  14.071 -0.0698 -0.2586  0.5103
  672MPD2     C 9992   2.816   4.532   0.891  0.5182 -0.8346  0.2584
  672MPD2    C1 9993   2.900   4.641   0.885 -0.6336  0.0618  0.0254
  672MPD2    C2 9994   2.932   4.705   1.006  0.3176 -0.6879  0.5978
  672MPD2    C3 9995   2.887   4.657   1.133 -0.1057 -0.9384  0.1207
  672MPD2    C4 9996   2.813   4.540   1.136  0.7713 -0.0434 -0.3588
  672MPD2    C5 9997   2.772   4.482   1.015 -0.0135  0.8460 -0.1285
  672MPD2     H 9998   2.997   0.056   1.007  0.7384 -1.0638  4.9780
  672MPD2    H1 9999   2.792   4.497   1.233 -1.6966  2.5322  0.2417
  672MPD2    H210000   2.788   4.478   0.801 -0.0034 -1.1724  0.6191
  672MPD2    H310001   2.710   4.394   1.018 -1.1376  1.6569  0.3098
  672MPD2     N10002   2.937   4.710   1.252 -1.1916  0.7472 -0.7361
  672MPD2    H510003   2.910   4.662   1.337  1.9776 -0.0174 -0.1831
  672MPD2    N110004   2.966   4.689   0.761 -0.2747 -0.0535  0.2692
  672MPD2    H710005   3.027   0.033   0.772 -1.5288  0.7440  1.3390
  673TMC3    C110006   3.048   4.693   0.552 -0.1342 -0.0411 -1.0243
  673TMC3    C210007   3.156   4.633   0.507 -0.6527 -0.0301  0.1021
  673TMC3    C310008   3.244   4.719   0.440 -0.2600 -0.1015 -0.7515
  673TMC3    C410009   3.025   0.090   0.530 -0.0356  0.2440  0.1645
  673TMC3    C510010   3.118   0.171   0.467 -0.4581 -0.0410 -0.0831
  673TMC3    C610011   3.225   0.118   0.429  0.3984  0.0858  0.0580
  673TMC3     C10012   2.978   4.621   0.646 -0.2424 -0.6758  0.7085
  673TMC3     O10013   2.946   4.503   0.622 -0.4683  0.1543 -0.3140
  673TMC3     H10014   3.171   4.528   0.527  2.0549  0.3024 -0.1915
  673TMC3    H110015   2.954   0.137   0.597  1.4310  2.1914  0.3333
  673TMC3    H210016   3.306   0.186   0.402  1.7850 -1.0822  1.3091
  673TMC3    C710017   3.117   0.322   0.495  0.0323  0.9409  0.2696
  673TMC3    C810018   3.379   4.677   0.412 -0.1621 -0.3706  0.0348
  673TMC3    O110019   3.225   0.377   0.500  0.0976 -0.3142 -0.2506
  673TMC3    O210020   3.444   0.013   0.334 -0.2214  0.1738 -0.5796
  674MPD2     C10021   2.692   4.382  17.513 -0.5071 -0.5951 -0.2111
  674MPD2    C110022   2.633   4.316  17.614  0.2660  0.4392  0.6046
  674MPD2    C210023   2.611   4.386  17.731  1.2637 -0.3183 -0.2774
  674MPD2    C310024   2.682   4.504   0.010  0.1479  0.7524 -0.6442
  674MPD2    C410025   2.744   4.572  17.648 -0.3232 -0.4254  0.4747
  674MPD2    C510026   2.742   4.511  17.526  0.0879 -0.4730 -0.4522
  674MPD2     H10027   2.550   4.349   0.070 -2.2369 -0.6439 -3.0315
  674MPD2    H110028   2.782   4.672  17.664  0.1166 -0.4156 -0.5970
  674MPD2    H210029   2.708   4.339  17.414 -0.7037 -1.3813  0.0942
  674MPD2    H310030   2.775   4.551  17.431  3.2325  0.5720  1.0557
  674MPD2     N10031   2.687   4.555   0.142 -0.3574  0.4966 -0.2135
  674MPD2    H510032   2.633   4.512   0.216 -0.0283  0.4649  0.0061
  674MPD2    N110033   2.589   4.180  17.603 -0.3186 -0.4427  0.2807
  674MPD2    H710034   2.591   4.145  17.508 -1.8829  2.0071 -0.6364
  675TMC3    C110035   2.619   4.112   0.096 -0.0532 -0.3729  0.4645
  675TMC3    C210036   2.548   4.057   0.201 -0.2177 -0.0936  0.0911
  675TMC3    C310037   2.610   4.057   0.324 -0.5208  0.6957  0.3273
  675TMC3    C410038   2.749   4.152   0.104  0.1916  0.2672  0.6094
  675TMC3    C510039   2.808   4.141   0.228 -0.5659  0.4051 -0.1005
  675TMC3    C610040   2.739   4.091   0.338 -0.4143 -0.1819 -0.2070
  675TMC3     C10041   2.562   4.094  17.709 -0.6322 -0.2797 -0.2234
  675TMC3     O10042   2.484   4.001  17.697  0.2994  0.2186 -0.2034
  675TMC3     H10043   2.454   4.010   0.174 -0.3016 -0.6667  1.3596
  675TMC3    H110044   2.807   4.193   0.022 -1.7265  1.4959 -0.1233
  675TMC3    H210045   2.780   4.068   0.435  1.3131 -0.9264 -1.1101
  675TMC3    C710046   2.956   4.176   0.226 -0.7218 -0.4077 -0.2519
  675TMC3    C810047   2.524   4.019   0.435 -0.1994  0.3677  1.3733
  675TMC3    O110048   3.016   4.217   0.126  0.1205  0.3226 -0.0438
  675TMC3    O210049   2.409   3.982   0.406 -0.2341  0.0825  0.1111
  676MPD2     C10050   0.814   2.646  11.139 -0.3124  0.6877 -0.3185
  676MPD2    C110051   0.682   2.625  11.163 -0.5338  0.0013  0.0665
  676MPD2    C210052   0.598   2.558  11.072  0.0177  0.4977  0.0305
  676MPD2    C310053   0.652   2.498  10.960 -0.0973 -0.0301 -0.3583
  676MPD2    C410054   0.787   2.511  10.938  0.5757  0.3249  0.2351
  676MPD2    C510055   0.866   2.581  11.027 -0.2812  0.3052  0.5509
  676MPD2     H10056   0.491   2.554  11.089  0.2490 -1.7490  0.9325
  676MPD2    H110057   0.827   2.450  10.857  0.0202  0.4870 -0.1602
  676MPD2    H210058   0.882   2.710  11.195  0.1873 -0.3210  0.2271
  676MPD2    H310059   0.971   2.597  11.007  0.0191 -0.2919  1.6479
  676MPD2     N10060   0.577   2.417  10.865 -0.1594  0.3480 -0.5272
  676MPD2    H510061   0.637   2.371  10.797  0.9591  2.0364 -0.6939
  676MPD2    N110062   0.618   2.698  11.266  0.0226  0.0206  0.4285
  676MPD2    H710063   0.518   2.714  11.257  0.2051 -0.2071 -1.8962
  677TMC3    C110064   0.563   2.847  11.442 -0.1903  0.2111 -0.2391
  677TMC3    C210065   0.466   2.759  11.482  0.1544  0.0453 -0.1768
  677TMC3    C310066   0.363   2.800  11.560 -0.7085 -0.0235  0.1897
  677TMC3    C410067   0.567   2.976  11.477 -0.0491 -0.0493  0.0620
  677TMC3    C510068   0.461   3.023  11.541 -0.2950 -0.4973 -0.2252
  677TMC3    C610069   0.357   2.939  11.569  0.3934 -0.2905  0.5134
  677TMC3     C10070   0.671   2.788  11.357 -0.6572  0.5865  0.3395
  677TMC3     O10071   0.780   2.842  11.352  0.0669  0.2557 -0.0954
  677TMC3     H10072   0.478   2.652  11.470 -1.0427 -0.2022  0.7542
  677TMC3    H110073   0.654   3.034  11.451  0.4913 -0.6315  0.5775
  677TMC3    H210074   0.266   2.982  11.608  0.0983 -0.4396 -0.0101
  677TMC3    C710075   0.466   3.139  11.626 -0.4493  0.8523  0.2262
  677TMC3    C810076   0.259   2.710  11.587  0.5778 -0.6443  0.1793
  677TMC3    O110077   0.355   3.180  11.665  0.9811  0.2377  0.2212
  677TMC3    O210078   0.250   2.617  11.504  0.3388  0.3668 -0.8598
  678MPD2     C10079   2.054   3.099   1.287  0.6192  0.0086  0.2049
  678MPD2    C110080   2.038   3.070   1.152  0.3815 -0.0558 -0.0754
  678MPD2    C210081   1.921   3.107   1.092 -0.2841  0.3148  0.1146
  678MPD2    C310082   1.822   3.172   1.155  0.5813  0.2301 -0.2177
  678MPD2    C410083   1.836   3.198   1.287  0.0262 -0.2468 -0.1067
  678MPD2    C510084   1.946   3.153   1.353 -0.0464  0.0610  0.3522
  678MPD2     H10085   1.904   3.085   0.987 -0.3793  0.2374  0.1464
  678MPD2    H110086   1.766   3.255   1.348 -1.4705 -0.0918 -1.9897
  678MPD2    H210087   2.142   3.074   1.345  0.1377 -1.8417  0.1435
  678MPD2    H310088   1.953   3.180   1.457 -0.5212 -0.6814  0.5753
  678MPD2     N10089   1.703   3.196   1.085 -0.1031  0.3656  0.0287
  678MPD2    H510090   1.716   3.163   0.989 -2.7328  0.4728 -0.3691
  678MPD2    N110091   2.133   2.999   1.072 -0.1883  0.7513  0.4150
  678MPD2    H710092   2.107   2.978   0.977 -0.3530  0.7031  0.4711
  679TMC3    C110093   2.387   2.727   0.872  0.3869 -0.1529  0.2887
  679TMC3    C210094   2.358   2.780   0.994 -0.4614 -0.4136 -0.3978
  679TMC3    C310095   2.310   2.902   0.992 -0.5243 -0.4621 -0.1236
  679TMC3    C410096   2.347   2.776   0.755 -0.1668  0.8227 -0.0382
  679TMC3    C510097   2.276   2.893   0.758 -0.9175 -0.5791  0.7842
  679TMC3    C610098   2.276   2.968   0.875 -0.0970 -0.4470 -0.2478
  679TMC3     C10099   2.448   2.598   0.871  0.0141  0.5525  0.4843
  679TMC3     O10100   2.411   2.522   0.779 -0.1358  0.4933  0.7853
  679TMC3     H10101   2.381   2.736   1.091 -1.5214  4.0040  1.8426
  679TMC3    H110102   2.378   2.727   0.664  0.4784  1.4268 -0.1372
  679TMC3    H210103   2.235   3.068   0.868  1.7021  0.3272  0.5562
  679TMC3    C710104   2.268   2.966   0.631  0.8028 -0.0144  0.1418
  679TMC3    C810105   2.257   2.958   1.110 -0.0661 -0.2699  0.1998
  679TMC3    O110106   2.292   3.086   0.638 -0.0494 -0.1068 -0.8100
  679TMC3    O210107   2.314   2.950   1.217 -0.4764  0.3179 -0.0535
  680MPD2     C10108   1.714   1.488  13.580 -0.8303  0.2622  0.0132
  680MPD2    C110109   1.814   1.402  13.613  0.4108  0.0241 -0.3705
  680MPD2    C210110   1.898   1.440  13.722  0.6784 -0.0976 -0.8235
  680MPD2    C310111   1.891   1.568  13.782  0.1755  0.8360 -1.1330
  680MPD2    C410112   1.788   1.649  13.747 -0.2035  0.3417  0.4118
  680MPD2    C510113   1.697   1.604  13.647  0.2586 -0.5263 -1.2103
  680MPD2     H10114   1.971   1.367  13.756 -0.6309 -1.3127 -0.6052
  680MPD2    H110115   1.765   1.747  13.787 -0.3982  1.5070 -2.5600
  680MPD2    H210116   1.632   1.466  13.513 -1.7306  0.2111  1.1505
  680MPD2    H310117   1.611   1.665  13.623 -0.8088 -2.1510 -1.5422
  680MPD2     N10118   1.988   1.614  13.871  0.1162  0.9609  0.3020
  680MPD2    H510119   1.964   1.702  13.914  0.8681  1.4056 -0.1792
  680MPD2    N110120   1.819   1.274  13.557  0.3744 -0.2269 -0.0337
  680MPD2    H710121   1.898   1.217  13.584 -0.2091 -0.0000  2.1062
  681TMC3    C110122   1.751   1.071  13.465  0.3591 -0.3741 -0.4747
  681TMC3    C210123   1.629   1.020  13.506  0.1885 -0.1913  0.0241
  681TMC3    C310124   1.630   0.926  13.600  0.1575  0.4070  0.1371
  681TMC3    C410125   1.868   1.017  13.497  0.0526 -0.4394  0.4041
  681TMC3    C510126   1.859   0.896  13.568  0.6044 -0.0107  0.3503
  681TMC3    C610127   1.740   0.851  13.612  0.2101  0.0140 -0.0162
  681TMC3     C10128   1.737   1.220  13.459 -1.1204 -0.3640 -0.4586
  681TMC3     O10129   1.633   1.269  13.414  0.6252 -0.5452  0.2464
  681TMC3     H10130   1.540   1.080  13.491  1.8157  1.7981 -1.6666
  681TMC3    H110131   1.962   1.060  13.465 -1.1250  1.1266 -0.9464
  681TMC3    H210132   1.741   0.760  13.671 -1.1755  1.4203  2.2000
  681TMC3    C710133   1.976   0.853  13.639  0.0260  0.3525  0.2173
  681TMC3    C810134   1.584   0.983  13.724  0.8705  0.2777  0.4647
  681TMC3    O110135   1.963   0.816  13.758 -0.0319  0.2701  0.3200
  681TMC3    O210136   1.481   1.051  13.722  0.3995  0.4779 -0.2449
  682MPD2     C10137   4.541   3.416  10.604 -0.4280  0.0719 -0.2161
  682MPD2    C110138   4.514   3.291  10.661 -0.4723 -0.3284  0.2103
  682MPD2    C210139   4.529   3.276  10.800  0.4915  0.2331  0.1498
  682MPD2    C310140   4.558   3.380  10.887  0.2606 -0.2566 -0.5197
  682MPD2    C410141   4.579   3.503  10.834  0.5420  0.6149  0.3026
  682MPD2    C510142   4.574   3.518  10.691  0.2297 -0.1197 -0.4279
  682MPD2     H10143   4.498   3.181  10.842  1.3597  0.1466  0.6014
  682MPD2    H110144   4.622   3.582  10.895 -2.2393 -0.5959  3.8447
  682MPD2    H210145   4.523   3.436  10.499  0.3060  1.7367 -0.0283
  682MPD2    H310146   4.600   3.608  10.636  0.6789  0.2060  0.3161
  682MPD2     N10147   4.562   3.367  11.025 -0.3762  0.1710 -0.7190
  682MPD2    H510148   4.587   3.452  11.076  1.7156  0.1167 -1.6564
  682MPD2    N110149   4.484   3.181  10.579 -0.3372 -0.0602  0.5152
  682MPD2    H710150   4.448   3.100  10.629 -0.1981 -0.6082 -0.2620
  683TMC3    C110151   4.659   3.370  11.421 -0.3185 -0.1625  0.8763
  683TMC3    C210152   4.607   3.274  11.504 -0.2092 -0.1023 -0.1246
  683TMC3    C310153   4.534   3.174  11.443  0.6723 -0.2356 -0.1636
  683TMC3    C410154   4.642   3.371  11.286 -0.0776  0.5206 -0.1520
  683TMC3    C510155   4.573   3.266  11.234 -0.2806 -0.0016 -0.0131
  683TMC3    C610156   4.513   3.170  11.307 -0.5474 -0.6355  1.0327
  683TMC3     C10157   4.714   3.487  11.483 -0.0101  0.0103 -0.3928
  683TMC3     O10158   4.706   3.596  11.437 -0.4001 -0.0874 -0.1497
  683TMC3     H10159   4.610   3.281  11.612 -1.6809 -1.1340 -0.0239
  683TMC3    H110160   4.676   3.459  11.233  0.2635 -0.0173 -0.8112
  683TMC3    H210161   4.451   3.089  11.273 -1.3170  0.5917 -0.4758
  683TMC3    C710162   4.532   3.251  11.094  0.3957 -0.1285  0.7161
  683TMC3    C810163   4.414   3.153  11.525  0.9761  0.0341  1.2058
  683TMC3    O110164   4.472   3.145  11.060 -0.1376 -0.3103 -0.3456
  683TMC3    O210165   4.378   3.247  11.597  0.3783 -0.4665 -0.2318
  684MPD2     C10166   2.215   2.186  16.513  0.2388  0.0888  0.6009
  684MPD2    C110167   2.185   2.257  16.398  0.3701  0.5312 -0.7092
  684MPD2    C210168   2.189   2.396  16.407  0.1270  0.1832 -0.0633
  684MPD2    C310169   2.207   2.463  16.525 -0.4251 -0.7177 -1.1159
  684MPD2    C410170   2.239   2.389  16.638 -0.5025  0.5263 -0.5005
  684MPD2    C510171   2.233   2.252  16.634  0.0495 -0.4967  0.1550
  684MPD2     H10172   2.195   2.458  16.318  0.1709 -0.4909 -0.5329
  684MPD2    H110173   2.283   2.432  16.728  1.0727  0.6350 -1.3145
  684MPD2    H210174   2.212   2.078  16.516 -0.4359  0.1316  1.5955
  684MPD2    H310175   2.269   2.192  16.717  3.4662  0.7614 -0.4107
  684MPD2     N10176   2.227   2.604  16.544 -0.1591 -0.1956 -0.1461
  684MPD2    H510177   2.253   2.642  16.634 -0.9516  0.4372 -0.1812
  684MPD2    N110178   2.162   2.210  16.263  0.3044  0.3532  0.7827
  684MPD2    H710179   2.165   2.283  16.193 -1.4471 -1.7707 -1.4762
  685TMC3    C110180   2.169   2.060  16.092  0.2795 -0.0849 -0.4372
  685TMC3    C210181   2.110   2.153  16.014 -0.2297 -0.2106  0.2213
  685TMC3    C310182   2.146   2.153  15.878  0.0084  0.3831  0.5332
  685TMC3    C410183   2.266   1.972  16.050  0.4275  0.1819  0.6262
  685TMC3    C510184   2.308   1.978  15.918  0.6004 -0.0377 -0.4046
  685TMC3    C610185   2.243   2.063  15.833 -0.2241  0.5108  0.7082
  685TMC3     C10186   2.167   2.077  16.236  0.2747 -0.0734 -0.3356
  685TMC3     O10187   2.169   1.983  16.314 -0.4253  0.3827  0.4466
  685TMC3     H10188   2.029   2.216  16.050  0.6246  0.1106  1.5875
  685TMC3    H110189   2.316   1.917  16.129  0.3339 -0.2441  0.3873
  685TMC3    H210190   2.277   2.070  15.730  1.2721  1.4178  1.2740
  685TMC3    C710191   2.448   1.956  15.906 -0.0567 -0.1111 -0.4780
  685TMC3    C810192   2.075   2.229  15.779  0.5559  0.0118 -0.6203
  685TMC3    O110193   2.503   1.867  15.972 -0.2509  0.0534  0.6169
  685TMC3    O210194   2.080   2.175  15.671  0.7689 -0.6787 -0.1243
  686MPD2     C10195   3.668   2.409  15.710 -0.4893 -0.1639  0.0771
  686MPD2    C110196   3.668   2.282  15.753 -0.4101 -0.1080 -0.4658
  686MPD2    C210197   3.779   2.206  15.745  0.4902 -0.4732 -0.6860
  686MPD2    C310198   3.892   2.259  15.696  0.3680  0.1743 -0.5422
  686MPD2    C410199   3.890   2.381  15.652 -0.6924  0.6437  0.6849
  686MPD2    C510200   3.779   2.461  15.667  0.3134 -0.1617  0.2911
  686MPD2     H10201   3.775   2.102  15.775 -2.5785 -0.3270 -0.6278
  686MPD2    H110202   3.976   2.433  15.611 -0.6190 -0.6088 -0.7792
  686MPD2    H210203   3.576   2.467  15.708 -0.3931 -0.0482 -1.0278
  686MPD2    H310204   3.776   2.564  15.634  0.1179 -0.7230 -1.3968
  686MPD2     N10205   4.009   2.185  15.700  0.1834  0.1150  0.1406
  686MPD2    H510206   4.008   2.091  15.736  0.3942  0.3304  0.7083
  686MPD2    N110207   3.548   2.225  15.801 -0.0594  0.3870 -0.6541
  686MPD2    H710208   3.464   2.279  15.781 -0.0918  0.3540 -0.6066
  687TMC3    C110209   4.214   2.109  15.708 -0.0484  0.4800 -0.3041
  687TMC3    C210210   4.181   2.011  15.620  0.0598 -0.5235  0.3646
  687TMC3    C310211   4.178   1.885  15.669 -0.1134  0.0470 -1.1231
  687TMC3    C410212   4.242   2.085  15.838 -0.9359 -0.1684 -0.4389
  687TMC3    C510213   4.255   1.955  15.883 -0.2922  0.4180  0.6492
  687TMC3    C610214   4.225   1.855  15.789 -0.5531 -0.2383 -0.0764
  687TMC3     C10215   4.138   2.233  15.692  0.1181 -0.1656 -0.4856
  687TMC3     O10216   4.193   2.343  15.705  0.6320  0.0805  0.4882
  687TMC3     H10217   4.158   2.037  15.517 -2.2748  0.9760  1.2612
  687TMC3    H110218   4.273   2.164  15.907 -0.7763  2.2956 -3.3330
  687TMC3    H210219   4.235   1.753  15.824  3.0961  0.6357  1.4619
  687TMC3    C710220   4.258   1.919  16.025  0.0841 -0.1348  0.6117
  687TMC3    C810221   4.041   1.827  15.653 -0.0106 -0.7200  0.1776
  687TMC3    O110222   4.287   1.803  16.040 -0.6073 -0.2479 -0.3096
  687TMC3    O210223   4.009   1.738  15.734  0.0855  0.3426 -0.1643
  688MPD2     C10224   2.841   1.263  17.323 -0.0281  0.9219 -0.2995
  688MPD2    C110225   2.919   1.149  17.338 -0.2488  0.3607  0.1916
  688MPD2    C210226   2.987   1.110  17.226  0.4493 -0.3310  0.2406
  688MPD2    C310227   2.986   1.183  17.116 -0.0456  0.0165  0.3018
  688MPD2    C410228   2.908   1.297  17.103  1.0183 -0.2093  0.1335
  688MPD2    C510229   2.839   1.340  17.211 -0.0877 -0.2788 -0.2358
  688MPD2     H10230   3.046   1.019  17.231 -1.0885 -1.1471  3.4725
  688MPD2    H110231   2.902   1.343  17.005  0.5042  0.2749  0.3967
  688MPD2    H210232   2.777   1.295  17.405 -0.3630  1.5994 -0.8255
  688MPD2    H310233   2.766   1.420  17.209 -0.9094 -1.0105  0.4829
  688MPD2     N10234   3.058   1.161  16.998  0.3111  0.2541 -0.2235
  688MPD2    H510235   3.050   1.231  16.925  4.2347  0.4832 -0.4081
  688MPD2    N110236   2.916   1.065  17.453  0.3902 -0.3658  0.3247
  688MPD2    H710237   2.960   0.974  17.449  0.9763  0.0084 -2.0074
  689TMC3    C110238   2.875   0.996  17.676 -0.8843 -0.3059 -0.3493
  689TMC3    C210239   2.842   1.038   0.064 -0.8058  0.1675  0.0949
  689TMC3    C310240   2.859   0.934   0.156  0.3775 -0.3190 -0.2563
  689TMC3    C410241   2.908   0.872  17.638 -0.1421  0.9084 -0.3517
  689TMC3    C510242   2.930   0.782  17.739 -1.0692 -0.0045  0.5393
  689TMC3    C610243   2.904   0.806   0.129 -0.0479 -0.0800  1.2894
  689TMC3     C10244   2.864   1.099  17.577  0.2060 -0.0195  0.3370
  689TMC3     O10245   2.830   1.208  17.617  0.0104 -0.7490  0.3764
  689TMC3     H10246   2.823   1.142   0.089  1.7301  0.9377 -1.2069
  689TMC3    H110247   2.914   0.835  17.536  1.5022  0.6759 -0.1702
  689TMC3    H210248   2.919   0.736   0.210  0.0300 -2.8797 -1.1653
  689TMC3    C710249   2.934   0.635  17.703  0.4255 -0.0276 -0.0726
  689TMC3    C810250   2.838   0.966   0.296  0.1960 -0.4876  0.1765
  689TMC3    O110251   2.989   0.567   0.044 -0.1709 -0.2194 -0.2599
  689TMC3    O210252   2.928   0.953   0.376  0.0788  0.0692 -0.1570
  690MPD2     C10253   0.142   2.997  15.770  0.2776 -0.3683  1.0601
  690MPD2    C110254   0.156   2.916  15.660 -0.4667 -0.3709 -0.2849
  690MPD2    C210255   0.252   2.935  15.558  0.4409  0.1484 -0.4638
  690MPD2    C310256   0.343   3.032  15.576  0.5363 -0.2540 -0.7202
  690MPD2    C410257   0.333   3.117  15.684 -0.4461  0.4605  0.1994
  690MPD2    C510258   0.240   3.090  15.779  0.4306  0.0380 -0.6723
  690MPD2     H10259   0.240   2.865  15.476 -3.6047 -1.0501  1.1443
  690MPD2    H110260   0.401   3.199  15.702 -2.3326  1.2200  3.9531
  690MPD2    H210261   0.075   2.979  15.853 -0.6793  1.2585  0.6436
  690MPD2    H310262   0.232   3.152  15.867 -2.0896  0.3259 -1.1084
  690MPD2     N10263   0.440   3.048  15.474 -0.0558  0.0887  0.3088
  690MPD2    H510264   0.434   2.986  15.394 -0.5788  1.3228 -0.6238
  690MPD2    N110265   0.086   2.792  15.646 -0.7118  0.1535 -0.1670
  690MPD2    H710266   0.109   2.742  15.561  2.0675 -0.9585  1.2189
  691TMC3    C110267   4.662   2.632  15.675  0.1456 -0.2881 -0.0307
  691TMC3    C210268   4.592   2.646  15.559  0.3430 -0.4711  0.5649
  691TMC3    C310269   4.524   2.535  15.513 -0.5915  0.4224 -0.1713
  691TMC3    C410270   4.681   2.514  15.749 -0.6996 -0.0761 -0.1985
  691TMC3    C510271   4.604   2.405  15.701 -0.0859 -0.3285  0.1752
  691TMC3    C610272   4.527   2.419  15.589  0.9045 -0.3055  0.2984
  691TMC3     C10273   4.735   2.738  15.735  0.1041 -0.3245  0.4564
  691TMC3     O10274   4.710   2.773  15.851  0.0508  0.9314  0.8019
  691TMC3     H10275   4.575   2.744  15.516  1.0647 -1.0074 -0.9484
  691TMC3    H110276   0.001   2.512  15.842  0.2413  1.2562 -0.7417
  691TMC3    H210277   4.469   2.333  15.556 -0.0403  0.2909  0.4148
  691TMC3    C710278   4.619   2.278  15.775  0.2329 -0.1385 -0.0321
  691TMC3    C810279   4.423   2.547  15.410 -0.3293  0.7697 -0.4045
  691TMC3    O110280   4.657   2.278  15.887  0.2741  0.0812 -0.1915
  691TMC3    O210281   4.412   2.430  15.359  0.3436 -0.3470 -0.0682
  692TMC3    C110282   2.110   3.786  15.717  0.0166 -0.1780  0.4450
  692TMC3    C210283   2.164   3.848  15.614 -0.2640  0.1369  0.3420
  692TMC3    C310284   2.252   3.784  15.528  0.1816 -0.2454  0.7365
  692TMC3    C410285   2.155   3.663  15.753  0.0423 -0.2050  0.3323
  692TMC3    C510286   2.247   3.593  15.666 -0.1746 -0.0160 -0.2311
  692TMC3    C610287   2.267   3.646  15.539  0.0318 -0.1275  0.2142
  692TMC3     C10288   2.003   3.851  15.783 -0.3099 -0.9928  0.4283
  692TMC3     O10289   1.927   3.781  15.852  0.3644  0.2453 -0.4939
  692TMC3     H10290   2.100   3.915  15.559 -0.5421 -0.4668 -0.0708
  692TMC3    H110291   2.117   3.629  15.849  0.1539  0.1223  0.4917
  692TMC3    H210292   2.338   3.599  15.472  0.6643  1.2886 -0.1171
  692TMC3    C710293   2.247   3.448  15.667 -0.0063  0.5299  0.1055
  692TMC3    C810294   2.385   3.830  15.570 -0.0433  0.0738 -0.5437
  692TMC3    O110295   2.251   3.391  15.559  0.4871  0.1738  0.3313
  692TMC3    O210296   2.478   3.757  15.559  0.0397  0.1298  0.2333
  693MPD2     C10297   2.078   1.865  10.521 -0.5354 -0.1672  0.1148
  693MPD2    C110298   2.064   1.899  10.647  0.1876  0.6383 -0.2301
  693MPD2    C210299   2.172   1.889  10.728 -0.7774  0.1411 -0.0899
  693MPD2    C310300   2.299   1.849  10.679  0.7256 -0.1074  0.1121
  693MPD2    C410301   2.310   1.819  10.546  0.2939  0.7145  0.5088
  693MPD2    C510302   2.195   1.817  10.470  0.3086 -0.2116  0.3272
  693MPD2     H10303   2.168   1.914  10.834 -2.1480 -1.8186  0.3282
  693MPD2    H110304   2.402   1.778  10.505  0.3452 -0.7631  2.1217
  693MPD2    H210305   1.993   1.841  10.459  0.5183  2.2043 -2.2400
  693MPD2    H310306   2.200   1.777  10.370  1.1250 -0.0413  0.3042
  693MPD2     N10307   2.416   1.842  10.763  0.3637  0.1932  0.0622
  693MPD2    H510308   2.502   1.821  10.713 -0.6080 -0.4073 -1.3618
  693MPD2    N110309   1.940   1.941  10.686 -0.3610 -0.0689  0.1971
  693MPD2    H710310   1.870   1.946  10.613 -0.9055 -0.6949  0.6635
  694TMC3    C110311   1.761   2.022  10.817 -0.1859 -0.8199  0.0994
  694TMC3    C210312   1.670   1.974  10.728 -0.2522 -0.1563  0.0973
  694TMC3    C310313   1.540   1.987  10.759  0.4782 -0.2249  0.6167
  694TMC3    C410314   1.726   2.065  10.938 -0.1741 -0.3895  0.1012
  694TMC3    C510315   1.596   2.073  10.972 -0.1463  0.3118 -0.0779
  694TMC3    C610316   1.498   2.034  10.885 -0.6217 -0.2521  0.6413
  694TMC3     C10317   1.902   1.975  10.811  0.4437 -0.1058  0.3103
  694TMC3     O10318   1.981   2.005  10.902  0.3372  0.7295 -0.5880
  694TMC3     H10319   1.705   1.895  10.663 -0.3023 -0.1232  0.0298
  694TMC3    H110320   1.796   2.076  11.020  1.9507 -2.4234 -1.4397
  694TMC3    H210321   1.392   2.043  10.906 -0.6536  0.4618  0.1756
  694TMC3    C710322   1.564   2.108  11.110 -0.3596 -0.0505 -0.3752
  694TMC3    C810323   1.448   1.907  10.683  1.1269 -0.7262 -0.1304
  694TMC3    O110324   1.658   2.135  11.182 -0.6956 -0.0894 -0.1591
  694TMC3    O210325   1.347   1.865  10.737 -0.0198  1.2912 -0.1403
  695MPD2     C10326   3.240   3.628  13.368  0.3981  0.4011 -0.0262
  695MPD2    C110327   3.242   3.567  13.492  0.6050 -0.4555  0.4967
  695MPD2    C210328   3.120   3.540  13.548  0.1517 -0.7248 -0.1557
  695MPD2    C310329   3.001   3.576  13.490 -0.0237  0.6704  0.0591
  695MPD2    C410330   2.997   3.614  13.359 -0.1608 -0.4950 -0.8675
  695MPD2    C510331   3.118   3.639  13.303  0.2769  0.2618 -0.1152
  695MPD2     H10332   3.126   3.520  13.654  0.3555 -0.2989 -0.0867
  695MPD2    H110333   2.905   3.641  13.308 -0.7649  1.7374  1.4065
  695MPD2    H210334   3.331   3.644  13.311  2.2779 -3.0938  1.9809
  695MPD2    H310335   3.112   3.680  13.202  1.7790 -1.0423 -0.7271
  695MPD2     N10336   2.887   3.569  13.576  0.3265 -0.2334 -0.2420
  695MPD2    H510337   2.909   3.531  13.668  1.0276  0.1482 -0.2558
  695MPD2    N110338   3.356   3.536  13.568  0.5678 -0.1707  0.6518
  695MPD2    H710339   3.338   3.477  13.649 -0.0308 -0.1788  0.5167
  696TMC3    C110340   2.652   3.583  13.639 -0.1953 -0.1857  0.2444
  696TMC3    C210341   2.680   3.557  13.773  0.0789 -0.0437  0.3423
  696TMC3    C310342   2.579   3.580  13.861  0.1106 -0.3834 -0.0527
  696TMC3    C410343   2.526   3.631  13.598 -0.4127  0.2260  0.0171
  696TMC3    C510344   2.431   3.631  13.693 -0.2650  0.3777 -0.2827
  696TMC3    C610345   2.454   3.620  13.829 -0.5817  0.0428 -0.8090
  696TMC3     C10346   2.753   3.585  13.534 -0.6864 -0.0344  0.0250
  696TMC3     O10347   2.714   3.625  13.425 -0.5374  0.5455 -0.1940
  696TMC3     H10348   2.782   3.541  13.805 -0.2204  1.6259  2.1125
  696TMC3    H110349   2.512   3.678  13.501  3.3505  1.3708 -0.0001
  696TMC3    H210350   2.379   3.625  13.907  1.5867 -1.1430  1.3699
  696TMC3    C710351   2.313   3.713  13.660 -0.6174 -1.1195 -0.1754
  696TMC3    C810352   2.600   3.576  14.001 -0.1874 -0.1354 -0.8436
  696TMC3    O110353   2.275   3.700  13.548 -0.9702 -0.2198  0.3921
  696TMC3    O210354   2.533   3.648  14.071  0.5847 -0.2000 -0.3999
  697MPD2     C10355   1.584   1.191  15.676  0.3044  0.2174  1.0794
  697MPD2    C110356   1.655   1.104  15.599  0.1241  0.5744 -0.5356
  697MPD2    C210357   1.690   1.142  15.470  0.1984  0.0736 -0.5505
  697MPD2    C310358   1.660   1.266  15.419  0.6298 -1.3457  0.4438
  697MPD2    C410359   1.597   1.354  15.507  0.1067 -0.3120 -0.3463
  697MPD2    C510360   1.554   1.312  15.632 -0.2213 -0.1593 -0.0671
  697MPD2     H10361   1.740   1.067  15.409  0.4436 -0.9114  0.8581
  697MPD2    H110362   1.572   1.456  15.479  0.5138 -0.1541 -0.1294
  697MPD2    H210363   1.546   1.171  15.776 -0.8020  0.0583  0.6295
  697MPD2    H310364   1.497   1.384  15.689 -0.4217  2.0974 -3.1258
  697MPD2     N10365   1.704   1.302  15.288  0.3980  0.3933 -0.0314
  697MPD2    H510366   1.773   1.248  15.236  0.9317  1.2247 -0.1882
  697MPD2    N110367   1.689   0.971  15.637  0.0557  0.3636  0.2055
  697MPD2    H710368   1.736   0.914  15.568 -2.6296 -2.1504  0.4538
  698TMC3    C110369   1.795   1.447  15.122  0.2117  0.2035  0.7977
  698TMC3    C210370   1.870   1.564  15.110  0.2907  0.0336  0.8561
  698TMC3    C310371   1.943   1.580  14.988  0.0746 -0.4034  0.5722
  698TMC3    C410372   1.801   1.337  15.039 -0.4030 -0.4445 -0.3319
  698TMC3    C510373   1.870   1.363  14.923 -0.1449 -0.9204 -0.2901
  698TMC3    C610374   1.954   1.475  14.898 -0.2033 -0.1968 -0.3552
  698TMC3     C10375   1.707   1.433  15.235  0.9674  0.0721 -0.4237
  698TMC3     O10376   1.687   1.536  15.293 -0.2780  0.3408  0.3559
  698TMC3     H10377   1.883   1.634  15.192 -0.0118  0.8128  0.2445
  698TMC3    H110378   1.734   1.252  15.042 -0.2905 -0.6086 -2.5044
  698TMC3    H210379   1.991   1.495  14.798 -0.9834  3.5386  0.1133
  698TMC3    C710380   1.857   1.261  14.818 -0.1470 -0.4234  0.3267
  698TMC3    C810381   2.048   1.677  15.005  0.1198 -0.7393  0.2007
  698TMC3    O110382   1.754   1.195  14.804  0.1274  0.4758  0.2717
  698TMC3    O210383   2.029   1.770  15.084 -0.3947  0.8860  0.1129
  699TMC3    C110384   1.969   3.855  13.267  0.0249 -0.5175  0.5491
  699TMC3    C210385   1.975   3.716  13.251  0.8412  0.6233  0.0938
  699TMC3    C310386   1.873   3.643  13.305  0.0514  0.1810 -0.8813
  699TMC3    C410387   1.865   3.915  13.333 -0.2299 -0.9037  0.6404
  699TMC3    C510388   1.773   3.838  13.392  0.4761 -0.2615  0.3714
  699TMC3    C610389   1.772   3.696  13.376  0.2187 -0.7529 -0.7097
  699TMC3     C10390   2.034   3.933  13.163 -0.1589  1.0127 -0.6243
  699TMC3     O10391   1.974   4.032  13.117  0.8236 -0.3055  0.7496
  699TMC3     H10392   2.050   3.669  13.189  0.6257  0.2442  0.1268
  699TMC3    H110393   1.852   4.023  13.323  1.6606 -0.6924  0.4866
  699TMC3    H210394   1.694   3.631  13.413  1.1609 -2.8153 -2.3570
  699TMC3    C710395   1.658   3.910  13.460 -0.5475 -0.3256  0.3117
  699TMC3    C810396   1.904   3.510  13.344  0.4357 -0.4600 -0.3567
  699TMC3    O110397   1.684   4.013  13.516  0.0145  0.3682  0.7481
  699TMC3    O210398   1.818   3.425  13.357 -0.8478 -0.3325 -0.0457
  700TMC3    C110399   0.944   1.603  17.269 -0.1649 -0.1078 -0.3016
  700TMC3    C210400   1.007   1.485  17.242 -0.6495 -0.1998  0.2050
  700TMC3    C310401   1.137   1.470  17.288 -0.2725  0.4208 -0.3275
  700TMC3    C410402   1.001   1.688  17.358 -0.6523 -0.0417  0.0062
  700TMC3    C510403   1.123   1.662  17.404 -0.0535  0.2135  0.4986
  700TMC3    C610404   1.196   1.559  17.365  0.7086  0.3712 -1.0066
  700TMC3     C10405   0.952   1.685  17.150 -0.2430  0.2355 -0.9506
  700TMC3     O10406   0.984   1.799  17.168 -0.3885 -0.5195 -0.4715
  700TMC3     H10407   0.968   1.408  17.177  0.9057  0.2414 -1.2535
  700TMC3    H110408   0.948   1.774  17.398  0.5493  0.2216  1.0454
  700TMC3    H210409   1.304   1.556  17.379  0.5297 -0.7607  0.2332
  700TMC3    C710410   1.199   1.778  17.450  0.0230  0.3142 -0.2183
  700TMC3    C810411   1.199   1.336  17.265 -0.2980  0.3135  0.5262
  700TMC3    O110412   1.313   1.758  17.495 -0.0176  0.4949 -0.0465
  700TMC3    O210413   1.175   1.288  17.154  0.5047 -0.1209  0.2938
  701TMC3    C110414   1.320   0.070  15.371  0.4259  0.0188 -0.1183
  701TMC3    C210415   1.319   0.085  15.236 -0.1530  0.5050  0.3618
  701TMC3    C310416   1.405   0.173  15.180 -0.0936  0.3518  0.3569
  701TMC3    C410417   1.416   0.128  15.451 -0.0858 -0.2249 -0.4907
  701TMC3    C510418   1.507   0.208  15.392 -0.0715  0.6888 -0.0322
  701TMC3    C610419   1.501   0.233  15.256  0.4836  0.3765  1.0691
  701TMC3     C10420   1.234   4.709  15.443  0.0656 -0.1062  0.5378
  701TMC3     O10421   1.267   4.659  15.550  0.4547 -0.5131 -0.0316
  701TMC3     H10422   1.250   0.032  15.171 -1.7186  1.0481  1.5904
  701TMC3    H110423   1.407   0.104  15.556 -1.4895  1.1756 -0.2815
  701TMC3    H210424   1.573   0.296  15.205 -0.5815  1.7378  1.2761
  701TMC3    C710425   1.510   0.335  15.462 -0.1565  0.1516 -0.8106
  701TMC3    C810426   1.371   0.245  15.063 -0.2147  0.4043  0.0947
  701TMC3    O110427   1.506   0.432  15.382 -0.2434 -0.2579 -0.0183
  701TMC3    O210428   1.467   0.277  14.992  0.5823 -0.0834 -0.1501
  702MPD2     C10429   0.704   2.540  10.205 -0.8488 -0.2334 -0.2513
  702MPD2    C110430   0.652   2.598  10.318 -0.5267 -0.1155 -0.4530
  702MPD2    C210431   0.681   2.726  10.346  0.4986 -0.2006 -0.5520
  702MPD2    C310432   0.767   2.808  10.275 -0.3428 -0.0149 -0.2861
  702MPD2    C410433   0.825   2.754  10.164 -0.6491 -0.1474 -0.6616
  702MPD2    C510434   0.792   2.625  10.129  0.1751 -0.2710  0.3482
  702MPD2     H10435   0.626   2.757  10.434  1.1451 -0.6827  0.0336
  702MPD2    H110436   0.889   2.811  10.098 -0.0390  0.8024  0.7560
  702MPD2    H210437   0.691   2.435  10.180 -0.6064 -0.5304  0.8710
  702MPD2    H310438   0.841   2.573  10.047  0.5646  0.1450  0.3155
  702MPD2     N10439   0.805   2.933  10.322 -0.2104  0.2229 -0.5005
  702MPD2    H510440   0.874   2.985  10.269  1.3593 -1.5764 -0.1903
  702MPD2    N110441   0.566   2.526  10.407  0.2592 -0.0202 -0.0522
  702MPD2    H710442   0.541   2.583  10.487  1.3432 -1.5007  1.3105
  703TMC3    C110443   0.806   3.129  10.464 -0.3408  0.4505 -0.4693
  703TMC3    C210444   0.744   3.184  10.570 -0.4223 -0.6852 -0.2038
  703TMC3    C310445   0.813   3.252  10.664  0.2158 -0.3120  0.3335
  703TMC3    C410446   0.942   3.132  10.456  0.3855 -0.0040 -0.4235
  703TMC3    C510447   1.014   3.193  10.561 -0.7935 -0.2966  0.1937
  703TMC3    C610448   0.950   3.253  10.668  0.2213 -0.1591  0.2710
  703TMC3     C10449   0.754   2.996  10.438 -0.1833  0.0431 -0.1066
  703TMC3     O10450   0.669   2.960  10.517  0.4209 -0.6168  0.4290
  703TMC3     H10451   0.636   3.192  10.564 -0.3301 -0.9499 -2.4154
  703TMC3    H110452   0.994   3.087  10.372  3.8099  0.4098  1.4602
  703TMC3    H210453   0.999   3.303  10.751  3.0519  1.5685 -2.4759
  703TMC3    C710454   1.159   3.175  10.570 -0.5717  0.5602 -0.4702
  703TMC3    C810455   0.751   3.253  10.798  0.0214 -0.5957 -0.2321
  703TMC3    O110456   1.225   3.163  10.466 -0.9272  0.1315 -0.1552
  703TMC3    O210457   0.779   3.337  10.876 -0.6376 -0.2983 -0.5182
  704TMC3    C110458   3.053   0.536  12.273  0.1930  0.1068 -0.7110
  704TMC3    C210459   3.135   0.523  12.162  0.1204  0.4690 -0.0787
  704TMC3    C310460   3.186   0.396  12.144  0.2582  0.0348  0.2543
  704TMC3    C410461   3.029   0.437  12.367 -0.3033  0.3969  0.4812
  704TMC3    C510462   3.104   0.324  12.359 -0.7997 -0.1031 -0.2314
  704TMC3    C610463   3.173   0.296  12.240  0.4112 -0.0497  0.1604
  704TMC3     C10464   2.959   0.647  12.276  0.3525 -0.1809 -0.3023
  704TMC3     O10465   2.903   0.664  12.382 -0.3602  0.1279 -0.6544
  704TMC3     H10466   3.164   0.611  12.105 -2.4253 -0.2671 -2.4915
  704TMC3    H110467   2.962   0.448  12.452  0.3212  0.1546  1.0128
  704TMC3    H210468   3.241   0.212  12.248  1.2699  0.7240  1.0824
  704TMC3    C710469   3.043   0.219  12.437  0.0699  0.6338  0.4238
  704TMC3    C810470   3.256   0.357  12.024 -0.1037 -0.2456  0.9071
  704TMC3    O110471   2.977   0.248  12.542  0.1283 -0.4459 -0.2280
  704TMC3    O210472   3.301   0.242  12.016  0.2698  0.3959  0.3310
  705MPD2     C10473   2.156   3.557  16.516  0.0460 -0.6131 -0.2463
  705MPD2    C110474   2.152   3.690  16.528  0.5029  0.6262  0.2226
  705MPD2    C210475   2.072   3.750  16.618  0.1854  0.4104 -0.1332
  705MPD2    C310476   1.973   3.672  16.685 -0.3674 -0.3321 -0.0539
  705MPD2    C410477   1.978   3.533  16.668 -0.1434  0.1669  0.7533
  705MPD2    C510478   2.078   3.475  16.590  0.0233 -0.0369  0.1169
  705MPD2     H10479   2.080   3.856  16.637 -0.2239 -0.0349  2.6192
  705MPD2    H110480   1.913   3.466  16.723 -1.0672  1.4529  1.2528
  705MPD2    H210481   2.227   3.503  16.455  1.9053  1.8004 -0.2161
  705MPD2    H310482   2.072   3.366  16.593  1.0917 -0.0470  1.9272
  705MPD2     N10483   1.872   3.723  16.772 -0.7311  0.9017  0.3667
  705MPD2    H510484   1.837   3.652  16.836  0.8642 -0.1314  0.0958
  705MPD2    N110485   2.250   3.773  16.456 -0.0532 -0.3564 -0.6260
  705MPD2    H710486   2.262   3.866  16.496  2.7789 -0.6963 -0.6590
  706TMC3    C110487   2.664   3.875  16.253  0.3437  0.0616  0.2880
  706TMC3    C210488   2.653   3.997  16.297 -0.0243 -0.0256 -0.1941
  706TMC3    C310489   2.537   4.036  16.347  0.4048  1.3499 -0.1519
  706TMC3    C410490   2.567   3.776  16.285  0.3060 -0.1838 -0.1953
  706TMC3    C510491   2.443   3.826  16.325 -0.6017  0.3125 -0.4232
  706TMC3    C610492   2.422   3.956  16.359 -0.3632 -0.1250 -0.2320
  706TMC3     C10493   2.790   3.845  16.186 -0.3821  0.3230  0.0557
  706TMC3     O10494   2.878   3.928  16.208 -0.7717  0.2054  0.5205
  706TMC3     H10495   2.736   4.066  16.289  2.0463 -2.3642  1.1442
  706TMC3    H110496   2.588   3.671  16.269 -1.1233 -0.7340  1.6336
  706TMC3    H210497   2.321   3.988  16.378 -1.1880 -2.4095 -0.6967
  706TMC3    C710498   2.349   3.730  16.368 -0.4837 -0.1910 -0.9633
  706TMC3    C810499   2.515   4.182  16.361 -0.0877  0.2400 -0.0494
  706TMC3    O110500   2.371   3.615  16.330  0.0052  0.1806 -0.0347
  706TMC3    O210501   2.587   4.245  16.284  0.1369 -0.0970  0.0867
  707TMC3    C110502   4.598   0.461   0.764 -0.3061  0.3291  0.7632
  707TMC3    C210503   4.676   0.526   0.863 -0.1106 -0.6824  0.5675
  707TMC3    C310504   0.011   0.440   0.946  0.2133  0.3479  0.5804
  707TMC3    C410505   4.585   0.320   0.750  1.0355 -0.6129 -0.1405
  707TMC3    C510506   4.655   0.243   0.845 -0.3998  0.1301 -0.5489
  707TMC3    C610507   0.001   0.300   0.939 -0.0132 -0.9304 -0.0679
  707TMC3     C10508   4.512   0.547   0.679  0.1149 -1.0655 -0.0611
  707TMC3     O10509   4.551   0.663   0.675 -0.2328  0.7072  0.0950
  707TMC3     H10510   4.688   0.633   0.857 -0.4141 -0.8218 -2.1411
  707TMC3    H110511   4.516   0.263   0.688  0.7496  0.1999 -0.5763
  707TMC3    H210512   0.071   0.246   1.001  2.1537 -1.1195 -2.6432
  707TMC3    C710513   4.690   0.112   0.795  0.2518 -0.3619  0.1500
  707TMC3    C810514   0.107   0.504   1.041 -0.8035 -0.5093 -0.0662
  707TMC3    O110515   4.661   0.078   0.681 -0.7686 -0.2094  0.0008
  707TMC3    O210516   0.139   0.426   1.129  0.1311  0.2794  0.2325
  708MPD2     C10517   0.766   1.827  13.974 -0.8613  0.0983 -0.0255
  708MPD2    C110518   0.702   1.747  14.066  0.3754  0.7068  0.4026
  708MPD2    C210519   0.724   1.779  14.196  0.0211 -0.2573 -0.4071
  708MPD2    C310520   0.830   1.867  14.232 -0.0130  0.5121 -0.1101
  708MPD2    C410521   0.903   1.933  14.129  0.2806 -0.6601  0.2414
  708MPD2    C510522   0.865   1.919  14.001 -0.0202 -0.3123  0.3034
  708MPD2     H10523   0.657   1.737  14.269  0.7246 -1.5801 -0.5337
  708MPD2    H110524   0.979   2.005  14.155 -0.9369  1.2664 -1.4451
  708MPD2    H210525   0.754   1.802  13.869  1.6562 -0.7715 -0.1111
  708MPD2    H310526   0.925   1.966  13.923  0.2188 -0.6696  0.2730
  708MPD2     N10527   0.850   1.898  14.367  0.0043  0.7838 -0.0900
  708MPD2    H510528   0.905   1.979  14.392  1.1618  0.9510 -3.1163
  708MPD2    N110529   0.595   1.668  14.015 -0.2204  0.2655 -0.0827
  708MPD2    H710530   0.566   1.697  13.922 -1.3923 -0.5381  0.0296
  709TMC3    C110531   0.382   1.707  14.101  0.4701 -0.6903 -0.1337
  709TMC3    C210532   0.380   1.796  13.997  0.6392  0.0551  0.3199
  709TMC3    C310533   0.366   1.928  14.029  0.6307  0.2579  0.0312
  709TMC3    C410534   0.367   1.743  14.228 -0.8109 -0.5407  0.0049
  709TMC3    C510535   0.353   1.879  14.264 -0.4518 -0.5974 -0.6793
  709TMC3    C610536   0.360   1.968  14.160  0.4470  0.0243 -0.6180
  709TMC3     C10537   0.502   1.620  14.100 -0.4406 -0.2046 -0.5810
  709TMC3     O10538   0.539   1.562  14.199 -0.5441  0.1502  0.5835
  709TMC3     H10539   0.400   1.757  13.897 -2.5942 -1.5042  0.2824
  709TMC3    H110540   0.383   1.668  14.304 -3.3202 -0.4086  0.6722
  709TMC3    H210541   0.349   2.071  14.194 -1.1266  0.0916 -1.3444
  709TMC3    C710542   0.370   1.919  14.400 -1.0925  0.3784 -0.1354
  709TMC3    C810543   0.470   2.013  13.961 -0.2553 -0.6249  0.0427
  709TMC3    O110544   0.413   2.032  14.418  0.3660  0.6231  0.0949
  709TMC3    O210545   0.547   2.086  14.030  0.0687  0.3116 -1.0832
  710TMC3    C110546   2.314   3.529  17.724 -0.1429 -0.0915  0.1794
  710TMC3    C210547   2.397   3.492  17.623  0.4844  0.3738  0.9766
  710TMC3    C310548   2.509   3.422  17.664 -0.3750 -0.1431  0.3210
  710TMC3    C410549   2.333   3.493   0.113  0.1674 -0.7479 -0.2168
  710TMC3    C510550   2.435   3.402   0.140 -0.2931  0.2090 -0.5690
  710TMC3    C610551   2.532   3.374   0.050  0.3234 -0.3626 -0.7288
  710TMC3     C10552   2.195   3.609  17.690  0.2538 -1.6127 -0.0418
  710TMC3     O10553   2.168   3.604  17.568 -0.2861 -0.4604 -0.3524
  710TMC3     H10554   2.364   3.509  17.521 -0.5699  1.0642  1.4348
  710TMC3    H110555   2.261   3.515   0.193  0.4328  1.7571 -0.6465
  710TMC3    H210556   2.606   3.296   0.061 -0.4291 -1.0868 -0.7768
  710TMC3    C710557   2.401   3.296   0.235 -0.3612  0.6842 -0.1433
  710TMC3    C810558   2.600   3.378  17.559 -0.0955  0.6427 -0.0789
  710TMC3    O110559   2.368   3.320   0.348  0.0346 -0.2162  0.1814
  710TMC3    O210560   2.551   3.343  17.451  0.0504 -0.8704  1.2318
  711TMC3    C110561   1.811   4.717  14.912 -0.4989  0.1369  0.5137
  711TMC3    C210562   1.824   0.071  15.017 -0.5381 -0.0773  0.5676
  711TMC3    C310563   1.931   0.062  15.100 -1.0074 -0.8873 -0.1199
  711TMC3    C410564   1.911   4.636  14.882 -0.4500  0.6446 -0.1548
  711TMC3    C510565   2.014   4.618  14.975 -0.3446  0.4596 -0.5194
  711TMC3    C610566   2.028   4.700  15.083 -0.6980  1.0330 -1.1152
  711TMC3     C10567   1.679   4.657  14.904  0.2877  0.1909 -0.2222
  711TMC3     O10568   1.653   4.586  14.809 -0.4685 -0.1692 -0.5622
  711TMC3     H10569   1.741   0.140  15.025  0.4679  1.1994  0.0108
  711TMC3    H110570   1.902   4.574  14.794  0.0644 -1.0642  0.9813
  711TMC3    H210571   2.098   4.670  15.160 -1.3731 -0.7912 -1.2131
  711TMC3    C710572   2.077   4.484  14.982 -0.8843  0.6559  0.2545
  711TMC3    C810573   1.883   0.079  15.239 -0.3691  0.2120 -0.3157
  711TMC3    O110574   2.155   4.460  15.074  0.4923 -0.1896  0.0608
  711TMC3    O210575   1.765   0.057  15.255  0.6305 -0.1677 -0.7976
  712MPD2     C10576   2.820   0.321  13.879  0.5025 -0.5652 -0.6341
  712MPD2    C110577   2.745   0.393  13.789  0.4929 -0.0792  0.0877
  712MPD2    C210578   2.798   0.517  13.751  0.3037 -0.3788  0.1023
  712MPD2    C310579   2.905   0.578  13.819  0.6567 -0.0393  0.0488
  712MPD2    C410580   2.981   0.496  13.903  0.1365  0.3426 -0.3188
  712MPD2    C510581   2.928   0.371  13.940 -0.3346 -0.1653  0.1430
  712MPD2     H10582   2.744   0.578  13.679  0.9728 -0.5329 -0.5266
  712MPD2    H110583   3.069   0.521  13.961  1.4557  0.3632 -2.3417
  712MPD2    H210584   2.790   0.219  13.898  0.6117 -0.6738 -1.0478
  712MPD2    H310585   2.983   0.312  14.013 -3.5152 -1.8929  1.1661
  712MPD2     N10586   2.957   0.709  13.795  0.1908  0.4925  0.5917
  712MPD2    H510587   3.045   0.731  13.839  0.4319 -0.2024  0.4519
  712MPD2    N110588   2.635   0.340  13.723  0.4609 -0.1071  0.1251
  712MPD2    H710589   2.606   0.392  13.640 -2.4692 -1.6508  0.1658
  713TMC3    C110590   2.975   0.924  13.694  0.2645 -0.0617 -0.5989
  713TMC3    C210591   3.109   0.916  13.713  0.1748 -0.1769  0.0974
  713TMC3    C310592   3.180   1.026  13.705 -0.3143  0.5328  0.2728
  713TMC3    C410593   2.908   1.044  13.682 -0.5047  0.0505 -1.2788
  713TMC3    C510594   2.983   1.154  13.683 -0.0919  0.1698  0.2099
  713TMC3    C610595   3.119   1.146  13.704  0.0285 -0.4163 -0.8677
  713TMC3     C10596   2.896   0.803  13.709  0.4515  0.3060 -0.2818
  713TMC3     O10597   2.780   0.800  13.668 -0.0689  0.3450 -0.6734
  713TMC3     H10598   3.154   0.819  13.698  0.6450  0.3917 -2.1943
  713TMC3    H110599   2.801   1.055  13.663 -1.2745 -1.0505  2.3682
  713TMC3    H210600   3.175   1.239  13.706 -0.0668 -0.3681 -0.4468
  713TMC3    C710601   2.953   1.280  13.622 -0.0607  1.3826 -0.3127
  713TMC3    C810602   3.322   1.033  13.661  0.0072  0.4818 -0.4469
  713TMC3    O110603   3.048   1.334  13.568 -0.2390  0.5789 -0.8024
  713TMC3    O210604   3.352   1.129  13.593 -0.4141 -0.0881  0.1135
  714MPD2     C10605   0.942   0.011   1.330 -0.4692  0.4177  0.2645
  714MPD2    C110606   0.956   4.678   1.217 -0.0879 -0.3594  0.0527
  714MPD2    C210607   0.872   4.704   1.111  0.6951  0.7798  0.0029
  714MPD2    C310608   0.760   0.043   1.124  0.6293  0.0257  0.2392
  714MPD2    C410609   0.732   0.104   1.249  0.0941 -0.0566 -0.4535
  714MPD2    C510610   0.823   0.077   1.350 -0.6960  0.7925  0.0349
  714MPD2     H10611   0.899   4.671   1.011 -1.4566 -1.3072  0.1295
  714MPD2    H110612   0.645   0.167   1.265  0.8278  1.0778 -0.9624
  714MPD2    H210613   1.007   0.017   1.416  1.0949  0.9034 -0.9524
  714MPD2    H310614   0.808   0.122   1.448 -0.6660 -2.1432  1.3856
  714MPD2     N10615   0.687   0.057   1.004 -0.1055  0.0447  0.3922
  714MPD2    H510616   0.727   0.031   0.915  2.7399  2.4247  0.9951
  714MPD2    N110617   1.066   4.591   1.198 -0.4889  0.2478 -0.0246
  714MPD2    H710618   1.127   4.585   1.279 -1.4411 -0.0611  0.6822
  715TMC3    C110619   1.201   4.421   1.122  0.4399 -0.1401 -0.4645
  715TMC3    C210620   1.212   4.302   1.052  0.2007 -0.4488  0.2099
  715TMC3    C310621   1.321   4.226   1.083 -0.4485  0.8759  0.6119
  715TMC3    C410622   1.307   4.472   1.199  0.3661 -0.0598  0.3007
  715TMC3    C510623   1.411   4.390   1.221  0.5307 -0.1263 -0.1367
  715TMC3    C610624   1.425   4.267   1.162  0.6214  0.5007 -0.0367
  715TMC3     C10625   1.075   4.497   1.097  0.1105  0.3596  0.0800
  715TMC3     O10626   0.994   4.451   1.017 -0.5799  0.3322  0.4544
  715TMC3     H10627   1.142   4.263   0.978  0.0819  0.0701  0.0533
  715TMC3    H110628   1.305   4.574   1.238 -2.3689 -0.5071  1.3690
  715TMC3    H210629   1.516   4.214   1.189 -0.3235 -0.9520  0.3397
  715TMC3    C710630   1.534   4.447   1.279 -0.2010 -0.1683  1.1039
  715TMC3    C810631   1.335   4.091   1.014 -0.4785  0.7534 -0.5568
  715TMC3    O110632   1.643   4.406   1.238 -0.9557  0.5626 -0.2738
  715TMC3    O210633   1.296   4.099   0.895 -1.1437 -0.3885 -0.1288
  716MPD2     C10634   1.049   3.238   9.591  0.3282  0.6294  0.2139
  716MPD2    C110635   0.984   3.286   9.481  0.7548  0.4019 -0.4646
  716MPD2    C210636   0.942   3.200   9.384 -0.4428 -0.3344 -1.0294
  716MPD2    C310637   0.976   3.066   9.398 -0.5913  0.1929  0.1601
  716MPD2    C410638   1.048   3.028   9.504  0.9136  0.0211  0.1754
  716MPD2    C510639   1.088   3.113   9.599 -0.2453  0.5560 -0.4367
  716MPD2     H10640   0.892   3.236   9.295 -2.1209 -1.3349 -0.4894
  716MPD2    H110641   1.087   2.928   9.516  1.7522  0.0266 -2.4448
  716MPD2    H210642   1.097   3.302   9.663  1.7454 -0.7686  0.5142
  716MPD2    H310643   1.162   3.085   9.673 -1.3565  0.3109  0.5616
  716MPD2     N10644   0.945   2.980   9.291  0.6783 -0.0280 -0.4869
  716MPD2    H510645   0.898   3.011   9.207 -0.1247  1.1982  0.4145
  716MPD2    N110646   0.962   3.427   9.480  0.1928  0.9118 -0.0113
  716MPD2    H710647   1.015   3.479   9.549 -1.6530  0.9386  1.3555
  717TMC3    C110648   0.910   2.795   9.170  0.3272 -0.2737 -0.2926
  717TMC3    C210649   0.784   2.834   9.148 -0.1086 -0.5020  0.5332
  717TMC3    C310650   0.705   2.758   9.070 -0.0226 -0.1114  0.0538
  717TMC3    C410651   0.960   2.678   9.126  0.2785  0.5449 -0.0648
  717TMC3    C510652   0.881   2.598   9.045  0.0116  0.1305  0.4022
  717TMC3    C610653   0.749   2.637   9.020 -0.5725 -0.2400 -0.7298
  717TMC3     C10654   0.967   2.847   9.292 -1.0787 -0.0810 -0.5773
  717TMC3     O10655   1.041   2.774   9.360  0.3460 -0.5619 -0.8220
  717TMC3     H10656   0.734   2.916   9.198 -2.8727 -0.8391 -1.6835
  717TMC3    H110657   1.060   2.651   9.159  0.8076  0.9436 -1.3209
  717TMC3    H210658   0.679   2.573   8.967  0.3239 -2.7069  1.0537
  717TMC3    C710659   0.918   2.460   9.031 -0.1604  0.2312  0.5839
  717TMC3    C810660   0.559   2.781   9.062 -1.0248 -0.5237  0.2537
  717TMC3    O110661   0.825   2.396   8.983 -0.5244  0.4367 -0.6342
  717TMC3    O210662   0.505   2.706   8.985  0.1998 -0.4652 -0.5150
  718MPD2     C10663   0.055   0.854  13.070  0.5805 -0.1758  0.3088
  718MPD2    C110664   4.675   0.911  13.029 -0.3645  0.2174 -0.4174
  718MPD2    C210665   4.558   0.846  13.065  0.4556  0.1318 -0.0864
  718MPD2    C310666   4.549   0.732  13.140 -0.6999 -0.2398 -0.8578
  718MPD2    C410667   4.668   0.680  13.177  0.8066 -0.4354 -0.0277
  718MPD2    C510668   0.052   0.737  13.140 -0.3804  0.4373  0.0690
  718MPD2     H10669   4.463   0.886  13.034 -0.1143 -1.0570  0.1039
  718MPD2    H110670   4.685   0.582  13.221 -1.5558 -0.9961 -0.3529
  718MPD2    H210671   0.156   0.886  13.045 -0.7638  1.4886 -3.0810
  718MPD2    H310672   0.149   0.699  13.169 -0.2862  1.7877  1.5056
  718MPD2     N10673   4.421   0.678  13.160 -0.3388  0.7814 -0.0749
  718MPD2    H510674   4.345   0.737  13.129 -0.1613 -0.9791 -3.9006
  718MPD2    N110675   4.685   1.032  12.954  0.2310 -0.5801 -0.4732
  718MPD2    H710676   0.042   1.065  12.933 -0.5700  0.1343 -2.9194
  719TMC3    C110677   4.615   1.226  12.835  0.3213  0.0630  0.0771
  719TMC3    C210678   4.502   1.269  12.760  0.7108 -0.5991 -0.2517
  719TMC3    C310679   4.523   1.282  12.624 -0.6964 -0.2420 -0.2109
  719TMC3    C410680   0.008   1.238  12.787 -0.6106 -0.0013  0.1394
  719TMC3    C510681   0.020   1.282  12.654  0.5045  0.1685 -0.1939
  719TMC3    C610682   4.649   1.280  12.570 -0.2115 -0.2787 -0.0519
  719TMC3     C10683   4.577   1.107  12.918 -0.4696 -0.1981 -0.0488
  719TMC3     O10684   4.455   1.086  12.912 -0.6456 -0.2299  0.4987
  719TMC3     H10685   4.405   1.277  12.807  1.0890 -0.8198  0.5559
  719TMC3    H110686   0.094   1.227  12.851  0.3487 -2.3576 -1.5537
  719TMC3    H210687   4.654   1.299  12.464 -1.6564 -0.5554 -0.1741
  719TMC3    C710688   0.157   1.332  12.605 -0.1691  0.8001  0.3766
  719TMC3    C810689   4.419   1.200  12.561  0.0419 -0.2337  0.0188
  719TMC3    O110690   0.163   1.365  12.488 -0.2575  0.5247  0.0366
  719TMC3    O210691   4.400   1.208  12.440 -1.0915  0.6998 -0.6215
  720MPD2     C10692   3.061   2.747  14.002  0.1282 -0.0187 -0.0528
  720MPD2    C110693   3.150   2.822  13.924 -0.1021 -0.0157  0.0671
  720MPD2    C210694   3.265   2.877  13.985 -0.4386 -0.3128 -0.8788
  720MPD2    C310695   3.291   2.857  14.120 -0.5717 -0.0166  1.0134
  720MPD2    C410696   3.201   2.783  14.195 -0.1961  0.0235  1.0978
  720MPD2    C510697   3.087   2.728  14.136 -0.6011 -0.4115  0.1474
  720MPD2     H10698   3.330   2.935  13.922 -0.0461 -0.5294 -0.6749
  720MPD2    H110699   3.210   2.769  14.302 -2.5713  2.5048  1.6265
  720MPD2    H210700   2.976   2.699  13.954  1.5324 -3.1948  0.6379
  720MPD2    H310701   3.021   2.672  14.202 -2.3210 -1.2425 -2.2810
  720MPD2     N10702   3.408   2.925  14.167 -0.0420  0.0502  0.6024
  720MPD2    H510703   3.475   2.961  14.099  0.3025  1.2202  1.5509
  720MPD2    N110704   3.136   2.847  13.787 -0.5376  0.7284 -0.0270
  720MPD2    H710705   3.216   2.893  13.745 -1.1851  2.1755  0.3263
  721TMC3    C110706   3.577   2.978  14.322  0.1402 -0.1237  0.1599
  721TMC3    C210707   3.627   2.978  14.448 -0.3378  0.0279 -0.5232
  721TMC3    C310708   3.756   3.009  14.475 -0.2792  0.0506  0.5385
  721TMC3    C410709   3.665   3.004  14.220  0.3131 -0.3608 -0.3325
  721TMC3    C510710   3.802   3.031  14.249  0.1803 -0.0676 -0.2386
  721TMC3    C610711   3.845   3.042  14.373  0.8034  0.1599  0.3978
  721TMC3     C10712   3.446   2.925  14.298  0.6810 -0.1051 -1.2791
  721TMC3     O10713   3.384   2.892  14.399  0.7913  0.5598  0.0352
  721TMC3     H10714   3.558   2.956  14.529 -0.2397 -1.7782 -0.9253
  721TMC3    H110715   3.639   3.009  14.114 -2.2962  0.0270  0.3098
  721TMC3    H210716   3.947   3.074  14.395  0.3862  0.1284  2.4591
  721TMC3    C710717   3.911   3.042  14.149 -0.1447 -0.0238 -0.2432
  721TMC3    C810718   3.781   3.052  14.612  0.8494 -0.7133 -0.4951
  721TMC3    O110719   4.012   3.092  14.189 -0.3534  0.4586  0.3135
  721TMC3    O210720   3.845   3.153  14.629 -0.5083  0.1694  0.0302
  722MPD2     C10721   1.893   1.574  13.019 -0.0586 -0.7854 -0.4819
  722MPD2    C110722   1.818   1.621  13.124 -0.1488 -0.5144  0.1123
  722MPD2    C210723   1.689   1.675  13.094 -0.3920  0.4101  0.1441
  722MPD2    C310724   1.637   1.669  12.965  0.3557  0.9475 -1.0322
  722MPD2    C410725   1.716   1.616  12.867 -0.4545 -0.3488  0.1090
  722MPD2    C510726   1.837   1.557  12.901 -1.0400 -0.5745 -0.8450
  722MPD2     H10727   1.626   1.710  13.175 -0.5131 -0.4805  0.4274
  722MPD2    H110728   1.683   1.601  12.764  3.1136  0.6675 -1.1807
  722MPD2    H210729   1.997   1.547  13.034 -1.1948 -4.0060  1.4393
  722MPD2    H310730   1.897   1.516  12.821  2.7094 -0.8366  2.0952
  722MPD2     N10731   1.504   1.695  12.941  0.2954 -0.4915 -0.0925
  722MPD2    H510732   1.443   1.710  13.021  1.4184  0.4117  0.5784
  722MPD2    N110733   1.865   1.628  13.257 -0.5620  0.0057 -0.5340
  722MPD2    H710734   1.804   1.676  13.322  0.2284 -0.3882  0.5068
  723TMC3    C110735   1.294   1.682  12.847 -0.6550  0.4126  0.3917
  723TMC3    C210736   1.212   1.587  12.786 -0.7550  0.2161 -0.5887
  723TMC3    C310737   1.081   1.584  12.827 -0.7792  0.0085  0.3850
  723TMC3    C410738   1.247   1.779  12.929  0.2000 -0.3673  0.0318
  723TMC3    C510739   1.111   1.780  12.955  0.7741 -0.0920  0.5427
  723TMC3    C610740   1.024   1.680  12.907 -0.0308  0.7603  0.0998
  723TMC3     C10741   1.436   1.677  12.823  0.4677 -0.3859  0.5173
  723TMC3     O10742   1.470   1.652  12.704  0.3650  0.5119  0.1389
  723TMC3     H10743   1.263   1.514  12.725  0.0640 -2.0247  2.7582
  723TMC3    H110744   1.311   1.854  12.975 -0.5785  0.9933 -1.1199
  723TMC3    H210745   0.924   1.674  12.947  0.5239 -2.3589  1.0472
  723TMC3    C710746   1.060   1.905  12.997  0.1901 -0.1731  0.2616
  723TMC3    C810747   1.008   1.462  12.830  0.2757  0.7985  0.5336
  723TMC3    O110748   1.123   1.959  13.087  0.0793  0.2711 -0.3725
  723TMC3    O210749   0.892   1.463  12.867  0.5714 -0.5038 -0.2560
  724TMC3    C110750   2.615   4.568  10.722  0.3878  0.4143 -0.6289
  724TMC3    C210751   2.643   4.559  10.588 -0.5605 -0.3079 -0.3758
  724TMC3    C310752   2.734   4.643  10.536  0.2668  0.7819  0.2519
  724TMC3    C410753   2.697   4.644  10.801  0.0689  0.1093 -0.2881
  724TMC3    C510754   2.795   4.723  10.741  0.3974 -0.0672 -0.2064
  724TMC3    C610755   2.815   4.722  10.604  0.0591  0.2793 -0.2808
  724TMC3     C10756   2.574   4.442  10.787  0.1297 -0.1118 -0.3087
  724TMC3     O10757   2.572   4.434  10.912  0.0604 -0.0027  0.5825
  724TMC3     H10758   2.563   4.525  10.522  1.6254 -3.2667 -1.4972
  724TMC3    H110759   2.684   4.640  10.908  0.9354  1.3220 -0.1304
  724TMC3    H210760   2.880   0.058  10.556  0.8457  0.1892  0.6533
  724TMC3    C710761   2.841   0.107  10.812 -0.0079 -0.3564  0.2362
  724TMC3    C810762   2.743   4.644  10.389 -0.0244 -0.3830 -0.1219
  724TMC3    O110763   2.904   0.187  10.745  0.0941  0.2921 -0.0939
  724TMC3    O210764   2.732   4.542  10.326 -0.5582 -0.5452  0.0657
  725TMC3    C110765   4.050   3.132  12.919  0.2983  0.1297 -0.0243
  725TMC3    C210766   3.930   3.196  12.934  0.5848  0.3243 -0.9018
  725TMC3    C310767   3.825   3.117  12.907  0.0649 -0.2287 -0.0795
  725TMC3    C410768   4.065   2.999  12.887 -0.5242  0.4775  0.1437
  725TMC3    C510769   3.951   2.922  12.887  0.0802  0.6044  0.1316
  725TMC3    C610770   3.827   2.980  12.896  0.0299  0.1451  0.0163
  725TMC3     C10771   4.165   3.222  12.921 -0.1811 -0.2158 -0.0662
  725TMC3     O10772   4.140   3.341  12.920  0.1202  0.0017 -0.0990
  725TMC3     H10773   3.920   3.302  12.952  2.1148  0.3129  0.0388
  725TMC3    H110774   4.164   2.959  12.866 -0.3841  0.7647  0.2579
  725TMC3    H210775   3.739   2.923  12.869 -0.2203  1.9092 -2.8137
  725TMC3    C710776   3.952   2.784  12.867 -0.0824  0.4927 -0.1077
  725TMC3    C810777   3.694   3.184  12.895  0.8744 -0.5410 -0.1883
  725TMC3    O110778   4.049   2.741  12.800  0.3023  0.7214  0.1555
  725TMC3    O210779   3.686   3.286  12.963  0.0630  0.0905 -0.4821
  726MPD2     C10780   1.817   4.691  10.838  0.8884 -0.1036 -0.8255
  726MPD2    C110781   1.712   4.673  10.752  0.4975 -0.8524  0.3700
  726MPD2    C210782   1.661   4.544  10.732 -0.9311 -0.9801  0.0516
  726MPD2    C310783   1.708   4.441  10.805 -0.1479 -0.4038  0.2359
  726MPD2    C410784   1.814   4.462  10.894 -0.3180  0.5573 -0.5796
  726MPD2    C510785   1.861   4.591  10.913 -0.2687 -0.1422  0.2419
  726MPD2     H10786   1.579   4.535  10.663 -0.7533 -0.4506 -0.2298
  726MPD2    H110787   1.862   4.390  10.960  0.6736 -0.9092 -2.9037
  726MPD2    H210788   1.864   0.050  10.858 -0.3095  0.4698 -0.6951
  726MPD2    H310789   1.944   4.606  10.981  0.4120 -0.1195 -0.5856
  726MPD2     N10790   1.665   4.309  10.789  0.6638 -0.0241  0.0074
  726MPD2    H510791   1.706   4.225  10.828  1.4380 -0.0192 -0.7912
  726MPD2    N110792   1.667   0.055  10.683 -0.4573 -0.5930  0.1284
  726MPD2    H710793   1.726   0.137  10.694 -1.4509 -0.3047  3.1662
  727TMC3    C110794   1.591   0.172  10.489  0.9295 -0.0794 -0.1591
  727TMC3    C210795   1.684   0.269  10.511 -0.2277 -0.0720 -0.1722
  727TMC3    C310796   1.703   0.361  10.412 -0.4880  0.4277 -0.5906
  727TMC3    C410797   1.515   0.167  10.372 -0.4490 -0.7940  0.8692
  727TMC3    C510798   1.541   0.260  10.271  0.5050 -0.4849 -0.0532
  727TMC3    C610799   1.631   0.365  10.294  0.7661  0.4190 -0.5219
  727TMC3     C10800   1.575   0.057  10.580 -0.1925 -0.1296 -0.5061
  727TMC3     O10801   1.485   4.711  10.557 -1.1530 -0.3536  0.0333
  727TMC3     H10802   1.757   0.269  10.591  0.2618 -1.2391 -0.6124
  727TMC3    H110803   1.445   0.085  10.364 -1.4589 -0.0299  1.8656
  727TMC3    H210804   1.661   0.421  10.206 -0.8333 -0.8741 -1.8768
  727TMC3    C710805   1.433   0.299  10.171  0.4375  0.2032  0.6249
  727TMC3    C810806   1.809   0.452  10.442 -0.3104 -0.2420  0.0269
  727TMC3    O110807   1.452   0.405  10.111  0.4178 -0.0797  0.0381
  727TMC3    O210808   1.891   0.439  10.537 -0.5584 -0.0765  0.7450
  728TMC3    C110809   0.653   3.094  15.386 -0.0506 -0.5707  0.2351
  728TMC3    C210810   0.775   3.112  15.444 -0.1661 -0.2903  0.5532
  728TMC3    C310811   0.864   3.186  15.377  0.6743  0.4240  0.0763
  728TMC3    C410812   0.626   3.148  15.262  0.2196 -0.3034 -0.5558
  728TMC3    C510813   0.720   3.222  15.204 -0.6708  0.4855 -0.1682
  728TMC3    C610814   0.843   3.244  15.254 -0.2024  0.2650  0.7660
  728TMC3     C10815   0.557   3.110  15.496  0.0024 -0.2939 -0.2575
  728TMC3     O10816   0.588   3.193  15.583  0.5792 -0.0874  0.0767
  728TMC3     H10817   0.795   3.066  15.540  0.7401 -1.4960 -0.2018
  728TMC3    H110818   0.539   3.121  15.204 -0.5640 -2.1797  1.4623
  728TMC3    H210819   0.918   3.292  15.193  1.0951  0.6393  2.6355
  728TMC3    C710820   0.683   3.290  15.082  0.2524 -0.0579 -0.4269
  728TMC3    C810821   0.998   3.196  15.440 -0.7015  0.7041 -0.3883
  728TMC3    O110822   0.597   3.233  15.017  0.3419  0.0426  0.1470
  728TMC3    O210823   1.041   3.111  15.514  0.0644  0.8042  0.5274
  729MPD2     C10824   2.898   4.682  16.956 -0.2234  0.8066  0.8144
  729MPD2    C110825   2.936   4.548  16.948  0.0105 -0.2072  0.4798
  729MPD2    C210826   2.960   4.477  17.067 -0.0795 -0.3447  0.1524
  729MPD2    C310827   2.966   4.543  17.188  0.4796 -0.5273  0.0413
  729MPD2    C410828   2.935   4.680  17.189  0.4302 -0.2349 -0.2219
  729MPD2    C510829   2.890   0.007  17.081 -1.0143 -0.8112 -0.7142
  729MPD2     H10830   2.977   4.370  17.062 -2.3455 -0.7371  0.8577
  729MPD2    H110831   2.936   4.728  17.285  0.6286  0.5159 -0.6031
  729MPD2    H210832   2.868   0.004  16.869  0.4187 -0.7193 -0.4154
  729MPD2    H310833   2.856   0.110  17.091  2.1043 -0.0118  1.3182
  729MPD2     N10834   3.020   4.487  17.309  0.8120  0.4703 -0.1760
  729MPD2    H510835   3.025   4.554  17.385 -1.3805  0.6171 -0.1453
  729MPD2    N110836   2.957   4.489  16.820 -0.5556  0.2509  0.4684
  729MPD2    H710837   2.946   4.555  16.743  1.0431  2.8920  2.4727
  730TMC3    C110838   3.204   4.378  17.419 -0.4710 -0.5071  0.0730
  730TMC3    C210839   3.330   4.366  17.366 -0.2800  0.3824  0.1843
  730TMC3    C310840   3.425   4.459  17.397  0.1378  0.0290 -0.0698
  730TMC3    C410841   3.183   4.470  17.516  0.0035 -0.1175 -0.1641
  730TMC3    C510842   3.281   4.561  17.552 -0.1161  0.2122 -0.0645
  730TMC3    C610843   3.406   4.546  17.495  0.1088  0.0882  0.0046
  730TMC3     C10844   3.099   4.367  17.315 -0.3645  0.3082  0.0250
  730TMC3     O10845   3.120   4.283  17.234  0.1770  0.2048 -0.3146
  730TMC3     H10846   3.346   4.310  17.274  0.5394 -0.7411  1.0016
  730TMC3    H110847   3.087   4.483  17.565 -0.9413 -1.6528 -1.6034
  730TMC3    H210848   3.480   4.614  17.536 -1.0297 -0.2432  2.5658
  730TMC3    C710849   3.223   4.687  17.533  0.4927 -0.0390  0.8043
  730TMC3    C810850   3.492   4.506  17.281  0.6325 -0.9212 -0.1517
  730TMC3    O110851   3.116   4.686  17.481 -0.7905  0.0637 -0.2302
  730TMC3    O210852   3.509   4.427  17.189  0.9903 -0.0872 -0.2580
  731MPD2     C10853   3.095   2.569  12.156 -0.0057 -0.0771 -0.2881
  731MPD2    C110854   3.212   2.498  12.191  0.3229  0.5280 -0.5413
  731MPD2    C210855   3.245   2.479  12.331  0.1309 -0.9556  0.5843
  731MPD2    C310856   3.158   2.527  12.428 -0.0395  0.1729 -0.2434
  731MPD2    C410857   3.037   2.585  12.393 -1.1013  0.2005  0.0097
  731MPD2    C510858   3.009   2.606  12.258  0.4561  0.1732 -0.2125
  731MPD2     H10859   3.333   2.425  12.365  0.6712 -1.1785 -1.1323
  731MPD2    H110860   2.956   2.617  12.457 -1.9096  0.3873 -1.1144
  731MPD2    H210861   3.061   2.582  12.053 -0.0635 -0.1581 -0.2788
  731MPD2    H310862   2.912   2.649  12.238 -0.3570 -1.0254  1.1622
  731MPD2     N10863   3.180   2.491  12.565 -0.1897  0.7540 -0.0334
  731MPD2    H510864   3.259   2.433  12.592 -1.3608  1.1963  4.3483
  731MPD2    N110865   3.290   2.451  12.077  0.1023  0.6067  0.0786
  731MPD2    H710866   3.251   2.477  11.988 -0.6082 -0.8620 -0.0328
  732TMC3    C110867   3.462   2.380  11.944 -0.3649  0.1462 -0.3883
  732TMC3    C210868   3.372   2.423  11.855  0.2386  0.5832  0.1099
  732TMC3    C310869   3.414   2.518  11.765  0.9044 -0.3384  0.1190
  732TMC3    C410870   3.593   2.419  11.939 -0.2938  0.2341  0.6549
  732TMC3    C510871   3.631   2.512  11.843  0.2073  0.3360  0.4584
  732TMC3    C610872   3.542   2.566  11.752  0.0285  0.1507  0.2795
  732TMC3     C10873   3.414   2.390  12.079 -0.0112  0.3852  1.0683
  732TMC3     O10874   3.475   2.360  12.179  0.1008 -0.5481  0.0461
  732TMC3     H10875   3.275   2.375  11.851  0.5435 -0.2571  3.0987
  732TMC3    H110876   3.659   2.395  12.022  1.4147  0.9138 -0.5007
  732TMC3    H210877   3.565   2.644  11.680  0.1429  0.6447  0.8431
  732TMC3    C710878   3.771   2.541  11.819  0.8053 -0.3600  0.1921
  732TMC3    C810879   3.316   2.606  11.708  0.4503 -0.1035  0.1819
  732TMC3    O110880   3.798   2.640  11.751  0.0187 -0.7052 -0.0489
  732TMC3    O210881   3.353   2.719  11.670  0.5028  0.4843 -0.2797
  733TMC3    C110882   4.041   0.457  13.168  0.9326  0.2986  0.4132
  733TMC3    C210883   4.168   0.444  13.220 -0.4385 -0.0036  0.8744
  733TMC3    C310884   4.261   0.511  13.145  0.9340 -0.1065 -0.1546
  733TMC3    C410885   4.003   0.510  13.047 -0.7339  0.2744 -0.5470
  733TMC3    C510886   4.104   0.560  12.969 -0.6226  0.1459 -0.2253
  733TMC3    C610887   4.232   0.570  13.016  1.0764  0.0460 -0.4206
  733TMC3     C10888   3.930   0.398  13.237 -0.0155 -0.4178  0.0580
  733TMC3     O10889   3.943   0.304  13.309 -0.0459 -0.6021 -0.0880
  733TMC3     H10890   4.184   0.404  13.320 -0.2902 -1.3316  0.3233
  733TMC3    H110891   3.906   0.504  12.997 -1.8251  1.0493  1.4774
  733TMC3    H210892   4.315   0.612  12.962  0.6442 -0.2717 -1.3362
  733TMC3    C710893   4.067   0.633  12.849  0.6351 -0.3931 -0.0308
  733TMC3    C810894   4.390   0.549  13.194 -0.1003 -0.1272 -0.5711
  733TMC3    O110895   3.975   0.595  12.780  0.0739 -0.2067  0.1674
  733TMC3    O210896   4.460   0.461  13.245  0.1822 -0.2459 -0.0389
  734MPD2     C10897   1.832   2.620  12.763 -0.1162  0.7508  0.4814
  734MPD2    C110898   1.718   2.597  12.688 -0.3433 -0.3544 -0.1445
  734MPD2    C210899   1.679   2.698  12.595 -0.1500 -0.1606 -1.4487
  734MPD2    C310900   1.756   2.809  12.578  0.0727  0.6682  0.4054
  734MPD2    C410901   1.869   2.833  12.651 -0.0848 -0.5852 -0.1078
  734MPD2    C510902   1.901   2.739  12.749  0.3923  0.0482 -0.0361
  734MPD2     H10903   1.592   2.680  12.534 -0.4248  0.3178 -1.1999
  734MPD2    H110904   1.927   2.924  12.646  0.6670 -1.0525  0.1201
  734MPD2    H210905   1.885   2.552  12.829 -0.1432 -0.8342 -1.1132
  734MPD2    H310906   1.991   2.757  12.806  0.0833 -0.2643  0.5525
  734MPD2     N10907   1.701   2.899  12.484  0.4286  0.3632  0.0617
  734MPD2    H510908   1.621   2.860  12.436 -1.2450  1.6555  1.7605
  734MPD2    N110909   1.661   2.473  12.690 -0.2113 -0.1838 -0.5977
  734MPD2    H710910   1.704   2.403  12.750 -1.1143  0.2652  0.5909
  735TMC3    C110911   1.537   2.295  12.593  0.3979 -0.0574  0.1906
  735TMC3    C210912   1.430   2.266  12.510  0.0053  0.8371  0.2188
  735TMC3    C310913   1.454   2.187  12.396  0.4818 -0.1294  0.0556
  735TMC3    C410914   1.660   2.233  12.574 -0.2924  0.2898 -0.1902
  735TMC3    C510915   1.680   2.153  12.462  0.2331 -0.5836  0.0238
  735TMC3    C610916   1.578   2.129  12.375  0.1337 -0.3027 -0.3696
  735TMC3     C10917   1.541   2.434  12.630  0.7642  0.3239 -0.5590
  735TMC3     O10918   1.453   2.500  12.577 -0.4966 -0.5037  0.0949
  735TMC3     H10919   1.333   2.310  12.532 -1.6475 -1.0973 -3.2944
  735TMC3    H110920   1.741   2.239  12.646 -1.6021  1.6938  1.1357
  735TMC3    H210921   1.593   2.059  12.293 -0.6358  0.8385 -1.4620
  735TMC3    C710922   1.810   2.126  12.414  0.1329 -0.2589 -0.0642
  735TMC3    C810923   1.411   2.254  12.277 -0.1108  0.5015 -0.7106
  735TMC3    O110924   1.887   2.189  12.487 -0.0490 -0.4478  0.3127
  735TMC3    O210925   1.410   2.183  12.176  0.2151  0.1024  0.3409
  736MPD2     C10926   1.992   1.835  12.274 -0.3675  0.8477 -0.0294
  736MPD2    C110927   1.958   1.972  12.281  0.2421 -0.0982  0.0202
  736MPD2    C210928   2.050   2.069  12.247 -0.1579  0.3554  0.1809
  736MPD2    C310929   2.173   2.035  12.191  0.6420 -0.1888 -0.0579
  736MPD2    C410930   2.208   1.901  12.189  0.2009 -0.2385 -0.0666
  736MPD2    C510931   2.114   1.802  12.233  0.4774  0.0504  0.2207
  736MPD2     H10932   2.022   2.173  12.256  1.6433  0.8700 -0.1528
  736MPD2    H110933   2.305   1.863  12.159 -0.0485 -0.4249 -0.6190
  736MPD2    H210934   1.918   1.757  12.290  1.7755 -0.9745  0.8466
  736MPD2    H310935   2.148   1.700  12.218  0.3301 -0.0288  0.4277
  736MPD2     N10936   2.262   2.137  12.151 -0.0666 -0.3253 -0.2052
  736MPD2    H510937   2.223   2.229  12.163  1.0087 -0.0926  1.4912
  736MPD2    N110938   1.835   2.010  12.345 -0.0626  0.0138 -0.5123
  736MPD2    H710939   1.759   1.944  12.361 -0.0020  0.7207  2.7310
  737TMC3    C110940   2.417   2.253  12.021 -0.2149  0.0436 -0.5901
  737TMC3    C210941   2.350   2.356  12.078  0.7219  0.6977 -0.3029
  737TMC3    C310942   2.278   2.437  12.002  0.3392  0.0013 -0.6204
  737TMC3    C410943   2.447   2.261  11.890 -0.2169  0.7779 -0.2824
  737TMC3    C510944   2.390   2.360  11.812 -0.0371  0.4457 -0.7501
  737TMC3    C610945   2.300   2.452  11.870 -0.3757 -0.7464  0.2069
  737TMC3     C10946   2.376   2.124  12.075 -0.7295  0.5310  0.7044
  737TMC3     O10947   2.426   2.022  12.031  0.2483  0.2845  0.1559
  737TMC3     H10948   2.341   2.368  12.185  2.1122  1.2116 -0.2359
  737TMC3    H110949   2.527   2.200  11.851 -0.5998 -0.4471  0.8451
  737TMC3    H210950   2.224   2.496  11.806  0.1964 -1.5682 -1.0547
  737TMC3    C710951   2.473   2.413  11.709  0.1029  0.6792 -0.7058
  737TMC3    C810952   2.159   2.485  12.055  0.4697 -0.2839 -0.2902
  737TMC3    O110953   2.572   2.349  11.684  0.6413 -0.0167 -0.2871
  737TMC3    O210954   2.105   2.423  12.147 -0.0851 -0.1237  0.3275
  738MPD2     C10955   2.299   1.834  15.000  0.3920  0.1109  0.1173
  738MPD2    C110956   2.284   1.715  14.934  0.8356 -0.1770 -0.0107
  738MPD2    C210957   2.392   1.665  14.862 -0.5218 -0.3241  0.5044
  738MPD2    C310958   2.518   1.715  14.870  0.0953 -0.3155 -0.0632
  738MPD2    C410959   2.535   1.837  14.933  0.7195 -0.3539  0.5573
  738MPD2    C510960   2.425   1.900  14.991  0.2959  0.5793 -0.5703
  738MPD2     H10961   2.378   1.573  14.807  1.2931 -0.2761 -0.0294
  738MPD2    H110962   2.629   1.890  14.937 -0.6382  2.3835 -3.1062
  738MPD2    H210963   2.216   1.886  15.047 -1.3622  0.5395 -3.4423
  738MPD2    H310964   2.434   1.993  15.045  1.0491  1.0393 -1.4950
  738MPD2     N10965   2.625   1.645  14.811  0.0349  0.0462  0.1663
  738MPD2    H510966   2.603   1.558  14.763  0.7345 -0.0679  0.0433
  738MPD2    N110967   2.161   1.635  14.938  0.4985  0.4566 -0.3324
  738MPD2    H710968   2.154   1.546  14.889 -1.4220  0.5676 -0.2657
  739TMC3    C110969   2.851   1.595  14.754 -0.6111  0.0457 -0.1778
  739TMC3    C210970   2.804   1.572  14.620  0.2301  0.1439  0.4241
  739TMC3    C310971   2.902   1.541  14.531 -0.0419  0.4319  0.2113
  739TMC3    C410972   2.979   1.580  14.790  0.9705 -0.2775  0.7640
  739TMC3    C510973   3.067   1.535  14.693 -0.6502 -0.5612 -0.2477
  739TMC3    C610974   3.031   1.515  14.565 -0.2448  0.0219 -0.3515
  739TMC3     C10975   2.761   1.677  14.832 -0.1243 -0.2846  0.2034
  739TMC3     O10976   2.814   1.752  14.913 -0.5852 -0.0881  0.2021
  739TMC3     H10977   2.706   1.596  14.581  0.0406 -0.4953  0.5090
  739TMC3    H110978   3.011   1.615  14.887  0.2884 -1.1441  1.3090
  739TMC3    H210979   3.100   1.473  14.493 -0.5592  0.0700 -0.6757
  739TMC3    C710980   3.204   1.508  14.729  0.3917  0.1310 -0.2795
  739TMC3    C810981   2.867   1.531  14.389 -1.0932  1.2114  0.2551
  739TMC3    O110982   3.276   1.602  14.768  0.5668  0.4305 -0.2090
  739TMC3    O210983   2.751   1.493  14.368 -0.5748 -0.3952 -0.6054
  740TMC3    C110984   3.067   3.144  14.431 -0.4725 -0.0346  0.1876
  740TMC3    C210985   3.050   3.218  14.547  0.5637  0.4969  0.4733
  740TMC3    C310986   3.148   3.305  14.580 -0.0604  0.6448  0.3347
  740TMC3    C410987   3.173   3.165  14.343  0.2075  0.2508  0.3072
  740TMC3    C510988   3.265   3.267  14.377  0.7553  0.0929  0.7780
  740TMC3    C610989   3.254   3.332  14.498  0.2803 -0.3123  0.8032
  740TMC3     C10990   2.952   3.070  14.379  0.7521 -0.3336 -0.2072
  740TMC3     O10991   2.978   3.008  14.280  0.1561 -0.0823 -0.6923
  740TMC3     H10992   2.964   3.205  14.613  0.2352 -0.8375 -0.2081
  740TMC3    H110993   3.200   3.101  14.259  1.2799 -1.3906  1.9172
  740TMC3    H210994   3.329   3.409  14.514 -0.7091  0.7072  0.6024
  740TMC3    C710995   3.396   3.281  14.304 -0.1062  0.6027 -0.0124
  740TMC3    C810996   3.145   3.379  14.705 -0.5904  0.1513 -0.3726
  740TMC3    O110997   3.488   3.292  14.385 -0.6406 -0.2144  0.1301
  740TMC3    O210998   3.040   3.387  14.772  0.3329 -0.6098  0.0837
  741TMC3    C110999   2.628   2.126  14.149 -0.2025  0.4071  0.0052
  741TMC3    C211000   2.497   2.101  14.180 -0.4386  0.7640  0.4753
  741TMC3    C311001   2.473   2.012  14.285 -0.0474 -0.4801  0.2655
  741TMC3    C411002   2.726   2.055  14.214 -0.5967 -0.4403  0.2187
  741TMC3    C511003   2.692   1.973  14.326 -0.0324 -0.2694 -0.2203
  741TMC3    C611004   2.561   1.946  14.368 -0.4122 -0.5512 -0.4172
  741TMC3     C11005   2.661   2.176  14.018 -0.1918  0.2277 -0.4052
  741TMC3     O11006   2.746   2.112  13.957  0.1178 -0.3098 -0.5001
  741TMC3     H11007   2.417   2.148  14.124 -1.2486 -1.3939 -0.1774
  741TMC3    H111008   2.826   2.055  14.172  0.2104 -0.6166  2.1485
  741TMC3    H211009   2.550   1.890  14.460  0.6053  0.2599  0.2040
  741TMC3    C711010   2.805   1.927  14.413  0.0369  0.1416 -0.3111
  741TMC3    C811011   2.333   1.989  14.314  0.2787 -1.0416 -0.8320
  741TMC3    O111012   2.776   1.854  14.509 -0.1107  0.0731  0.0997
  741TMC3    O211013   2.250   2.064  14.265 -0.2169  0.1487  0.0015
  742TMC3    C111014   2.160   1.031  15.189  0.1618  0.0575 -0.9178
  742TMC3    C211015   2.101   0.936  15.106 -0.4031 -0.0290  0.5517
  742TMC3    C311016   2.169   0.821  15.090  0.5046  0.0031  0.3021
  742TMC3    C411017   2.293   1.021  15.235 -0.8916  0.0296 -0.4016
  742TMC3    C511018   2.353   0.903  15.210 -0.0657 -0.6424  0.3065
  742TMC3    C611019   2.295   0.805  15.134  0.0707 -0.7554 -0.0273
  742TMC3     C11020   2.083   1.141  15.235  0.8292  0.3711  0.7788
  742TMC3     O11021   1.964   1.119  15.250 -0.8231  0.4995 -0.1476
  742TMC3     H11022   1.993   0.925  15.099 -0.3683 -1.3522  2.0702
  742TMC3    H111023   2.334   1.085  15.313 -0.3697  0.9003 -1.3849
  742TMC3    H211024   2.355   0.715  15.128  1.6722  0.4433 -2.0844
  742TMC3    C711025   2.481   0.862  15.267 -0.4164  0.2748 -0.1230
  742TMC3    C811026   2.124   0.716  14.996  0.2547 -0.3725 -0.3858
  742TMC3    O111027   2.560   0.796  15.193  0.4309  0.2209 -0.1600
  742TMC3    O211028   2.205   0.631  14.961 -0.3278 -0.1073  0.6423
  743MPD2     C11029   0.812   1.300   1.410 -0.1740  0.0758  0.5720
  743MPD2    C111030   0.760   1.405   1.322  0.4240  0.8749  0.2895
  743MPD2    C211031   0.846   1.500   1.287  0.9451  0.2695  0.1080
  743MPD2    C311032   0.980   1.493   1.318 -0.3464  0.2807  0.6417
  743MPD2    C411033   1.025   1.396   1.406  0.4883 -0.6196 -1.1045
  743MPD2    C511034   0.942   1.299   1.451  0.2723  0.5486 -0.4914
  743MPD2     H11035   0.817   1.584   1.224  1.1592  1.2986  1.3859
  743MPD2    H111036   1.129   1.388   1.433  0.9217 -0.6938 -2.8147
  743MPD2    H211037   0.749   1.218   1.442 -1.2823  0.5717 -0.3255
  743MPD2    H311038   0.976   1.214   1.509 -0.4915 -0.6866 -1.8631
  743MPD2     N11039   1.064   1.589   1.259 -0.4848 -1.0775  0.2422
  743MPD2    H511040   1.021   1.650   1.191 -0.2074  0.1321  1.1501
  743MPD2    N111041   0.632   1.392   1.269  0.8798 -0.0734 -0.6508
  743MPD2    H711042   0.588   1.305   1.295  0.0696  0.6593  0.4619
  744TMC3    C111043   0.425   1.450   1.160  0.6208  0.7691 -0.2021
  744TMC3    C211044   0.400   1.318   1.138  0.0207 -0.2197 -0.1521
  744TMC3    C311045   0.274   1.281   1.097 -0.7658 -0.4086 -0.4557
  744TMC3    C411046   0.340   1.551   1.125 -0.2122  0.1601 -0.1661
  744TMC3    C511047   0.214   1.512   1.089 -0.6898  0.2708  0.3774
  744TMC3    C611048   0.180   1.380   1.073  0.1275  0.6441  0.0520
  744TMC3     C11049   0.563   1.488   1.198  0.1871  0.1451  0.6432
  744TMC3     O11050   0.590   1.600   1.162  0.2657  0.0566  0.3179
  744TMC3     H11051   0.474   1.239   1.142 -1.3975 -1.5791 -1.0128
  744TMC3    H111052   0.361   1.655   1.147  0.6545  0.3047 -1.6421
  744TMC3    H211053   0.088   1.352   1.024  0.5717  0.2496 -0.5432
  744TMC3    C711054   0.141   1.606   0.998  0.7300  0.1370 -0.7466
  744TMC3    C811055   0.226   1.147   1.096  0.9032 -0.4267  0.2381
  744TMC3    O111056   0.033   1.568   0.958 -0.8899 -0.2848 -0.0250
  744TMC3    O211057   0.118   1.121   1.049  0.5067 -0.0725  0.0824
  745TMC3    C111058   2.432   0.215  13.685  0.0804  1.0833  0.4307
  745TMC3    C211059   2.331   0.214  13.777 -0.3956  0.9748 -0.7878
  745TMC3    C311060   2.221   0.296  13.765 -0.0005 -0.3317 -0.0740
  745TMC3    C411061   2.427   0.297  13.578  0.3864  0.1658  0.0794
  745TMC3    C511062   2.320   0.381  13.575  0.5821 -0.8552 -0.5877
  745TMC3    C611063   2.213   0.387  13.661  0.7087 -0.0711 -0.2222
  745TMC3     C11064   2.554   0.238  13.766  0.0497  0.1917 -0.1317
  745TMC3     O11065   2.547   0.213  13.883  1.1541  0.0703 -0.4893
  745TMC3     H11066   2.330   0.154  13.867 -1.5781  0.1305 -1.3659
  745TMC3    H111067   2.507   0.294  13.504  0.8036 -1.2427  0.5736
  745TMC3    H211068   2.132   0.458  13.648  0.8870  0.0898 -0.4524
  745TMC3    C711069   2.313   0.486  13.472  0.1357 -0.0118 -0.0851
  745TMC3    C811070   2.174   0.353  13.892  0.8012 -0.3484 -0.0122
  745TMC3    O111071   2.207   0.549  13.460 -0.3958  0.2812 -0.4534
  745TMC3    O211072   2.084   0.433  13.882  0.1004  0.3932  0.0035
  746TMC3    C111073   0.404   2.345  10.739 -0.5025 -0.5500 -0.5750
  746TMC3    C211074   0.471   2.402  10.629 -0.1933  0.0221  0.5707
  746TMC3    C311075   0.444   2.351  10.504  0.2230 -0.5060 -0.1678
  746TMC3    C411076   0.305   2.262  10.725 -0.0081  0.3914 -0.3618
  746TMC3    C511077   0.280   2.205  10.606  0.2059 -0.2192 -0.0458
  746TMC3    C611078   0.342   2.260  10.492 -1.0105  0.2561  0.0721
  746TMC3     C11079   0.444   2.392  10.867  0.5759 -0.1446  0.4104
  746TMC3     O11080   0.363   2.433  10.946  0.2984 -0.4445  0.2754
  746TMC3     H11081   0.557   2.466  10.645 -1.1406  1.2594  0.6703
  746TMC3    H111082   0.246   2.217  10.804  0.9670  0.2756  0.3014
  746TMC3    H211083   0.318   2.220  10.395 -1.0647 -2.2997  1.1399
  746TMC3    C711084   0.156   2.135  10.594 -0.4867 -0.0480  0.0480
  746TMC3    C811085   0.497   2.411  10.381 -0.0966 -0.2595  0.1206
  746TMC3    O111086   0.060   2.166  10.663  0.4506 -0.1058  0.4499
  746TMC3    O211087   0.482   2.358  10.275 -0.1842 -0.1149 -0.1720
  747TMC3    C111088   3.015   2.794  10.962 -0.1681  0.4976 -0.2050
  747TMC3    C211089   2.897   2.722  10.984  0.7992 -0.0691 -0.2429
  747TMC3    C311090   2.872   2.696  11.120 -0.5826  0.2997  0.7010
  747TMC3    C411091   3.088   2.862  11.057  0.3579 -0.2006 -1.2317
  747TMC3    C511092   3.049   2.835  11.184 -0.4536 -0.6519 -0.2465
  747TMC3    C611093   2.944   2.748  11.226 -0.1678  0.0920  0.1683
  747TMC3     C11094   3.073   2.805  10.836 -0.6257  0.2542 -0.4083
  747TMC3     O11095   3.150   2.899  10.826 -0.3133  0.5102 -0.0341
  747TMC3     H11096   2.830   2.684  10.908 -0.0506 -0.0736  0.5062
  747TMC3    H111097   3.181   2.915  11.041 -0.2078  0.6370 -1.7459
  747TMC3    H211098   2.907   2.751  11.327 -0.7994 -1.5226 -0.0111
  747TMC3    C711099   3.142   2.872  11.286 -0.3431  0.0559  0.1640
  747TMC3    C811100   2.731   2.680  11.149 -0.3315  0.4366  0.1464
  747TMC3    O111101   3.133   2.801  11.383  0.5502 -0.7148 -0.0095
  747TMC3    O211102   2.653   2.696  11.054  0.4259 -0.1179  0.2072
  748MPD2     C11103   0.323   4.010   1.889  0.0154 -0.3044 -0.0947
  748MPD2    C111104   0.267   4.015   1.768 -0.2797 -0.8242 -0.0297
  748MPD2    C211105   0.322   3.968   1.651  0.2664 -0.3397  0.1654
  748MPD2    C311106   0.453   3.919   1.656 -0.0151  0.2927 -0.5361
  748MPD2    C411107   0.510   3.912   1.779 -0.3484  0.3496  0.1965
  748MPD2    C511108   0.449   3.960   1.888  0.2671  0.6268  0.5913
  748MPD2     H11109   0.267   3.967   1.557  0.6200  4.5072 -0.0511
  748MPD2    H111110   0.610   3.874   1.797 -0.8206  0.0324  2.2131
  748MPD2    H211111   0.282   4.043   1.983 -1.4351 -0.2198 -0.7660
  748MPD2    H311112   0.496   3.944   1.985  0.9458 -0.8395  0.0234
  748MPD2     N11113   0.528   3.869   1.547 -0.3528 -0.8203  0.4986
  748MPD2    H511114   0.625   3.845   1.568  0.2522  1.2509  0.1059
  748MPD2    N111115   0.140   4.072   1.779 -0.0692 -0.9138  0.4750
  748MPD2    H711116   0.116   4.112   1.869 -0.1975 -0.6456  0.3235
  749TMC3    C111117   0.593   3.840   1.313  0.4069  0.2608 -0.5749
  749TMC3    C211118   0.677   3.738   1.336 -0.0655 -0.7813 -0.1756
  749TMC3    C311119   0.747   3.678   1.235 -0.4961  0.1974 -0.0234
  749TMC3    C411120   0.594   3.898   1.189 -0.0547 -0.3117 -0.6883
  749TMC3    C511121   0.667   3.840   1.087  0.5218 -0.1725  0.0847
  749TMC3    C611122   0.746   3.730   1.110  0.0604 -0.1572 -0.1785
  749TMC3     C11123   0.499   3.894   1.413 -0.4062 -0.8324 -0.3956
  749TMC3     O11124   0.411   3.960   1.369  0.2488 -0.1808 -0.7448
  749TMC3     H11125   0.672   3.684   1.430 -0.5174 -1.2747 -0.4838
  749TMC3    H111126   0.530   3.981   1.161  0.6221  0.3918 -0.1585
  749TMC3    H211127   0.817   3.694   1.036  1.6376  1.8878  0.3353
  749TMC3    C711128   0.679   3.915   0.963 -0.0129 -0.6018 -0.4042
  749TMC3    C811129   0.853   3.591   1.280  0.1262 -0.1444 -1.0992
  749TMC3    O111130   0.673   4.040   0.964 -0.0385  0.6518 -0.1227
  749TMC3    O211131   0.890   3.612   1.396  0.0482 -0.0906  0.7401
  750MPD2     C11132   0.726   4.369  11.191 -0.3598  0.4559  0.1925
  750MPD2    C111133   0.601   4.325  11.211  0.1244  0.2405  0.2997
  750MPD2    C211134   0.556   4.205  11.150 -0.6808  0.2740 -0.9747
  750MPD2    C311135   0.644   4.134  11.068 -0.2561  0.1625  0.3227
  750MPD2    C411136   0.772   4.185  11.043  0.3547  0.1232  0.3671
  750MPD2    C511137   0.810   4.300  11.109  0.0589 -0.1624  0.5176
  750MPD2     H11138   0.453   4.175  11.166 -0.7078  0.4909 -0.7258
  750MPD2    H111139   0.844   4.130  10.984 -1.8793 -2.0611 -0.3218
  750MPD2    H211140   0.752   4.469  11.223  0.0945 -0.1545  1.7415
  750MPD2    H311141   0.913   4.327  11.089  0.1119 -1.2556 -0.6767
  750MPD2     N11142   0.612   4.015  11.002  0.7031 -0.1718  0.3321
  750MPD2    H511143   0.684   3.978  10.941 -0.7201 -2.0386 -0.2482
  750MPD2    N111144   0.524   4.405  11.301  0.2386  0.2483  0.3179
  750MPD2    H711145   0.571   4.492  11.323 -1.5010  1.9027 -2.3781
  751TMC3    C111146   0.491   3.825  10.935  0.1432  0.3482 -0.7319
  751TMC3    C211147   0.394   3.737  10.970  0.5153 -0.3314 -0.2680
  751TMC3    C311148   0.396   3.620  10.900  0.2974 -0.0478  0.7038
  751TMC3    C411149   0.568   3.816  10.822 -1.3066 -0.4956  0.0173
  751TMC3    C511150   0.562   3.703  10.746  0.6926  0.0867  0.1465
  751TMC3    C611151   0.475   3.606  10.791  0.1218 -0.4481 -0.3781
  751TMC3     C11152   0.492   3.944  11.019 -0.4126  0.2810  0.3959
  751TMC3     O11153   0.400   3.966  11.100  0.3669 -0.0407 -0.3566
  751TMC3     H11154   0.336   3.736  11.061  1.9714 -0.0947  0.6604
  751TMC3    H111155   0.654   3.879  10.800 -1.9734  0.7252  0.9257
  751TMC3    H211156   0.470   3.504  10.755  2.5803 -0.3422 -1.0066
  751TMC3    C711157   0.680   3.665  10.674 -1.0090 -0.1475  0.5564
  751TMC3    C811158   0.321   3.502  10.946  0.6749  0.1600  0.1957
  751TMC3    O111159   0.785   3.703  10.717 -0.4181 -0.5909  0.2838
  751TMC3    O211160   0.285   3.427  10.854 -0.7382 -0.4491  0.2442
  752TMC3    C111161   3.890   4.366  17.273  0.0667 -0.0209  0.7745
  752TMC3    C211162   3.979   4.279  17.346 -0.9700 -0.7578 -0.2488
  752TMC3    C311163   3.996   4.291  17.482  0.2525 -0.1294 -0.9063
  752TMC3    C411164   3.838   4.474  17.336 -0.4504  0.4060  0.5693
  752TMC3    C511165   3.878   4.487  17.466  0.9112 -0.0435 -0.5638
  752TMC3    C611166   3.947   4.396  17.552  0.4008  0.3734 -0.8966
  752TMC3     C11167   3.906   4.370  17.135 -0.0740 -0.2671 -0.1247
  752TMC3     O11168   4.016   4.344  17.086 -0.1166  0.2486  0.4927
  752TMC3     H11169   4.027   4.199  17.289 -0.6070  0.1516 -1.2118
  752TMC3    H111170   3.789   4.551  17.277 -1.3809  0.3903  1.3247
  752TMC3    H211171   3.957   4.403  17.660 -1.3928  1.0526 -0.7648
  752TMC3    C711172   3.828   4.604  17.536 -0.3127  0.6836  0.2655
  752TMC3    C811173   4.057   4.177  17.553  0.4153  0.3491  0.3197
  752TMC3    O111174   3.720   4.645  17.500  0.1531 -0.0564 -0.3234
  752TMC3    O211175   4.109   4.204  17.659  0.0705  0.1552  0.2540
  753TMC3    C111176   1.151   0.459  13.275  0.1045 -0.3401  0.0884
  753TMC3    C211177   1.261   0.410  13.333  0.3321 -0.2201 -0.7351
  753TMC3    C311178   1.255   0.289  13.393 -0.7366  0.2412 -0.2271
  753TMC3    C411179   1.040   0.378  13.270  0.0511 -0.4072 -0.1496
  753TMC3    C511180   1.047   0.244  13.310  0.6225  0.7185 -0.2287
  753TMC3    C611181   1.162   0.195  13.370 -0.8081 -0.7955  0.5083
  753TMC3     C11182   1.127   0.600  13.262 -0.3908  0.4608  0.1814
  753TMC3     O11183   1.010   0.634  13.258  0.0220  0.4295  0.1058
  753TMC3     H11184   1.347   0.473  13.353 -0.3480  0.2672  0.6557
  753TMC3    H111185   0.950   0.417  13.223 -1.1589 -3.2099 -0.1694
  753TMC3    H211186   1.167   0.099  13.420 -1.2399 -2.2549 -2.2340
  753TMC3    C711187   0.918   0.187  13.325  0.0307 -0.0415  0.1071
  753TMC3    C811188   1.350   0.261  13.495  0.1892 -0.4633 -0.3916
  753TMC3    O111189   0.818   0.255  13.335 -0.2842  0.0910  1.0498
  753TMC3    O211190   1.394   0.149  13.497 -0.8779 -0.1526 -0.2026
  754MPD2     C11191   0.488   4.297  13.044 -0.2393  0.5217  0.3021
  754MPD2    C111192   0.488   4.161  13.023  0.6056  0.5407 -0.0253
  754MPD2    C211193   0.362   4.098  13.002  0.3121  0.5180  0.6153
  754MPD2    C311194   0.240   4.161  12.989  0.0795  0.0912 -0.4690
  754MPD2    C411195   0.252   4.295  13.001  0.0418 -0.1475 -0.2165
  754MPD2    C511196   0.368   4.363  13.028 -0.4875 -0.8528 -0.0325
  754MPD2     H11197   0.361   3.990  12.998 -2.3196  0.6467 -1.6980
  754MPD2    H111198   0.163   4.357  13.009 -0.1531 -0.4327 -0.1470
  754MPD2    H211199   0.580   4.345  13.076  0.1146  0.4455 -0.5988
  754MPD2    H311200   0.364   4.470  13.040  2.0462 -1.0312  2.3178
  754MPD2     N11201   0.112   4.104  12.977 -0.2903 -0.8826 -0.1992
  754MPD2    H511202   0.028   4.157  12.956 -1.9692 -3.3263  0.4323
  754MPD2    N111203   0.605   4.086  13.058 -0.2030 -0.1227 -0.1017
  754MPD2    H711204   0.672   4.128  13.121 -0.2848  0.2570 -0.2676
  755MPD2     C11205   4.146   4.566  12.970  0.7194  0.9784  0.1716
  755MPD2    C111206   4.091   4.437  12.980  0.1309  0.3604  0.7156
  755MPD2    C211207   4.173   4.329  12.998 -0.4705  0.2864  0.6637
  755MPD2    C311208   4.312   4.341  13.001  0.9693  0.0368  0.2153
  755MPD2    C411209   4.362   4.468  12.979  0.5875  0.8770 -0.8649
  755MPD2    C511210   4.282   4.571  12.960  0.8224  0.5827  0.1713
  755MPD2     H11211   4.115   4.237  13.008 -0.4007  0.3418  1.5726
  755MPD2    H111212   4.468   4.492  12.979  0.6380  0.6463 -1.8110
  755MPD2    H211213   4.085   4.654  12.957 -0.3796  0.2894  0.5850
  755MPD2    H311214   4.331   4.668  12.963 -0.3418  1.2730 -3.0919
  755MPD2     N11215   4.403   4.231  12.994  0.2202 -0.1515  0.1252
  755MPD2    H511216   4.502   4.254  12.990  0.4023 -0.7360  1.0973
  755MPD2    N111217   3.955   4.407  12.938  0.0605  0.4806  0.1845
  755MPD2    H711218   3.922   4.313  12.958  0.0958  0.0072 -1.9820
  756MPD2     C11219   0.530   0.327   9.754  0.4306  0.6189  0.2126
  756MPD2    C111220   0.426   0.228   9.758 -0.4544  0.7881 -0.4571
  756MPD2    C211221   0.336   0.219   9.654 -0.0106 -0.1402  0.1949
  756MPD2    C311222   0.346   0.322   9.553  0.6979 -0.1503  0.2246
  756MPD2    C411223   0.448   0.413   9.550  0.4387  0.1793  0.3080
  756MPD2    C511224   0.541   0.412   9.647 -0.3234  0.0584  0.3472
  756MPD2     H11225   0.250   0.153   9.662 -0.2740  0.3070  1.0580
  756MPD2    H111226   0.473   0.493   9.481  3.5461 -2.0861 -1.1902
  756MPD2    H211227   0.590   0.343   9.844  0.7163  0.4757  0.0483
  756MPD2    H311228   0.608   0.495   9.663 -1.1034  1.0756 -1.6795
  756MPD2     N11229   0.243   0.319   9.455  0.1864  0.0393  0.5727
  756MPD2    H511230   0.176   0.243   9.462 -1.2990  1.1520 -1.2760
  756MPD2    N111231   0.394   0.144   9.869 -0.0876  0.1211 -0.3585
  756MPD2    H711232   0.304   0.097   9.867  0.1760 -0.2640 -2.7761
  757MPD2     C11233   4.298   4.534   9.386 -0.1889  0.2125  0.1650
  757MPD2    C111234   4.364   4.584   9.495  0.5492 -0.5464  0.6278
  757MPD2    C211235   4.434   4.700   9.478 -0.0057  0.1684  0.2376
  757MPD2    C311236   4.435   0.035   9.360 -0.0042 -0.4212  0.1439
  757MPD2    C411237   4.369   4.716   9.249  0.1120  0.0348 -0.6364
  757MPD2    C511238   4.298   4.599   9.262 -0.5650  0.2474 -0.4571
  757MPD2     H11239   4.493   0.001   9.560  0.4465  0.7957 -0.3673
  757MPD2    H111240   4.376   0.018   9.147  1.6983  2.4493  0.3872
  757MPD2    H211241   4.241   4.442   9.394 -0.8508  0.5787 -0.3761
  757MPD2    H311242   4.258   4.561   9.169  0.8363  0.1191 -1.0055
  757MPD2     N11243   4.521   0.147   9.352 -0.5319  0.4145 -0.6738
  757MPD2    H511244   4.594   0.155   9.422 -2.0281 -0.4414  0.9666
  757MPD2    N111245   4.368   4.499   9.613  0.3302  0.0608 -0.0190
  757MPD2    H711246   4.303   4.421   9.603  1.9403 -0.9625 -2.6090
  758MPD2     C11247   4.371   3.621  15.597 -0.0694  0.5166  0.1692
  758MPD2    C111248   4.439   3.538  15.681 -0.6212  0.2931 -0.0960
  758MPD2    C211249   4.394   3.527  15.817  0.4422  0.2114  0.1138
  758MPD2    C311250   4.307   3.622  15.865 -0.1379 -0.5737 -0.4961
  758MPD2    C411251   4.243   3.711  15.785  0.3427 -0.9480 -0.7052
  758MPD2    C511252   4.275   3.700  15.650 -0.9539  0.1934 -0.1473
  758MPD2     H11253   4.451   3.457  15.877  0.3801 -0.7182 -0.9189
  758MPD2    H111254   4.160   3.771  15.818 -1.4036 -2.9014 -1.5426
  758MPD2    H211255   4.392   3.626  15.490 -1.2461 -1.1767 -0.1332
  758MPD2    H311256   4.215   3.760  15.584 -0.0034  0.1614 -1.0426
  758MPD2     N11257   4.288   3.636  16.002 -0.2725 -0.7917  0.4437
  758MPD2    H511258   4.252   3.726  16.032  0.0172  0.1253 -1.9736
  758MPD2    N111259   4.560   3.474  15.634  0.4115  0.1206 -0.1957
  758MPD2    H711260   4.584   3.477  15.535 -0.9736  2.7631 -0.4505
  759MPD2     C11261   3.782   2.429  10.607  0.5104 -0.1995  0.3918
  759MPD2    C111262   3.773   2.386  10.470  0.3142  0.0265 -0.0452
  759MPD2    C211263   3.807   2.471  10.364 -0.4500 -0.2866 -0.5625
  759MPD2    C311264   3.853   2.596  10.394 -0.3218 -0.6106  0.3189
  759MPD2    C411265   3.853   2.637  10.525  0.8555 -0.0073 -0.1868
  759MPD2    C511266   3.814   2.564  10.629 -0.6172  0.1879  0.1333
  759MPD2     H11267   3.822   2.436  10.263  1.4760  1.6786 -0.9329
  759MPD2    H111268   3.884   2.734  10.562  0.7554 -0.3190  0.7150
  759MPD2    H211269   3.755   2.362  10.689  3.2413 -1.2422  0.4356
  759MPD2    H311270   3.840   2.589  10.731 -1.8037 -0.8777  0.6969
  759MPD2     N11271   3.914   2.675  10.293  0.0551 -0.0212 -0.5231
  759MPD2    H511272   3.938   2.626  10.207  0.5760 -0.3336 -0.1917
  759MPD2    N111273   3.734   2.255  10.433 -0.8115 -0.0283  0.0709
  759MPD2    H711274   3.730   2.238  10.333  1.9820  1.7398 -0.3442
  760MPD2     C11275   3.254   3.794  11.563 -0.2105  0.2937  0.3281
  760MPD2    C111276   3.368   3.773  11.629  0.1455  0.4304 -0.6118
  760MPD2    C211277   3.371   3.662  11.715  0.8911  0.1288 -1.0202
  760MPD2    C311278   3.271   3.573  11.729  0.1053  0.1390  0.5021
  760MPD2    C411279   3.156   3.599  11.664  0.1589  0.0668 -0.6488
  760MPD2    C511280   3.153   3.702  11.569 -0.3281  0.0034  0.3156
  760MPD2     H11281   3.457   3.649  11.779  0.1290  1.1178  0.1953
  760MPD2    H111282   3.070   3.533  11.663  0.2843 -0.1003 -0.2872
  760MPD2    H211283   3.251   3.881  11.499 -0.8100 -0.1587 -0.2515
  760MPD2    H311284   3.068   3.718  11.503 -0.0741  1.6909  0.4014
  760MPD2     N11285   3.274   3.457  11.808  0.6950  0.0738 -0.1469
  760MPD2    H511286   3.189   3.403  11.821  2.1981 -2.0942  0.6379
  760MPD2    N111287   3.473   3.866  11.604 -0.0172  0.2190 -0.2480
  760MPD2    H711288   3.458   3.932  11.527 -3.9217  0.0781  0.4045
  761MPD2     C11289   0.177   3.187  11.323  0.1089  0.1736 -0.6521
  761MPD2    C111290   0.157   3.179  11.188  0.2591 -0.5401  0.7862
  761MPD2    C211291   0.197   3.279  11.100  0.1777  0.3831 -0.2290
  761MPD2    C311292   0.269   3.386  11.153 -0.0863  0.0089 -0.7013
  761MPD2    C411293   0.293   3.393  11.288 -0.7536 -0.1282  0.2755
  761MPD2    C511294   0.241   3.299  11.373  0.0913 -0.1492  0.4671
  761MPD2     H11295   0.175   3.265  10.995 -1.1844 -2.1945  0.3876
  761MPD2    H111296   0.350   3.471  11.337 -2.0329 -0.2983  2.0240
  761MPD2    H211297   0.135   3.123  11.400  1.1705 -1.1248 -1.1803
  761MPD2    H311298   0.245   3.312  11.481  0.4065 -0.5678  0.5060
  761MPD2     N11299   0.326   3.493  11.080  0.8010 -0.1760 -0.9526
  761MPD2    H511300   0.375   3.565  11.133 -1.0129 -1.0557  1.8586
  761MPD2    N111301   0.084   3.066  11.139 -0.4663 -0.0606 -0.3955
  761MPD2    H711302   0.044   3.012  11.215  0.1520 -0.7941 -0.5863
  762MPD2     C11303   0.469   3.005  11.160 -0.7074  0.2637 -0.8263
  762MPD2    C111304   0.443   2.948  11.038  1.1159 -0.1929 -0.1132
  762MPD2    C211305   0.509   3.009  10.930 -0.1540 -0.1536 -0.4717
  762MPD2    C311306   0.598   3.116  10.938  0.7755 -0.4325  0.3942
  762MPD2    C411307   0.617   3.169  11.056 -0.4035  0.0962 -0.0617
  762MPD2    C511308   0.558   3.111  11.164  0.5047 -0.3823  0.1802
  762MPD2     H11309   0.499   2.960  10.834 -0.6547 -2.3019  0.6669
  762MPD2    H111310   0.683   3.253  11.071  1.3792 -1.3155  0.1346
  762MPD2    H211311   0.426   2.963  11.250  0.4680  0.4442 -0.1698
  762MPD2    H311312   0.579   3.150  11.263  0.3272  0.2261 -0.0201
  762MPD2     N11313   0.673   3.148  10.819 -0.0333 -0.9910 -0.1202
  762MPD2    H511314   0.644   3.088  10.742 -0.2067 -2.9733  1.4910
  762MPD2    N111315   0.341   2.854  11.019 -0.1023  0.4174 -0.1644
  762MPD2    H711316   0.294   2.864  10.929 -0.0397 -1.2878 -0.3985
  763MPD2     C11317   1.822   3.612  16.276 -0.3713 -0.3157 -0.1780
  763MPD2    C111318   1.896   3.648  16.165 -0.1183 -1.3010  0.0224
  763MPD2    C211319   1.963   3.769  16.158 -0.0481 -0.7779  0.2868
  763MPD2    C311320   1.960   3.853  16.267  0.1421  0.9570 -0.4915
  763MPD2    C411321   1.879   3.821  16.375  0.2919 -0.7218  0.0978
  763MPD2    C511322   1.802   3.707  16.373 -0.4788  0.4449 -0.0975
  763MPD2     H11323   2.029   3.791  16.075 -0.9622 -0.1618 -0.2634
  763MPD2    H111324   1.861   3.891  16.457 -0.2333 -1.0060  0.2301
  763MPD2    H211325   1.770   3.517  16.283 -1.3770  0.2609  0.0555
  763MPD2    H311326   1.759   3.679  16.468  1.3259  0.3161  0.6963
  763MPD2     N11327   2.022   3.981  16.269 -0.1128 -0.4789 -0.4560
  763MPD2    H511328   1.987   4.047  16.338 -0.7562  0.5552 -1.7632
  763MPD2    N111329   1.916   3.553  16.058  0.1612  0.5491  0.2477
  763MPD2    H711330   1.961   3.595  15.977  0.0707 -0.9913 -0.5852
  764MPD2     C11331   4.735   0.256  17.086 -0.3073 -0.5690  0.3391
  764MPD2    C111332   4.608   0.301  17.083 -0.1760  0.5216 -0.1211
  764MPD2    C211333   4.539   0.299  17.201  0.3911  0.4546 -0.1899
  764MPD2    C311334   4.600   0.269  17.321 -0.5302  0.0875  1.1666
  764MPD2    C411335   4.731   0.217  17.323 -0.0058  0.2269  0.3315
  764MPD2    C511336   0.060   0.216  17.201 -0.4620 -0.1011 -0.0475
  764MPD2     H11337   4.438   0.338  17.213  0.7179  1.7090 -1.5834
  764MPD2    H111338   0.053   0.191  17.410  1.2020  0.8152 -0.2947
  764MPD2    H211339   0.066   0.249  17.002  1.8691 -0.8303  2.1073
  764MPD2    H311340   0.166   0.195  17.196 -0.6881 -1.8683  2.4949
  764MPD2     N11341   4.524   0.287  17.436  0.0593  0.8073  0.2453
  764MPD2    H511342   4.432   0.328  17.425  0.7993  1.6613 -2.8618
  764MPD2    N111343   4.545   0.332  16.966 -0.0710 -0.6544  0.0130
  764MPD2    H711344   4.445   0.351  16.977 -0.1660 -1.0655 -0.1374
  765MPD2     C11345   4.041   2.755  15.178  0.3101 -0.0395  0.2527
  765MPD2    C111346   4.101   2.854  15.257 -0.1613 -0.0105 -0.2682
  765MPD2    C211347   4.213   2.826  15.333  0.1156  0.1381  1.0012
  765MPD2    C311348   4.248   2.693  15.326  0.7746  0.3805 -0.2786
  765MPD2    C411349   4.176   2.595  15.272  0.0495 -0.3365 -0.7733
  765MPD2    C511350   4.069   2.621  15.199 -0.3660  0.5369  0.3432
  765MPD2     H11351   4.271   2.899  15.388  1.0427  1.6449 -1.9877
  765MPD2    H111352   4.192   2.488  15.277  1.1554 -0.1379  0.1410
  765MPD2    H211353   3.957   2.783  15.115  0.0499 -0.5677  0.3649
  765MPD2    H311354   4.013   2.543  15.149 -0.1025 -0.6069  1.8252
  765MPD2     N11355   4.360   2.666  15.403  0.1337 -0.2884 -0.5086
  765MPD2    H511356   4.388   2.740  15.467 -0.6851 -0.0690 -0.4040
  765MPD2    N111357   4.051   2.982  15.234 -0.0360  0.1175 -0.1576
  765MPD2    H711358   3.978   2.994  15.164 -0.9317  2.5475  1.1737
  766MPD2     C11359   4.233   3.544  14.802  0.2333 -0.3713 -0.5722
  766MPD2    C111360   4.269   3.518  14.933 -0.2896 -0.1806 -0.4699
  766MPD2    C211361   4.394   3.563  14.983 -0.1645  0.0999  0.6043
  766MPD2    C311362   4.484   3.630  14.896  0.7781 -0.3503 -0.0816
  766MPD2    C411363   4.448   3.654  14.765  0.6019  0.1651 -0.5151
  766MPD2    C511364   4.331   3.612  14.720 -0.6265 -0.5615  0.1776
  766MPD2     H11365   4.408   3.548  15.089 -0.7882  1.6439  0.9107
  766MPD2    H111366   4.515   3.695  14.691  0.6929  0.5867 -0.1969
  766MPD2    H211367   4.138   3.523  14.755  0.4534  0.9489 -1.6000
  766MPD2    H311368   4.315   3.631  14.615 -4.1148  2.4310  1.2441
  766MPD2     N11369   4.612   3.677  14.933 -0.0474  0.6732  0.6939
  766MPD2    H511370   4.677   3.704  14.859  1.4545 -0.7596  1.5085
  766MPD2    N111371   4.175   3.461  15.020  0.1652  0.4150  0.1364
  766MPD2    H711372   4.207   3.456  15.116  2.7043  0.1382 -0.7139
  767MPD2     C11373   3.643   3.721  14.673  0.0499 -0.0764  0.5196
  767MPD2    C111374   3.756   3.722  14.742 -0.0545 -0.2208  0.3551
  767MPD2    C211375   3.857   3.636  14.704  0.2176 -0.2978 -0.2601
  767MPD2    C311376   3.837   3.555  14.596 -0.5526  0.8114  0.9239
  767MPD2    C411377   3.721   3.559  14.526  0.2876  0.8456  0.0580
  767MPD2    C511378   3.623   3.645  14.564 -0.4286  0.5238  0.3136
  767MPD2     H11379   3.956   3.634  14.749  0.8126 -0.1920 -1.5420
  767MPD2    H111380   3.686   3.488  14.452  4.3488 -1.2176  0.1092
  767MPD2    H211381   3.565   3.796  14.683  0.6145  0.2067  2.7782
  767MPD2    H311382   3.531   3.649  14.507  0.8531 -0.1228 -1.8096
  767MPD2     N11383   3.950   3.480  14.560 -0.0121  0.1588 -0.3115
  767MPD2    H511384   4.030   3.488  14.622 -0.4514  0.3587  0.2372
  767MPD2    N111385   3.778   3.813  14.848  0.2939  0.2799  0.2589
  767MPD2    H711386   3.716   3.894  14.848  1.2560  1.0160  0.2456
  768MPD2     C11387   4.202   1.744  11.152  0.3040 -0.2546  0.2624
  768MPD2    C111388   4.296   1.773  11.059  0.0581  0.1162 -0.1041
  768MPD2    C211389   4.426   1.753  11.098  0.3232  0.5841  0.2218
  768MPD2    C311390   4.466   1.719  11.233  0.5975 -0.1537  0.2120
  768MPD2    C411391   4.365   1.692  11.324 -0.2637  0.7129 -0.1144
  768MPD2    C511392   4.233   1.705  11.284 -0.4085 -0.1217 -0.7319
  768MPD2     H11393   4.506   1.769  11.027  2.1042 -4.6880  1.0247
  768MPD2    H111394   4.386   1.672  11.428  1.6111  2.5337 -0.1483
  768MPD2    H211395   4.096   1.745  11.129  0.5440 -0.9358 -0.8745
  768MPD2    H311396   4.151   1.692  11.355 -1.0082  0.8131 -1.2598
  768MPD2     N11397   4.597   1.707  11.282 -0.2287  0.3230  0.5692
  768MPD2    H511398   4.619   1.718  11.381 -3.3332 -3.2878  1.6530
  768MPD2    N111399   4.278   1.809  10.927  0.0716  0.1776  0.2577
  768MPD2    H711400   4.359   1.824  10.867  1.6383 -0.1723  2.2762
  769MPD2     C11401   1.057   0.576  14.840  0.4603 -0.0320  0.5534
  769MPD2    C111402   0.999   0.534  14.957  0.3145 -0.7445  0.6136
  769MPD2    C211403   1.057   0.434  15.032  0.3420 -0.0339  0.2570
  769MPD2    C311404   1.174   0.381  14.990 -0.5585 -0.3214  0.6370
  769MPD2    C411405   1.230   0.427  14.873  0.2160  0.3851  0.6654
  769MPD2    C511406   1.183   0.533  14.806 -0.1378  1.1437  0.1407
  769MPD2     H11407   1.008   0.397  15.122 -0.2574 -2.4456 -1.0746
  769MPD2    H111408   1.322   0.386  14.831  0.0222  0.2126  0.4132
  769MPD2    H211409   1.006   0.650  14.778 -1.0342 -1.2685  0.3004
  769MPD2    H311410   1.235   0.580  14.724  0.0070  0.5151 -0.1319
  769MPD2     N11411   1.241   0.291  15.076 -0.2440  0.3204  0.4571
  769MPD2    H511412   1.195   0.259  15.161 -1.8307 -1.6756 -1.1529
  769MPD2    N111413   0.877   0.591  14.993 -0.7684 -0.3348  0.3586
  769MPD2    H711414   0.836   0.656  14.926  2.9094  1.7551  0.1215
  770MPD2     C11415   0.713   0.049  15.524 -0.2888 -0.5331  0.4398
  770MPD2    C111416   0.588   0.055  15.465  0.8305 -0.4253 -0.0121
  770MPD2    C211417   0.544   0.177  15.417  0.8788  0.6210 -0.3194
  770MPD2    C311418   0.622   0.288  15.443 -0.6308  0.2425  0.6957
  770MPD2    C411419   0.741   0.275  15.499  0.1758 -0.2032 -0.0445
  770MPD2    C511420   0.790   0.159  15.554  0.3460 -0.3269 -0.8450
  770MPD2     H11421   0.459   0.191  15.350  2.2138  2.7337 -1.5443
  770MPD2    H111422   0.809   0.359  15.498 -0.4911  0.3263 -1.0570
  770MPD2    H211423   0.743   4.686  15.556 -1.0395 -1.2829 -1.1653
  770MPD2    H311424   0.886   0.166  15.603 -0.8812 -3.8966  2.0534
  770MPD2     N11425   0.600   0.418  15.384 -0.3900 -0.0723  0.2683
  770MPD2    H511426   0.684   0.473  15.372 -0.4746 -0.0264 -0.1031
  770MPD2    N111427   0.505   4.679  15.452 -0.2883 -0.3992 -0.0571
  770MPD2    H711428   0.549   4.587  15.456  0.5947  0.1087  1.8124
  771MPD2     C11429   1.587   2.412  13.831  0.5051  0.0939  0.4737
  771MPD2    C111430   1.552   2.544  13.811  1.0098 -0.8973 -0.2276
  771MPD2    C211431   1.427   2.571  13.759  0.1483  0.7237 -0.0516
  771MPD2    C311432   1.344   2.469  13.717 -0.2671 -0.6281  0.6446
  771MPD2    C411433   1.371   2.338  13.743  0.0922  0.2553 -0.5125
  771MPD2    C511434   1.494   2.318  13.808 -0.3439 -0.2930 -0.0743
  771MPD2     H11435   1.399   2.672  13.732 -0.3924  0.9626  1.4058
  771MPD2    H111436   1.310   2.254  13.711  1.5549 -1.2146  0.5074
  771MPD2    H211437   1.682   2.387  13.878  2.0525  0.0303 -2.6588
  771MPD2    H311438   1.517   2.216  13.833 -0.3958  0.0236  1.2377
  771MPD2     N11439   1.230   2.512  13.645  0.1130 -0.2325 -0.5846
  771MPD2    H511440   1.220   2.612  13.627  3.3437 -0.2767 -2.5537
  771MPD2    N111441   1.629   2.654  13.852  0.0506 -0.4357  0.7140
  771MPD2    H711442   1.591   2.747  13.841 -0.4189 -0.6792  0.2242
  772MPD2     C11443   1.544   3.271  14.242 -0.0897  0.0295  0.3695
  772MPD2    C111444   1.494   3.161  14.182  0.1452 -0.1957  0.5557
  772MPD2    C211445   1.361   3.119  14.200 -0.0932 -0.0335 -0.1806
  772MPD2    C311446   1.280   3.190  14.285  0.1930  0.3213 -1.3692
  772MPD2    C411447   1.332   3.300  14.352  0.3646  0.4845  0.9681
  772MPD2    C511448   1.459   3.337  14.333  0.0176 -0.0901  0.0541
  772MPD2     H11449   1.325   3.037  14.139 -0.8331 -1.1104  1.7133
  772MPD2    H111450   1.273   3.367  14.413 -0.6609  1.4289 -1.0603
  772MPD2    H211451   1.644   3.311  14.228 -1.6009  3.3448 -0.9850
  772MPD2    H311452   1.503   3.420  14.388  2.8191 -0.9953 -0.8353
  772MPD2     N11453   1.144   3.149  14.314 -0.0301 -0.1744  0.5698
  772MPD2    H511454   1.087   3.197  14.384  0.5925  0.9659  0.2986
  772MPD2    N111455   1.585   3.082  14.103  0.1211 -0.3467 -0.0336
  772MPD2    H711456   1.543   2.992  14.084  1.7588 -0.6321 -2.3852
  773MPD2     C11457   0.804   3.837   0.085  0.6262 -0.2607  0.3135
  773MPD2    C111458   0.767   3.729   0.004  0.8089  0.1347  0.1234
  773MPD2    C211459   0.850   3.620   0.003 -0.1086 -0.0436  0.0622
  773MPD2    C311460   0.967   3.614   0.079 -0.0267 -0.3401  0.4308
  773MPD2    C411461   0.998   3.721   0.160 -0.4459 -0.9331  0.4077
  773MPD2    C511462   0.915   3.830   0.165  0.2086  0.6048  0.1573
  773MPD2     H11463   0.798   3.538  17.699  0.0115  0.5621 -1.1329
  773MPD2    H111464   1.093   3.725   0.212 -0.3135  2.6841 -0.1544
  773MPD2    H211465   0.747   3.928   0.098 -2.9478 -2.1406 -2.1669
  773MPD2    H311466   0.943   3.919   0.220  3.3948  0.4008 -1.1576
  773MPD2     N11467   1.045   3.501   0.066  0.1247  0.4465  0.5624
  773MPD2    H511468   1.000   3.428   0.011  0.1460 -0.7116  2.0776
  773MPD2    N111469   0.652   3.724  17.674 -0.2835  0.0523 -0.1682
  773MPD2    H711470   0.647   3.642  17.614  0.7189 -0.3776  0.3260
  774MPD2     C11471   0.098   3.227  13.334  0.0250 -0.0367  0.4696
  774MPD2    C111472   0.097   3.317  13.434  0.2102 -0.0898 -0.7642
  774MPD2    C211473   0.175   3.432  13.423 -0.4244  0.1231 -0.8059
  774MPD2    C311474   0.270   3.446  13.320 -0.3463 -0.3671  0.6118
  774MPD2    C411475   0.272   3.350  13.224 -0.0377  0.0727 -0.0661
  774MPD2    C511476   0.187   3.245  13.233 -0.3477 -0.0760  0.7322
  774MPD2     H11477   0.154   3.512  13.493 -3.1901 -1.3108 -0.0149
  774MPD2    H111478   0.342   3.348  13.142  1.9026  1.5881  1.5639
  774MPD2    H211479   0.022   3.149  13.338  0.3254 -0.4255 -1.3162
  774MPD2    H311480   0.205   3.167  13.160  1.8179  2.5254 -1.5341
  774MPD2     N11481   0.364   3.552  13.324  0.1654 -0.3146  0.5276
  774MPD2    H511482   0.356   3.624  13.395  3.8559 -0.1800  0.8258
  774MPD2    N111483   0.018   3.283  13.546 -0.4708 -0.1951  0.4284
  774MPD2    H711484   4.701   3.198  13.536  0.1885 -0.6020  0.3861
  775MPD2     C11485   1.520   0.023  16.084 -0.1948 -0.0260 -0.2363
  775MPD2    C111486   1.463   0.143  16.095 -0.1888  0.3915  0.8166
  775MPD2    C211487   1.534   0.261  16.059  0.5889  0.0933 -0.2993
  775MPD2    C311488   1.669   0.250  16.016  0.0685  0.3887 -0.2737
  775MPD2    C411489   1.734   0.122  16.012 -0.2192 -0.0556  0.0739
  775MPD2    C511490   1.654   0.013  16.039 -0.2391  0.0299  0.2241
  775MPD2     H11491   1.478   0.353  16.043 -0.8039 -0.6661  0.2274
  775MPD2    H111492   1.832   0.103  15.970 -0.0554  0.4059  0.2454
  775MPD2    H211493   1.473   4.664  16.102  2.7789 -1.6310 -0.9489
  775MPD2    H311494   1.688   4.647  16.032  2.2058  0.7175  1.8861
  775MPD2     N11495   1.734   0.359  15.960 -0.9803 -0.4819  0.0519
  775MPD2    H511496   1.822   0.334  15.916 -0.3451 -1.5127  1.8804
  775MPD2    N111497   1.333   0.145  16.145  0.0879  0.5808 -0.1817
  775MPD2    H711498   1.282   0.058  16.153  2.3974 -0.6826  0.7228
  776MPD2     C11499   0.226   0.432  11.499  0.4764  0.8873  1.0801
  776MPD2    C111500   0.323   0.342  11.456  0.3383  0.0839  0.6788
  776MPD2    C211501   0.444   0.396  11.410  0.4741 -0.0673  0.7665
  776MPD2    C311502   0.473   0.531  11.401  0.9325 -0.3161  0.2773
  776MPD2    C411503   0.365   0.617  11.424  0.8023  0.3228  0.1342
  776MPD2    C511504   0.248   0.569  11.486 -0.2513  0.2450 -0.2161
  776MPD2     H11505   0.522   0.329  11.378 -0.7013 -0.2358 -1.7436
  776MPD2    H111506   0.377   0.724  11.416 -2.6953  0.7660  0.6780
  776MPD2    H211507   0.124   0.403  11.520  0.7520 -0.7651  0.1273
  776MPD2    H311508   0.172   0.636  11.525 -1.3887 -0.6082 -0.9829
  776MPD2     N11509   0.593   0.582  11.338 -0.5512  0.5794  0.2361
  776MPD2    H511510   0.599   0.678  11.306  2.5213  0.5619  0.7611
  776MPD2    N111511   0.286   0.206  11.455  0.1816 -0.0552  0.0422
  776MPD2    H711512   0.200   0.173  11.499  1.0862 -0.2909  1.6389
  777MPD2     C11513   0.880   2.718   0.395 -0.2242  0.0270 -0.0061
  777MPD2    C111514   0.868   2.642   0.510  0.8684  0.3455 -0.3928
  777MPD2    C211515   0.799   2.517   0.492 -0.1359  0.2571 -1.4673
  777MPD2    C311516   0.741   2.483   0.374  0.9698  0.5454  0.1627
  777MPD2    C411517   0.726   2.575   0.275 -0.1076  0.0884 -0.2193
  777MPD2    C511518   0.806   2.686   0.284 -0.7127  0.1275  1.0868
  777MPD2     H11519   0.805   2.450   0.577 -0.1752 -0.0987 -1.7448
  777MPD2    H111520   0.667   2.563   0.185 -0.0226 -0.2372 -0.2333
  777MPD2    H211521   0.944   2.806   0.393 -1.1601  0.7297  2.2710
  777MPD2    H311522   0.808   2.762   0.207 -1.6095 -0.2879  0.6560
  777MPD2     N11523   0.688   2.351   0.364 -0.4992  0.0106  0.2603
  777MPD2    H511524   0.693   2.298   0.450  0.2991  1.2674  1.0011
  777MPD2    N111525   0.934   2.679   0.625 -0.5785 -0.4387 -0.2546
  777MPD2    H711526   0.986   2.766   0.625  0.5868 -1.1285  2.3951
  778MPD2     C11527   1.784   2.671  14.864  0.1052 -0.7387  0.0277
  778MPD2    C111528   1.763   2.562  14.786 -0.4207 -0.1422 -0.3043
  778MPD2    C211529   1.826   2.559  14.664 -0.1822  0.1944  0.2146
  778MPD2    C311530   1.899   2.663  14.617  0.4054  0.0668 -0.7022
  778MPD2    C411531   1.903   2.782  14.685 -0.7592 -0.6053 -0.2880
  778MPD2    C511532   1.854   2.782  14.812  0.3519 -0.7532 -0.6535
  778MPD2     H11533   1.826   2.472  14.599  0.6201  1.9822 -2.1683
  778MPD2    H111534   1.948   2.879  14.669  0.9859 -1.4801 -0.6624
  778MPD2    H211535   1.745   2.691  14.964 -2.4188 -0.6340 -0.9787
  778MPD2    H311536   1.861   2.874  14.869  0.5696  0.2071 -2.2376
  778MPD2     N11537   1.975   2.652  14.501 -1.1593 -0.2224  0.1283
  778MPD2    H511538   1.949   2.576  14.438  0.9928 -0.7038 -0.1683
  778MPD2    N111539   1.688   2.453  14.828  0.0852 -0.2731 -0.2193
  778MPD2    H711540   1.666   2.386  14.756  0.4371 -0.3600 -0.2487
  779MPD2     C11541   1.172   1.347  14.254  0.2085  0.5646 -0.1693
  779MPD2    C111542   1.311   1.335  14.252 -0.1163 -0.0346  0.0963
  779MPD2    C211543   1.384   1.455  14.223 -0.2296 -0.1149  0.4878
  779MPD2    C311544   1.314   1.579  14.212 -0.0162  0.3597  0.4201
  779MPD2    C411545   1.174   1.584  14.222 -0.3679  0.0291  0.3666
  779MPD2    C511546   1.105   1.465  14.238 -0.0144  0.0099 -0.5320
  779MPD2     H11547   1.491   1.469  14.216 -0.2568  0.3182  0.9275
  779MPD2    H111548   1.113   1.671  14.203  0.8510  1.0381  1.1149
  779MPD2    H211549   1.116   1.255  14.265  0.5243  0.1574 -1.9448
  779MPD2    H311550   0.998   1.465  14.224 -0.2774 -1.6831  1.3961
  779MPD2     N11551   1.398   1.694  14.207  0.2067 -0.4462  0.1260
  779MPD2    H511552   1.498   1.682  14.217  0.0205 -0.0358  2.5291
  779MPD2    N111553   1.387   1.219  14.262 -0.1301  0.3787 -0.4842
  779MPD2    H711554   1.487   1.229  14.271  0.2033 -1.8891 -1.7808
  780MPD2     C11555   1.366   1.543   0.940  0.6851  0.0258 -0.1407
  780MPD2    C111556   1.256   1.477   0.903 -0.4341 -0.4969 -0.7188
  780MPD2    C211557   1.204   1.502   0.776  0.0361  0.0108  0.1407
  780MPD2    C311558   1.269   1.584   0.685 -0.0103 -0.1990 -0.8614
  780MPD2    C411559   1.374   1.657   0.734  0.7893  0.1491  0.0529
  780MPD2    C511560   1.428   1.636   0.858  0.0793 -0.7418  0.1493
  780MPD2     H11561   1.110   1.460   0.744  0.6577 -0.8124 -0.5990
  780MPD2    H111562   1.427   1.732   0.676  1.5940 -2.1000 -2.1528
  780MPD2    H211563   1.402   1.535   1.042 -1.4280 -1.6367  0.4911
  780MPD2    H311564   1.516   1.689   0.892  1.5066 -3.2782  0.3982
  780MPD2     N11565   1.218   1.607   0.553 -0.1530  0.3953  0.5559
  780MPD2    H511566   1.122   1.578   0.535  0.3962 -1.4266  0.5839
  780MPD2    N111567   1.207   1.385   1.001  0.5086 -0.3505 -0.2026
  780MPD2    H711568   1.256   1.358   1.085 -0.9728 -1.7627  0.1997
  781MPD2     C11569   2.852   3.055  12.178  0.2550  0.5141  0.7914
  781MPD2    C111570   2.948   3.032  12.276  0.1257  0.1369  0.1980
  781MPD2    C211571   3.067   2.972  12.242 -0.4186  0.3420  0.4329
  781MPD2    C311572   3.096   2.937  12.110 -0.4182 -0.0611  0.6181
  781MPD2    C411573   2.995   2.946  12.022 -0.9420  0.5639 -0.1281
  781MPD2    C511574   2.878   3.004  12.053  0.4591  0.0765 -0.2717
  781MPD2     H11575   3.134   2.944  12.322  0.1619 -1.5626 -0.7225
  781MPD2    H111576   3.010   2.925  11.917 -1.3795  0.9469 -0.2662
  781MPD2    H211577   2.753   3.097  12.193 -0.5859 -0.4621 -2.0196
  781MPD2    H311578   2.805   3.014  11.973  0.7250  1.7902 -0.3105
  781MPD2     N11579   3.216   2.886  12.054  0.1426  0.3653 -0.0101
  781MPD2    H511580   3.217   2.884  11.953  1.7958 -1.7776  0.0588
  781MPD2    N111581   2.932   3.077  12.411  0.3821  0.3485 -0.0860
  781MPD2    H711582   3.002   3.040  12.474 -1.6183  0.2954  2.1118
  782MPD2     C11583   1.472   3.768  10.006  0.8188 -0.0402 -0.0260
  782MPD2    C111584   1.539   3.710  10.111 -0.2550 -0.0691  0.2471
  782MPD2    C211585   1.533   3.762  10.239 -0.1317 -0.8874  0.5982
  782MPD2    C311586   1.452   3.870  10.253  0.1934  0.1118  0.2879
  782MPD2    C411587   1.398   3.940  10.148  0.4010 -0.0426 -0.6691
  782MPD2    C511588   1.402   3.888  10.021  0.1360 -0.0749 -0.0776
  782MPD2     H11589   1.593   3.722  10.321  2.5435 -1.3234 -1.5531
  782MPD2    H111590   1.352   4.036  10.173  2.2845  1.0357 -1.3941
  782MPD2    H211591   1.467   3.722   9.908 -0.9871 -0.8009  0.4366
  782MPD2    H311592   1.365   3.943   9.935  0.9307 -1.7068 -1.4659
  782MPD2     N11593   1.414   3.910  10.379  0.0812  0.0234  0.3654
  782MPD2    H511594   1.350   3.988  10.385 -0.4905 -0.3420 -0.9189
  782MPD2    N111595   1.593   3.583  10.088  0.6762 -0.0934 -0.1834
  782MPD2    H711596   1.623   3.554   9.995 -0.1952  0.5132 -0.6547
  783MPD2     C11597   0.676   3.483  10.354 -0.2053  0.3577 -0.9087
  783MPD2    C111598   0.735   3.537  10.466 -0.5626 -0.0785  0.1378
  783MPD2    C211599   0.875   3.547  10.474  0.1916  0.7010  0.0067
  783MPD2    C311600   0.948   3.493  10.371  0.1538 -0.5683 -0.2245
  783MPD2    C411601   0.888   3.455  10.251  0.0711 -0.0202  0.2340
  783MPD2    C511602   0.750   3.438  10.254 -0.0910 -0.7051  0.9103
  783MPD2     H11603   0.920   3.580  10.567  0.1222  0.8708 -0.0197
  783MPD2    H111604   0.937   3.409  10.166 -0.0127 -2.1778  1.3509
  783MPD2    H211605   0.568   3.488  10.352 -0.2014  1.2578  1.8751
  783MPD2    H311606   0.717   3.385  10.165 -1.1487 -0.4868  1.1758
  783MPD2     N11607   1.088   3.489  10.388  0.1602 -0.3843 -0.0075
  783MPD2    H511608   1.130   3.512  10.478 -0.5387 -1.0864  0.5008
  783MPD2    N111609   0.648   3.585  10.569  0.0795 -0.7663 -1.0649
  783MPD2    H711610   0.549   3.566  10.554  0.1210 -2.4698  0.8346
  784MPD2     C11611   3.799   4.463   0.591 -0.5164  0.1144 -0.5559
  784MPD2    C111612   3.703   4.444   0.686  0.5784  0.5685  0.2778
  784MPD2    C211613   3.582   4.501   0.653 -0.5421  0.2598 -0.2732
  784MPD2    C311614   3.557   4.563   0.537  0.1397 -0.7226  0.8154
  784MPD2    C411615   3.657   4.596   0.450 -0.5409  0.4260  0.1481
  784MPD2    C511616   3.776   4.549   0.488 -0.1252  0.0423 -0.2701
  784MPD2     H11617   3.502   4.483   0.723  0.8243 -0.4794  1.1109
  784MPD2    H111618   3.641   4.659   0.363 -2.4679 -1.8516 -1.1469
  784MPD2    H211619   3.902   4.430   0.596  0.0058  1.8729  0.3670
  784MPD2    H311620   3.862   4.587   0.433  1.0765 -0.5049  1.2341
  784MPD2     N11621   3.422   4.594   0.511 -0.0257 -0.0070 -1.2313
  784MPD2    H511622   3.353   4.551   0.570  0.7876  1.5947  0.8937
  784MPD2    N111623   3.718   4.369   0.803 -1.3196  0.2285  0.0872
  784MPD2    H711624   3.636   4.341   0.857 -0.1207  0.2483  1.8937
  785MPD2     C11625   4.033   2.547  11.161  0.2631 -0.3140 -0.7180
  785MPD2    C111626   3.953   2.657  11.148  0.2659 -0.1837  0.7631
  785MPD2    C211627   3.818   2.645  11.112  0.2497  0.6701 -1.0219
  785MPD2    C311628   3.772   2.522  11.066 -0.0955 -0.5694  0.2859
  785MPD2    C411629   3.853   2.412  11.070 -0.0724 -0.4841 -0.9869
  785MPD2    C511630   3.974   2.428  11.127 -0.1562  0.1155 -0.1478
  785MPD2     H11631   3.769   2.740  11.095 -0.4539  0.3930 -0.5496
  785MPD2    H111632   3.816   2.316  11.038  1.5523 -1.2096 -0.7170
  785MPD2    H211633   4.137   2.543  11.189  0.0594 -2.1231 -0.2166
  785MPD2    H311634   4.028   2.335  11.142 -2.7193 -0.9206  2.7770
  785MPD2     N11635   3.641   2.514  11.017  0.1633  0.1851 -0.7635
  785MPD2    H511636   3.586   2.598  11.028 -0.6269 -0.5726  0.9933
  785MPD2    N111637   3.994   2.787  11.180 -0.7749 -0.2288  0.0742
  785MPD2    H711638   3.923   2.859  11.171 -0.3728  0.1957  0.2932
  786MPD2     C11639   1.869   0.623  14.555  0.0152 -0.2708 -0.5245
  786MPD2    C111640   1.959   0.540  14.627 -0.5253 -0.5054  0.0231
  786MPD2    C211641   2.001   0.590  14.755  0.0669  0.6131 -0.3790
  786MPD2    C311642   1.960   0.714  14.806 -0.2516 -0.8077  0.3298
  786MPD2    C411643   1.879   0.791  14.728  0.3719 -0.1272 -0.1984
  786MPD2    C511644   1.823   0.738  14.616 -0.4430  0.2013  0.6184
  786MPD2     H11645   2.070   0.531  14.815 -3.4564 -2.3980  0.7025
  786MPD2    H111646   1.840   0.888  14.759  1.7124  0.9537 -1.9389
  786MPD2    H211647   1.830   0.594  14.458  0.6287  0.3690 -0.9580
  786MPD2    H311648   1.771   0.812  14.556 -3.0294  0.0725  2.7248
  786MPD2     N11649   2.012   0.760  14.931 -0.3187  0.3838 -0.0452
  786MPD2    H511650   1.984   0.856  14.948 -0.6390  0.5368 -1.4175
  786MPD2    N111651   2.007   0.419  14.575 -0.3850 -0.1001  0.4075
  786MPD2    H711652   2.070   0.365  14.634  0.0039  0.2231  0.2860
  787MPD2     C11653   2.359   0.036  14.847  0.0618 -0.2938  0.0127
  787MPD2    C111654   2.413   0.016  14.722 -0.2401 -0.0535  0.1639
  787MPD2    C211655   2.511   4.658  14.702 -0.4856  0.9214  0.2828
  787MPD2    C311656   2.568   4.592  14.812 -0.2778  0.3179 -0.6519
  787MPD2    C411657   2.515   4.614  14.939 -0.1318  0.3862 -0.4674
  787MPD2    C511658   2.416   4.705  14.956 -0.3219  0.1895 -0.6129
  787MPD2     H11659   2.553   4.642  14.604  0.2924 -0.9590  0.9119
  787MPD2    H111660   2.555   4.552  15.018  0.4230 -0.5608 -1.4903
  787MPD2    H211661   2.287   0.115  14.866 -1.3983 -1.4310 -0.7890
  787MPD2    H311662   2.365   4.716  15.051 -1.5338 -0.2511 -1.2183
  787MPD2     N11663   2.677   4.506  14.791 -0.5113 -0.3174  0.3956
  787MPD2    H511664   2.700   4.492  14.693 -0.9075  0.1781  0.2386
  787MPD2    N111665   2.355   0.094  14.620  0.0733  0.3967  0.1645
  787MPD2    H711666   2.268   0.144  14.640 -0.7588 -1.9262  2.4041
  788MPD2     C11667   4.525   3.988   0.952  0.4899  0.8903 -0.0538
  788MPD2    C111668   4.438   3.912   0.884 -0.0771 -0.6085  1.1951
  788MPD2    C211669   4.339   3.969   0.802 -0.3715  0.3125 -0.6913
  788MPD2    C311670   4.324   4.104   0.792  0.0071 -0.1687 -0.8269
  788MPD2    C411671   4.397   4.187   0.875  0.3606  0.4829  0.3480
  788MPD2    C511672   4.497   4.126   0.952 -0.2245  0.8950 -0.6694
  788MPD2     H11673   4.289   3.900   0.735  1.3730  0.0160 -1.6907
  788MPD2    H111674   4.385   4.295   0.879 -3.7055  0.1752 -3.4997
  788MPD2    H211675   4.600   3.957   1.023 -0.7386  0.5355  1.0957
  788MPD2    H311676   4.554   4.198   1.009 -1.2507  0.3473  1.0738
  788MPD2     N11677   4.250   4.170   0.700  0.1112  0.3199 -0.1214
  788MPD2    H511678   4.260   4.271   0.691  0.7716  0.4132  1.7796
  788MPD2    N111679   4.448   3.772   0.871  0.0836  0.4504  0.2293
  788MPD2    H711680   4.373   3.726   0.822  0.1492  1.7717 -1.1198
  789MPD2     C11681   4.274   3.243  17.014  0.4030 -0.3826  0.3372
  789MPD2    C111682   4.145   3.255  16.972 -0.2795 -0.5607 -0.4610
  789MPD2    C211683   4.080   3.378  16.957 -0.1534  0.5036  0.0222
  789MPD2    C311684   4.146   3.496  16.996 -0.4220  0.1470 -0.7772
  789MPD2    C411685   4.271   3.488  17.048  0.3771  0.4559 -0.7307
  789MPD2    C511686   4.333   3.366  17.058 -0.4570 -0.1190 -0.4736
  789MPD2     H11687   3.979   3.382  16.916  0.5557 -0.9681 -1.8597
  789MPD2    H111688   4.329   3.569  17.092 -0.9688  1.2527 -0.4484
  789MPD2    H211689   4.325   3.148  17.029 -1.3371 -1.5597 -1.1873
  789MPD2    H311690   4.431   3.374  17.103 -0.4885  0.7136 -0.5477
  789MPD2     N11691   4.084   3.621  16.985  0.1416  0.1039  0.0206
  789MPD2    H511692   4.121   3.704  17.031 -0.8484  0.8486 -0.5308
  789MPD2    N111693   4.066   3.149  16.930 -0.4373 -0.5796  0.8522
  789MPD2    H711694   3.970   3.171  16.908  0.0946  1.3601  0.3974
  790MPD2     C11695   0.530   0.649  13.602  0.6300 -0.8228  0.1185
  790MPD2    C111696   0.626   0.550  13.601  0.0898  0.0369  0.5770
  790MPD2    C211697   0.655   0.480  13.481  0.3989  0.2464 -0.8289
  790MPD2    C311698   0.575   0.506  13.370  0.2135  0.0702 -0.3273
  790MPD2    C411699   0.473   0.597  13.375 -0.5149  0.0556 -0.4151
  790MPD2    C511700   0.454   0.672  13.490 -0.1101  0.4402 -0.2662
  790MPD2     H11701   0.729   0.401  13.479 -0.2932 -0.4057 -0.7453
  790MPD2    H111702   0.411   0.620  13.289 -1.1551  1.4500  0.4274
  790MPD2    H211703   0.501   0.715  13.683 -0.5852  1.7755 -2.4437
  790MPD2    H311704   0.396   0.763  13.490 -0.9027 -0.0716 -0.7422
  790MPD2     N11705   0.599   0.427  13.244 -0.9476 -0.1322  0.3280
  790MPD2    H511706   0.681   0.367  13.244 -0.7117  0.1949  0.4420
  790MPD2    N111707   0.688   0.508  13.725 -0.0526  0.1581  0.8041
  790MPD2    H711708   0.669   0.563  13.807 -0.1695  0.8770  0.2965
  791MPD2     C11709   0.142   0.314  12.674 -0.1649 -0.0979 -0.7516
  791MPD2    C111710   0.186   0.198  12.735 -0.0766  0.1016 -0.2569
  791MPD2    C211711   0.107   0.081  12.740 -0.0681  0.2415 -0.1425
  791MPD2    C311712   4.719   0.079  12.681  0.2447 -0.3999  0.2377
  791MPD2    C411713   4.674   0.195  12.619  0.8937 -0.3479  0.3506
  791MPD2    C511714   0.025   0.306  12.601 -0.2587 -0.7319  0.0082
  791MPD2     H11715   0.143   4.723  12.781  2.1489  1.6694  1.1944
  791MPD2    H111716   4.579   0.195  12.565  1.0311 -0.4882  0.1072
  791MPD2    H211717   0.203   0.403  12.661 -1.4310  1.1902  1.8416
  791MPD2    H311718   4.727   0.393  12.547  1.9159  0.0757 -0.0875
  791MPD2     N11719   4.647   4.697  12.675  0.3606 -0.4538 -0.7744
  791MPD2    H511720   4.687   4.620  12.728 -1.9868 -1.4594 -0.4701
  791MPD2    N111721   0.311   0.210  12.806  0.7478  0.1437 -0.2344
  791MPD2    H711722   0.353   0.302  12.815 -0.9765  0.8242  0.6857
  792MPD2     C11723   0.913   0.242  11.063  0.6169  0.3524  0.3583
  792MPD2    C111724   0.891   0.349  10.977  0.1512 -0.1424  0.4824
  792MPD2    C211725   0.761   0.392  10.959 -0.0915 -0.5050  0.1925
  792MPD2    C311726   0.657   0.336  11.028 -0.4570  0.8016 -0.6540
  792MPD2    C411727   0.675   0.213  11.093 -0.0640 -0.0769 -0.2837
  792MPD2    C511728   0.809   0.177  11.116 -0.2061 -0.9632 -0.6082
  792MPD2     H11729   0.742   0.480  10.898 -0.5448  0.9656  2.4550
  792MPD2    H111730   0.594   0.153  11.132  0.9111 -0.9882  0.3458
  792MPD2    H211731   1.010   0.198  11.085  0.6655 -0.4464 -1.5154
  792MPD2    H311732   0.824   0.084  11.170 -1.4751 -0.0973  1.2276
  792MPD2     N11733   0.524   0.387  11.011 -0.7587 -0.2803  0.4433
  792MPD2    H511734   0.454   0.330  11.059 -0.0243  0.3946  2.2983
  792MPD2    N111735   1.000   0.411  10.910 -0.2255 -0.0126 -0.4714
  792MPD2    H711736   1.088   0.374  10.944  0.0552 -0.7752 -2.0302
  793MPD2     C11737   4.702   0.408  10.432  0.0899 -0.5422  0.7817
  793MPD2    C111738   0.098   0.398  10.455  0.1589 -0.1020 -0.0559
  793MPD2    C211739   0.155   0.495  10.535  0.0593  0.2318  1.2277
  793MPD2    C311740   0.080   0.581  10.608  0.1362  0.4919 -0.0338
  793MPD2    C411741   4.684   0.587  10.581  0.2521  0.5523 -0.5479
  793MPD2    C511742   4.626   0.509  10.484  0.7028 -0.8590  0.2609
  793MPD2     H11743   0.257   0.471  10.565  0.5857 -0.0009 -0.7204
  793MPD2    H111744   4.613   0.655  10.626 -1.8496 -2.4138  0.5897
  793MPD2    H211745   4.645   0.349  10.361 -1.0511  0.0681  1.1839
  793MPD2    H311746   4.520   0.524  10.465  0.5766  0.2029  1.8326
  793MPD2     N11747   0.149   0.645  10.720 -0.0804  0.1057  0.1239
  793MPD2    H511748   0.247   0.622  10.716 -0.1438  0.0306 -1.1281
  793MPD2    N111749   0.188   0.300  10.410  0.2979 -0.2231  0.0172
  793MPD2    H711750   0.285   0.313  10.434  0.1729  1.2801 -0.3393
  794MPD2     C11751   0.009   4.154  17.266  0.6729  0.8021 -0.2229
  794MPD2    C111752   0.047   4.048  17.190  0.2612  0.3947  0.9157
  794MPD2    C211753   0.001   4.038  17.059 -0.5453 -0.6298  0.5281
  794MPD2    C311754   4.661   4.139  17.011  1.0533 -0.6408 -0.6961
  794MPD2    C411755   4.628   4.248  17.089 -0.6571  0.0810 -0.4219
  794MPD2    C511756   4.679   4.262  17.214  0.6428 -0.4386 -0.3827
  794MPD2     H11757   0.034   3.953  17.001 -2.1698 -1.7869  1.3094
  794MPD2    H111758   4.567   4.325  17.043  1.4923  1.9356 -0.1510
  794MPD2    H211759   0.030   4.165  17.372 -0.1059 -1.6300  0.1961
  794MPD2    H311760   4.650   4.351  17.270 -0.7171  0.0098 -1.8153
  794MPD2     N11761   4.613   4.147  16.879 -0.3635 -0.1545  0.6760
  794MPD2    H511762   4.569   4.237  16.860 -1.2625 -0.3897  1.6003
  794MPD2    N111763   0.132   3.945  17.245  0.4410 -0.0910  0.0168
  794MPD2    H711764   0.147   3.862  17.188 -1.1471 -0.7766  0.5974
  795MPD2     C11765   2.617   1.612  13.423 -0.2839  0.6842  0.5906
  795MPD2    C111766   2.553   1.543  13.522 -0.9766 -0.0805 -0.1659
  795MPD2    C211767   2.624   1.445  13.592  0.5848 -0.7017  0.2934
  795MPD2    C311768   2.759   1.423  13.568  0.4140  0.1613 -0.2807
  795MPD2    C411769   2.820   1.483  13.459  0.1046  0.6216 -0.4065
  795MPD2    C511770   2.750   1.585  13.400 -0.3195 -0.0389  0.2058
  795MPD2     H11771   2.574   1.395  13.673 -1.4563 -0.3740 -0.7701
  795MPD2    H111772   2.920   1.458  13.425 -0.1657  1.4898 -1.8643
  795MPD2    H211773   2.572   1.700  13.379  1.9760  1.8904  0.6646
  795MPD2    H311774   2.798   1.633  13.315 -0.1433 -3.0364 -1.4032
  795MPD2     N11775   2.823   1.321  13.638 -0.0705 -0.5688  0.5351
  795MPD2    H511776   2.762   1.274  13.704 -0.7240  0.6669  0.8271
  795MPD2    N111777   2.419   1.561  13.563 -0.6879 -0.6681 -0.3110
  795MPD2    H711778   2.382   1.496  13.632  1.5402 -0.4055  1.1328
  796MPD2     C11779   2.328   2.993  15.886 -0.1430  0.1859 -0.3514
  796MPD2    C111780   2.316   3.090  15.990  0.2476  0.3311  0.5359
  796MPD2    C211781   2.298   3.220  15.956  0.7773 -0.0192  0.8095
  796MPD2    C311782   2.282   3.259  15.821 -0.1359 -0.6365  0.1784
  796MPD2    C411783   2.308   3.167  15.722 -0.2709 -0.0302  0.3061
  796MPD2    C511784   2.331   3.032  15.754 -0.5406  1.0386 -0.0601
  796MPD2     H11785   2.300   3.302  16.027 -0.5691 -0.2889  1.1696
  796MPD2    H111786   2.315   3.192  15.617 -1.2669 -0.4199  0.1544
  796MPD2    H211787   2.345   2.887  15.898  0.5196  0.4354  0.8877
  796MPD2    H311788   2.369   2.958  15.684 -1.8991  1.2972 -1.0777
  796MPD2     N11789   2.260   3.395  15.792 -0.1811  0.7591 -0.8287
  796MPD2    H511790   2.255   3.465  15.864  1.2939  0.7107 -0.6782
  796MPD2    N111791   2.327   3.044  16.123 -0.0806 -0.0679  0.3758
  796MPD2    H711792   2.335   2.944  16.139  1.8659 -0.3985 -2.7585
  797MPD2     C11793   3.382   2.482  17.522  0.1550  0.1316 -0.1934
  797MPD2    C111794   3.432   2.608  17.518  0.5003 -0.7186 -0.8992
  797MPD2    C211795   3.339   2.712  17.491  0.2413 -0.3350 -0.0848
  797MPD2    C311796   3.214   2.679  17.462  0.6171 -0.5550  0.0937
  797MPD2    C411797   3.164   2.551  17.452  0.6785 -0.1510 -0.1536
  797MPD2    C511798   3.248   2.447  17.486  0.6376  0.7468  0.2301
  797MPD2     H11799   3.371   2.815  17.493 -1.9043  0.3021  1.5673
  797MPD2    H111800   3.062   2.536  17.420  0.7013  0.4059 -0.4740
  797MPD2    H211801   3.442   2.398  17.556 -1.1316 -0.5920  0.2827
  797MPD2    H311802   3.206   2.348  17.476  0.1753  0.7692  1.9239
  797MPD2     N11803   3.135   2.799  17.452 -0.0341 -0.3748 -0.0492
  797MPD2    H511804   3.172   2.887  17.487 -2.1693  0.5854 -0.1746
  797MPD2    N111805   3.570   2.641  17.535 -0.7242  0.0605  0.2978
  797MPD2    H711806   3.598   2.739  17.529 -0.6828  0.0793  0.8270
  798MPD2     C11807   3.544   3.335  17.421 -0.1689 -0.1726  0.4419
  798MPD2    C111808   3.476   3.221  17.427  0.7226  0.0371 -0.1849
  798MPD2    C211809   3.544   3.107  17.474  0.3874 -0.0481  0.3732
  798MPD2    C311810   3.681   3.110  17.494  0.3053  0.2779 -0.3718
  798MPD2    C411811   3.745   3.228  17.472 -0.0476 -0.0958 -0.1886
  798MPD2    C511812   3.673   3.340  17.436  0.2868  0.5288  0.3015
  798MPD2     H11813   3.489   3.015  17.491 -1.4519  0.8317 -0.9727
  798MPD2    H111814   3.852   3.245  17.484 -0.1954  0.4580  0.3125
  798MPD2    H211815   3.500   3.429  17.388 -0.8854 -0.7505 -0.2418
  798MPD2    H311816   3.722   3.435  17.420  1.6794 -0.2421 -0.0603
  798MPD2     N11817   3.743   2.993  17.547 -0.0893 -0.8104  0.1379
  798MPD2    H511818   3.689   2.908  17.555  0.3003 -1.0320  0.3953
  798MPD2    N111819   3.335   3.219  17.396  0.4984  0.3194  0.0840
  798MPD2    H711820   3.307   3.288  17.327  0.3564  0.1626 -0.0188
  799MPD2     C11821   2.516   4.137  14.862 -0.3527  0.2532 -0.3657
  799MPD2    C111822   2.511   4.038  14.765 -0.6232  0.2727 -0.2923
  799MPD2    C211823   2.442   4.069  14.647  0.3555  0.3507 -0.0681
  799MPD2    C311824   2.412   4.198  14.617  0.4559 -0.0713 -0.8944
  799MPD2    C411825   2.429   4.293  14.718 -0.1154 -0.4028  1.2024
  799MPD2    C511826   2.478   4.264  14.840 -0.4512  0.4590  0.6110
  799MPD2     H11827   2.433   3.986  14.577  1.1910 -0.0962  0.3491
  799MPD2    H111828   2.412   4.399  14.706 -2.2571 -0.6489  2.1722
  799MPD2    H211829   2.565   4.119  14.957  1.6265 -2.9628 -2.0052
  799MPD2    H311830   2.493   4.332  14.923  0.5774 -1.2873  1.8739
  799MPD2     N11831   2.381   4.228  14.485 -0.7602 -0.5064 -0.0916
  799MPD2    H511832   2.364   4.149  14.423 -0.2425  0.5176 -1.5279
  799MPD2    N111833   2.552   3.905  14.776 -0.0050  0.0182 -0.4618
  799MPD2    H711834   2.524   3.835  14.707 -0.3335  0.9654 -1.2956
  800MPD2     C11835   2.338   0.615  14.301  0.3203 -0.0263  0.1856
  800MPD2    C111836   2.445   0.551  14.241  0.6315 -0.7706 -0.2796
  800MPD2    C211837   2.419   0.470  14.134  0.7869 -0.3178  0.0491
  800MPD2    C311838   2.296   0.453  14.083 -0.4928  0.1110 -0.0021
  800MPD2    C411839   2.189   0.503  14.146  0.8188  0.4744  0.3964
  800MPD2    C511840   2.213   0.587  14.253 -0.6316 -0.6827 -0.1187
  800MPD2     H11841   2.499   0.417  14.085 -0.6475 -1.1109 -1.4222
  800MPD2    H111842   2.086   0.486  14.115  1.2334 -0.4693 -0.4861
  800MPD2    H211843   2.344   0.678  14.388 -0.7132  0.1360  0.1452
  800MPD2    H311844   2.133   0.614  14.320 -1.8338 -1.3545 -1.2735
  800MPD2     N11845   2.282   0.369  13.971  0.4480  0.0883  0.3534
  800MPD2    H511846   2.365   0.319  13.941  0.0864 -0.3218  0.0440
  800MPD2    N111847   2.574   0.589  14.279  0.2411  0.0316 -0.4846
  800MPD2    H711848   2.583   0.679  14.325  1.0756  0.9258 -2.4273
  801MPD2     C11849   2.947   1.141  14.022  0.1931 -0.5987  0.0769
  801MPD2    C111850   2.838   1.074  14.065  0.3778  0.5787 -0.5338
  801MPD2    C211851   2.712   1.131  14.062 -0.4445  0.2679  0.5986
  801MPD2    C311852   2.700   1.269  14.045 -0.7687  0.1469 -0.3878
  801MPD2    C411853   2.811   1.340  14.020 -0.0090 -0.2414 -0.4123
  801MPD2    C511854   2.930   1.273  13.999 -0.1347 -0.3293 -0.2938
  801MPD2     H11855   2.630   1.062  14.076 -1.3754  1.1233 -0.6464
  801MPD2    H111856   2.812   1.447  14.006  1.4059 -0.1352  0.4606
  801MPD2    H211857   3.046   1.097  14.011 -0.3278 -1.8753  0.5397
  801MPD2    H311858   3.018   1.330  13.969 -0.6889  0.5257 -0.3054
  801MPD2     N11859   2.574   1.330  14.076 -0.3087  0.1529  0.5635
  801MPD2    H511860   2.581   1.429  14.094 -1.4166  0.2254  0.6055
  801MPD2    N111861   2.843   0.939  14.115  0.1654  0.1769 -0.5116
  801MPD2    H711862   2.758   0.906  14.159 -0.6021  1.3707 -1.0996
  802MPD2     C11863   2.246   2.362   0.452  0.1735 -0.3863 -0.4734
  802MPD2    C111864   2.143   2.303   0.384  0.1535 -0.3645 -0.9002
  802MPD2    C211865   2.148   2.172   0.346  0.5015 -0.7859  0.3732
  802MPD2    C311866   2.271   2.103   0.350  0.7161 -0.6520 -0.0306
  802MPD2    C411867   2.384   2.165   0.414 -0.0753 -0.9782  0.2641
  802MPD2    C511868   2.364   2.291   0.460  0.1189  0.4487  0.2989
  802MPD2     H11869   2.068   2.124   0.290  0.1704  1.1577 -0.7999
  802MPD2    H111870   2.484   2.125   0.407  0.2170  0.0828 -1.6567
  802MPD2    H211871   2.240   2.466   0.485  2.0791 -0.1216 -0.9390
  802MPD2    H311872   2.450   2.345   0.498  0.9046 -0.5320 -0.0908
  802MPD2     N11873   2.276   1.975   0.287 -0.2179 -0.2599 -0.0343
  802MPD2    H511874   2.192   1.929   0.253  0.8957 -2.9628  0.8478
  802MPD2    N111875   2.021   2.365   0.365  0.4530  0.0235 -0.2528
  802MPD2    H711876   1.946   2.312   0.322 -0.7684  0.9372  0.7405
  803MPD2     C11877   3.444   4.299  11.537  0.0127 -0.2917 -0.1315
  803MPD2    C111878   3.530   4.356  11.632 -0.8113 -0.0964  0.1138
  803MPD2    C211879   3.517   4.329  11.765  0.1406  0.4759  0.2568
  803MPD2    C311880   3.423   4.238  11.802  0.2909  0.1755 -1.1091
  803MPD2    C411881   3.333   4.184  11.704  0.2431  0.2551 -0.5863
  803MPD2    C511882   3.352   4.209  11.573 -0.8026  0.6956  0.0790
  803MPD2     H11883   3.579   4.376  11.840  0.0734  0.3030  0.4198
  803MPD2    H111884   3.259   4.115  11.742  0.7368 -0.2255 -0.4950
  803MPD2    H211885   3.454   4.323  11.432 -0.2704  0.8915  0.1105
  803MPD2    H311886   3.285   4.177  11.495 -0.6966  3.4125 -1.1354
  803MPD2     N11887   3.399   4.194  11.935  0.1904 -0.0863  0.4919
  803MPD2    H511888   3.306   4.155  11.951  0.3609 -0.0921  1.4969
  803MPD2    N111889   3.617   4.470  11.594 -0.1208  0.1800 -0.1472
  803MPD2    H711890   3.639   4.525  11.677 -0.2600 -1.2233  0.8163
  804MPD2     C11891   2.287   1.362  17.157 -0.3519 -0.2174 -0.7571
  804MPD2    C111892   2.360   1.278  17.231 -0.3200  0.0173 -0.3522
  804MPD2    C211893   2.472   1.331  17.297 -0.5824 -0.4422 -0.2651
  804MPD2    C311894   2.504   1.464  17.293 -0.0964  0.4740 -0.1858
  804MPD2    C411895   2.436   1.540  17.204 -0.1698 -0.7797 -0.7357
  804MPD2    C511896   2.332   1.483  17.128  0.5729  0.6998  0.5931
  804MPD2     H11897   2.533   1.264  17.356  2.2967 -0.6311 -3.4302
  804MPD2    H111898   2.443   1.648  17.200 -5.0211 -0.4283  0.9270
  804MPD2    H211899   2.191   1.329  17.119  0.1270 -0.7411 -1.5266
  804MPD2    H311900   2.266   1.550  17.073  0.1326 -1.4975 -1.5412
  804MPD2     N11901   2.602   1.520  17.376  0.5863 -0.1502  0.4078
  804MPD2    H511902   2.630   1.470  17.459 -2.0264 -0.9453  0.8102
  804MPD2    N111903   2.323   1.141  17.226 -0.2393 -0.5084 -0.1241
  804MPD2    H711904   2.243   1.116  17.169 -1.1648 -0.1094  1.0029
  805MPD2     C11905   1.864   4.710  15.519 -0.2328 -0.6010 -0.5004
  805MPD2    C111906   1.972   0.046  15.466 -0.4118 -0.5792  0.0084
  805MPD2    C211907   2.076   0.071  15.553  0.1926  0.0195 -0.3495
  805MPD2    C311908   2.076   0.029  15.687 -0.6275 -0.2521 -0.4814
  805MPD2    C411909   1.974   4.684  15.728 -0.5215 -0.0712  0.3720
  805MPD2    C511910   1.869   4.666  15.646  0.6219 -0.0162 -0.2437
  805MPD2     H11911   2.160   0.131  15.520 -0.1418  0.8897  0.4069
  805MPD2    H111912   1.975   4.637  15.825 -2.0092 -1.3102 -0.2103
  805MPD2    H211913   1.773   4.694  15.462  0.2180  2.8322 -2.1616
  805MPD2    H311914   1.787   4.603  15.678  0.6567  0.3218  0.5098
  805MPD2     N11915   2.174   0.079  15.779 -0.0709  0.2230  0.4406
  805MPD2    H511916   2.236   0.149  15.741 -0.0225  0.5604  1.1538
  805MPD2    N111917   1.983   0.075  15.328 -0.0245  0.0392 -0.0158
  805MPD2    H711918   2.071   0.108  15.288 -0.8471  0.5974 -1.3566
  806MPD2     C11919   2.430   3.872   0.934 -0.2830 -0.5448  0.2202
  806MPD2    C111920   2.561   3.907   0.922  0.0187 -0.7711  0.0222
  806MPD2    C211921   2.601   3.951   0.795 -0.2999  0.9446 -0.5193
  806MPD2    C311922   2.524   3.964   0.683 -0.6779  0.2422 -0.4753
  806MPD2    C411923   2.391   3.932   0.704 -0.3361  0.2863  0.8842
  806MPD2    C511924   2.348   3.886   0.826 -1.0533 -0.1525  0.4039
  806MPD2     H11925   2.698   3.989   0.765 -0.6798  1.8158 -0.6493
  806MPD2    H111926   2.313   3.949   0.631  0.2793  1.2256  0.4444
  806MPD2    H211927   2.389   3.820   1.021 -1.5258 -0.0762 -0.0889
  806MPD2    H311928   2.243   3.862   0.838 -1.1341  1.4479  2.8780
  806MPD2     N11929   2.585   4.013   0.561  0.1432 -0.6854  0.2778
  806MPD2    H511930   2.683   4.038   0.558 -0.8766  3.1352 -1.8067
  806MPD2    N111931   2.647   3.898   1.030  0.2444 -0.6268 -0.4507
  806MPD2    H711932   2.606   3.858   1.114 -0.6356  0.2697 -0.4460
  807MPD2     C11933   2.809   3.527   1.679  0.1847  0.1432  0.6115
  807MPD2    C111934   2.897   3.506   1.576  0.5989  0.4850 -0.5382
  807MPD2    C211935   2.974   3.388   1.579 -0.3442 -0.3505  0.0685
  807MPD2    C311936   2.945   3.283   1.669 -0.2723  0.3951 -0.0288
  807MPD2    C411937   2.862   3.315   1.771 -0.1398  0.1549 -0.1137
  807MPD2    C511938   2.810   3.435   1.778 -0.0086  0.0368  0.0647
  807MPD2     H11939   3.040   3.377   1.494 -1.1629  1.0112 -0.7392
  807MPD2    H111940   2.850   3.248   1.855  0.6690 -0.5421 -0.5531
  807MPD2    H211941   2.753   3.619   1.695  2.4340  1.4724  0.8407
  807MPD2    H311942   2.754   3.464   1.866  0.6075  0.6073  0.2640
  807MPD2     N11943   2.987   3.152   1.649 -0.3028 -0.2030 -0.2437
  807MPD2    H511944   3.044   3.146   1.566  1.1954  1.4833  0.6500
  807MPD2    N111945   2.915   3.601   1.477  0.0779  0.1679 -0.1430
  807MPD2    H711946   2.992   3.592   1.412  1.5577 -0.0279  1.6427
  808MPD2     C11947   2.963   0.899   9.506  0.5236  0.1761  0.0423
  808MPD2    C111948   3.035   0.960   9.603 -0.4404  0.0106 -0.2590
  808MPD2    C211949   3.082   1.086   9.580  0.0060  0.5691 -0.7583
  808MPD2    C311950   3.066   1.150   9.456  0.1694 -0.3169  0.0631
  808MPD2    C411951   2.988   1.094   9.364  0.4309  0.6964  0.3901
  808MPD2    C511952   2.943   0.964   9.383  0.0126 -0.1468  0.9244
  808MPD2     H11953   3.134   1.123   9.668 -3.4833  1.4071  0.9403
  808MPD2    H111954   2.964   1.139   9.268 -1.5542 -1.2697 -0.0207
  808MPD2    H211955   2.901   0.814   9.530 -0.2613  1.1102  1.3344
  808MPD2    H311956   2.884   0.924   9.302  0.6474 -1.2144  0.9930
  808MPD2     N11957   3.125   1.272   9.425  0.2233 -0.0765  0.8142
  808MPD2    H511958   3.115   1.301   9.328  1.6749  0.0393  0.6952
  808MPD2    N111959   3.045   0.908   9.735  0.3752 -0.1305  0.0877
  808MPD2    H711960   3.088   0.972   9.801 -0.2765 -0.9208  1.2666
  809MPD2     C11961   3.762   1.275   8.914 -0.1264 -0.3339  0.5309
  809MPD2    C111962   3.797   1.329   9.033 -1.0587  1.0649  0.2755
  809MPD2    C211963   3.710   1.406   9.103  0.1024  0.2217  0.3517
  809MPD2    C311964   3.586   1.432   9.053  0.0417  0.4512  0.6955
  809MPD2    C411965   3.553   1.383   8.924  0.0409 -0.5590 -0.1992
  809MPD2    C511966   3.642   1.300   8.863  0.2786  0.0673  0.1548
  809MPD2     H11967   3.743   1.438   9.201 -1.1597  0.5977  0.6622
  809MPD2    H111968   3.456   1.398   8.879 -0.3603 -2.5143  0.0285
  809MPD2    H211969   3.822   1.192   8.878 -0.6934  0.3449 -2.0124
  809MPD2    H311970   3.620   1.259   8.765  2.5926 -0.6274 -0.0858
  809MPD2     N11971   3.486   1.507   9.129  0.2571 -0.3486 -0.6264
  809MPD2    H511972   3.390   1.492   9.100 -1.1351  1.2567  3.1001
  809MPD2    N111973   3.927   1.304   9.092 -0.2132  0.1446  0.0770
  809MPD2    H711974   3.942   1.350   9.181  1.2430  0.3030 -0.2604
  810MPD2     C11975   2.499   0.149  11.119 -0.1939  0.5310 -0.5274
  810MPD2    C111976   2.469   0.146  10.984 -0.0243 -0.1259  0.4700
  810MPD2    C211977   2.496   0.255  10.912  0.1011 -0.1784 -0.6324
  810MPD2    C311978   2.542   0.374  10.968 -0.1469  0.1068  0.3866
  810MPD2    C411979   2.564   0.374  11.107  0.4625 -0.1535  0.2533
  810MPD2    C511980   2.532   0.266  11.185  0.3091 -0.1713  0.5558
  810MPD2     H11981   2.486   0.260  10.804  2.2256 -0.2501 -0.8353
  810MPD2    H111982   2.590   0.462  11.165  0.0015  0.6323 -0.7271
  810MPD2    H211983   2.474   0.065  11.183  4.8117  0.5768  1.4772
  810MPD2    H311984   2.547   0.266  11.292 -2.2854 -0.5093  0.9167
  810MPD2     N11985   2.553   0.501  10.898 -0.9623 -0.1628  0.8865
  810MPD2    H511986   2.581   0.583  10.952  0.0281 -0.6918  1.1779
  810MPD2    N111987   2.409   0.032  10.929  0.5429 -0.5973 -0.0123
  810MPD2    H711988   2.402   4.689  10.993 -1.9107 -0.8141 -0.5715
  811MPD2     C11989   1.869   4.704  10.269  0.5192  0.2730 -0.0859
  811MPD2    C111990   1.976   0.025  10.338  0.1240 -0.7962  0.2687
  811MPD2    C211991   2.021   0.147  10.297  0.3803  0.4143 -0.0105
  811MPD2    C311992   1.974   0.213  10.184  0.6095  0.4391 -0.7122
  811MPD2    C411993   1.872   0.155  10.116  0.5752  0.2511  0.7817
  811MPD2    C511994   1.819   0.038  10.163 -0.2112  0.1576 -0.3202
  811MPD2     H11995   2.103   0.188  10.355 -1.0226 -0.4682  2.6054
  811MPD2    H111996   1.826   0.196  10.027  0.2808  1.2537  1.3980
  811MPD2    H211997   1.812   4.625  10.317  0.4412 -0.4642 -1.3852
  811MPD2    H311998   1.731   0.000  10.112 -0.0843  1.2905 -1.3908
  811MPD2     N11999   2.039   0.334  10.154  0.4535 -0.2140 -0.1069
  811MPD2    H512000   2.131   0.360  10.189 -0.0480  2.1079 -0.4968
  811MPD2    N112001   2.032   4.709  10.458 -0.0454 -0.2767  0.1475
  811MPD2    H712002   2.100   0.035  10.499  0.1337 -0.2700 -0.1598
  812MPD2     C12003   1.581   0.293  12.295 -0.1227  0.1673  0.1408
  812MPD2    C112004   1.464   0.354  12.326 -0.5758  0.1976 -0.0695
  812MPD2    C212005   1.386   0.293  12.420 -0.6546 -0.7727  1.0640
  812MPD2    C312006   1.427   0.175  12.474 -0.5249  0.1048  0.4699
  812MPD2    C412007   1.553   0.118  12.442  0.0713 -0.3949  0.5064
  812MPD2    C512008   1.632   0.183  12.355 -0.1342  0.2574 -0.0918
  812MPD2     H12009   1.287   0.328  12.446  0.6484  1.9782  2.3147
  812MPD2    H112010   1.587   0.019  12.470  1.9073 -0.2295 -1.1227
  812MPD2    H212011   1.637   0.326  12.209 -0.0930 -0.6800 -0.1637
  812MPD2    H312012   1.720   0.139  12.310  0.6430  1.6654  0.0701
  812MPD2     N12013   1.335   0.100  12.554 -0.0969  0.3709  0.4428
  812MPD2    H512014   1.243   0.139  12.571 -0.1586 -0.6897  2.6326
  812MPD2    N112015   1.437   0.479  12.255  0.0614  0.2379  0.4930
  812MPD2    H712016   1.502   0.500  12.180  1.3990 -0.2518  1.5292
  813MPD2     C12017   4.562   1.976  12.834 -0.9898 -0.1304 -0.4059
  813MPD2    C112018   4.601   2.070  12.922 -1.1774 -0.2500 -0.2001
  813MPD2    C212019   4.513   2.132  13.013 -0.4109 -0.1761 -0.4798
  813MPD2    C312020   4.382   2.082  13.029  0.4127 -0.7468 -0.2439
  813MPD2    C412021   4.344   1.977  12.946  0.6019 -0.2030 -0.3310
  813MPD2    C512022   4.430   1.933  12.852 -0.0865 -0.3744  0.5046
  813MPD2     H12023   4.543   2.217  13.073  0.5402  0.4057 -1.7745
  813MPD2    H112024   4.246   1.932  12.960  0.3022  0.2430 -1.0561
  813MPD2    H212025   4.631   1.916  12.776  0.8237  1.5177  0.0624
  813MPD2    H312026   4.401   1.843  12.798 -2.1915  0.7501 -0.2427
  813MPD2     N12027   4.292   2.131  13.128  0.1511 -0.6456  0.3657
  813MPD2    H512028   4.325   2.218  13.169  1.6106 -0.7808 -0.5386
  813MPD2    N112029   0.008   2.102  12.920  0.5353  0.6010 -0.7936
  813MPD2    H712030   0.066   2.070  12.843  2.1511 -1.3566  1.2422
  814MPD2     C12031   0.762   3.145  12.654  0.1520 -0.2644  0.1062
  814MPD2    C112032   0.839   3.193  12.552 -0.3888 -0.0834  0.2333
  814MPD2    C212033   0.937   3.285  12.581  0.4947 -0.6504 -0.2590
  814MPD2    C312034   0.959   3.331  12.714  0.2050 -0.1657 -0.2173
  814MPD2    C412035   0.877   3.285  12.813  0.2341 -0.6331  0.1217
  814MPD2    C512036   0.790   3.185  12.782  0.0376 -1.2072 -0.2103
  814MPD2     H12037   0.997   3.327  12.501  2.7634  2.6654  3.1842
  814MPD2    H112038   0.904   3.299  12.917  0.2905  0.0872  0.0104
  814MPD2    H212039   0.694   3.062  12.638  0.3303 -0.3245 -0.3255
  814MPD2    H312040   0.737   3.148  12.869 -2.1858  0.5744 -0.8030
  814MPD2     N12041   1.058   3.429  12.757  0.6334  0.1612  0.2319
  814MPD2    H512042   1.051   3.471  12.849 -1.2303  0.7170 -0.1677
  814MPD2    N112043   0.833   3.152  12.417 -0.3077 -0.8680  0.3806
  814MPD2    H712044   0.890   3.208  12.355 -0.7418 -0.1973  0.5841
  815MPD2     C12045   1.421   1.871  11.826  0.8722  0.0410 -0.0148
  815MPD2    C112046   1.342   1.768  11.777  0.2582  0.0785 -0.3840
  815MPD2    C212047   1.225   1.744  11.834 -0.7853  0.0078 -0.1320
  815MPD2    C312048   1.185   1.820  11.945  0.1323 -0.3000  0.3356
  815MPD2    C412049   1.271   1.915  12.006  0.0064 -0.5274 -0.3322
  815MPD2    C512050   1.391   1.938  11.942  0.0119 -0.1577  0.0123
  815MPD2     H12051   1.163   1.663  11.798  0.2425  0.4025 -2.7532
  815MPD2    H112052   1.250   1.974  12.095 -0.4966  0.7138 -1.2705
  815MPD2    H212053   1.513   1.898  11.775  0.8006  0.9337  0.3304
  815MPD2    H312054   1.464   2.010  11.975  0.5880 -1.0450  0.6662
  815MPD2     N12055   1.061   1.790  12.007  0.5419 -0.1170  0.4056
  815MPD2    H512056   0.994   1.739  11.950  0.7460 -0.4302  0.4489
  815MPD2    N112057   1.392   1.704  11.663  0.3934  0.2644  0.4311
  815MPD2    H712058   1.471   1.746  11.615  0.2277 -0.7596 -0.7329
  816MPD2     C12059   1.508   1.214  17.418  0.0137  0.3362  0.6774
  816MPD2    C112060   1.393   1.209  17.337  0.0606  0.2726  0.4525
  816MPD2    C212061   1.389   1.102  17.251  0.6405  0.1943 -0.0323
  816MPD2    C312062   1.491   1.018  17.223 -0.5215  0.3659  0.0223
  816MPD2    C412063   1.606   1.030  17.301 -0.1168 -0.2502  0.6865
  816MPD2    C512064   1.603   1.116  17.404  0.3060 -0.3484  0.2847
  816MPD2     H12065   1.307   1.102  17.181  1.2663 -0.0259 -0.7690
  816MPD2    H112066   1.685   0.957  17.291 -2.7063 -3.1982  1.7972
  816MPD2    H212067   1.517   1.283  17.501  0.4289 -1.5065  2.1843
  816MPD2    H312068   1.683   1.104  17.476  0.7066 -2.2198 -0.4620
  816MPD2     N12069   1.475   0.921  17.108  0.8410  0.6598  0.4436
  816MPD2    H512070   1.380   0.900  17.078  0.4267 -0.1814  2.3286
  816MPD2    N112071   1.293   1.305  17.358 -0.6942  0.8308 -0.0607
  816MPD2    H712072   1.311   1.362  17.440  1.5681  0.5196 -0.3380
  817MPD2     C12073   1.449   2.719   9.682  0.0478 -0.4274  0.0507
  817MPD2    C112074   1.357   2.720   9.580 -0.3696 -0.3692 -0.5781
  817MPD2    C212075   1.335   2.833   9.503 -0.2311  0.6713 -0.0461
  817MPD2    C312076   1.404   2.951   9.520 -0.7474  0.0928  0.2568
  817MPD2    C412077   1.495   2.952   9.618  0.7062 -0.2561  0.3736
  817MPD2    C512078   1.525   2.837   9.694 -0.1505  0.3601  0.1939
  817MPD2     H12079   1.253   2.816   9.434  1.3177  1.1810 -2.0076
  817MPD2    H112080   1.552   3.041   9.641 -0.4835  0.6161 -0.0916
  817MPD2    H212081   1.470   2.631   9.741 -0.2626  0.0445  0.8578
  817MPD2    H312082   1.595   2.838   9.777 -2.3114  0.3010  2.0394
  817MPD2     N12083   1.380   3.059   9.440 -0.0988  0.1927  0.1738
  817MPD2    H512084   1.340   3.032   9.351  2.3457 -0.0387 -0.8386
  817MPD2    N112085   1.274   2.614   9.543 -0.0169  0.0655 -0.2156
  817MPD2    H712086   1.220   2.640   9.461  0.0560 -1.7726 -0.8427
  818MPD2     C12087   0.256   2.881  10.159  0.9427  0.7329  0.1117
  818MPD2    C112088   0.145   2.803  10.120  0.0046  0.3265 -0.9177
  818MPD2    C212089   0.160   2.671  10.086 -0.1735  0.1219 -0.4166
  818MPD2    C312090   0.289   2.616  10.091  0.2120 -0.0547  0.1101
  818MPD2    C412091   0.397   2.686  10.130  0.1077 -0.4814  0.2665
  818MPD2    C512092   0.377   2.821  10.162 -0.4396 -0.2965  0.3557
  818MPD2     H12093   0.077   2.606  10.063 -0.4718  0.8727 -1.4555
  818MPD2    H112094   0.493   2.635  10.126 -0.5165 -1.7218  1.0821
  818MPD2    H212095   0.246   2.985  10.189 -1.0353  0.6272 -0.1824
  818MPD2    H312096   0.457   2.889  10.190 -1.6205  1.3164 -0.2138
  818MPD2     N12097   0.312   2.482  10.061 -0.4006 -0.0895 -0.0769
  818MPD2    H512098   0.392   2.437  10.105  0.6074  0.5867 -1.2177
  818MPD2    N112099   0.018   2.863  10.140 -0.5054 -0.2049  0.2120
  818MPD2    H712100   0.029   2.949  10.192  0.7277 -1.2820  1.7255
  819MPD2     C12101   2.746   4.196  15.605 -0.7182 -0.4925 -0.3200
  819MPD2    C112102   2.798   4.076  15.555  0.1773  0.3497  0.4215
  819MPD2    C212103   2.918   4.034  15.600  0.4490 -0.2831  0.4190
  819MPD2    C312104   2.977   4.104  15.704 -0.0024 -0.1059  0.0847
  819MPD2    C412105   2.931   4.223  15.748 -0.5289  0.2979 -0.7776
  819MPD2    C512106   2.815   4.273  15.700 -0.2488 -0.0064 -0.6111
  819MPD2     H12107   2.977   3.956  15.554 -2.2105 -1.3647 -1.1162
  819MPD2    H112108   2.975   4.286  15.824  0.8929 -0.6707 -0.7895
  819MPD2    H212109   2.652   4.225  15.560  0.2561 -0.0827 -2.1071
  819MPD2    H312110   2.779   4.371  15.732 -1.9836 -0.4946 -1.0424
  819MPD2     N12111   3.087   4.043  15.761 -0.5926 -0.2971 -0.2079
  819MPD2    H512112   3.114   3.951  15.728 -1.5273 -1.1639  1.4346
  819MPD2    N112113   2.711   4.013  15.464  0.4075 -0.1321 -0.0299
  819MPD2    H712114   2.630   4.062  15.427  0.3614 -0.2230 -0.0490
  820MPD2     C12115   2.047   4.198  14.753 -0.4467  0.1623  0.7023
  820MPD2    C112116   2.088   4.265  14.863  0.3381  0.2014 -0.2006
  820MPD2    C212117   2.155   4.194  14.966 -0.0164 -0.1120 -0.3901
  820MPD2    C312118   2.196   4.062  14.937  1.1912 -0.1275 -0.1046
  820MPD2    C412119   2.154   4.003  14.819  0.8217  1.4379  0.3875
  820MPD2    C512120   2.074   4.068  14.732 -0.4911  0.5771 -0.4814
  820MPD2     H12121   2.198   4.244  15.052 -0.4513 -1.2249  0.4730
  820MPD2    H112122   2.198   3.906  14.800 -3.0295  0.2782 -2.4699
  820MPD2    H212123   1.993   4.255  14.679  1.3230 -0.2531 -0.9110
  820MPD2    H312124   2.039   4.006  14.650  0.4877  0.8092 -1.0782
  820MPD2     N12125   2.273   3.986  15.025  0.7601  0.2742 -0.3421
  820MPD2    H512126   2.304   3.897  14.986 -1.5063 -0.3559 -0.7171
  820MPD2    N112127   2.049   4.400  14.878  0.1939  0.6805 -0.2806
  820MPD2    H712128   1.995   4.439  14.801  1.4233  0.3511 -1.3188
  821MPD2     C12129   2.362   0.679  13.239  0.6924 -0.5142  0.8989
  821MPD2    C112130   2.453   0.600  13.304  0.6316 -1.0449 -0.1097
  821MPD2    C212131   2.581   0.610  13.257 -0.2268 -0.1550 -0.7093
  821MPD2    C312132   2.616   0.694  13.150 -0.9385  0.2560 -0.2952
  821MPD2    C412133   2.524   0.764  13.078  0.1455 -0.1561 -0.0685
  821MPD2    C512134   2.392   0.753  13.125  0.1276 -0.0927 -0.1275
  821MPD2     H12135   2.655   0.561  13.319 -0.2449  0.7729  0.0494
  821MPD2    H112136   2.552   0.833  13.000  1.8976 -2.6577 -1.6218
  821MPD2    H212137   2.257   0.684  13.265  0.2774  0.3851 -0.9353
  821MPD2    H312138   2.312   0.815  13.086 -0.5564 -1.3384 -0.6905
  821MPD2     N12139   2.747   0.719  13.102 -0.1676 -0.0940 -0.8716
  821MPD2    H512140   2.753   0.781  13.022  1.0095 -2.1646 -2.4165
  821MPD2    N112141   2.433   0.502  13.403  0.3714 -0.0109  0.2227
  821MPD2    H712142   2.511   0.441  13.425  0.7072 -0.3481 -1.9079
  822MPD2     C12143   2.618   0.624  15.805 -0.2853 -0.4286  0.0025
  822MPD2    C112144   2.723   0.676  15.876 -0.0843  0.7756  0.4045
  822MPD2    C212145   2.708   0.783  15.957 -0.1944 -0.2140 -0.5232
  822MPD2    C312146   2.580   0.833  15.981 -0.1032 -0.1111 -0.3781
  822MPD2    C412147   2.472   0.778  15.913 -0.4727  0.0933 -0.2564
  822MPD2    C512148   2.489   0.677  15.820  0.1774  0.3152 -0.0777
  822MPD2     H12149   2.792   0.822  16.013  0.2104 -0.0298 -1.2540
  822MPD2    H112150   2.373   0.817  15.936 -0.5075 -0.2340  0.1450
  822MPD2    H212151   2.624   0.535  15.744  1.9413  0.0240 -0.4472
  822MPD2    H312152   2.403   0.639  15.766 -0.6571  3.1984 -0.8238
  822MPD2     N12153   2.556   0.932  16.079 -0.3999 -0.0032 -0.3430
  822MPD2    H512154   2.462   0.958  16.104  0.1438 -0.1064  1.8343
  822MPD2    N112155   2.850   0.616  15.883 -0.8730  0.3224  0.1741
  822MPD2    H712156   2.910   0.662  15.950  1.5255 -0.1086 -1.6577
  823MPD2     C12157   2.577   1.115  16.913  0.3405  0.2257  0.2047
  823MPD2    C112158   2.627   1.056  16.795  0.1165  0.2454 -0.2987
  823MPD2    C212159   2.726   0.957  16.801  0.0869  0.3801 -0.0956
  823MPD2    C312160   2.780   0.915  16.924  0.5360 -0.1603 -0.7196
  823MPD2    C412161   2.729   0.978  17.045  1.0613 -0.0953  0.0479
  823MPD2    C512162   2.637   1.085  17.032 -0.4900  0.7579 -0.9285
  823MPD2     H12163   2.768   0.924  16.706  0.9290  1.8518 -0.2398
  823MPD2    H112164   2.782   0.966  17.138  0.4498 -0.1276  0.3979
  823MPD2    H212165   2.499   1.190  16.920  0.3961  0.5445 -2.9218
  823MPD2    H312166   2.609   1.138  17.122 -0.2641 -1.6817  0.5626
  823MPD2     N12167   2.884   0.817  16.949 -0.1310  0.4677 -0.4542
  823MPD2    H512168   2.910   0.806  17.047 -3.0548 -1.2759  0.1185
  823MPD2    N112169   2.573   1.099  16.679  0.4598  0.3688 -0.1868
  823MPD2    H712170   2.504   1.174  16.683  1.4518  1.3959 -2.8741
  824MPD2     C12171   3.291   4.719  15.608 -0.2458 -0.2678 -0.1381
  824MPD2    C112172   3.378   0.020  15.703  1.0621 -0.3006  0.9987
  824MPD2    C212173   3.505   4.702  15.701  0.4346  0.1124 -0.0601
  824MPD2    C312174   3.528   4.605  15.614 -0.6891 -0.1455 -0.0422
  824MPD2    C412175   3.438   4.561  15.522 -0.2557  0.7849 -0.7381
  824MPD2    C512176   3.316   4.617  15.518  0.2141  0.7731 -0.2408
  824MPD2     H12177   3.582   4.726  15.772  1.0610 -3.7605  0.5433
  824MPD2    H112178   3.464   4.496  15.439 -1.5350 -0.2352 -0.3277
  824MPD2    H212179   3.197   0.035  15.605  0.1500  0.5217  1.1278
  824MPD2    H312180   3.240   4.582  15.449 -0.8909 -0.4744  1.5986
  824MPD2     N12181   3.657   4.551  15.619 -0.0680 -0.5398  0.5234
  824MPD2    H512182   3.720   4.590  15.689 -0.2575  0.1726  0.2942
  824MPD2    N112183   3.334   0.117  15.798 -0.2419  0.1161 -0.1028
  824MPD2    H712184   3.411   0.153  15.854 -1.3959  1.5396  0.5477
  825MPD2     C12185   4.502   4.578  15.668  0.4007  0.5550 -0.7590
  825MPD2    C112186   4.377   4.629  15.652  0.0405 -0.0114  0.3027
  825MPD2    C212187   4.365   0.027  15.617 -0.0311  1.1937  0.2117
  825MPD2    C312188   4.477   0.109  15.614 -0.7627 -0.4712  0.2662
  825MPD2    C412189   4.604   0.053  15.621  0.5404  0.4249  0.4997
  825MPD2    C512190   4.614   4.655  15.645  0.4077  1.3433  1.0260
  825MPD2     H12191   4.269   0.067  15.587 -0.4209  0.0327 -0.0969
  825MPD2    H112192   4.691   0.113  15.602  0.6634 -0.3460 -1.3158
  825MPD2    H212193   4.503   4.476  15.706 -0.3734  0.2535 -1.5516
  825MPD2    H312194   4.706   4.598  15.633 -2.1458 -2.7987  1.1771
  825MPD2     N12195   4.471   0.251  15.599  0.2922 -0.7749  0.3419
  825MPD2    H512196   4.558   0.301  15.607 -0.1677  0.4628 -2.2900
  825MPD2    N112197   4.264   4.541  15.672  0.1446  0.1188 -0.3867
  825MPD2    H712198   4.286   4.442  15.678 -0.8377 -0.0406  0.6835
  826MPD2     C12199   4.541   4.601  13.352  0.3072 -0.9991 -0.6372
  826MPD2    C112200   4.560   4.699  13.447 -0.0683 -0.5284  0.2937
  826MPD2    C212201   4.449   0.028  13.502  0.8935  0.0051  0.0199
  826MPD2    C312202   4.327   4.725  13.457 -0.1885  0.7511 -0.4473
  826MPD2    C412203   4.304   4.617  13.369 -0.1081  0.2611  0.3766
  826MPD2    C512204   4.414   4.558  13.319  0.6748 -0.1247 -0.3474
  826MPD2     H12205   4.462   0.110  13.572  0.3340 -0.0286  0.1594
  826MPD2    H112206   4.208   4.575  13.342 -0.5821 -0.5680  3.3530
  826MPD2    H212207   4.624   4.551  13.304 -0.2690  0.9491 -3.6790
  826MPD2    H312208   4.403   4.473  13.253 -0.5175 -1.1122  1.1322
  826MPD2     N12209   4.207   0.044  13.510 -0.1418  0.8339  0.2142
  826MPD2    H512210   4.118   0.018  13.466  0.1809  0.1690 -0.0529
  826MPD2    N112211   4.691   4.716  13.487 -0.0899  0.3945  0.0689
  826MPD2    H712212   0.023   4.652  13.448 -1.1168 -1.1876  0.8860
  827MPD2     C12213   0.568   1.715   9.909  0.0854 -0.7054 -0.2579
  827MPD2    C112214   0.580   1.589   9.965 -0.2691 -0.3359 -0.1839
  827MPD2    C212215   0.500   1.493   9.906  0.4486 -0.1324 -0.2554
  827MPD2    C312216   0.412   1.510   9.806  0.8974  0.2491  0.5133
  827MPD2    C412217   0.393   1.641   9.760  1.1291  0.8010  0.1603
  827MPD2    C512218   0.476   1.739   9.808 -0.0829  0.7025 -0.2408
  827MPD2     H12219   0.505   1.390   9.941  2.5546  0.4225  1.0607
  827MPD2    H112220   0.315   1.669   9.690  0.9021 -4.3304 -1.7185
  827MPD2    H212221   0.613   1.805   9.949 -2.4700  1.2520 -1.7628
  827MPD2    H312222   0.465   1.841   9.774  0.4945  0.0891 -2.2984
  827MPD2     N12223   0.325   1.400   9.774  0.5152  0.3732  0.2336
  827MPD2    H512224   0.328   1.317   9.833  1.0687 -2.1503 -3.3568
  827MPD2    N112225   0.659   1.574  10.084 -0.4490  0.4342 -0.0603
  827MPD2    H712226   0.714   1.652  10.118 -1.9427  0.6705  1.8508
  828MPD2     C12227   3.464   0.449  12.366  0.4082 -0.0135 -1.2907
  828MPD2    C112228   3.440   0.580  12.333  0.4869  0.2751 -0.0922
  828MPD2    C212229   3.494   0.637  12.218  0.0248 -0.3962 -0.2282
  828MPD2    C312230   3.561   0.548  12.130 -0.7233 -0.4561  0.0465
  828MPD2    C412231   3.592   0.424  12.167  0.1037  0.4937 -0.8537
  828MPD2    C512232   3.545   0.378  12.285  0.0112  0.3402 -0.8094
  828MPD2     H12233   3.485   0.742  12.194  0.1660  0.2204  2.3763
  828MPD2    H112234   3.650   0.362  12.100  0.2521 -2.9537  2.4424
  828MPD2    H212235   3.434   0.408  12.461 -3.0846 -0.9884 -2.8014
  828MPD2    H312236   3.566   0.274  12.307  0.7473  0.2488 -1.9585
  828MPD2     N12237   3.620   0.590  12.009 -0.1802  0.8034  0.6146
  828MPD2    H512238   3.667   0.521  11.952 -0.5679 -1.4990  3.1447
  828MPD2    N112239   3.362   0.664  12.408  0.3714 -0.0089 -0.7200
  828MPD2    H712240   3.351   0.761  12.378 -2.2021  0.0083  0.2358
  829MPD2     C12241   3.610   1.353  12.307 -0.3110  0.2305 -0.1302
  829MPD2    C112242   3.488   1.316  12.259 -0.2401  0.0406  0.2405
  829MPD2    C212243   3.402   1.245  12.336  0.9012 -0.8048 -0.3896
  829MPD2    C312244   3.440   1.203  12.462  0.3948 -0.3108 -1.0710
  829MPD2    C412245   3.566   1.237  12.510 -0.3514 -0.1995  0.7414
  829MPD2    C512246   3.650   1.309  12.428  0.0767 -0.3918  0.2240
  829MPD2     H12247   3.304   1.226  12.294  2.4176 -2.0707 -3.3129
  829MPD2    H112248   3.598   1.223  12.613  1.2768  1.4690  0.4649
  829MPD2    H212249   3.668   1.420  12.245  0.5633 -0.4798 -0.0924
  829MPD2    H312250   3.751   1.339  12.456 -0.0347  0.8233 -0.6750
  829MPD2     N12251   3.365   1.117  12.549 -0.3521 -0.1856  0.3831
  829MPD2    H512252   3.418   1.083  12.629  1.8296  1.1599 -0.4740
  829MPD2    N112253   3.448   1.360  12.130 -0.5353 -0.2517 -0.0679
  829MPD2    H712254   3.520   1.414  12.082 -1.6635  3.6674  2.6527
  830MPD2     C12255   3.610   3.787  15.416 -0.0541  0.5996 -0.2738
  830MPD2    C112256   3.593   3.898  15.501 -0.2652  0.2246  0.3673
  830MPD2    C212257   3.591   4.024  15.444 -0.1250 -0.2586 -0.1129
  830MPD2    C312258   3.609   4.031  15.305  0.5039 -0.8482 -0.0922
  830MPD2    C412259   3.632   3.917  15.219 -0.0766 -0.0920  0.2157
  830MPD2    C512260   3.630   3.796  15.282 -0.0048  0.4081 -0.6300
  830MPD2     H12261   3.562   4.113  15.499 -0.7107 -0.0397 -0.7751
  830MPD2    H112262   3.632   3.917  15.111 -1.3748 -0.8596  0.2108
  830MPD2    H212263   3.614   3.686  15.457 -2.7730  1.1839  1.4377
  830MPD2    H312264   3.633   3.708  15.219 -1.5866  1.0322 -1.5684
  830MPD2     N12265   3.607   4.160  15.246  0.0453  0.9295 -0.0174
  830MPD2    H512266   3.620   4.235  15.313  1.3791 -0.7499  1.5947
  830MPD2    N112267   3.559   3.883  15.635 -0.1620 -0.0424  0.4559
  830MPD2    H712268   3.538   3.791  15.675  0.6569 -0.7703 -0.7989
  831MPD2     C12269   3.051   1.097  16.222 -0.2871 -0.6096  0.2666
  831MPD2    C112270   3.090   0.989  16.144 -0.2840 -0.0753  0.7449
  831MPD2    C212271   3.061   0.865  16.186  0.2232 -0.1306  0.7699
  831MPD2    C312272   2.973   0.853  16.293 -0.6190 -0.1186  1.0852
  831MPD2    C412273   2.934   0.961  16.369  0.3688  0.5175 -0.9921
  831MPD2    C512274   2.984   1.085  16.340  0.5919  0.0441  0.1079
  831MPD2     H12275   3.101   0.780  16.131  0.2005  0.4775 -0.1936
  831MPD2    H112276   2.866   0.951  16.453  0.4810  1.1503 -0.8265
  831MPD2    H212277   3.082   1.199  16.200  0.6034 -0.9693 -0.1352
  831MPD2    H312278   2.967   1.174  16.399 -2.2465  1.8416 -3.4871
  831MPD2     N12279   2.926   0.728  16.331 -0.0075 -0.2308  0.4989
  831MPD2    H512280   2.855   0.729  16.403  0.5641  0.2671  1.0530
  831MPD2    N112281   3.179   1.000  16.040  0.6543 -0.0900  0.1585
  831MPD2    H712282   3.208   0.908  16.007 -0.7229 -0.3835 -0.2355
  832MPD2     C12283   2.037   2.179  17.375  0.4593 -0.3752 -0.3158
  832MPD2    C112284   2.010   2.290  17.294 -0.0037  0.4597 -0.7566
  832MPD2    C212285   1.897   2.286  17.207 -0.3954  0.2220  0.2536
  832MPD2    C312286   1.810   2.176  17.210  0.6180  0.9236  0.0329
  832MPD2    C412287   1.835   2.070  17.300 -0.0369  0.1094  0.4296
  832MPD2    C512288   1.946   2.077  17.384  0.2416  0.4302  0.1195
  832MPD2     H12289   1.885   2.359  17.128  0.2689 -0.9954 -0.9939
  832MPD2    H112290   1.782   1.975  17.289 -1.0026  0.5220  1.5203
  832MPD2    H212291   2.121   2.169  17.444  0.6046 -2.4117 -0.8060
  832MPD2    H312292   1.961   2.002  17.461  0.2338  0.1790 -0.1262
  832MPD2     N12293   1.700   2.152  17.119  0.4886  0.1140 -0.0723
  832MPD2    H512294   1.661   2.058  17.123  0.5983 -0.0017 -1.6638
  832MPD2    N112295   2.106   2.397  17.302 -0.2038 -0.8152  0.1887
  832MPD2    H712296   2.184   2.377  17.364 -0.9605  0.3818  1.5309
  833MPD2     C12297   4.223   3.864  12.508 -0.0149 -0.2171 -0.4778
  833MPD2    C112298   4.179   3.880  12.376  0.3120 -0.9732  0.4344
  833MPD2    C212299   4.258   3.956  12.299  0.5044  0.3205  0.1302
  833MPD2    C312300   4.378   4.009  12.336  0.6508 -0.0095  0.6050
  833MPD2    C412301   4.423   3.992  12.468  0.1575  0.0734 -0.0501
  833MPD2    C512302   4.339   3.920  12.556 -0.5415 -0.1508  0.1794
  833MPD2     H12303   4.220   3.978  12.199 -0.0279  1.8293  0.6690
  833MPD2    H112304   4.525   4.023  12.485 -0.2224  0.8694  0.7596
  833MPD2    H212305   4.168   3.811  12.585  0.9127  0.5135  0.7028
  833MPD2    H312306   4.367   3.911  12.660 -2.2771 -0.4833  0.6012
  833MPD2     N12307   4.455   4.087  12.243  0.0446  0.4764  0.7945
  833MPD2    H512308   4.546   4.120  12.272 -0.8336  1.9046  1.8952
  833MPD2    N112309   4.068   3.800  12.334  0.1587  0.4675  0.0790
  833MPD2    H712310   4.023   3.741  12.403  0.7318  1.7141  1.5048
  834MPD2     C12311   0.170   3.500  11.800  0.0974 -0.5294 -0.8259
  834MPD2    C112312   0.097   3.552  11.697  0.2215 -0.2072  0.0879
  834MPD2    C212313   0.056   3.686  11.699 -0.2133 -0.2384 -0.2406
  834MPD2    C312314   0.089   3.764  11.803 -0.5149  0.0035  0.3093
  834MPD2    C412315   0.174   3.716  11.900  0.2096  0.0332  0.4884
  834MPD2    C512316   0.217   3.589  11.888 -0.4051  0.2338 -0.2194
  834MPD2     H12317   4.731   3.729  11.621 -0.5807 -0.5344 -0.1208
  834MPD2    H112318   0.205   3.785  11.977  1.0237 -0.8755  0.9851
  834MPD2    H212319   0.191   3.395  11.811  1.0033  0.0056  2.4540
  834MPD2    H312320   0.283   3.553  11.965  0.2948  1.9857 -0.0010
  834MPD2     N12321   0.028   3.891  11.804  0.4651  0.5125 -0.3152
  834MPD2    H512322   4.695   3.914  11.733  1.0256 -0.7213 -1.2634
  834MPD2    N112323   0.049   3.456  11.599 -0.2866  0.0984 -0.4420
  834MPD2    H712324   0.071   3.359  11.620  1.8317  0.4597 -0.9378
  835MPD2     C12325   3.962   2.055  11.172  0.4532 -0.4318 -0.0179
  835MPD2    C112326   3.843   2.011  11.223  0.2802  0.4050 -0.1210
  835MPD2    C212327   3.849   1.953  11.351 -0.0617  0.0311 -0.0677
  835MPD2    C312328   3.963   1.943  11.426  0.0355 -0.4819  0.0317
  835MPD2    C412329   4.081   1.984  11.368  0.6140  0.7150  0.2165
  835MPD2    C512330   4.077   2.030  11.240  0.1095 -0.4393 -0.1275
  835MPD2     H12331   3.761   1.906  11.393 -0.9265  2.2809  0.6081
  835MPD2    H112332   4.178   1.983  11.417  0.8072 -0.1641 -0.1771
  835MPD2    H212333   3.967   2.095  11.071 -1.7913  0.0995  0.1023
  835MPD2    H312334   4.173   2.060  11.199 -0.0695  1.4686  0.8618
  835MPD2     N12335   3.971   1.873  11.546  0.3874  0.2613  0.1031
  835MPD2    H512336   4.063   1.880  11.589  1.7228 -2.6795 -2.2487
  835MPD2    N112337   3.728   2.021  11.140  0.5206 -0.1050  0.0267
  835MPD2    H712338   3.752   2.068  11.053  2.0247 -2.7598 -0.9595
  836MPD2     C12339   3.383   1.800  11.770 -0.1057 -0.2076 -0.3263
  836MPD2    C112340   3.445   1.738  11.878  0.5543  0.9466  0.3605
  836MPD2    C212341   3.374   1.721  11.995  0.1430 -0.3222  0.1560
  836MPD2    C312342   3.240   1.755  12.005 -0.0077 -0.1703  1.0731
  836MPD2    C412343   3.183   1.816  11.894  0.1321 -0.0773 -0.2580
  836MPD2    C512344   3.254   1.839  11.781 -0.2447  0.0178 -0.0305
  836MPD2     H12345   3.424   1.697  12.088 -1.3783 -0.1485  1.0147
  836MPD2    H112346   3.076   1.831  11.897  0.0722 -0.5011 -0.2271
  836MPD2    H212347   3.432   1.794  11.673 -0.2552  2.0242 -0.5414
  836MPD2    H312348   3.203   1.865  11.689 -0.7782 -2.1315 -0.3500
  836MPD2     N12349   3.159   1.735  12.118  0.4086 -0.1100 -0.5153
  836MPD2    H512350   3.063   1.764  12.105  0.6491  1.6586  1.6698
  836MPD2    N112351   3.579   1.709  11.854 -0.3667  0.3832  0.1493
  836MPD2    H712352   3.630   1.742  11.773 -0.6323 -2.8935 -1.3478
  837MPD2     C12353   2.603   0.929  10.217 -0.0555  0.2450 -0.1935
  837MPD2    C112354   2.485   0.971  10.161  0.0756  0.3058 -0.6057
  837MPD2    C212355   2.482   1.095  10.094 -0.3394  0.2721  0.0650
  837MPD2    C312356   2.585   1.181  10.098  0.2358 -0.1038 -0.6594
  837MPD2    C412357   2.697   1.146  10.163 -0.4518 -0.2329  0.3281
  837MPD2    C512358   2.704   1.021  10.224  0.5366  0.7046 -0.2817
  837MPD2     H12359   2.387   1.126  10.053 -0.1375 -0.1708 -0.7340
  837MPD2    H112360   2.785   1.209  10.154 -0.0471 -0.9536 -0.7231
  837MPD2    H212361   2.615   0.829  10.256  1.3658  0.7244  0.6000
  837MPD2    H312362   2.799   1.006  10.273  0.7782 -0.7515 -1.1841
  837MPD2     N12363   2.565   1.296  10.023 -0.2834  0.5195 -0.3305
  837MPD2    H512364   2.473   1.314   9.984 -1.4035 -3.3072  0.5015
  837MPD2    N112365   2.366   0.887  10.141 -0.6037  0.2932  0.1107
  837MPD2    H712366   2.291   0.934  10.091 -1.7547 -0.1554  1.4180
  838MPD2     C12367   1.263   3.968  12.158  0.1936  0.2805  0.4662
  838MPD2    C112368   1.170   3.882  12.100 -0.2359 -0.3717 -0.5337
  838MPD2    C212369   1.032   3.903  12.124 -0.2517  0.5932  0.8163
  838MPD2    C312370   0.987   4.006  12.202  0.2247 -0.3921 -0.0052
  838MPD2    C412371   1.083   4.079  12.270 -0.2680  0.2305  0.2277
  838MPD2    C512372   1.218   4.063  12.243 -0.1256 -0.0954  0.4694
  838MPD2     H12373   0.963   3.834  12.075 -0.8343  1.2804  0.6696
  838MPD2    H112374   1.067   4.158  12.342  1.4541 -0.8121  1.7552
  838MPD2    H212375   1.370   3.955  12.159  0.2306  0.4926 -1.0263
  838MPD2    H312376   1.280   4.129  12.303  0.8674 -1.6708  1.1551
  838MPD2     N12377   0.850   4.012  12.225 -0.2684 -0.4928  0.2212
  838MPD2    H512378   0.793   3.934  12.194  0.6717 -1.0189 -0.1770
  838MPD2    N112379   1.200   3.781  12.009 -0.2003 -0.7041  0.1557
  838MPD2    H712380   1.117   3.727  11.985 -0.3412  0.0004 -0.8962
  839MPD2     C12381   0.521   3.418  11.717 -0.7467 -0.2750  0.3519
  839MPD2    C112382   0.619   3.330  11.675 -0.9872  0.9091 -0.2365
  839MPD2    C212383   0.751   3.369  11.685 -0.4931 -0.4756 -0.4822
  839MPD2    C312384   0.783   3.499  11.709 -0.2405  0.1281 -0.5685
  839MPD2    C412385   0.680   3.590  11.741  0.7238 -0.0132 -0.2158
  839MPD2    C512386   0.554   3.548  11.745 -0.0580  0.0402  0.1951
  839MPD2     H12387   0.828   3.294  11.692 -1.1263 -1.1714 -0.9508
  839MPD2    H112388   0.714   3.689  11.772  1.1008  0.2699 -1.5522
  839MPD2    H212389   0.419   3.382  11.722 -0.5966 -0.8149 -0.4763
  839MPD2    H312390   0.477   3.614  11.785  0.1272  0.3035  0.1194
  839MPD2     N12391   0.912   3.554  11.706 -0.1489 -0.2888  0.3347
  839MPD2    H512392   0.925   3.646  11.746  2.0138  0.6797 -2.6456
  839MPD2    N112393   0.588   3.200  11.633 -0.1963  0.0302 -0.4047
  839MPD2    H712394   0.674   3.154  11.603  0.0975 -0.0147  0.4964
  840MPD2     C12395   1.287   1.752  10.214 -0.1429 -1.1007 -0.3728
  840MPD2    C112396   1.223   1.746  10.332 -0.5420 -0.2907 -0.2674
  840MPD2    C212397   1.284   1.804  10.444  0.3198 -0.6504 -0.0858
  840MPD2    C312398   1.412   1.845  10.437 -0.8596 -0.1529 -0.3372
  840MPD2    C412399   1.471   1.847  10.313  0.0018 -0.3716 -0.3798
  840MPD2    C512400   1.409   1.803  10.209  0.3731  0.2088  0.0130
  840MPD2     H12401   1.229   1.807  10.538  0.5048 -2.3573  0.0759
  840MPD2    H112402   1.574   1.880  10.307 -1.0982  3.0414 -0.6174
  840MPD2    H212403   1.238   1.700  10.132 -1.2834 -2.3571  1.1039
  840MPD2    H312404   1.462   1.795  10.115  0.4094  1.6942 -0.0945
  840MPD2     N12405   1.484   1.912  10.546  0.3122 -0.6920 -0.3731
  840MPD2    H512406   1.568   1.960  10.515 -1.0593  1.6459 -0.4334
  840MPD2    N112407   1.094   1.677  10.329  0.4229 -0.1280 -0.1238
  840MPD2    H712408   1.072   1.640  10.237 -0.9300 -0.4809  0.3513
  841MPD2     C12409   0.237   1.201  15.342 -0.0830 -0.5238  0.0159
  841MPD2    C112410   0.189   1.185  15.215  0.8580 -0.1249 -0.5178
  841MPD2    C212411   0.237   1.265  15.113 -0.3560  0.8632  0.0439
  841MPD2    C312412   0.324   1.368  15.129  0.3570  0.1676 -0.1271
  841MPD2    C412413   0.365   1.400  15.260  0.1388  0.3040  0.3572
  841MPD2    C512414   0.318   1.313  15.358 -0.3419  0.5926  0.4614
  841MPD2     H12415   0.190   1.244  15.018  0.4972  1.4083 -0.4968
  841MPD2    H112416   0.442   1.472  15.282  0.0731  0.4031  0.2632
  841MPD2    H212417   0.201   1.149  15.430  0.5247 -0.6922  0.1686
  841MPD2    H312418   0.357   1.330  15.458  1.6388  2.4538 -0.6209
  841MPD2     N12419   0.380   1.433  15.009  0.3177  0.3043 -0.1029
  841MPD2    H512420   0.339   1.394  14.925 -1.1676 -2.0136  1.7073
  841MPD2    N112421   0.090   1.087  15.185  0.1744 -0.4186  0.2255
  841MPD2    H712422   0.044   1.099  15.096 -2.0895  0.9012  1.5521
  842MPD2     C12423   0.809   2.165  16.333 -0.3591 -0.2891 -0.4860
  842MPD2    C112424   0.705   2.179  16.420 -0.3065 -0.0146 -0.0610
  842MPD2    C212425   0.722   2.141  16.549 -0.9195  0.3675 -0.9518
  842MPD2    C312426   0.837   2.095  16.588 -0.2044  0.0734 -0.2095
  842MPD2    C412427   0.941   2.066  16.505 -0.3524 -0.3048 -0.0334
  842MPD2    C512428   0.927   2.111  16.377  0.4975 -0.2444 -0.9568
  842MPD2     H12429   0.647   2.167  16.622  1.7954 -0.6593  2.2401
  842MPD2    H112430   1.040   2.038  16.537  0.0031 -0.0572 -0.8928
  842MPD2    H212431   0.802   2.188  16.227  0.2532 -0.5908 -0.5921
  842MPD2    H312432   1.014   2.098  16.313 -0.6757 -4.2680 -1.7027
  842MPD2     N12433   0.849   2.074  16.725  0.4629 -0.5690 -0.2322
  842MPD2    H512434   0.767   2.069  16.785  0.6878  1.8864  0.2721
  842MPD2    N112435   0.604   2.257  16.373  0.5387 -0.5729  0.1605
  842MPD2    H712436   0.610   2.270  16.272  0.0116 -1.1388  0.0530
  843MPD2     C12437   3.431   2.780   0.095 -0.4035 -0.3248  0.2269
  843MPD2    C112438   3.552   2.736   0.143 -0.1147 -0.5348 -0.1461
  843MPD2    C212439   3.655   2.827   0.143  0.2357 -0.1635  0.2140
  843MPD2    C312440   3.635   2.954   0.105 -0.1140 -0.1595 -0.3869
  843MPD2    C412441   3.512   2.992   0.051  0.0657  0.7711  0.3820
  843MPD2    C512442   3.406   2.906   0.044  0.0604 -0.7925  0.3359
  843MPD2     H12443   3.754   2.807   0.181 -0.5264 -2.6587  0.8957
  843MPD2    H112444   3.499   3.092   0.011 -0.5604  0.6611  0.3105
  843MPD2    H212445   3.346   2.713   0.086 -0.3265 -0.3389 -0.3476
  843MPD2    H312446   3.305   2.922   0.010 -0.2605 -1.8836  0.7520
  843MPD2     N12447   3.728   3.061   0.117  0.2214 -0.7168 -0.0234
  843MPD2    H512448   3.701   3.145   0.066  1.2145  0.6475  1.7415
  843MPD2    N112449   3.563   2.604   0.189  0.2052 -0.3210  0.0877
  843MPD2    H712450   3.488   2.539   0.164 -0.5038  0.9057 -0.9937
  844MPD2     C12451   1.323   1.521  16.674  0.2197 -0.5414  0.3379
  844MPD2    C112452   1.371   1.600  16.580 -0.1569  0.2688  0.2674
  844MPD2    C212453   1.481   1.680  16.611  0.0345  0.0821 -0.3229
  844MPD2    C312454   1.552   1.669  16.728  0.3129 -0.3266 -0.7241
  844MPD2    C412455   1.494   1.582  16.819 -0.2137 -0.2905  0.2090
  844MPD2    C512456   1.381   1.508  16.798 -0.3070  0.7716  0.1144
  844MPD2     H12457   1.517   1.753  16.539  1.5135 -1.5886 -1.2807
  844MPD2    H112458   1.541   1.569  16.915 -2.1730  0.1972  1.2321
  844MPD2    H212459   1.241   1.452  16.655 -0.1348  0.0559 -0.3048
  844MPD2    H312460   1.326   1.465  16.881 -1.8797  0.3031 -1.1812
  844MPD2     N12461   1.661   1.760  16.755  0.2349 -0.1879  0.0935
  844MPD2    H512462   1.690   1.831  16.688 -1.3730  0.4775  0.1204
  844MPD2    N112463   1.321   1.595  16.453  0.2134 -0.4340 -0.4033
  844MPD2    H712464   1.373   1.643  16.382  0.2473  0.0307 -0.0644
  845MPD2     C12465   1.791   2.587  16.485  0.0170  0.4016 -0.0971
  845MPD2    C112466   1.813   2.581  16.625 -1.0025 -0.6965  0.4111
  845MPD2    C212467   1.834   2.457  16.687 -0.4271 -0.0778  0.2174
  845MPD2    C312468   1.834   2.339  16.614 -0.1545 -0.4061 -0.5301
  845MPD2    C412469   1.806   2.344  16.477 -0.3385  0.3243 -0.6234
  845MPD2    C512470   1.795   2.468  16.411  0.3377 -0.1654  0.4761
  845MPD2     H12471   1.852   2.459  16.794  0.0630  0.3364  0.1241
  845MPD2    H112472   1.810   2.251  16.421 -2.7113  0.0892 -0.3993
  845MPD2    H212473   1.776   2.684  16.440 -1.0702  0.0429 -0.5128
  845MPD2    H312474   1.777   2.473  16.304 -0.6876 -0.8920  0.6134
  845MPD2     N12475   1.867   2.212  16.665  1.0887  0.3716  0.5187
  845MPD2    H512476   1.850   2.133  16.604  2.1370 -1.0291  2.0446
  845MPD2    N112477   1.818   2.705  16.698  0.1214  0.9230 -0.4638
  845MPD2    H712478   1.768   2.778  16.649  1.0118  1.4311 -0.5997
  846MPD2     C12479   3.746   3.296  13.936  0.2673  0.2459  0.5849
  846MPD2    C112480   3.635   3.233  13.884  0.4372 -0.4540 -0.0388
  846MPD2    C212481   3.516   3.225  13.958  0.0894  0.0858 -0.0149
  846MPD2    C312482   3.518   3.268  14.096  0.4731 -0.7612 -0.0981
  846MPD2    C412483   3.633   3.323  14.140  0.9841 -0.6156 -0.3998
  846MPD2    C512484   3.736   3.349  14.064  0.3569  1.3851  0.1168
  846MPD2     H12485   3.421   3.193  13.917  0.2290 -0.4956  0.1097
  846MPD2    H112486   3.639   3.360  14.242 -0.8610  0.3157 -0.6214
  846MPD2    H212487   3.840   3.311  13.884  0.9948 -1.5102  1.3921
  846MPD2    H312488   3.817   3.403  14.111 -0.5094  0.7070  2.3807
  846MPD2     N12489   3.401   3.256  14.172 -0.0014 -0.0504  0.0226
  846MPD2    H512490   3.314   3.230  14.127  0.0846 -1.1991  0.5347
  846MPD2    N112491   3.651   3.205  13.745  0.2930 -0.0303 -0.0998
  846MPD2    H712492   3.740   3.232  13.705  0.0348  4.1481  2.1016
  847MPD2     C12493   3.880   3.944  13.609 -0.9838 -0.2850  0.2743
  847MPD2    C112494   3.889   4.046  13.700 -0.3824 -0.0129 -0.2653
  847MPD2    C212495   4.004   4.105  13.733 -0.1527  0.1175 -0.7409
  847MPD2    C312496   4.126   4.069  13.683 -0.0785 -0.1067 -0.3225
  847MPD2    C412497   4.120   3.962  13.594 -0.2610 -0.4504 -0.1926
  847MPD2    C512498   3.996   3.907  13.555  0.0197 -0.4675  0.3423
  847MPD2     H12499   3.996   4.179  13.811 -0.3134  0.2189 -0.8539
  847MPD2    H112500   4.209   3.926  13.543 -0.7863 -1.3939 -0.4255
  847MPD2    H212501   3.787   3.898  13.578 -0.8430 -1.0289  0.9491
  847MPD2    H312502   3.987   3.826  13.484  1.8358 -1.3595  1.1313
  847MPD2     N12503   4.252   4.120  13.728 -0.6924  0.1189  0.1084
  847MPD2    H512504   4.330   4.071  13.687 -1.3811 -0.5530 -0.3824
  847MPD2    N112505   3.776   4.088  13.775 -0.0790  0.0492 -0.6057
  847MPD2    H712506   3.788   4.170  13.833  1.3550 -1.8121  1.7161
  848MPD2     C12507   1.012   2.416  16.560 -1.0564 -0.0469  0.1440
  848MPD2    C112508   1.150   2.448  16.573 -0.0598  0.3132 -0.1975
  848MPD2    C212509   1.205   2.552  16.500 -0.1677  0.4844  0.1940
  848MPD2    C312510   1.123   2.634  16.427 -0.4658 -0.3388 -0.5600
  848MPD2    C412511   0.992   2.602  16.412  0.1903  0.9367  0.2579
  848MPD2    C512512   0.931   2.497  16.479 -0.9769  0.1887  1.4442
  848MPD2     H12513   1.313   2.556  16.500 -0.0655 -1.7874 -0.8457
  848MPD2    H112514   0.946   2.642  16.323  0.7241  2.2121  0.5534
  848MPD2    H212515   0.961   2.347  16.626 -0.6294 -0.2785  0.2316
  848MPD2    H312516   0.823   2.491  16.475 -1.0073 -1.2661  4.7246
  848MPD2     N12517   1.169   2.741  16.339 -0.4132 -0.2641 -0.6423
  848MPD2    H512518   1.097   2.778  16.278 -0.4027 -1.7601 -1.5821
  848MPD2    N112519   1.224   2.362  16.657  0.0305  0.1311  0.2852
  848MPD2    H712520   1.171   2.282  16.690 -4.3561  2.4856 -1.1061
  849MPD2     C12521   0.260   1.728  14.694  0.2506 -0.0412  0.1121
  849MPD2    C112522   0.331   1.824  14.621 -0.1922 -0.0718 -0.1456
  849MPD2    C212523   0.416   1.911  14.688 -0.7062  1.0004 -0.3584
  849MPD2    C312524   0.434   1.901  14.824  0.6136  0.4288 -0.6120
  849MPD2    C412525   0.352   1.812  14.893 -0.1794 -0.1955  0.4118
  849MPD2    C512526   0.270   1.721  14.828  0.4156 -0.1161  0.3968
  849MPD2     H12527   0.474   1.990  14.641 -0.8730  0.8883 -0.7507
  849MPD2    H112528   0.361   1.802  15.001 -1.5995  0.2877  0.5802
  849MPD2    H212529   0.191   1.662  14.642  0.5804 -1.8062  1.9147
  849MPD2    H312530   0.219   1.639  14.878  1.2749 -0.1901  1.1559
  849MPD2     N12531   0.525   1.981  14.895 -0.0469  0.2446  0.4035
  849MPD2    H512532   0.506   1.993  14.994 -2.6475  1.1992 -0.1923
  849MPD2    N112533   0.311   1.829  14.486  0.4530 -0.4596 -0.0259
  849MPD2    H712534   0.243   1.771  14.437 -0.2435 -0.0026  0.3971
  850MPD2     C12535   2.990   0.378  14.978 -0.4422  0.3348 -0.9060
  850MPD2    C112536   3.070   0.333  15.077 -0.4765  0.2695  0.6578
  850MPD2    C212537   3.198   0.276  15.049 -0.6944  0.0978 -0.0854
  850MPD2    C312538   3.241   0.259  14.921 -0.4350  0.1684 -0.0043
  850MPD2    C412539   3.154   0.300  14.821 -1.1098  0.6442  0.3802
  850MPD2    C512540   3.033   0.358  14.849 -0.3252  0.0751  0.1816
  850MPD2     H12541   3.264   0.249  15.131 -1.1910  1.0986  0.6462
  850MPD2    H112542   3.178   0.295  14.715 -0.2032  1.0839  0.5591
  850MPD2    H212543   2.890   0.417  14.996  0.4185  1.6146  1.0893
  850MPD2    H312544   2.988   0.392  14.757  0.4933 -2.4679 -1.1398
  850MPD2     N12545   3.380   0.228  14.891  0.0771  0.1624  0.5714
  850MPD2    H512546   3.418   0.274  14.809  0.4134 -0.7357  0.2141
  850MPD2    N112547   3.034   0.360  15.213 -0.1285  0.2935 -0.0042
  850MPD2    H712548   2.952   0.417  15.232 -2.0691 -2.4241 -0.3305
  851MPD2     C12549   3.698   0.280  15.561 -0.0846 -0.5473 -0.0309
  851MPD2    C112550   3.585   0.262  15.486 -0.2200  0.5688  0.0956
  851MPD2    C212551   3.571   0.166  15.387  0.0047 -0.0967 -0.9870
  851MPD2    C312552   3.685   0.085  15.363  0.0567 -0.4220  0.1965
  851MPD2    C412553   3.803   0.112  15.431  0.6107 -0.4498 -0.4473
  851MPD2    C512554   3.806   0.203  15.534 -0.5124  0.1826 -0.3505
  851MPD2     H12555   3.486   0.158  15.321 -0.2617 -1.7561 -0.4619
  851MPD2    H112556   3.894   0.056  15.415  0.1878 -1.2792  0.0546
  851MPD2    H212557   3.700   0.347  15.647 -0.1298  0.1612 -0.5779
  851MPD2    H312558   3.901   0.222  15.583 -0.7210  0.3640 -0.0169
  851MPD2     N12559   3.670   4.714  15.267  0.4335 -0.2642 -0.3794
  851MPD2    H512560   3.579   4.705  15.223  0.0927  0.4645  0.1734
  851MPD2    N112561   3.456   0.329  15.508 -0.2601 -1.0037 -0.4797
  851MPD2    H712562   3.375   0.305  15.453 -0.5318  1.4942 -1.1494
  852MPD2     C12563   3.439   2.689  10.268  0.2029 -0.8052  0.7776
  852MPD2    C112564   3.490   2.756  10.377  0.2019 -0.6618  0.7751
  852MPD2    C212565   3.569   2.873  10.363  0.3202 -0.4997  0.2163
  852MPD2    C312566   3.604   2.915  10.230  0.1705 -0.0709  0.1736
  852MPD2    C412567   3.553   2.845  10.124  0.1555 -0.1276 -0.1665
  852MPD2    C512568   3.474   2.734  10.146 -0.5494  0.1969  0.0494
  852MPD2     H12569   3.616   2.922  10.447  1.4998 -2.2194  0.5525
  852MPD2    H112570   3.575   2.868  10.020  1.1094 -0.6158 -0.0735
  852MPD2    H212571   3.372   2.604  10.271 -2.6964  1.4451  0.1468
  852MPD2    H312572   3.420   2.688  10.065 -0.2113  0.2894 -0.2293
  852MPD2     N12573   3.688   3.021  10.225  0.5898  0.3614 -0.4854
  852MPD2    H512574   3.716   3.051  10.318 -1.2037  0.4402  0.0274
  852MPD2    N112575   3.478   2.705  10.509  0.2070  0.1797  0.4070
  852MPD2    H712576   3.535   2.751  10.580  1.7417 -1.1689  0.0318
  853MPD2     C12577   0.472   2.508  12.611  0.6368  0.1097  0.1500
  853MPD2    C112578   0.342   2.517  12.561  0.5488  0.2240 -0.3492
  853MPD2    C212579   0.310   2.443  12.449  0.7595  0.3118  0.7165
  853MPD2    C312580   0.406   2.364  12.378 -0.7573 -0.1073 -0.3449
  853MPD2    C412581   0.531   2.352  12.436 -0.1893 -0.3732  0.0930
  853MPD2    C512582   0.560   2.415  12.555 -0.7221  0.1871  0.6086
  853MPD2     H12583   0.207   2.436  12.418  0.6521 -0.3279  1.2134
  853MPD2    H112584   0.607   2.290  12.391  0.8052 -0.5588  1.9974
  853MPD2    H212585   0.503   2.568  12.696  0.7691 -2.1499  1.7169
  853MPD2    H312586   0.659   2.404  12.597  0.0392  1.4723 -0.8515
  853MPD2     N12587   0.378   2.286  12.269 -0.1963  0.8228 -0.3746
  853MPD2    H512588   0.458   2.251  12.217  0.5354  0.7081  0.8169
  853MPD2    N112589   0.250   2.600  12.634  0.4180 -0.1871 -0.6636
  853MPD2    H712590   0.283   2.639  12.722 -1.1033 -2.0356  0.7129
  854MPD2     C12591   1.674   2.760  13.079 -0.2482  0.3142  0.0591
  854MPD2    C112592   1.786   2.833  13.045  0.0066 -0.9761 -1.0377
  854MPD2    C212593   1.914   2.787  13.079 -0.0954 -0.2925  0.6091
  854MPD2    C312594   1.934   2.679  13.158 -0.5838  0.1250 -0.8770
  854MPD2    C412595   1.820   2.610  13.190  0.4487  0.4892 -0.2520
  854MPD2    C512596   1.696   2.652  13.149 -0.5662  0.0086  0.0115
  854MPD2     H12597   1.999   2.851  13.059 -1.6696  1.4067 -0.6608
  854MPD2    H112598   1.827   2.513  13.237  1.2721  0.4537 -0.4426
  854MPD2    H212599   1.572   2.786  13.053 -1.0069 -1.8405  0.9067
  854MPD2    H312600   1.608   2.600  13.184 -1.1952  0.3374 -1.1006
  854MPD2     N12601   2.059   2.618  13.188  0.1646 -0.1497  0.6455
  854MPD2    H512602   2.058   2.545  13.259  0.0296 -1.4104 -0.6401
  854MPD2    N112603   1.762   2.952  12.980 -0.4333  0.0161 -0.8136
  854MPD2    H712604   1.664   2.975  12.967 -0.9649 -2.0040 -0.2908
  855MPD2     C12605   2.155   2.297  13.944  0.6253  0.1087 -0.3752
  855MPD2    C112606   2.235   2.217  13.864 -0.5171  0.1971 -0.1088
  855MPD2    C212607   2.291   2.273  13.752 -0.6634 -0.1005 -0.1147
  855MPD2    C312608   2.249   2.399  13.707  0.3787  0.2147  0.3375
  855MPD2    C412609   2.162   2.473  13.783 -0.7222 -0.1084  0.0301
  855MPD2    C512610   2.121   2.424  13.905  0.3014  0.2108  0.0332
  855MPD2     H12611   2.371   2.219  13.702  0.7351  1.3419  0.5500
  855MPD2    H112612   2.138   2.574  13.753  2.4218  1.1558  1.7795
  855MPD2    H212613   2.106   2.260  14.033  0.6430 -2.9433 -1.6353
  855MPD2    H312614   2.057   2.487  13.966  1.4643  1.1396  0.2813
  855MPD2     N12615   2.283   2.446  13.579  0.4505  0.0016 -0.3970
  855MPD2    H512616   2.254   2.538  13.546 -1.0167 -0.2302  0.2649
  855MPD2    N112617   2.267   2.081  13.901  0.0254  0.1734  0.2153
  855MPD2    H712618   2.345   2.037  13.854  0.7149 -0.7527  2.2216
  856MPD2     C12619   0.033   3.754  13.362 -0.7517 -0.7271  0.1690
  856MPD2    C112620   0.016   3.858  13.453 -0.2590 -0.9957 -0.6700
  856MPD2    C212621   4.627   3.913  13.452 -0.7098  0.1280 -0.7515
  856MPD2    C312622   4.528   3.881  13.357 -1.0018 -1.0235  0.3830
  856MPD2    C412623   4.540   3.768  13.278  0.5029  0.5284  0.1644
  856MPD2    C512624   4.665   3.714  13.281  0.1102  0.3408 -0.6657
  856MPD2     H12625   4.615   3.994  13.523 -0.5930 -0.9584  0.5078
  856MPD2    H112626   4.464   3.733  13.210  0.7066 -1.6253  1.0446
  856MPD2    H212627   0.121   3.691  13.356 -0.5332 -0.4291  0.2033
  856MPD2    H312628   4.689   3.626  13.222 -0.8572  0.1169 -0.7323
  856MPD2     N12629   4.416   3.965  13.318 -1.0229  0.4193 -0.0615
  856MPD2    H512630   4.360   3.908  13.256 -1.1502 -0.8601  1.2134
  856MPD2    N112631   0.114   3.901  13.541 -0.1761  0.7427 -0.1985
  856MPD2    H712632   0.090   3.971  13.610 -1.3599 -1.1394  1.2762
  857MPD2     C12633   0.982   0.948  12.797 -0.9085 -0.2927  0.9471
  857MPD2    C112634   1.109   0.992  12.768 -0.6575  0.2092  0.6130
  857MPD2    C212635   1.149   1.124  12.774  0.2967  0.4466  0.0189
  857MPD2    C312636   1.048   1.216  12.801 -0.5865 -0.8191 -0.0729
  857MPD2    C412637   0.924   1.173  12.836  0.1374 -0.4509 -0.0531
  857MPD2    C512638   0.892   1.042  12.834  0.1412  0.0718  0.5248
  857MPD2     H12639   1.247   1.166  12.753  0.4914 -0.3289 -0.6237
  857MPD2    H112640   0.855   1.243  12.882 -1.2330 -1.0068 -1.2596
  857MPD2    H212641   0.952   0.845  12.777  0.6794 -0.0353 -2.8422
  857MPD2    H312642   0.789   1.013  12.846  0.0361  0.9250  1.7267
  857MPD2     N12643   1.085   1.351  12.793  0.2638  0.3309 -0.6145
  857MPD2    H512644   1.182   1.373  12.772  0.4322 -0.1699 -0.3658
  857MPD2    N112645   1.200   0.892  12.733  0.1008  0.2264  0.1456
  857MPD2    H712646   1.166   0.797  12.743 -0.8100  0.2094 -3.2493
  858MPD2     C12647   1.983   0.112  16.217  0.2111 -0.4916 -0.9895
  858MPD2    C112648   1.992   4.724  16.279  0.3481  0.0312 -0.1568
  858MPD2    C212649   1.955   4.724  16.410  0.5608 -0.0120  0.3614
  858MPD2    C312650   1.917   0.106  16.483 -0.5334  0.2067  0.0867
  858MPD2    C412651   1.902   0.221  16.412 -0.3982  0.7486  0.1748
  858MPD2    C512652   1.952   0.228  16.283 -0.2075  0.8359  0.6080
  858MPD2     H12653   1.976   4.639  16.475 -1.3396 -1.1509 -0.5118
  858MPD2    H112654   1.863   0.313  16.453 -1.1136 -0.2298  1.6904
  858MPD2    H212655   2.002   0.123  16.111 -1.6612 -1.3783 -1.4111
  858MPD2    H312656   1.945   0.323  16.232 -1.1843  1.1017  1.2536
  858MPD2     N12657   1.897   0.109  16.629  1.0316 -0.0873 -0.8280
  858MPD2    H512658   1.861   0.196  16.666  1.5862 -0.5031  0.6585
  858MPD2    N112659   2.032   4.609  16.214 -0.6405 -0.0242 -0.0496
  858MPD2    H712660   2.063   4.624  16.119  0.2214  1.2200  0.4280
  859MPD2     C12661   0.206   1.754  15.888 -0.7178  0.5124  0.1412
  859MPD2    C112662   0.325   1.731  15.823 -0.1180  0.1793 -0.5422
  859MPD2    C212663   0.381   1.608  15.808 -0.2021 -0.3472  1.2826
  859MPD2    C312664   0.307   1.500  15.847 -0.0040 -0.2964  0.0436
  859MPD2    C412665   0.185   1.526  15.904 -0.0493  0.3499 -0.3908
  859MPD2    C512666   0.135   1.650  15.932 -0.0151 -0.6176 -0.2905
  859MPD2     H12667   0.481   1.601  15.768 -0.8168  0.7318 -0.4259
  859MPD2    H112668   0.130   1.441  15.942  1.2050  0.0197  0.6895
  859MPD2    H212669   0.166   1.851  15.915  0.9086  1.1006  0.3747
  859MPD2    H312670   0.042   1.660  15.988  0.8078 -0.7652  1.0892
  859MPD2     N12671   0.348   1.364  15.838 -0.3130  0.0564 -0.2174
  859MPD2    H512672   0.275   1.297  15.859  1.7079 -2.5183 -1.5959
  859MPD2    N112673   0.381   1.853  15.775  0.2129  0.1799 -0.3208
  859MPD2    H712674   0.327   1.938  15.788  1.5085  1.2311 -1.8884
  860MPD2     C12675   3.072   2.771  11.678 -0.2400  0.6879 -0.3532
  860MPD2    C112676   3.075   2.658  11.754  0.2323  0.6395 -0.3895
  860MPD2    C212677   2.959   2.613  11.817  0.3062  0.4601  0.4459
  860MPD2    C312678   2.844   2.691  11.817 -0.2074 -1.0110  0.2181
  860MPD2    C412679   2.841   2.811  11.747 -0.1132  0.0598  0.1932
  860MPD2    C512680   2.953   2.842  11.676  0.4216 -0.1395  0.4868
  860MPD2     H12681   2.956   2.517  11.867  1.1277  0.2823  0.1528
  860MPD2    H112682   2.759   2.882  11.741  0.9059  1.3337  1.1986
  860MPD2    H212683   3.157   2.822  11.634  1.5721 -0.3390  1.9379
  860MPD2    H312684   2.956   2.937  11.623  1.3217 -0.0533  0.6971
  860MPD2     N12685   2.734   2.653  11.895 -0.0536 -0.1930  0.1592
  860MPD2    H512686   2.737   2.562  11.940 -1.8439  0.0375  0.7546
  860MPD2    N112687   3.192   2.582  11.763 -0.1262 -0.5708  0.3644
  860MPD2    H712688   3.185   2.489  11.802 -1.5343 -0.6614 -0.1338
  861MPD2     C12689   2.257   0.687  10.972  0.5200  0.2764 -0.0690
  861MPD2    C112690   2.219   0.820  10.955 -0.0031  0.5422  0.6554
  861MPD2    C212691   2.125   0.858  10.868  0.1484 -0.0509  0.1439
  861MPD2    C312692   2.064   0.765  10.788 -0.1089  0.1264 -0.0359
  861MPD2    C412693   2.097   0.635  10.804  0.6618 -0.3650 -0.7741
  861MPD2    C512694   2.196   0.593  10.894  0.5064 -0.6233  0.6495
  861MPD2     H12695   2.098   0.963  10.872 -0.5688 -0.2373  0.1499
  861MPD2    H112696   2.049   0.561  10.740 -2.0739  1.3503 -0.6767
  861MPD2    H212697   2.339   0.656  11.036  1.6324 -0.2608 -1.7551
  861MPD2    H312698   2.217   0.487  10.901 -1.0634 -1.0142 -0.4986
  861MPD2     N12699   1.956   0.794  10.704 -0.3363 -0.5145 -0.0334
  861MPD2    H512700   1.894   0.715  10.687 -0.0854 -0.5258 -0.9244
  861MPD2    N112701   2.270   0.919  11.040 -0.7270 -0.4906 -0.1170
  861MPD2    H712702   2.246   1.016  11.020  1.5816 -0.4014 -2.5076
  862MPD2     C12703   1.332   0.539  10.376 -0.9748 -0.3231 -0.2978
  862MPD2    C112704   1.403   0.549  10.493 -0.8341  0.8132 -0.1116
  862MPD2    C212705   1.395   0.451  10.587  1.2378 -0.1076  0.0232
  862MPD2    C312706   1.295   0.353  10.576 -0.6247 -0.1594 -0.3497
  862MPD2    C412707   1.207   0.352  10.469  0.2358 -0.2785  0.2325
  862MPD2    C512708   1.219   0.455  10.374  0.4093 -0.5076  0.4316
  862MPD2     H12709   1.464   0.452  10.671  1.4475 -0.1456 -0.1490
  862MPD2    H112710   1.121   0.286  10.460 -0.2572  0.5911 -1.3426
  862MPD2    H212711   1.356   0.601  10.289  2.7360  0.3823  1.2070
  862MPD2    H312712   1.153   0.465  10.289  1.8640 -0.4500 -0.6728
  862MPD2     N12713   1.280   0.237  10.662 -0.3899  0.5920 -0.1223
  862MPD2    H512714   1.205   0.169  10.649  1.4461 -1.2809 -0.8264
  862MPD2    N112715   1.505   0.650  10.511  0.2486 -0.6352 -0.2291
  862MPD2    H712716   1.540   0.653  10.606  0.3896 -1.4493 -0.2535
  863MPD2     C12717   0.165   3.383  16.387 -0.0685  0.4785  0.3364
  863MPD2    C112718   0.090   3.453  16.480 -0.1338  0.9863 -0.8383
  863MPD2    C212719   0.135   3.467  16.617 -0.3885  0.9115  0.3055
  863MPD2    C312720   0.256   3.409  16.658 -0.7178  0.3791 -0.2336
  863MPD2    C412721   0.325   3.331  16.565  0.2617 -0.4695  0.3385
  863MPD2    C512722   0.284   3.330  16.434  0.4340 -0.4409  0.2238
  863MPD2     H12723   0.087   3.531  16.690 -0.2326  0.1703  1.0633
  863MPD2    H112724   0.417   3.279  16.592 -0.9595 -2.2744  0.9964
  863MPD2    H212725   0.128   3.365  16.287  1.4957  2.0470 -0.5384
  863MPD2    H312726   0.343   3.268  16.367  1.4096  1.2562 -0.4859
  863MPD2     N12727   0.310   3.429  16.782  0.1298 -0.6044  0.1082
  863MPD2    H512728   0.384   3.364  16.806  1.1360  0.2794 -0.6527
  863MPD2    N112729   4.710   3.503  16.425  0.2977 -0.6329  0.1410
  863MPD2    H712730   4.696   3.485  16.326  0.2578  1.0009 -0.1559
  864MPD2     C12731   0.516   0.085  17.219 -0.0070  0.0252 -0.4202
  864MPD2    C112732   0.564   0.020  17.108  0.2575  0.4379 -0.4204
  864MPD2    C212733   0.679   0.061  17.047  0.0461 -0.3091 -0.4462
  864MPD2    C312734   0.749   0.164  17.101  0.1854  0.8041  0.2784
  864MPD2    C412735   0.701   0.232  17.204  0.1680  0.2523 -0.1065
  864MPD2    C512736   0.586   0.195  17.263  1.0689 -0.4692  0.0284
  864MPD2     H12737   0.725   4.730  16.975  0.7036  0.2123 -0.5121
  864MPD2    H112738   0.748   0.323  17.240  1.5518 -0.6297  0.2950
  864MPD2    H212739   0.428   0.048  17.271  0.3905  0.5282  0.6117
  864MPD2    H312740   0.548   0.240  17.354 -0.2523 -0.3346 -0.5990
  864MPD2     N12741   0.875   0.201  17.050 -0.1003  0.1685 -0.3316
  864MPD2    H512742   0.916   0.284  17.092 -1.1019  1.1932 -1.3357
  864MPD2    N112743   0.487   4.649  17.059 -0.2242 -0.1750 -0.1652
  864MPD2    H712744   0.400   4.631  17.107  0.0516  0.1832  0.4645
  865MPD2     C12745   0.994   0.709  16.541  0.0568  0.3209 -0.2027
  865MPD2    C112746   0.990   0.578  16.589  0.3351 -0.6113 -0.0008
  865MPD2    C212747   1.023   0.558  16.724 -0.1386 -0.9985  0.1127
  865MPD2    C312748   1.069   0.662  16.809  0.0740  0.1203 -0.0962
  865MPD2    C412749   1.050   0.786  16.756  0.1240 -0.4949  0.2002
  865MPD2    C512750   1.014   0.815  16.622 -0.2471  0.2090 -0.6086
  865MPD2     H12751   1.020   0.459  16.768 -0.4095  0.0003  2.3219
  865MPD2    H112752   1.073   0.878  16.808 -2.5815 -0.8236  1.9591
  865MPD2    H212753   0.969   0.733  16.439  4.5749  1.2114 -1.0918
  865MPD2    H312754   1.011   0.916  16.584  0.2124  0.7656  0.8265
  865MPD2     N12755   1.127   0.654  16.935  0.7592  0.1641 -0.0845
  865MPD2    H512756   1.141   0.746  16.977  4.0830 -1.0905  1.6065
  865MPD2    N112757   0.959   0.478  16.497 -0.6294 -0.5629 -0.3183
  865MPD2    H712758   0.940   0.517  16.406 -0.2398  0.1359 -0.1011
  866MPD2     C12759   2.791   1.368  10.843  0.0679 -0.0275  0.1464
  866MPD2    C112760   2.727   1.383  10.725  0.4759 -0.2662 -0.0930
  866MPD2    C212761   2.589   1.399  10.717 -0.3888  0.3947  0.1438
  866MPD2    C312762   2.509   1.409  10.836  0.4454 -0.5818  0.0591
  866MPD2    C412763   2.576   1.405  10.954 -0.5842 -0.4051  0.0387
  866MPD2    C512764   2.714   1.399  10.950 -0.1427  0.5948  0.2976
  866MPD2     H12765   2.540   1.413  10.621 -3.0313 -1.6626  1.1904
  866MPD2    H112766   2.531   1.429  11.050 -0.6933 -3.8764  0.8686
  866MPD2    H212767   2.899   1.378  10.846  0.3990 -3.0809 -1.4429
  866MPD2    H312768   2.768   1.408  11.043  0.6245  1.2925 -0.2149
  866MPD2     N12769   2.369   1.419  10.839  0.1608  0.7306  0.1996
  866MPD2    H512770   2.331   1.405  10.932  0.1933  0.9249  0.2412
  866MPD2    N112771   2.809   1.392  10.610 -0.0276  0.1006  0.3465
  866MPD2    H712772   2.910   1.388  10.615 -0.1026 -1.8052  0.2456
  867MPD2     C12773   4.171   4.511  16.233 -0.4766 -0.4102  0.4626
  867MPD2    C112774   4.239   4.501  16.358  0.9209  0.4308  0.6883
  867MPD2    C212775   4.265   4.621  16.417  0.5675  0.4296 -0.0531
  867MPD2    C312776   4.235   0.001  16.358  0.0203  0.5729  0.6211
  867MPD2    C412777   4.167   0.009  16.239  0.4029  0.1155  0.1330
  867MPD2    C512778   4.135   4.633  16.184 -0.6697 -0.1173 -0.9529
  867MPD2     H12779   4.325   4.612  16.507 -0.7355  0.9742  0.8700
  867MPD2    H112780   4.142   0.106  16.197 -2.8063 -1.3725 -1.3921
  867MPD2    H212781   4.160   4.418  16.178  0.4229 -0.9005  1.1143
  867MPD2    H312782   4.087   4.633  16.087 -1.7366  0.7787 -0.4342
  867MPD2     N12783   4.286   0.130  16.404  0.5850  0.4440  0.3111
  867MPD2    H512784   4.253   0.208  16.347 -0.6967  0.6624  1.3674
  867MPD2    N112785   4.285   4.375  16.401 -0.3643 -0.4446  0.4841
  867MPD2    H712786   4.261   4.295  16.344 -2.3244  0.4253  0.0851
  868MPD2     C12787   1.313   3.833  13.527  0.1051 -0.3154  0.5982
  868MPD2    C112788   1.439   3.877  13.557 -0.0921  0.6314 -0.1227
  868MPD2    C212789   1.455   3.964  13.662  0.4289 -0.4046  0.1178
  868MPD2    C312790   1.347   4.030  13.724 -0.5764  0.3813  0.0627
  868MPD2    C412791   1.223   3.988  13.690  0.5398 -0.2274 -0.6017
  868MPD2    C512792   1.203   3.891  13.592 -0.9089  0.0938 -0.2040
  868MPD2     H12793   1.551   4.001  13.696  0.4545 -1.4277  1.1535
  868MPD2    H112794   1.135   4.027  13.740  0.1679 -2.2212  0.2998
  868MPD2    H212795   1.302   3.746  13.464 -0.5673 -0.2025  0.5596
  868MPD2    H312796   1.102   3.864  13.566 -1.0636 -1.1958  1.7591
  868MPD2     N12797   1.367   4.130  13.821  0.0170 -0.1663 -0.2362
  868MPD2    H512798   1.460   4.154  13.854 -0.6019 -0.7160  1.9219
  868MPD2    N112799   1.548   3.835  13.478  0.7683  0.1324  0.6787
  868MPD2    H712800   1.543   3.749  13.425  0.0906 -0.3012  1.4516
  869MPD2     C12801   2.337   1.318   0.230  0.0657  0.2087  0.2734
  869MPD2    C112802   2.302   1.363   0.357 -0.8663 -0.1103  0.0058
  869MPD2    C212803   2.373   1.471   0.416 -0.2618  0.5158  0.8167
  869MPD2    C312804   2.488   1.519   0.352 -0.2878  0.1522 -0.5337
  869MPD2    C412805   2.515   1.464   0.235  0.3229  0.4770 -0.3161
  869MPD2    C512806   2.443   1.365   0.173 -0.7281 -0.6230  0.6872
  869MPD2     H12807   2.345   1.504   0.515 -0.5918  0.4326  0.7503
  869MPD2    H112808   2.607   1.493   0.185  1.0181 -0.0191  0.6631
  869MPD2    H212809   2.285   1.241   0.175  1.1394  0.1984 -0.7383
  869MPD2    H312810   2.465   1.339   0.070 -0.7254  2.2092 -0.0146
  869MPD2     N12811   2.568   1.629   0.404  0.3450 -0.1293  0.5696
  869MPD2    H512812   2.642   1.661   0.342 -0.6954  2.6790  0.7777
  869MPD2    N112813   2.186   1.309   0.421  0.0144  0.6957 -0.1240
  869MPD2    H712814   2.140   1.230   0.377  1.1341 -1.2998  2.2651
  870MPD2     C12815   2.511   1.575   1.674 -0.0363  0.7487 -0.2799
  870MPD2    C112816   2.527   1.463   1.593  0.3810 -0.5898  0.2461
  870MPD2    C212817   2.429   1.419   1.509  0.1357  0.3753 -0.5194
  870MPD2    C312818   2.306   1.470   1.533  0.1146 -1.0591 -0.2638
  870MPD2    C412819   2.286   1.586   1.611 -0.0012  0.0530  0.8584
  870MPD2    C512820   2.395   1.647   1.677 -0.2821 -0.2792  0.5569
  870MPD2     H12821   2.434   1.333   1.444 -0.4946  0.0563 -0.1462
  870MPD2    H112822   2.190   1.630   1.634  0.4765 -0.0727  3.1780
  870MPD2    H212823   2.591   1.614   1.736 -0.3413 -2.3688  2.0663
  870MPD2    H312824   2.383   1.740   1.732 -0.7359 -0.3575  0.5936
  870MPD2     N12825   2.199   1.405   1.470 -0.4510  0.5401 -0.1338
  870MPD2    H512826   2.215   1.316   1.423 -0.3122  0.3681  0.2466
  870MPD2    N112827   2.652   1.404   1.601 -0.4486  0.6693  0.4262
  870MPD2    H712828   2.712   1.446   1.672 -0.3358 -2.8449  2.3842
  871MPD2     C12829   3.167   0.364  16.385 -0.5668 -0.3896  0.0148
  871MPD2    C112830   3.178   0.315  16.508  0.0931  1.1675 -0.3738
  871MPD2    C212831   3.170   0.175  16.524  0.1329  0.5023 -0.3104
  871MPD2    C312832   3.133   0.088  16.419  0.0183  0.1818 -0.2124
  871MPD2    C412833   3.137   0.141  16.291 -0.0077 -0.0788  0.4552
  871MPD2    C512834   3.151   0.280  16.281  0.4541  0.4450  0.9084
  871MPD2     H12835   3.186   0.131  16.621  0.4041 -0.5527 -0.8439
  871MPD2    H112836   3.130   0.083  16.199  0.1623  0.1469  0.3008
  871MPD2    H212837   3.181   0.471  16.375 -2.0454 -0.3188 -1.3168
  871MPD2    H312838   3.158   0.320  16.181 -1.4212  0.5217  0.8059
  871MPD2     N12839   3.114   4.687  16.455 -0.3660  0.4469 -0.5673
  871MPD2    H512840   3.101   4.657  16.551  2.8597  1.7541  0.2526
  871MPD2    N112841   3.206   0.407  16.619 -0.2378 -0.1432  0.3937
  871MPD2    H712842   3.216   0.506  16.598 -0.7405 -0.2049 -0.1489
  872MPD2     C12843   4.140   2.915  13.716  0.6846 -0.1417  0.4671
  872MPD2    C112844   4.193   2.971  13.830 -0.7636  0.7179 -0.6492
  872MPD2    C212845   4.108   3.000  13.935 -0.2728  0.1797 -0.9893
  872MPD2    C312846   3.977   2.961  13.933 -0.1729 -0.0930 -0.6243
  872MPD2    C412847   3.926   2.897  13.821 -0.2649 -0.2385  0.3694
  872MPD2    C512848   4.007   2.877  13.711 -0.7066  0.0027 -0.0945
  872MPD2     H12849   4.146   3.048  14.024  2.3095 -2.3288 -0.7414
  872MPD2    H112850   3.824   2.863  13.815 -0.4843  0.2574  1.3497
  872MPD2    H212851   4.198   2.888  13.629  0.8230  0.3565  0.4039
  872MPD2    H312852   3.963   2.823  13.628 -0.7406 -1.5566  0.9447
  872MPD2     N12853   3.882   2.990  14.027 -0.0309 -0.5276 -0.6926
  872MPD2    H512854   3.789   2.957  14.003  0.1679 -1.7090  0.1424
  872MPD2    N112855   4.328   3.010  13.845 -0.3797  0.1794  0.1189
  872MPD2    H712856   4.349   3.048  13.937 -0.3359 -0.5541  0.4099
  873MPD2     C12857   1.639   2.707   0.729 -0.1405 -0.5487  0.0876
  873MPD2    C112858   1.535   2.781   0.702  0.1808 -0.0643 -0.3475
  873MPD2    C212859   1.441   2.720   0.616  0.0287  0.2193 -0.2730
  873MPD2    C312860   1.448   2.588   0.575 -0.7417  0.0026 -0.0650
  873MPD2    C412861   1.555   2.517   0.614  0.2811  0.0333  0.6587
  873MPD2    C512862   1.651   2.582   0.697  0.4522 -0.7035  0.6005
  873MPD2     H12863   1.349   2.772   0.589 -0.1596 -1.6746 -3.2654
  873MPD2    H112864   1.570   2.419   0.570 -1.1195  0.4893 -0.8284
  873MPD2    H212865   1.723   2.756   0.778  0.7468 -1.6434 -0.3314
  873MPD2    H312866   1.738   2.529   0.733  1.0113 -0.6945 -0.7389
  873MPD2     N12867   1.347   2.522   0.502  0.6063 -0.2434 -0.2140
  873MPD2    H512868   1.347   2.421   0.497 -1.2716 -0.3798  2.3750
  873MPD2    N112869   1.516   2.908   0.766 -0.5980 -0.2107  0.0631
  873MPD2    H712870   1.591   2.942   0.824 -0.0393 -1.4218  0.0345
  874MPD2     C12871   0.552   2.916  15.942 -0.2381  0.2997  0.5625
  874MPD2    C112872   0.606   2.871  16.057  0.1009 -0.7237  0.2957
  874MPD2    C212873   0.740   2.900  16.077 -0.0306  0.1446 -0.0418
  874MPD2    C312874   0.814   2.975  15.987  0.6515 -0.5029 -0.3747
  874MPD2    C412875   0.760   3.013  15.868 -0.0916 -0.3966  0.1871
  874MPD2    C512876   0.626   2.978  15.845 -0.4129 -0.3500 -0.5772
  874MPD2     H12877   0.785   2.860  16.167 -1.3891 -0.8448  0.2009
  874MPD2    H112878   0.822   3.064  15.795  0.0588 -1.8496 -0.7038
  874MPD2    H212879   0.445   2.905  15.924  0.0865 -2.4316  0.2666
  874MPD2    H312880   0.591   3.010  15.748 -0.2061  0.9769 -0.2111
  874MPD2     N12881   0.954   3.004  16.002  0.8265  0.5609  0.5069
  874MPD2    H512882   1.008   3.054  15.932 -1.3689  0.4029 -1.3003
  874MPD2    N112883   0.523   2.795  16.144 -0.2424  0.3674  0.3846
  874MPD2    H712884   0.425   2.783  16.120 -0.4053 -1.2064  1.7486
  875MPD2     C12885   2.031   0.976  14.442 -0.1979 -0.2954  0.0103
  875MPD2    C112886   1.909   1.034  14.464  0.3289 -0.0030 -1.3092
  875MPD2    C212887   1.893   1.114  14.569  0.0697  0.2221  0.3478
  875MPD2    C312888   1.993   1.155  14.653 -0.2041  0.1770  0.0683
  875MPD2    C412889   2.123   1.116  14.618  0.0603 -0.2866  0.3930
  875MPD2    C512890   2.136   1.017  14.521 -0.3414  0.6423 -0.6796
  875MPD2     H12891   1.790   1.148  14.576 -0.0712  0.2410 -1.8747
  875MPD2    H112892   2.216   1.145  14.666 -0.2077 -1.0016  1.3348
  875MPD2    H212893   2.059   0.910  14.360  0.9008  0.3267 -0.1166
  875MPD2    H312894   2.238   0.984  14.500 -0.4349 -0.9160  1.2868
  875MPD2     N12895   1.974   1.246  14.758  0.3628 -0.4280 -0.2574
  875MPD2    H512896   2.056   1.289  14.801  0.6263  0.5972 -1.8091
  875MPD2    N112897   1.791   1.007  14.389  0.2312 -0.4637  0.8883
  875MPD2    H712898   1.708   1.057  14.420 -0.5795 -0.9905 -0.4247
  876MPD2     C12899   0.231   2.263  16.078  0.2218  0.4463  0.1206
  876MPD2    C112900   0.363   2.247  16.058  0.3085 -0.2981  0.7420
  876MPD2    C212901   0.416   2.119  16.079 -0.2976  0.7489  1.0004
  876MPD2    C312902   0.339   2.020  16.141 -0.0827 -0.8428 -0.0149
  876MPD2    C412903   0.203   2.049  16.171 -0.3331 -0.9774  0.6965
  876MPD2    C512904   0.153   2.174  16.147  0.4948  1.0903 -0.5804
  876MPD2     H12905   0.520   2.094  16.057 -0.4200 -0.2200  1.5161
  876MPD2    H112906   0.132   1.984  16.222 -1.2894  1.3773  2.3715
  876MPD2    H212907   0.180   2.352  16.043  3.1132  2.3865  0.8543
  876MPD2    H312908   0.047   2.191  16.162  0.2358 -0.0151 -1.1054
  876MPD2     N12909   0.404   1.898  16.166  0.1323  0.5011  0.3204
  876MPD2    H512910   0.505   1.899  16.175  0.2659 -0.5733 -1.0436
  876MPD2    N112911   0.444   2.351  15.997 -0.7982 -0.4994 -0.5277
  876MPD2    H712912   0.401   2.434  15.957  2.0362  1.5186  0.5912
  877MPD2     C12913   0.562   2.689  15.339 -0.9143  0.5199 -0.2615
  877MPD2    C112914   0.682   2.719  15.401  0.3604  0.3121 -0.3243
  877MPD2    C212915   0.784   2.761  15.322  0.4806  0.3933  0.4906
  877MPD2    C312916   0.770   2.777  15.183 -1.0661 -0.9522 -0.2201
  877MPD2    C412917   0.649   2.751  15.128 -0.4048 -0.2639  0.1535
  877MPD2    C512918   0.545   2.716  15.210 -0.3927  0.8690 -0.8635
  877MPD2     H12919   0.881   2.767  15.371  0.2625  0.3088  0.9291
  877MPD2    H112920   0.634   2.755  15.021 -0.8802  0.7765  0.2547
  877MPD2    H212921   0.479   2.638  15.386  0.1068 -0.0911  0.8663
  877MPD2    H312922   0.452   2.688  15.163 -0.0357 -0.6310 -0.6916
  877MPD2     N12923   0.880   2.797  15.093  0.7609  0.7066 -0.2502
  877MPD2    H512924   0.859   2.789  14.994 -0.4272  0.6997  0.0050
  877MPD2    N112925   0.701   2.696  15.541  0.3934 -0.8291  0.1343
  877MPD2    H712926   0.793   2.721  15.575 -0.5444 -0.0468  2.1489
  878MPD2     C12927   0.698   2.170  13.534 -0.3384 -0.1165  0.1939
  878MPD2    C112928   0.567   2.140  13.508 -0.8115  0.1712  0.1740
  878MPD2    C212929   0.492   2.080  13.607 -0.1409  0.5445  0.3497
  878MPD2    C312930   0.548   2.061  13.734 -0.1108  0.4241  0.2410
  878MPD2    C412931   0.674   2.115  13.761  0.4345  0.2717 -0.5812
  878MPD2    C512932   0.747   2.162  13.659  0.6875  0.0797 -0.3099
  878MPD2     H12933   0.387   2.063  13.588  0.0442 -0.3097  0.0672
  878MPD2    H112934   0.725   2.096  13.854  0.6027 -0.7190 -0.8765
  878MPD2    H212935   0.760   2.192  13.447  1.8193  2.2727  2.3541
  878MPD2    H312936   0.854   2.168  13.672  0.4336 -0.2603  1.9636
  878MPD2     N12937   0.460   1.996  13.828 -0.2130  0.4415 -0.2062
  878MPD2    H512938   0.386   1.942  13.786  0.3823 -1.3014  0.9575
  878MPD2    N112939   0.507   2.171  13.386 -0.7102  0.1176  0.0344
  878MPD2    H712940   0.563   2.224  13.320 -1.6297 -1.6042 -2.1506
  879MPD2     C12941   0.798   3.732  16.869 -0.0321 -0.5498  0.3512
  879MPD2    C112942   0.853   3.619  16.926 -0.2363  0.0404  0.3348
  879MPD2    C212943   0.824   3.491  16.883 -0.0860  0.0864 -0.5477
  879MPD2    C312944   0.736   3.476  16.775 -0.0519  0.2230 -0.3722
  879MPD2    C412945   0.687   3.588  16.711 -0.0084  0.5977  0.2309
  879MPD2    C512946   0.720   3.712  16.758 -0.0201  0.0430 -0.3624
  879MPD2     H12947   0.870   3.405  16.931  0.1029  0.4200 -0.1370
  879MPD2    H112948   0.608   3.592  16.637  1.4696  0.9970 -1.3365
  879MPD2    H212949   0.815   3.831  16.909 -3.9846 -0.5037  1.9972
  879MPD2    H312950   0.687   3.803  16.709  0.5611 -0.4152 -1.5849
  879MPD2     N12951   0.727   3.358  16.698 -0.2904  0.2925 -0.4782
  879MPD2    H512952   0.666   3.360  16.618 -1.4808  0.5888  0.4466
  879MPD2    N112953   0.936   3.642  17.035 -0.2631 -0.4106 -0.0274
  879MPD2    H712954   0.989   3.728  17.040 -1.5227  0.4710 -1.6864
  880MPD2     C12955   2.875   0.753   0.660 -0.6739 -0.3789  0.2374
  880MPD2    C112956   2.790   0.680   0.579  0.4908 -0.4254 -0.3035
  880MPD2    C212957   2.834   0.558   0.535 -0.4321  0.0934 -0.5510
  880MPD2    C312958   2.960   0.501   0.556  0.2165  0.2082  0.1698
  880MPD2    C412959   3.047   0.581   0.627  0.2406 -0.3898 -0.1983
  880MPD2    C512960   3.004   0.699   0.687 -0.0050  0.1130  0.1634
  880MPD2     H12961   2.769   0.491   0.480  0.2402 -1.3039  0.3706
  880MPD2    H112962   3.147   0.543   0.642 -0.8886 -2.9935  0.7837
  880MPD2    H212963   2.838   0.847   0.698 -0.2532 -0.2708  0.3858
  880MPD2    H312964   3.070   0.753   0.755  1.4195  1.0622 -1.9667
  880MPD2     N12965   2.991   0.371   0.513  0.0211  0.2188 -0.0047
  880MPD2    H512966   2.917   0.304   0.493 -0.3292  0.7041 -0.3028
  880MPD2    N112967   2.658   0.730   0.574  0.0071  0.1918  0.2883
  880MPD2    H712968   2.642   0.815   0.627 -1.5163  0.9748 -1.4492
  881MPD2     C12969   1.883   0.938  17.614 -0.8593  0.0832  0.6544
  881MPD2    C112970   1.985   0.846  17.618 -0.3892  0.7874 -0.7363
  881MPD2    C212971   2.047   0.834  17.741  0.4217 -0.5578  0.0836
  881MPD2    C312972   1.997   0.885   0.119  0.3354  0.9482  0.3453
  881MPD2    C412973   1.880   0.945   0.110 -0.5837 -0.4751 -1.0510
  881MPD2    C512974   1.819   0.972  17.730  1.0331 -0.0274  0.1075
  881MPD2     H12975   2.133   0.768  17.741  1.2014  0.4639 -2.3537
  881MPD2    H112976   1.834   0.974   0.203  1.2118 -1.0067 -0.0014
  881MPD2    H212977   1.833   0.959  17.520  2.2707  0.8089 -0.8360
  881MPD2    H312978   1.732   1.037  17.724  2.2698  1.8205  2.2852
  881MPD2     N12979   2.062   0.860   0.246  0.5600 -0.0252 -0.3295
  881MPD2    H512980   2.001   0.885   0.322  1.4005  0.6918  0.1112
  881MPD2    N112981   2.034   0.795  17.494  0.2949 -0.4054 -0.5068
  881MPD2    H712982   1.989   0.822  17.407  0.2336  0.7013 -0.1307
  882MPD2     C12983   1.043   2.537  14.479  0.2388 -0.0423 -0.2411
  882MPD2    C112984   0.989   2.650  14.534 -0.3648 -0.5707 -0.3014
  882MPD2    C212985   0.857   2.683  14.519 -0.0605  0.0452  0.6940
  882MPD2    C312986   0.770   2.604  14.456  0.4506 -0.3136  0.7109
  882MPD2    C412987   0.818   2.483  14.416  0.8048  0.0297 -0.1120
  882MPD2    C512988   0.948   2.453  14.427  0.0624  0.6993 -0.5034
  882MPD2     H12989   0.822   2.783  14.544 -2.1265 -0.4946 -0.0120
  882MPD2    H112990   0.747   2.408  14.383  0.9494 -0.0917 -0.1494
  882MPD2    H212991   1.145   2.504  14.493  0.5735  1.2430  0.3273
  882MPD2    H312992   0.989   2.356  14.400  0.3339  0.7543 -0.2878
  882MPD2     N12993   0.637   2.637  14.438  0.1230  0.1119  0.3761
  882MPD2    H512994   0.585   2.565  14.389  0.1664 -0.4957  1.2105
  882MPD2    N112995   1.081   2.724  14.609  0.9201 -1.0540 -0.2505
  882MPD2    H712996   1.167   2.670  14.618  2.5637  2.0459  2.5151
  883MPD2     C12997   2.456   2.331  16.142  0.1876 -0.1670 -0.2181
  883MPD2    C112998   2.495   2.459  16.110  0.0961  0.0864  1.0573
  883MPD2    C212999   2.536   2.535  16.217 -0.0398 -0.2391 -0.3064
  883MPD2    C313000   2.545   2.489  16.344 -1.0834 -0.8436 -0.1160
  883MPD2    C413001   2.528   2.358  16.367  0.0815  0.6985 -0.2867
  883MPD2    C513002   2.492   2.274  16.263 -0.0379  0.3325  0.3467
  883MPD2     H13003   2.558   2.638  16.193 -1.5272  0.2535  0.4515
  883MPD2    H113004   2.537   2.317  16.467  1.6665 -1.0282 -1.1424
  883MPD2    H213005   2.412   2.269  16.065  0.0254  1.7897 -1.7092
  883MPD2    H313006   2.481   2.167  16.279 -0.4357  0.5009  1.1837
  883MPD2     N13007   2.590   2.578  16.449 -0.2544  0.2862  0.3024
  883MPD2    H513008   2.604   2.674  16.419  0.6829 -0.2079 -0.8446
  883MPD2    N113009   2.484   2.519  15.978  0.1703  0.3889  0.4354
  883MPD2    H713010   2.524   2.612  15.970 -0.4680  0.7274  1.1563
  884MPD2     C13011   4.513   4.193  15.546  0.2082  0.5412  0.1095
  884MPD2    C113012   4.522   4.267  15.424 -0.3517 -0.3995  0.3606
  884MPD2    C213013   4.416   4.264  15.332  0.6548 -0.0343 -0.2965
  884MPD2    C313014   4.306   4.182  15.355  0.3226 -0.2138 -0.0971
  884MPD2    C413015   4.305   4.118  15.479 -0.3756 -0.4424 -0.4561
  884MPD2    C513016   4.405   4.120  15.568  0.1048 -0.0231 -0.1574
  884MPD2     H13017   4.428   4.320  15.240 -1.1624 -1.0485 -1.1506
  884MPD2    H113018   4.221   4.060  15.515 -0.0331 -0.0510  1.0003
  884MPD2    H213019   4.590   4.208  15.622 -0.4172  0.1873  0.8084
  884MPD2    H313020   4.401   4.073  15.666 -1.3580 -0.3289 -0.3505
  884MPD2     N13021   4.201   4.171  15.257  0.1483  0.2266  0.5224
  884MPD2    H513022   4.211   4.217  15.167 -0.2021  1.5699  1.1556
  884MPD2    N113023   4.645   4.337  15.390 -0.3937 -0.2332 -0.3795
  884MPD2    H713024   4.649   4.373  15.296 -1.0673  1.2953  0.1587
  885MPD2     C13025   3.011   3.829   0.338 -0.4614 -0.5523  0.3745
  885MPD2    C113026   3.119   3.848   0.254 -0.5017 -0.5067 -0.3063
  885MPD2    C213027   3.099   3.876   0.119  0.9892  1.1043  0.1497
  885MPD2    C313028   2.977   3.854   0.064  0.3603  0.4151 -0.1465
  885MPD2    C413029   2.872   3.804   0.141  0.4236  0.0607  0.0605
  885MPD2    C513030   2.893   3.797   0.278  0.0623  0.5120 -0.1678
  885MPD2     H13031   3.178   3.924   0.063  2.5337 -0.9293  0.5859
  885MPD2    H113032   2.772   3.777   0.109 -0.6682  3.1962  0.8362
  885MPD2    H213033   3.023   3.811   0.444  1.6291  0.8121  0.3584
  885MPD2    H313034   2.811   3.763   0.340  0.0292 -0.4651 -0.7509
  885MPD2     N13035   2.976   3.871  17.672  1.1688  0.3091  0.0697
  885MPD2    H513036   3.046   3.933  17.635  0.0617  1.2888 -0.3851
  885MPD2    N113037   3.249   3.839   0.312 -1.0688 -0.7455  0.6483
  885MPD2    H713038   3.258   3.832   0.413  0.7002 -1.8695  0.4160
  886MPD2     C13039   3.980   1.979  15.110  0.3538  0.4720  0.1260
  886MPD2    C113040   4.116   1.955  15.149  0.2839 -0.1696 -0.0346
  886MPD2    C213041   4.212   2.054  15.116 -0.2199 -0.4059  0.1234
  886MPD2    C313042   4.179   2.163  15.037  0.2121  0.1037  0.5399
  886MPD2    C413043   4.049   2.169  14.986 -0.0755 -0.0165  0.1294
  886MPD2    C513044   3.953   2.080  15.024  0.1094  0.2179  0.0706
  886MPD2     H13045   4.314   2.030  15.143 -1.1529 -0.4239  3.6687
  886MPD2    H113046   4.013   2.247  14.920 -1.0247 -0.2963  0.3128
  886MPD2    H213047   3.902   1.908  15.132  0.3461  0.2066 -0.7761
  886MPD2    H313048   3.855   2.098  14.983 -0.0296 -0.5099  0.0737
  886MPD2     N13049   4.265   2.269  15.021  0.1862  0.5033 -0.0010
  886MPD2    H513050   4.236   2.341  14.957  1.7027  0.3205 -0.8843
  886MPD2    N113051   4.161   1.843  15.230  0.5676 -0.1172 -0.4013
  886MPD2    H713052   4.259   1.836  15.254 -0.0436 -1.9815  1.5895
  887MPD2     C13053   4.539   1.752  15.799  0.2536 -0.3074  0.0587
  887MPD2    C113054   4.525   1.801  15.666 -0.0115  0.7250 -0.2360
  887MPD2    C213055   4.556   1.934  15.638  0.5284 -0.3821 -0.5012
  887MPD2    C313056   4.580   2.028  15.738  0.9450 -0.4372  0.2144
  887MPD2    C413057   4.580   1.978  15.865 -0.4960  0.1121  0.9443
  887MPD2    C513058   4.563   1.846  15.897 -0.0974 -0.2670  0.4844
  887MPD2     H13059   4.559   1.968  15.535  1.0917  0.0885 -0.3299
  887MPD2    H113060   4.597   2.051  15.943  0.6826  1.1636 -0.2921
  887MPD2    H213061   4.524   1.650  15.833  2.0881  0.1247  2.1098
  887MPD2    H313062   4.585   1.825  16.001 -1.5581  1.1789  1.0869
  887MPD2     N13063   4.591   2.167  15.700  0.3788  0.4665 -0.7329
  887MPD2    H513064   4.580   2.188  15.601  0.4346 -1.3239 -1.1291
  887MPD2    N113065   4.452   1.714  15.574 -0.1847  0.3154 -0.0561
  887MPD2    H713066   4.420   1.749  15.484 -0.4316  1.7262  0.5782
  888MPD2     C13067   1.942   2.041  14.753  0.8122  0.1969 -0.1172
  888MPD2    C113068   1.919   2.102  14.871  0.0159 -0.2178  0.7665
  888MPD2    C213069   1.959   2.237  14.897  0.0958  0.1468 -0.5448
  888MPD2    C313070   2.042   2.300  14.805 -0.5939 -0.2024  0.5270
  888MPD2    C413071   2.068   2.233  14.692 -0.0743 -0.4154  0.0652
  888MPD2    C513072   2.028   2.104  14.674 -0.1374 -0.2904 -0.7075
  888MPD2     H13073   1.926   2.300  14.978  0.4190 -0.5247  0.1110
  888MPD2    H113074   2.121   2.286  14.614 -0.0281 -0.5403  0.0104
  888MPD2    H213075   1.930   1.934  14.735  0.7097  0.5560 -2.1701
  888MPD2    H313076   2.067   2.056  14.585 -0.6562 -0.0394 -1.0670
  888MPD2     N13077   2.098   2.423  14.840 -0.6302 -0.1098 -0.1328
  888MPD2    H513078   2.066   2.465  14.927 -0.9234 -2.2635  0.7796
  888MPD2    N113079   1.848   2.033  14.974  0.3152  0.4857  0.2438
  888MPD2    H713080   1.839   2.073  15.067 -1.3291 -0.1886  0.3751
  889MPD2     C13081   0.755   2.070  12.881  0.3753  0.6195  0.2292
  889MPD2    C113082   0.875   2.064  12.942  0.1300  0.8168 -0.5387
  889MPD2    C213083   0.910   2.144  13.051 -0.0083 -0.3522  0.1181
  889MPD2    C313084   0.821   2.242  13.092 -0.4052 -0.0588  0.8103
  889MPD2    C413085   0.696   2.254  13.028  0.4068 -0.6888 -0.1671
  889MPD2    C513086   0.666   2.173  12.914 -0.1309  0.0984 -0.1337
  889MPD2     H13087   1.009   2.141  13.094 -0.9487  0.7027  2.3492
  889MPD2    H113088   0.619   2.327  13.049  0.4784 -1.1039  1.5493
  889MPD2    H213089   0.723   2.005  12.800 -2.0301  0.7373  1.0667
  889MPD2    H313090   0.572   2.163  12.861 -1.6807 -0.0838  2.6328
  889MPD2     N13091   0.854   2.317  13.201 -0.7243 -0.8692 -0.0440
  889MPD2    H513092   0.939   2.287  13.248 -0.6590 -1.7131 -0.7053
  889MPD2    N113093   0.946   1.942  12.926 -0.0632  0.3264 -0.1851
  889MPD2    H713094   0.912   1.878  12.854  0.7299 -0.1028 -0.1807
  890MPD2     C13095   0.661   3.679  14.742  0.2450  0.4152  0.0130
  890MPD2    C113096   0.727   3.720  14.854 -0.2710  0.9274  0.9852
  890MPD2    C213097   0.754   3.630  14.956  0.1675 -0.1256 -0.2707
  890MPD2    C313098   0.715   3.501  14.955  0.3384 -0.9342 -0.1090
  890MPD2    C413099   0.652   3.460  14.841  0.2595 -0.0926  0.1365
  890MPD2    C513100   0.629   3.552  14.739 -0.2227 -0.4821 -0.0253
  890MPD2     H13101   0.802   3.664  15.047 -0.6244 -2.3991  1.0196
  890MPD2    H113102   0.629   3.355  14.822  0.8297 -0.0182 -0.9588
  890MPD2    H213103   0.640   3.754  14.666 -0.2904  0.2738  0.0200
  890MPD2    H313104   0.582   3.509  14.651  0.3507  1.7200 -1.3998
  890MPD2     N13105   0.740   3.415  15.068 -0.0280  0.1126 -0.0917
  890MPD2    H513106   0.792   3.446  15.149 -2.3917  0.4549  1.3042
  890MPD2    N113107   0.774   3.856  14.863  0.2056 -0.5639  0.5579
  890MPD2    H713108   0.740   3.919  14.791 -1.0693  0.2338  1.8536
  891MPD2     C13109   3.481   2.293  16.655  0.4353  0.3695  0.3300
  891MPD2    C113110   3.395   2.200  16.712  0.2925 -0.4447 -0.6662
  891MPD2    C213111   3.433   2.146  16.834 -0.3196 -0.0699  0.1669
  891MPD2    C313112   3.563   2.171  16.878  0.8506  0.2338  0.2007
  891MPD2    C413113   3.628   2.277  16.831 -0.3402 -0.0930 -0.5713
  891MPD2    C513114   3.589   2.344  16.724 -0.2604 -0.3823  0.9358
  891MPD2     H13115   3.384   2.068  16.891  2.2759 -1.6751  0.2174
  891MPD2    H113116   3.715   2.320  16.879 -0.9396  0.5816 -0.0895
  891MPD2    H213117   3.465   2.334  16.555  3.0788  2.5873  0.8154
  891MPD2    H313118   3.638   2.437  16.698 -1.0297 -0.3527 -0.4620
  891MPD2     N13119   3.610   2.112  16.993  0.5929 -0.0108 -0.0509
  891MPD2    H513120   3.538   2.063  17.046 -0.3924  0.0395 -1.3572
  891MPD2    N113121   3.267   2.176  16.650 -0.0167 -0.4294  0.8770
  891MPD2    H713122   3.255   2.227  16.563  1.0511 -1.7120 -0.0400
  892MPD2     C13123   0.229   3.094  15.162 -0.6593  0.1798  0.4834
  892MPD2    C113124   0.240   3.164  15.044  0.1643 -0.1149 -0.4577
  892MPD2    C213125   0.237   3.097  14.923  0.0484  0.0099  0.7936
  892MPD2    C313126   0.217   2.956  14.923  0.4159 -0.2952 -0.3425
  892MPD2    C413127   0.218   2.889  15.045 -0.4007 -0.6270  0.0130
  892MPD2    C513128   0.216   2.959  15.166  0.4318  0.7807  0.4516
  892MPD2     H13129   0.257   3.156  14.835 -0.7880 -1.1792 -0.1911
  892MPD2    H113130   0.223   2.781  15.053  3.3170 -0.3935  1.0414
  892MPD2    H213131   0.249   3.134  15.260 -0.0787 -2.8309  1.5915
  892MPD2    H313132   0.205   2.907  15.260  1.2142 -1.7672 -0.8669
  892MPD2     N13133   0.211   2.877  14.814  0.7375  0.2881  0.4647
  892MPD2    H513134   0.224   2.777  14.822  1.4315  0.3428  0.0006
  892MPD2    N113135   0.269   3.305  15.045 -0.3489 -0.1108  0.3229
  892MPD2    H713136   0.288   3.346  14.954  1.8882 -0.6139  0.5466
  893MPD2     C13137   1.971   2.456   1.736  0.0146  0.2282 -0.2851
  893MPD2    C113138   1.919   2.349   1.658 -0.0710  0.4840  0.0710
  893MPD2    C213139   1.795   2.363   1.595 -0.2400  0.6417 -0.3732
  893MPD2    C313140   1.714   2.472   1.622  0.0789 -0.3486 -0.7690
  893MPD2    C413141   1.767   2.573   1.705  0.2043  0.5010  0.8946
  893MPD2    C513142   1.887   2.557   1.767 -0.2439  0.7815 -0.4935
  893MPD2     H13143   1.752   2.291   1.526  0.1339  0.0370  0.0273
  893MPD2    H113144   1.706   2.659   1.732  0.4278  0.9898 -0.1706
  893MPD2    H213145   2.072   2.453   1.775  0.1436 -0.1488 -0.6546
  893MPD2    H313146   1.924   2.637   1.830 -0.5761  0.0135  0.6710
  893MPD2     N13147   1.588   2.492   1.557  0.3790 -0.5021  0.4964
  893MPD2    H513148   1.546   2.584   1.561 -0.5284 -0.8338 -1.3617
  893MPD2    N113149   1.992   2.229   1.630  0.1685  0.5122 -0.9416
  893MPD2    H713150   2.091   2.238   1.613 -0.1069  0.2091 -2.6204
  894MPD2     C13151   0.401   4.070   0.697  0.0456 -0.0691  0.2538
  894MPD2    C113152   0.388   4.145   0.809 -0.4291 -0.0767  0.0831
  894MPD2    C213153   0.409   4.281   0.812 -0.0304  0.1880  0.6741
  894MPD2    C313154   0.437   4.351   0.698 -0.0618 -1.2519  0.4815
  894MPD2    C413155   0.435   4.275   0.582  0.0275  0.8898  0.0548
  894MPD2    C513156   0.414   4.136   0.581 -0.6195  0.1942 -0.6409
  894MPD2     H13157   0.419   4.337   0.904  0.6030 -1.2762  1.4961
  894MPD2    H113158   0.459   4.330   0.492  1.3281  0.0612 -0.0960
  894MPD2    H213159   0.395   3.963   0.683  1.3172 -0.1111  0.0588
  894MPD2    H313160   0.411   4.080   0.489  1.6964 -1.8881  0.5779
  894MPD2     N13161   0.460   4.486   0.712 -0.2312 -0.3467  0.5675
  894MPD2    H513162   0.456   4.512   0.810 -2.0842  1.3472  0.0399
  894MPD2    N113163   0.368   4.092   0.938 -0.3020  0.4111  0.0371
  894MPD2    H713164   0.371   4.149   1.021 -1.4827 -0.8072  0.9256
  895MPD2     C13165   4.086   1.967  13.833  0.2203  0.5367  0.1359
  895MPD2    C113166   4.021   1.943  13.717 -0.5003 -0.5293 -0.1969
  895MPD2    C213167   4.034   1.818  13.660 -0.4152  0.1300  0.1285
  895MPD2    C313168   4.112   1.717  13.712  0.6310 -0.8581  0.7131
  895MPD2    C413169   4.160   1.738  13.841  0.1765  0.0055  0.9773
  895MPD2    C513170   4.147   1.862  13.894  0.6459  0.4864  0.5850
  895MPD2     H13171   3.991   1.801  13.562 -1.3275  1.6094  0.2741
  895MPD2    H113172   4.214   1.666  13.900  0.3855  0.7303  1.6707
  895MPD2    H213173   4.090   2.064  13.880 -0.8343  0.3774  0.5632
  895MPD2    H313174   4.203   1.876  13.986  2.6242 -2.0068 -0.2591
  895MPD2     N13175   4.134   1.594  13.648 -0.4441 -0.4096  0.3023
  895MPD2    H513176   4.188   1.521  13.693  0.8157  1.3627  1.6464
  895MPD2    N113177   3.949   2.033  13.636  0.2207 -0.3057 -0.1971
  895MPD2    H713178   3.911   1.988  13.553  1.6885 -1.0116 -0.4843
  896MPD2     C13179   1.899   0.551   1.676  0.7116  0.4325  0.4839
  896MPD2    C113180   1.935   0.471   1.571 -0.1612  0.3080  0.5145
  896MPD2    C213181   1.833   0.412   1.496  0.3185  0.2894 -0.8376
  896MPD2    C313182   1.697   0.440   1.518 -0.2749  0.5186 -0.1660
  896MPD2    C413183   1.664   0.522   1.629 -0.1452  0.0128 -0.0688
  896MPD2    C513184   1.767   0.580   1.696  0.6098 -0.5446 -0.0951
  896MPD2     H13185   1.856   0.351   1.410  0.0232 -2.1519  0.8368
  896MPD2    H113186   1.571   0.546   1.679  0.8196  0.3770  1.5697
  896MPD2    H213187   1.971   0.592   1.746  1.7818 -0.4570 -0.1077
  896MPD2    H313188   1.751   0.632   1.789  0.4879 -0.2872 -0.2617
  896MPD2     N13189   1.593   0.376   1.443 -0.4965  0.0776 -0.1158
  896MPD2    H513190   1.625   0.303   1.380  1.0788  0.6027  0.0561
  896MPD2    N113191   2.070   0.452   1.540  0.5658 -0.0678 -0.0286
  896MPD2    H713192   2.135   0.499   1.602  1.5285  0.2151 -1.2489
  897MPD2     C13193   3.188   1.749  10.480 -0.3371  0.0779 -0.2819
  897MPD2    C113194   3.068   1.814  10.456  0.5345  0.0382 -0.3846
  897MPD2    C213195   2.952   1.795  10.534  0.0248 -0.0059  0.0630
  897MPD2    C313196   2.976   1.732  10.658  0.0572 -0.0583  0.1091
  897MPD2    C413197   3.097   1.671  10.694 -0.6830  0.4882 -0.7265
  897MPD2    C513198   3.191   1.672  10.596 -0.2283 -0.8199 -0.2212
  897MPD2     H13199   2.867   1.861  10.525 -0.5057 -0.9468 -1.7614
  897MPD2    H113200   3.123   1.645  10.796  2.7255  2.4879 -1.0908
  897MPD2    H213201   3.277   1.775  10.423  1.2447  0.3021  2.3091
  897MPD2    H313202   3.286   1.623  10.612  0.6355  1.1830  0.7927
  897MPD2     N13203   2.870   1.735  10.753 -0.0424  0.1953 -0.4987
  897MPD2    H513204   2.783   1.769  10.714 -0.2504  0.0410 -0.1686
  897MPD2    N113205   3.073   1.907  10.349 -0.2584 -0.7655  0.4838
  897MPD2    H713206   3.160   1.912  10.297 -0.6566  1.1446  0.0063
  898MPD2     C13207   0.316   2.474   0.328  0.6484  0.0260  0.2966
  898MPD2    C113208   0.218   2.437   0.243  0.0632 -0.0033  0.5688
  898MPD2    C213209   0.147   2.538   0.182  0.8034  0.4168  0.0084
  898MPD2    C313210   0.170   2.676   0.205 -0.1207  0.0293  0.2452
  898MPD2    C413211   0.267   2.711   0.299 -0.2438  0.2220  0.1157
  898MPD2    C513212   0.336   2.609   0.353  0.4230 -0.8622  0.4924
  898MPD2     H13213   0.069   2.511   0.111  0.8928 -3.3761  1.3897
  898MPD2    H113214   0.296   2.816   0.299  0.5210  0.0037 -1.6217
  898MPD2    H213215   0.378   2.403   0.382 -0.8843 -1.7523 -0.2828
  898MPD2    H313216   0.414   2.631   0.425  0.0949  3.0851 -0.3320
  898MPD2     N13217   0.095   2.762   0.124 -0.1988  0.4302  0.2109
  898MPD2    H513218   0.017   2.729   0.067  1.1083 -2.7777  0.2886
  898MPD2    N113219   0.187   2.304   0.208  0.7643 -0.2382 -0.0194
  898MPD2    H713220   0.131   2.291   0.124 -2.1392 -0.1565  1.9060
  899MPD2     C13221   0.425   2.941  17.114 -0.1658  0.0182 -0.2973
  899MPD2    C113222   0.495   3.039  17.185  0.1106  0.0404  0.4051
  899MPD2    C213223   0.575   2.996  17.290 -0.0655  0.2842  0.0702
  899MPD2    C313224   0.577   2.862  17.331  0.0423  0.0711  0.1280
  899MPD2    C413225   0.511   2.765  17.259 -0.0527 -0.1922  1.5720
  899MPD2    C513226   0.430   2.806  17.147  0.4218 -0.0170 -0.1430
  899MPD2     H13227   0.630   3.071  17.345 -2.3005  1.2704  0.9970
  899MPD2    H113228   0.518   2.663  17.295  1.3989  0.0031  1.8491
  899MPD2    H213229   0.368   2.963  17.024 -0.4743 -0.3508 -0.1924
  899MPD2    H313230   0.386   2.731  17.082 -1.7983  0.1488  1.1332
  899MPD2     N13231   0.654   2.818  17.441 -0.5586 -0.4768 -0.3467
  899MPD2    H513232   0.653   2.717  17.457  1.3764 -0.4640 -0.1752
  899MPD2    N113233   0.486   3.167  17.140  0.4210  0.2662 -0.4523
  899MPD2    H713234   0.429   3.186  17.059 -2.1796  1.1214  1.5757
  900MPD2     C13235   0.377   4.727  12.471  0.5372 -0.1218 -0.0246
  900MPD2    C113236   0.291   4.621  12.473  0.0921  0.2342  0.5115
  900MPD2    C213237   0.168   4.630  12.415  0.3185 -0.0565 -0.2361
  900MPD2    C313238   0.130   0.007  12.345  0.2115 -0.5624  0.6364
  900MPD2    C413239   0.210   0.125  12.348 -0.0899 -0.3463  0.3184
  900MPD2    C513240   0.329   0.113  12.426 -0.0885  0.4646  0.3966
  900MPD2     H13241   0.093   4.552  12.423 -0.0637  0.3866  0.4886
  900MPD2    H113242   0.172   0.219  12.309  1.9826  0.8919  1.2478
  900MPD2    H213243   0.475   4.732  12.515  0.2900  0.0068  0.5104
  900MPD2    H313244   0.393   0.199  12.441 -1.1485  1.1672  0.8967
  900MPD2     N13245   4.734   0.012  12.292  0.0822 -0.2506  0.1588
  900MPD2    H513246   4.684   4.662  12.314 -1.7552  0.8982  0.5157
  900MPD2    N113247   0.337   4.505  12.542  0.2866  0.7093  0.1977
  900MPD2    H713248   0.422   4.511  12.598  0.5055 -4.3760  0.4725
  901MPD2     C13249   4.633   3.533  12.580 -0.9412 -0.4476 -0.1251
  901MPD2    C113250   0.019   3.509  12.632  0.2520  0.1314  0.6480
  901MPD2    C213251   0.104   3.612  12.646  0.0194  0.5560  0.1998
  901MPD2    C313252   0.072   3.743  12.606  0.3344  0.6108  1.0133
  901MPD2    C413253   4.678   3.765  12.567 -0.4384 -0.3232 -0.0913
  901MPD2    C513254   4.587   3.661  12.565  0.4204 -0.0531 -0.4214
  901MPD2     H13255   0.205   3.596  12.681  0.0277  1.1388  0.4438
  901MPD2    H113256   4.643   3.866  12.548 -2.3308 -0.7730  1.0677
  901MPD2    H213257   4.563   3.451  12.572 -0.9648 -0.4375 -0.0193
  901MPD2    H313258   4.485   3.690  12.544  0.3750  0.1671  0.1005
  901MPD2     N13259   0.172   3.839  12.629  0.0076  0.1123  1.0366
  901MPD2    H513260   0.262   3.810  12.667 -0.2448 -0.1450  1.4375
  901MPD2    N113261   0.063   3.375  12.645  0.2546 -0.0681  0.7268
  901MPD2    H713262   4.727   3.308  12.618  1.1512 -1.0609  0.7960
  902MPD2     C13263   3.698   2.560  12.977  0.1967 -0.1412  0.1840
  902MPD2    C113264   3.801   2.593  12.905 -0.0072 -0.6636 -0.0673
  902MPD2    C213265   3.846   2.516  12.796  0.7192  0.1042 -0.7097
  902MPD2    C313266   3.780   2.399  12.759  0.4469  0.3476 -0.5784
  902MPD2    C413267   3.672   2.365  12.834  0.5718 -0.2321 -0.4167
  902MPD2    C513268   3.631   2.436  12.945 -0.4137 -0.3587  0.1099
  902MPD2     H13269   3.932   2.545  12.737  1.5682 -0.0943  0.4441
  902MPD2    H113270   3.609   2.278  12.818 -1.6178  1.6925 -2.1214
  902MPD2    H213271   3.654   2.616  13.059 -2.1461 -1.1120 -0.4142
  902MPD2    H313272   3.538   2.403  12.990 -1.1842 -0.7917 -1.8035
  902MPD2     N13273   3.819   2.309  12.657  0.4529  0.0615  0.1040
  902MPD2    H513274   3.766   2.223  12.652 -0.1430  0.1753  4.1964
  902MPD2    N113275   3.852   2.718  12.934 -0.1070  0.0842  0.2549
  902MPD2    H713276   3.826   2.763  13.021 -1.8781 -3.4118  1.5323
  903MPD2     C13277   4.225   2.482  12.048  0.0591 -0.0636  0.0502
  903MPD2    C113278   4.146   2.371  12.068 -0.2750  0.0452  0.2173
  903MPD2    C213279   4.024   2.356  12.004 -0.5307 -0.4942 -0.4066
  903MPD2    C313280   3.980   2.465  11.924 -1.2510 -0.2786 -0.2164
  903MPD2    C413281   4.062   2.577  11.893  0.5462  0.5680 -0.1549
  903MPD2    C513282   4.186   2.582  11.964  0.3463  0.1971  0.0688
  903MPD2     H13283   3.951   2.279  12.028  0.1303 -1.6148 -1.9927
  903MPD2    H113284   4.030   2.659  11.830  0.8408  0.9385  0.1825
  903MPD2    H213285   4.316   2.495  12.107  0.0074 -2.3691  0.6533
  903MPD2    H313286   4.251   2.666  11.943  1.1735 -0.1977  1.0500
  903MPD2     N13287   3.844   2.453  11.897 -0.0177 -0.0883  0.7846
  903MPD2    H513288   3.794   2.377  11.943  0.9185 -2.0009 -1.3478
  903MPD2    N113289   4.182   2.278  12.166  0.0095 -0.1851 -0.0169
  903MPD2    H713290   4.251   2.295  12.238  0.5111 -0.9660 -0.3104
  904MPD2     C13291   3.737   1.364  13.906  0.1324 -0.1530  0.0772
  904MPD2    C113292   3.803   1.484  13.927 -0.3652  0.5161  1.0368
  904MPD2    C213293   3.939   1.485  13.955  0.6660  0.7154  0.0320
  904MPD2    C313294   4.003   1.363  13.979 -1.0174  0.4441 -0.0865
  904MPD2    C413295   3.942   1.243  13.954  0.4101 -0.3317 -0.0887
  904MPD2    C513296   3.809   1.250  13.918 -0.7313  0.0775  0.2124
  904MPD2     H13297   3.988   1.579  13.975  0.6536  0.3704  1.7011
  904MPD2    H113298   3.996   1.150  13.949 -0.6680 -0.8754 -1.7465
  904MPD2    H213299   3.631   1.358  13.883 -0.8236  1.9871  3.8884
  904MPD2    H313300   3.759   1.154  13.911 -0.8660  0.2950 -1.7558
  904MPD2     N13301   4.139   1.366  14.027  0.1161  0.2278  0.3742
  904MPD2    H513302   4.171   1.461  14.042 -0.8512  0.1249  3.1579
  904MPD2    N113303   3.731   1.606  13.910 -0.0741 -0.4137 -0.5498
  904MPD2    H713304   3.787   1.688  13.927  1.9708 -2.0989  0.8520
  905MPD2     C13305   3.502   1.656  13.218 -0.8307  0.1673  0.5226
  905MPD2    C113306   3.589   1.697  13.315  0.1533 -0.1176 -0.1085
  905MPD2    C213307   3.711   1.636  13.328 -0.3403 -0.0725  0.1793
  905MPD2    C313308   3.745   1.532  13.242 -0.2271  0.2993  0.3690
  905MPD2    C413309   3.661   1.499  13.137  1.4058 -0.2887 -0.4143
  905MPD2    C513310   3.535   1.556  13.132  0.3149 -0.1036  0.2538
  905MPD2     H13311   3.779   1.667  13.406 -0.2412 -1.6281  0.7141
  905MPD2    H113312   3.683   1.421  13.065  0.4605  0.9999 -2.0896
  905MPD2    H213313   3.399   1.689  13.222 -1.6452 -2.1169 -2.1452
  905MPD2    H313314   3.467   1.525  13.053  0.8317 -0.6533  0.0266
  905MPD2     N13315   3.874   1.471  13.265 -0.3481  0.2674  0.8409
  905MPD2    H513316   3.922   1.521  13.340  2.3710 -0.6400 -0.2816
  905MPD2    N113317   3.549   1.787  13.421 -0.0404 -0.4508 -0.2325
  905MPD2    H713318   3.452   1.817  13.426  0.4908  0.8050  2.5335
  906MPD2     C13319   1.426   2.132  11.376 -0.6541  0.4787  0.3801
  906MPD2    C113320   1.381   2.051  11.279  0.0048 -0.2397  0.6684
  906MPD2    C213321   1.288   1.960  11.310 -0.4376 -0.3637  0.3787
  906MPD2    C313322   1.238   1.943  11.438  0.1926 -0.2955 -0.4736
  906MPD2    C413323   1.286   2.030  11.537 -0.1000  0.3170 -0.0327
  906MPD2    C513324   1.380   2.125  11.505  0.2360  0.1989 -0.4310
  906MPD2     H13325   1.242   1.899  11.232 -2.3288  0.3615  0.9256
  906MPD2    H113326   1.248   2.047  11.637 -1.3552 -0.6942 -0.3405
  906MPD2    H213327   1.504   2.204  11.354  0.0653 -0.6428 -0.7398
  906MPD2    H313328   1.424   2.186  11.583  0.8316  1.5431 -1.8126
  906MPD2     N13329   1.135   1.851  11.473 -0.6955  0.3542 -0.7447
  906MPD2    H513330   1.123   1.854  11.573 -0.8105 -0.1501 -0.7413
  906MPD2    N113331   1.440   2.050  11.146  0.1458  0.2717 -0.7216
  906MPD2    H713332   1.397   1.983  11.083  1.8682 -1.4179 -0.0989
  907MPD2     C13333   0.042   0.710  16.018 -0.1013 -0.9469  0.0915
  907MPD2    C113334   0.061   0.612  15.925  0.2650  0.0992  0.2136
  907MPD2    C213335   0.163   0.521  15.947  0.1373  0.4742  0.6783
  907MPD2    C313336   0.262   0.537  16.049  0.4819  0.0519 -0.8298
  907MPD2    C413337   0.242   0.642  16.139  0.0035 -0.2735  0.2368
  907MPD2    C513338   0.129   0.719  16.123  0.6252  0.2386 -0.5164
  907MPD2     H13339   0.168   0.428  15.892  0.2361  1.6248 -1.2607
  907MPD2    H113340   0.311   0.660  16.221  2.2026  0.5086 -1.7753
  907MPD2    H213341   4.699   0.782  16.008  0.0249 -0.8631 -0.3256
  907MPD2    H313342   0.113   0.793  16.201  3.7557  0.7785 -0.3793
  907MPD2     N13343   0.371   0.443  16.060 -0.1177  0.3943 -0.4340
  907MPD2    H513344   0.366   0.372  15.987 -2.6202 -0.8591  0.9393
  907MPD2    N113345   4.709   0.589  15.819 -0.3862 -0.4508  0.7730
  907MPD2    H713346   4.705   0.496  15.778 -0.0680  0.0187 -0.3078
  908MPD2     C13347   2.968   1.806   9.470 -0.5131  0.2495 -0.9216
  908MPD2    C113348   2.941   1.737   9.588 -0.2252  0.5753  0.1168
  908MPD2    C213349   2.975   1.785   9.715 -0.3255  0.3964 -0.1297
  908MPD2    C313350   3.034   1.909   9.731 -0.3370  0.1664  0.1465
  908MPD2    C413351   3.054   1.979   9.608  0.1286  0.2923 -0.5873
  908MPD2    C513352   3.029   1.923   9.488  0.6401 -0.1793  0.3839
  908MPD2     H13353   2.970   1.723   9.804 -4.7603  1.1531  0.1420
  908MPD2    H113354   3.089   2.081   9.606  0.3898  0.2450  1.0361
  908MPD2    H213355   2.948   1.785   9.366 -3.0925 -1.7637 -0.0309
  908MPD2    H313356   3.052   1.988   9.404  0.9190 -0.9665 -0.1412
  908MPD2     N13357   3.068   1.959   9.857  0.2584  0.5492 -0.3966
  908MPD2    H513358   3.048   1.895   9.933 -0.5372  1.4778  0.1680
  908MPD2    N113359   2.889   1.609   9.564  0.2391 -0.1104 -0.1478
  908MPD2    H713360   2.873   1.592   9.465 -1.5499  0.1195  0.0991
  909MPD2     C13361   3.010   0.116  11.921  0.3338 -0.7278  0.4638
  909MPD2    C113362   2.998   0.234  11.845 -0.0555  0.5370  0.4164
  909MPD2    C213363   2.912   0.322  11.894  0.3626  0.3138  0.3581
  909MPD2    C313364   2.846   0.306  12.022 -0.2214 -0.6437 -0.0705
  909MPD2    C413365   2.868   0.194  12.095 -0.3994 -0.1847  1.1022
  909MPD2    C513366   2.940   0.095  12.034  0.4004 -0.1926  0.0824
  909MPD2     H13367   2.896   0.412  11.835 -0.4854 -0.1334 -0.0897
  909MPD2    H113368   2.819   0.170  12.189  3.2325 -1.1277  2.7599
  909MPD2    H213369   3.080   0.041  11.886  0.5366  0.9108 -2.6376
  909MPD2    H313370   2.962   0.009  12.096 -0.8288  0.9031  2.0691
  909MPD2     N13371   2.748   0.402  12.058 -0.5538 -0.3085 -0.7347
  909MPD2    H513372   2.725   0.473  11.989  2.1127 -0.7255 -2.0150
  909MPD2    N113373   3.058   0.257  11.719 -0.2627  0.2148  0.8390
  909MPD2    H713374   3.045   0.345  11.669 -0.9685  1.8160  3.7987
  910MPD2     C13375   3.970   0.978  16.089  0.0422 -0.2489  0.2730
  910MPD2    C113376   4.080   0.963  16.011 -0.0718 -0.2402 -0.1971
  910MPD2    C213377   4.068   0.991  15.882  0.0779 -0.6801  0.0443
  910MPD2    C313378   3.947   1.042  15.825 -0.2583 -0.5944  0.9046
  910MPD2    C413379   3.832   1.044  15.909  0.6709 -0.5563  0.6011
  910MPD2    C513380   3.852   1.023  16.041  0.1442 -0.0574 -0.0157
  910MPD2     H13381   4.155   0.972  15.819  0.8470  3.0763 -0.0343
  910MPD2    H113382   3.733   1.075  15.879  1.1400  1.2441  0.9293
  910MPD2    H213383   3.974   0.962  16.196 -0.9448 -2.5227 -0.0251
  910MPD2    H313384   3.769   1.029  16.111  1.1162 -0.4778  1.1690
  910MPD2     N13385   3.926   1.066  15.688 -0.2196 -0.1170  0.4953
  910MPD2    H513386   3.830   1.079  15.658 -0.3021 -0.9814  0.4083
  910MPD2    N113387   4.207   0.930  16.066  0.3729 -0.3659  0.1406
  910MPD2    H713388   4.277   0.911  15.995 -0.0604  0.6950 -0.5806
  911MPD2     C13389   1.823   1.970  16.074 -0.8654 -0.0481 -0.4713
  911MPD2    C113390   1.789   1.965  16.209  0.6860  0.4591 -0.0085
  911MPD2    C213391   1.699   2.058  16.252  0.0678 -0.0855 -0.2102
  911MPD2    C313392   1.667   2.162  16.175 -0.4482  0.0036  0.0550
  911MPD2    C413393   1.712   2.177  16.045 -0.8792  0.7697  0.5293
  911MPD2    C513394   1.785   2.075  15.991 -0.7074  0.3005  0.1366
  911MPD2     H13395   1.653   2.062  16.350  0.5266 -2.2585  0.0902
  911MPD2    H113396   1.672   2.256  15.983  1.7222  2.1010  0.5643
  911MPD2    H213397   1.874   1.886  16.027 -1.3172 -0.7361  0.2570
  911MPD2    H313398   1.797   2.070  15.883  0.8243  2.9779  0.1811
  911MPD2     N13399   1.581   2.267  16.214  0.2028 -0.0909  0.6869
  911MPD2    H513400   1.587   2.351  16.157 -1.2767 -1.4278 -1.4506
  911MPD2    N113401   1.830   1.859  16.290  0.2838 -0.2290 -0.2963
  911MPD2    H713402   1.899   1.800  16.245 -0.2612  0.7009 -2.3905
  912MPD2     C13403   1.444   2.106  15.790  1.1225  0.3928 -0.1332
  912MPD2    C113404   1.354   2.106  15.895 -0.4563 -0.3968  0.5585
  912MPD2    C213405   1.317   1.994  15.968 -0.1546 -0.5851  0.0105
  912MPD2    C313406   1.367   1.870  15.924  0.0245 -0.2617  0.1573
  912MPD2    C413407   1.462   1.876  15.828 -0.3348 -0.2164 -0.0308
  912MPD2    C513408   1.499   1.987  15.754 -0.0164 -0.1566 -0.0303
  912MPD2     H13409   1.246   1.995  16.050 -0.1159 -1.3116  0.0566
  912MPD2    H113410   1.510   1.780  15.806  0.6764  0.4781 -0.8680
  912MPD2    H213411   1.478   2.195  15.739 -2.7271  1.5740 -0.6771
  912MPD2    H313412   1.574   1.981  15.676  2.2160  0.3169  2.0932
  912MPD2     N13413   1.321   1.750  15.985  0.2723  0.0930  0.3344
  912MPD2    H513414   1.253   1.756  16.060 -0.7923 -0.8092 -0.5488
  912MPD2    N113415   1.312   2.233  15.935 -0.1339 -0.7293  0.6286
  912MPD2    H713416   1.363   2.312  15.897  2.0514 -1.8598  1.1685
  913MPD2     C13417   2.503   3.516  11.159 -0.5148  0.2774  0.5946
  913MPD2    C113418   2.619   3.590  11.153 -0.2753 -0.0889  0.1946
  913MPD2    C213419   2.656   3.644  11.026  0.1836  0.2619  0.1087
  913MPD2    C313420   2.579   3.625  10.911  0.3933 -0.0475 -0.2082
  913MPD2    C413421   2.466   3.542  10.919  0.6284 -0.1656  0.7551
  913MPD2    C513422   2.430   3.494  11.041  0.3785 -0.0371 -0.3324
  913MPD2     H13423   2.739   3.713  11.026  0.2381  0.1974  0.1876
  913MPD2    H113424   2.412   3.515  10.829 -0.7575  1.4102  1.1128
  913MPD2    H213425   2.466   3.473  11.251  0.9462 -0.6917  0.7264
  913MPD2    H313426   2.354   3.420  11.061  2.1316 -1.7485 -0.0076
  913MPD2     N13427   2.598   3.685  10.787  0.8252  0.3858 -0.0347
  913MPD2    H513428   2.528   3.670  10.714  1.5051  1.0229 -0.8280
  913MPD2    N113429   2.687   3.622  11.271  0.0203 -0.3816 -0.0152
  913MPD2    H713430   2.666   3.574  11.357 -2.0512  3.1003  1.4026
  914MPD2     C13431   0.615   3.553  12.110  0.0049  0.4433  0.6726
  914MPD2    C113432   0.525   3.602  12.194  0.2990 -0.2219 -0.0237
  914MPD2    C213433   0.430   3.522  12.248 -0.7397  0.7463 -0.0221
  914MPD2    C313434   0.447   3.384  12.246  0.0349 -0.7499 -0.0931
  914MPD2    C413435   0.531   3.339  12.147 -0.5457  0.3212  0.1031
  914MPD2    C513436   0.610   3.422  12.079 -0.8305 -0.4826 -0.1336
  914MPD2     H13437   0.360   3.559  12.322 -2.2025 -1.5369 -0.2665
  914MPD2    H113438   0.536   3.231  12.136  0.3357  0.3925 -0.1833
  914MPD2    H213439   0.675   3.625  12.055  0.3562 -1.5746 -1.5807
  914MPD2    H313440   0.671   3.379  12.001  0.5244 -0.1804  0.7651
  914MPD2     N13441   0.378   3.302  12.339 -0.3723 -0.0681 -0.2640
  914MPD2    H513442   0.342   3.352  12.420 -0.5150 -0.4231 -0.1098
  914MPD2    N113443   0.519   3.743  12.198  0.1962  0.7206 -0.4407
  914MPD2    H713444   0.596   3.796  12.158 -0.5061  3.2935  1.6580
  915MPD2     C13445   3.117   3.526  15.940 -0.3868 -0.5034 -0.7452
  915MPD2    C113446   2.996   3.467  15.944 -0.1717 -0.3746  0.3283
  915MPD2    C213447   2.895   3.533  16.005 -0.3724 -0.0088 -0.1489
  915MPD2    C313448   2.911   3.658  16.064  0.0008 -0.4347 -0.4975
  915MPD2    C413449   3.035   3.718  16.056  0.2997  0.2387  0.0497
  915MPD2    C513450   3.137   3.649  15.997 -0.6518 -0.2155 -0.7558
  915MPD2     H13451   2.793   3.495  16.006  0.1667 -1.2830  5.2139
  915MPD2    H113452   3.050   3.811  16.110  1.8504  0.5890 -0.9953
  915MPD2    H213453   3.191   3.480  15.876 -0.5486 -2.4391  0.4613
  915MPD2    H313454   3.232   3.699  15.979  0.3695 -1.9504 -0.1997
  915MPD2     N13455   2.800   3.719  16.127  0.3867  0.3012  0.2658
  915MPD2    H513456   2.717   3.662  16.125  0.0890  0.7225  0.5466
  915MPD2    N113457   2.977   3.341  15.883  0.1402 -0.4990 -0.5652
  915MPD2    H713458   3.053   3.303  15.828  1.4649 -1.7312  2.1647
  916MPD2     C13459   0.921   1.705  15.888 -0.7487  0.5782 -0.0476
  916MPD2    C113460   0.858   1.584  15.902  0.2083  0.0118 -0.0171
  916MPD2    C213461   0.917   1.473  15.844 -0.4990  0.1613 -0.5718
  916MPD2    C313462   1.023   1.488  15.758 -0.1394  0.4039 -0.1590
  916MPD2    C413463   1.075   1.617  15.747 -0.1371  0.0767  0.2295
  916MPD2    C513464   1.036   1.722  15.823 -0.7933  0.4392 -0.5792
  916MPD2     H13465   0.873   1.375  15.857 -1.8592  1.1657  2.5497
  916MPD2    H113466   1.160   1.635  15.683 -0.6148  1.4723 -0.0193
  916MPD2    H213467   0.884   1.793  15.939 -3.6322 -0.6939  0.0878
  916MPD2    H313468   1.084   1.818  15.808  2.0221 -0.7029  1.1720
  916MPD2     N13469   1.077   1.376  15.697  0.0272 -0.4291  0.4602
  916MPD2    H513470   1.021   1.292  15.700 -2.0548  0.9763  2.0052
  916MPD2    N113471   0.739   1.581  15.984 -0.0473  0.2331 -0.1131
  916MPD2    H713472   0.702   1.670  16.016  0.7070  1.3250 -2.3184
  917MPD2     C13473   2.236   3.896  12.158  0.9718 -0.3831 -0.2574
  917MPD2    C113474   2.122   3.880  12.079 -0.2992  0.1702  0.0432
  917MPD2    C213475   2.113   3.953  11.962  0.6188 -0.5718 -0.1534
  917MPD2    C313476   2.214   4.033  11.920 -0.1488 -1.0584 -0.1591
  917MPD2    C413477   2.323   4.040  11.998  0.2442 -0.8345  0.3390
  917MPD2    C513478   2.341   3.964  12.108 -0.6144  0.3997  0.3894
  917MPD2     H13479   2.021   3.941  11.905 -0.7338  2.4991  1.3569
  917MPD2    H113480   2.407   4.099  11.963 -0.7801  0.0365 -0.6540
  917MPD2    H213481   2.251   3.833  12.245 -1.3992  0.9870  1.1563
  917MPD2    H313482   2.435   3.957  12.163  0.8442  0.1795 -2.1263
  917MPD2     N13483   2.201   4.119  11.806 -0.0020 -0.1105  0.7106
  917MPD2    H513484   2.260   4.202  11.807  0.9279 -0.7936  2.2861
  917MPD2    N113485   2.014   3.801  12.132 -0.0689  0.6587  0.0807
  917MPD2    H713486   2.015   3.773  12.230 -2.8281  0.8308  0.1539
  918MPD2     C13487   1.702   4.418  12.582  0.7812 -0.4414 -0.3874
  918MPD2    C113488   1.818   4.363  12.524  0.4043 -0.1362  0.1153
  918MPD2    C213489   1.812   4.238  12.458 -0.8963  0.0583  0.3399
  918MPD2    C313490   1.693   4.170  12.452 -0.1709  0.2420  0.0560
  918MPD2    C413491   1.577   4.232  12.489 -0.0336 -0.4544 -0.1853
  918MPD2    C513492   1.583   4.352  12.563  0.2094 -0.3314  0.3094
  918MPD2     H13493   1.896   4.180  12.421  0.4020  2.4964 -0.4985
  918MPD2    H113494   1.476   4.204  12.463 -0.8247 -1.2843  3.7604
  918MPD2    H213495   1.699   4.512  12.636  1.0012 -2.2529  2.7774
  918MPD2    H313496   1.488   4.394  12.592  0.0961  0.1595 -0.7885
  918MPD2     N13497   1.701   4.040  12.403 -0.0636 -0.2609  0.5245
  918MPD2    H513498   1.798   4.014  12.393 -0.0270  0.8005 -1.8354
  918MPD2    N113499   1.944   4.413  12.543 -0.2862 -0.0378 -0.3509
  918MPD2    H713500   2.016   4.345  12.524  0.0040  0.3904 -0.7641
  919MPD2     C13501   1.885   2.618  12.062  0.4318  0.6484  0.4224
  919MPD2    C113502   1.999   2.676  12.003  0.2331 -0.3961 -0.5506
  919MPD2    C213503   1.998   2.800  11.945 -0.0692  0.0601 -0.0167
  919MPD2    C313504   1.879   2.870  11.925 -0.4614 -0.6582 -0.0070
  919MPD2    C413505   1.767   2.815  11.990  0.1654  0.1082  0.5032
  919MPD2    C513506   1.770   2.698  12.065  0.3356  0.3991  0.4206
  919MPD2     H13507   2.092   2.833  11.902  0.1914 -1.4801 -0.6361
  919MPD2    H113508   1.667   2.856  11.980  0.8136  2.3698  3.2372
  919MPD2    H213509   1.886   2.519  12.106 -2.1901  0.0587 -0.8449
  919MPD2    H313510   1.678   2.646  12.086 -0.3815  1.5525  0.1366
  919MPD2     N13511   1.871   2.988  11.843  0.0365  0.5401 -0.4320
  919MPD2    H513512   1.776   3.011  11.817 -0.7427  0.2009  2.1462
  919MPD2    N113513   2.123   2.602  11.996  0.0545  0.1172 -0.6722
  919MPD2    H713514   2.194   2.643  11.936  0.4634  1.0882  0.4680
  920MPD2     C13515   2.337   3.105  10.894  0.0692 -0.2965  0.3154
  920MPD2    C113516   2.203   3.127  10.890 -0.1014 -0.0569  0.5113
  920MPD2    C213517   2.135   3.138  11.014 -0.1015  0.0953 -0.0613
  920MPD2    C313518   2.187   3.134  11.140 -0.2240 -0.6383  0.4624
  920MPD2    C413519   2.321   3.116  11.146 -0.6419  0.2620 -0.8577
  920MPD2    C513520   2.388   3.094  11.022 -0.6885 -1.0668  0.1653
  920MPD2     H13521   2.029   3.154  10.996  0.3075  3.3619  0.3230
  920MPD2    H113522   2.373   3.112  11.241 -0.1348  1.0348 -1.1070
  920MPD2    H213523   2.399   3.106  10.805 -1.0194  0.1014 -0.4431
  920MPD2    H313524   2.492   3.065  11.021  0.2117  2.1704  0.3214
  920MPD2     N13525   2.110   3.156  11.256 -0.4173  0.2691  0.1624
  920MPD2    H513526   2.009   3.164  11.243 -0.3352 -0.6302 -0.9597
  920MPD2    N113527   2.131   3.141  10.767  0.1465  0.2835  0.0145
  920MPD2    H713528   2.034   3.170  10.782  0.3206  2.3776 -2.8917
  921MPD2     C13529   2.690   1.611  16.792  0.0685 -0.3967 -0.4267
  921MPD2    C113530   2.640   1.725  16.722 -0.1493 -0.2254 -0.4890
  921MPD2    C213531   2.504   1.726  16.694 -0.9441  0.1293  0.1093
  921MPD2    C313532   2.416   1.632  16.740 -0.1620  0.4495  0.0926
  921MPD2    C413533   2.470   1.523  16.799 -0.0487 -0.2651 -0.1003
  921MPD2    C513534   2.605   1.511  16.823 -0.9229  0.1658  0.4907
  921MPD2     H13535   2.467   1.809  16.635 -0.7899  1.1836  1.4862
  921MPD2    H113536   2.410   1.448  16.851 -3.1096  0.6582 -2.3145
  921MPD2    H213537   2.792   1.585  16.817 -0.0928 -0.8954 -0.2782
  921MPD2    H313538   2.638   1.426  16.883  1.5358  0.9907  0.2889
  921MPD2     N13539   2.278   1.626  16.703  0.1750  0.5538 -0.4929
  921MPD2    H513540   2.230   1.542  16.732  0.9629  0.0355 -0.7010
  921MPD2    N113541   2.735   1.822  16.682 -0.4116  0.4456 -0.2968
  921MPD2    H713542   2.829   1.792  16.707 -0.3819  1.2852  0.5798
  922MPD2     C13543   3.566   0.189  16.993  0.0082  0.0849  0.1704
  922MPD2    C113544   3.551   0.229  17.128  0.3322  0.4345  0.6530
  922MPD2    C213545   3.537   0.130  17.224 -0.4906 -0.4774 -0.1817
  922MPD2    C313546   3.526   4.732  17.189 -1.0053  0.3567 -0.3643
  922MPD2    C413547   3.545   4.696  17.055 -0.3990  0.0612  0.2382
  922MPD2    C513548   3.556   0.054  16.955  0.6878 -0.0666 -0.1821
  922MPD2     H13549   3.519   0.160  17.327 -1.7511 -0.5605 -0.3877
  922MPD2    H113550   3.546   4.590  17.033 -1.0520  0.2117 -0.5063
  922MPD2    H213551   3.571   0.259  16.911 -1.0976 -0.7734 -0.6405
  922MPD2    H313552   3.558   0.023  16.851  2.4069  1.1297 -0.5104
  922MPD2     N13553   3.503   4.644  17.290 -0.2490 -0.2789  0.5644
  922MPD2    H513554   3.497   4.667  17.389 -0.7983  0.3782  0.3801
  922MPD2    N113555   3.558   0.354  17.175 -0.2144  0.1536  0.1679
  922MPD2    H713556   3.550   0.354  17.277 -0.3462  2.4656  0.1596
  923MPD2     C13557   0.128   3.024   9.204  0.0935 -0.0654  0.3855
  923MPD2    C113558   0.153   2.891   9.168 -0.0344 -0.2194 -0.0459
  923MPD2    C213559   0.280   2.853   9.126  0.6759 -0.0584  0.1439
  923MPD2    C313560   0.388   2.938   9.134 -0.0244  0.1355  0.1681
  923MPD2    C413561   0.356   3.068   9.170 -0.2746 -0.7049 -0.3910
  923MPD2    C513562   0.231   3.110   9.209  0.8717  0.3500  0.0836
  923MPD2     H13563   0.309   2.751   9.103  2.2995 -0.2591  3.0338
  923MPD2    H113564   0.431   3.145   9.176 -1.1305  0.1380 -0.5921
  923MPD2    H213565   0.025   3.051   9.225  0.4853  1.8214 -0.0973
  923MPD2    H313566   0.216   3.214   9.237 -1.6760  0.4197 -1.4502
  923MPD2     N13567   0.519   2.901   9.112 -0.6908  0.0332  0.6121
  923MPD2    H513568   0.588   2.969   9.142 -1.1850  0.2625  1.2487
  923MPD2    N113569   0.046   2.803   9.184 -0.2532  0.4627 -0.1796
  923MPD2    H713570   4.694   2.853   9.177 -0.7093 -0.0434  1.8944
  924MPD2     C13571   0.315   4.334  15.861 -0.7276  0.7376 -0.3232
  924MPD2    C113572   0.320   4.370  15.992  0.3491 -0.0712 -0.0352
  924MPD2    C213573   0.392   4.477  16.035 -0.0835 -0.3426  0.0727
  924MPD2    C313574   0.451   4.554  15.944 -0.0828 -0.1808 -1.1229
  924MPD2    C413575   0.436   4.531  15.805 -0.7450 -0.6532  0.0277
  924MPD2    C513576   0.372   4.418  15.769 -0.5537  0.6248 -0.1619
  924MPD2     H13577   0.392   4.497  16.141  0.6253 -0.6626  0.1306
  924MPD2    H113578   0.474   4.600  15.730 -2.1358  0.7437  0.5977
  924MPD2    H213579   0.289   4.232  15.835  1.9861  0.4644 -1.9850
  924MPD2    H313580   0.363   4.394  15.664 -0.0298  0.8409 -0.2603
  924MPD2     N13581   0.505   4.667  16.000  0.2213  0.6947  0.2414
  924MPD2    H513582   0.487   4.688  16.098  0.2963 -0.2591  0.4616
  924MPD2    N113583   0.247   4.300  16.092  0.1823  0.3454  0.1974
  924MPD2    H713584   0.259   4.348  16.180 -1.5872  2.1793 -0.5400
  925MPD2     C13585   3.775   3.083  14.908 -0.2744 -0.2876 -0.6756
  925MPD2    C113586   3.744   2.965  14.845 -0.7993  0.2588  0.8817
  925MPD2    C213587   3.711   2.853  14.916 -0.3078 -0.3181  0.6455
  925MPD2    C313588   3.706   2.861  15.056 -0.1008  0.1433  0.4678
  925MPD2    C413589   3.716   2.987  15.113 -0.1705 -0.0194 -0.4554
  925MPD2    C513590   3.756   3.093  15.039 -0.8531  0.3941 -0.1729
  925MPD2     H13591   3.685   2.763  14.862 -1.3534  1.6357 -2.0965
  925MPD2    H113592   3.698   3.006  15.219 -0.8859  0.0501 -0.5852
  925MPD2    H213593   3.811   3.166  14.848  0.3044  0.1457  0.2807
  925MPD2    H313594   3.775   3.188  15.087  1.2647  0.6828 -1.6050
  925MPD2     N13595   3.668   2.754  15.132  0.2223 -0.4081  0.0510
  925MPD2    H513596   3.641   2.774  15.228  1.0309  1.2769 -0.0775
  925MPD2    N113597   3.739   2.957  14.705 -0.3708 -0.2613  0.2273
  925MPD2    H713598   3.710   2.870  14.662  0.8999 -0.3832 -0.3933
  926MPD2     C13599   2.229   0.737  13.717 -0.6697  0.1816  0.2813
  926MPD2    C113600   2.208   0.820  13.609 -0.8752 -0.8596 -0.3853
  926MPD2    C213601   2.317   0.866  13.534  0.1762  0.3960 -0.1860
  926MPD2    C313602   2.443   0.834  13.566  0.6180  0.0573 -0.0998
  926MPD2    C413603   2.464   0.756  13.669  0.0400 -0.4744  0.2994
  926MPD2    C513604   2.356   0.703  13.739  0.5117  0.2875  0.5246
  926MPD2     H13605   2.298   0.930  13.449  1.6194 -0.7623 -1.3862
  926MPD2    H113606   2.569   0.735  13.684  0.1040 -0.0104  0.4970
  926MPD2    H213607   2.158   0.688  13.783 -0.3864  0.6504  0.9427
  926MPD2    H313608   2.380   0.628  13.814 -2.0512 -2.6473 -1.5422
  926MPD2     N13609   2.556   0.895  13.511 -0.8319 -0.3054  0.0730
  926MPD2    H513610   2.646   0.876  13.553 -1.3229 -2.5889  0.0564
  926MPD2    N113611   2.088   0.876  13.565 -0.0660  0.7193 -0.1458
  926MPD2    H713612   2.078   0.902  13.467  0.2218  0.8627 -0.1389
  927MPD2     C13613   2.960   3.439  17.529 -0.0608 -0.1158 -0.2000
  927MPD2    C113614   2.830   3.414  17.484 -0.2920  0.0017 -0.0181
  927MPD2    C213615   2.790   3.448  17.358  0.7069  0.5016 -0.2410
  927MPD2    C313616   2.874   3.536  17.281  0.5865  0.1344  0.2487
  927MPD2    C413617   2.999   3.565  17.323 -0.5439  0.1971 -0.1309
  927MPD2    C513618   3.046   3.506  17.445 -0.0012 -0.2828 -0.5244
  927MPD2     H13619   2.695   3.423  17.313  1.0103  0.7046 -0.9906
  927MPD2    H113620   3.068   3.633  17.275  1.0377 -0.0089  1.8533
  927MPD2    H213621   2.997   3.419  17.629 -0.5349  0.2443  0.0476
  927MPD2    H313622   3.146   3.527  17.480 -0.4167 -0.9594  1.0714
  927MPD2     N13623   2.810   3.585  17.163  0.2136 -0.1354  1.0101
  927MPD2    H513624   2.712   3.565  17.149  0.3285 -0.2134  0.3296
  927MPD2    N113625   2.733   3.375  17.580  0.1715  0.3537  0.4017
  927MPD2    H713626   2.755   3.387  17.679 -0.6334 -0.7182  0.7092
  928MPD2     C13627   0.067   1.818   0.800  0.4030 -0.9221 -0.7370
  928MPD2    C113628   0.202   1.790   0.834 -0.0454  0.0174 -0.3954
  928MPD2    C213629   0.306   1.839   0.750 -0.1658  0.6257 -0.0157
  928MPD2    C313630   0.273   1.928   0.651 -0.0388  0.2533 -0.6433
  928MPD2    C413631   0.144   1.973   0.639  0.5757  0.2539 -0.3085
  928MPD2    C513632   0.042   1.915   0.707  0.6272  0.9724 -0.1227
  928MPD2     H13633   0.404   1.808   0.783 -0.2268 -0.5688 -0.9729
  928MPD2    H113634   0.119   2.044   0.561  0.9972 -0.2622 -0.9076
  928MPD2    H213635   4.720   1.780   0.857  0.4705 -0.0074 -0.0402
  928MPD2    H313636   4.678   1.943   0.676  0.3763  1.6247  1.2868
  928MPD2     N13637   0.371   1.973   0.559  0.2930 -0.3171  0.1970
  928MPD2    H513638   0.354   2.057   0.504 -1.5285  0.0246  1.2896
  928MPD2    N113639   0.231   1.695   0.939  0.0295  0.7859  0.2246
  928MPD2    H713640   0.328   1.689   0.967 -0.3013 -0.7227  1.0488
  929MPD2     C13641   0.973   2.116  10.379 -0.4221  0.5360  0.1613
  929MPD2    C113642   0.860   2.046  10.418 -0.2707  0.3788  0.1183
  929MPD2    C213643   0.744   2.072  10.344  0.9859  0.4605  0.4232
  929MPD2    C313644   0.754   2.141  10.222  0.0804  0.3880  0.0084
  929MPD2    C413645   0.867   2.216  10.190 -0.2736 -0.4659  0.0991
  929MPD2    C513646   0.977   2.207  10.273 -0.0288 -0.2959 -0.7347
  929MPD2     H13647   0.651   2.023  10.372  3.2962 -2.4835  2.8328
  929MPD2    H113648   0.872   2.265  10.094  0.5230  0.6682  0.7166
  929MPD2    H213649   1.062   2.120  10.441 -0.3995 -2.4143  0.3212
  929MPD2    H313650   1.069   2.263  10.258  0.0717  0.2347  1.9762
  929MPD2     N13651   0.656   2.137  10.121 -0.1338  0.3232 -0.2502
  929MPD2    H513652   0.662   2.198  10.040 -0.7457  1.2161  0.3773
  929MPD2    N113653   0.868   1.990  10.544  0.3562 -0.2934 -0.3261
  929MPD2    H713654   0.956   1.999  10.593 -1.5972 -1.2188  3.3505
  930MPD2     C13655   2.929   3.547  14.396  0.1681  0.2642  0.4684
  930MPD2    C113656   2.820   3.629  14.373  1.1055  1.2486  0.1289
  930MPD2    C213657   2.747   3.616  14.260 -0.0995 -0.2531 -0.4714
  930MPD2    C313658   2.772   3.518  14.165 -0.2671  0.3764  0.6802
  930MPD2    C413659   2.865   3.423  14.199  0.1496  0.1972 -0.2267
  930MPD2    C513660   2.940   3.437  14.307 -0.0930  0.2908 -0.3520
  930MPD2     H13661   2.674   3.694  14.246  0.1950 -0.0400 -0.8438
  930MPD2    H113662   2.884   3.342  14.130 -1.1372 -0.7253  0.5134
  930MPD2    H213663   2.992   3.568  14.482 -0.9095  1.3098  1.0043
  930MPD2    H313664   3.020   3.366  14.323 -0.1749  0.2367 -0.1939
  930MPD2     N13665   2.711   3.507  14.037  0.0580  0.2396  0.5292
  930MPD2    H513666   2.743   3.440  13.969 -0.8777  1.9165 -1.5647
  930MPD2    N113667   2.797   3.734  14.469 -0.1983 -0.0109  0.0876
  930MPD2    H713668   2.861   3.754  14.545 -0.0994 -1.3778  0.3661
  931MPD2     C13669   2.364   2.952   0.129 -0.6316  0.3886 -0.1332
  931MPD2    C113670   2.371   3.050   0.211 -0.0832 -0.0159 -0.3582
  931MPD2    C213671   2.342   3.023   0.346 -0.1677  0.2523 -0.0156
  931MPD2    C313672   2.303   2.900   0.383 -0.2917  0.3453  0.2899
  931MPD2    C413673   2.291   2.800   0.294  0.0091 -0.4553  0.3333
  931MPD2    C513674   2.323   2.828   0.164 -0.2121  0.4327  0.3669
  931MPD2     H13675   2.368   3.089   0.427 -3.5074  0.1536  1.1557
  931MPD2    H113676   2.251   2.701   0.313  0.5176 -0.2787  2.3477
  931MPD2    H213677   2.390   2.951   0.023 -3.1021 -1.5865 -0.7234
  931MPD2    H313678   2.298   2.750   0.093 -0.6831  0.2778  0.7014
  931MPD2     N13679   2.265   2.873   0.523 -0.4322 -0.2799 -0.5190
  931MPD2    H513680   2.227   2.787   0.560  3.8071 -1.9740 -0.2010
  931MPD2    N113681   2.417   3.175   0.168  0.5540  0.7866 -0.1649
  931MPD2    H713682   2.427   3.182   0.067 -0.5529 -1.0745 -0.3968
  932MPD2     C13683   4.138   3.080  11.602 -0.1610 -0.3810 -0.1105
  932MPD2    C113684   4.234   2.990  11.563  0.5723 -0.3272 -0.7485
  932MPD2    C213685   4.191   2.856  11.546 -0.3154  0.3666  1.0204
  932MPD2    C313686   4.063   2.818  11.584  0.3697 -0.3182 -0.0220
  932MPD2    C413687   3.972   2.914  11.627 -0.3387  0.4478 -0.5997
  932MPD2    C513688   4.014   3.039  11.637  0.5465 -0.7330 -0.4134
  932MPD2     H13689   4.269   2.784  11.528 -1.5714 -0.4137 -1.3835
  932MPD2    H113690   3.867   2.895  11.644 -0.1955 -0.3239 -0.5824
  932MPD2    H213691   4.157   3.186  11.617 -0.9982 -0.4264  1.3090
  932MPD2    H313692   3.940   3.114  11.660 -0.2371 -0.8816 -2.3844
  932MPD2     N13693   4.015   2.686  11.569 -0.1569  0.5196 -0.0473
  932MPD2    H513694   3.916   2.674  11.592 -0.4818 -2.6811 -3.1334
  932MPD2    N113695   4.365   3.028  11.515 -0.1230 -0.2739 -0.0091
  932MPD2    H713696   4.408   2.959  11.454  0.3570  0.5759 -0.6315
  933MPD2     C13697   0.392   0.861   1.266 -0.2787 -0.2865  0.2105
  933MPD2    C113698   0.308   0.922   1.176 -0.7708  0.0876 -0.6085
  933MPD2    C213699   0.231   0.843   1.089  0.0547 -0.2816  1.1504
  933MPD2    C313700   0.228   0.708   1.107 -0.0874  0.3139 -0.0398
  933MPD2    C413701   0.305   0.650   1.209  0.0604 -0.2660 -0.3732
  933MPD2    C513702   0.390   0.729   1.280 -0.1214  0.1954  0.5158
  933MPD2     H13703   0.174   0.888   1.008 -0.0929 -0.9991  0.8581
  933MPD2    H113704   0.313   0.543   1.221  0.6322 -0.1145  0.5955
  933MPD2    H213705   0.455   0.916   1.336  0.1923  0.9221 -1.1582
  933MPD2    H313706   0.463   0.687   1.348  0.2249 -1.1293 -0.6817
  933MPD2     N13707   0.134   0.635   1.024  0.0383 -0.6149 -0.3857
  933MPD2    H513708   0.075   0.680   0.955  0.2853  1.0041  0.4703
  933MPD2    N113709   0.311   1.065   1.169  0.3953 -0.4706 -0.1017
  933MPD2    H713710   0.386   1.111   1.220  0.4435 -1.3609  0.6262
  934MPD2     C13711   1.774   0.067   1.570  0.1914  0.3250 -0.2114
  934MPD2    C113712   1.826   4.697   1.490  0.0668  0.1155  0.0288
  934MPD2    C213713   1.738   4.609   1.429  0.1535  0.0187  0.5826
  934MPD2    C313714   1.600   4.622   1.442 -0.4667 -0.0307 -0.4195
  934MPD2    C413715   1.550   4.724   1.528 -0.3889  0.3386 -0.0857
  934MPD2    C513716   1.636   0.082   1.579  0.2487 -0.0674 -0.2874
  934MPD2     H13717   1.772   4.527   1.366  2.8937  0.7907  1.0647
  934MPD2    H113718   1.444   0.010   1.534 -1.1095 -3.4311  1.6538
  934MPD2    H213719   1.828   0.150   1.615 -0.5349 -0.9824  3.1225
  934MPD2    H313720   1.581   0.160   1.631  0.8581  1.0456 -1.3275
  934MPD2     N13721   1.509   4.538   1.378 -0.5089  0.4663  0.1788
  934MPD2    H513722   1.414   4.545   1.411 -0.2367  0.8320  0.8925
  934MPD2    N113723   1.968   4.663   1.487 -0.1811 -0.4476 -0.4071
  934MPD2    H713724   1.996   4.598   1.414 -0.8526 -0.6133 -0.5207
  935MPD2     C13725   1.545   3.612   1.003  0.4903  0.0790 -0.0314
  935MPD2    C113726   1.479   3.675   0.901 -0.1493 -0.0538 -0.4006
  935MPD2    C213727   1.421   3.801   0.930  1.0945 -0.4242 -0.6323
  935MPD2    C313728   1.439   3.863   1.056 -0.5955 -0.1553 -0.0548
  935MPD2    C413729   1.509   3.790   1.146  0.5332  0.2309  0.1735
  935MPD2    C513730   1.555   3.666   1.121  0.5627  0.0608 -0.3333
  935MPD2     H13731   1.379   3.856   0.847  2.5026  1.2555 -0.2432
  935MPD2    H113732   1.525   3.822   1.248 -0.8917 -2.8101  1.3293
  935MPD2    H213733   1.584   3.513   0.985  0.4803 -0.1531  1.1811
  935MPD2    H313734   1.600   3.610   1.202 -0.6351 -0.8127 -0.2722
  935MPD2     N13735   1.415   4.001   1.085  0.3562  0.3098  0.2549
  935MPD2    H513736   1.438   4.029   1.180  0.6390 -0.5368  0.4432
  935MPD2    N113737   1.461   3.621   0.772 -0.5970  0.3308  0.2215
  935MPD2    H713738   1.392   3.659   0.709  0.1322  0.9746 -0.1954
  936MPD2     C13739   4.110   0.802  12.589  0.6265  0.1414 -0.4324
  936MPD2    C113740   4.169   0.820  12.711 -0.1464  0.2030  0.1968
  936MPD2    C213741   4.254   0.928  12.728  0.3734  0.9796 -0.2092
  936MPD2    C313742   4.284   1.007  12.618 -0.3459 -0.2196 -0.3154
  936MPD2    C413743   4.214   0.991  12.500 -0.9355 -0.0166 -0.4696
  936MPD2    C513744   4.130   0.887  12.491  0.4753 -0.4556  0.0966
  936MPD2     H13745   4.304   0.946  12.823 -1.4485 -1.8493  1.3088
  936MPD2    H113746   4.221   1.072  12.429  1.7772  0.6608  0.6014
  936MPD2    H213747   4.042   0.720  12.566 -1.0854  0.7583  2.4955
  936MPD2    H313748   4.081   0.863  12.397 -1.1001 -0.4875  0.9270
  936MPD2     N13749   4.380   1.098  12.645  0.4032  0.5683 -1.0654
  936MPD2    H513750   4.419   1.087  12.738 -0.0529  1.5084 -0.7569
  936MPD2    N113751   4.146   0.744  12.831  0.4379  0.7691  0.5478
  936MPD2    H713752   4.211   0.768  12.906  0.9818 -2.2991  1.0387
  937MPD2     C13753   2.361   2.684  11.488  0.3689 -0.2200  0.0146
  937MPD2    C113754   2.447   2.580  11.522  0.1176 -0.1562 -0.1474
  937MPD2    C213755   2.565   2.563  11.459  0.2457  0.4598 -0.5839
  937MPD2    C313756   2.596   2.641  11.345 -0.4256  0.0663 -0.0394
  937MPD2    C413757   2.507   2.742  11.303  0.0595 -0.5769  0.5991
  937MPD2    C513758   2.390   2.765  11.376 -0.9689 -0.5024  0.0867
  937MPD2     H13759   2.640   2.490  11.486 -0.7568  0.5777  2.5025
  937MPD2    H113760   2.513   2.803  11.214  2.5527  1.6491  2.3020
  937MPD2    H213761   2.269   2.697  11.543  1.6860  0.2922  2.0676
  937MPD2    H313762   2.328   2.851  11.350 -0.6372  0.2641  1.8025
  937MPD2     N13763   2.706   2.622  11.272 -0.1737  0.1200 -0.3637
  937MPD2    H513764   2.771   2.553  11.308 -0.0229  0.5902  0.2564
  937MPD2    N113765   2.416   2.527  11.651 -0.4202  0.3653  0.2600
  937MPD2    H713766   2.340   2.580  11.690  0.4960  1.4481  0.5597
  938MPD2     C13767   0.723   3.955   0.455 -0.3124  0.0184 -0.0178
  938MPD2    C113768   0.767   4.046   0.552  0.1547 -0.3141  0.4007
  938MPD2    C213769   0.751   4.004   0.683 -0.0315  0.4963 -0.2982
  938MPD2    C313770   0.700   3.874   0.720  1.0523 -0.6238 -0.2501
  938MPD2    C413771   0.656   3.801   0.620 -0.0445 -0.9726  0.3072
  938MPD2    C513772   0.660   3.841   0.485 -0.2241  0.2522 -0.8359
  938MPD2     H13773   0.765   4.084   0.754 -2.6604  0.9434 -0.2723
  938MPD2    H113774   0.608   3.706   0.642 -1.6500  0.1039  1.3665
  938MPD2    H213775   0.724   3.983   0.350 -1.8420 -1.5440 -0.4522
  938MPD2    H313776   0.616   3.777   0.410 -0.6727 -0.2829 -0.1097
  938MPD2     N13777   0.679   3.834   0.858 -0.0288 -0.5519 -0.3720
  938MPD2    H513778   0.657   3.739   0.885 -0.9120  0.1297  1.3076
  938MPD2    N113779   0.818   4.176   0.526  0.3290 -0.7372  0.3363
  938MPD2    H713780   0.856   4.231   0.603  0.2162 -2.0790  1.3463
  939MPD2     C13781   2.386   0.542   0.869  0.6354  0.1723  0.1919
  939MPD2    C113782   2.270   0.475   0.906  0.1570 -0.3635 -0.5334
  939MPD2    C213783   2.231   0.366   0.827  0.3719 -0.0061 -0.4308
  939MPD2    C313784   2.295   0.327   0.714  0.2519 -0.0520  0.5017
  939MPD2    C413785   2.399   0.401   0.672  0.0136 -0.1477  0.1480
  939MPD2    C513786   2.456   0.494   0.759 -0.0631  0.4519  0.0697
  939MPD2     H13787   2.143   0.315   0.861  1.5162 -2.3564 -1.0280
  939MPD2    H113788   2.455   0.368   0.584  3.0311  0.6550  1.7775
  939MPD2    H213789   2.446   0.613   0.925 -1.5540 -0.0918  2.8730
  939MPD2    H313790   2.558   0.526   0.742 -0.2143  1.2871  0.7608
  939MPD2     N13791   2.236   0.226   0.641 -0.4579 -1.0365  0.4200
  939MPD2    H513792   2.153   0.181   0.677 -0.3933 -0.8239  0.8386
  939MPD2    N113793   2.199   0.524   1.015  0.0830 -0.3497 -0.0700
  939MPD2    H713794   2.236   0.608   1.058  1.4466  0.0195 -1.9945
  940MPD2     C13795   0.186   1.285  13.619 -0.2848  0.1272  0.5446
  940MPD2    C113796   0.250   1.173  13.644 -0.4381  0.7681  0.3136
  940MPD2    C213797   0.332   1.123  13.551 -0.3247 -0.1218  0.1999
  940MPD2    C313798   0.357   1.191  13.437  0.2712 -0.6100  0.2786
  940MPD2    C413799   0.297   1.310  13.414  0.0866  0.2892 -0.6834
  940MPD2    C513800   0.213   1.360  13.508 -0.4249 -0.6628 -0.8105
  940MPD2     H13801   0.378   1.028  13.576  0.9159  0.0074 -1.6037
  940MPD2    H113802   0.308   1.361  13.319  1.7561  1.1907  0.0065
  940MPD2    H213803   0.114   1.327  13.689  1.6526 -0.5134  2.9076
  940MPD2    H313804   0.155   1.451  13.499 -3.2042 -2.2046  1.3337
  940MPD2     N13805   0.424   1.140  13.320 -0.1965 -0.5284 -0.5642
  940MPD2    H513806   0.421   1.199  13.238  0.8983 -0.9650 -0.9167
  940MPD2    N113807   0.229   1.102  13.760  0.2791 -0.5910  0.1863
  940MPD2    H713808   0.292   1.025  13.779  0.4330  0.0221  2.1281
  941MPD2     C13809   4.520   0.628   9.459 -0.3740 -0.2184  0.1860
  941MPD2    C113810   4.562   0.539   9.558  0.2483  0.2757  0.1473
  941MPD2    C213811   4.474   0.442   9.603  0.5227  0.7690 -0.5877
  941MPD2    C313812   4.350   0.417   9.548  1.0921 -1.2451 -0.4987
  941MPD2    C413813   4.311   0.505   9.448  0.1543  0.5714  0.2379
  941MPD2    C513814   4.395   0.608   9.412  0.6124 -0.4395 -0.0335
  941MPD2     H13815   4.508   0.380   9.685 -3.0800 -0.0924  0.2845
  941MPD2    H113816   4.214   0.495   9.401  1.1162 -2.6171 -1.0654
  941MPD2    H213817   4.576   0.706   9.409 -0.8374  0.0680  0.1058
  941MPD2    H313818   4.359   0.671   9.332  0.7656 -0.3857 -0.0610
  941MPD2     N13819   4.265   0.316   9.580 -0.5585  0.2371  0.2317
  941MPD2    H513820   4.174   0.312   9.535 -0.0896 -0.8983 -0.5977
  941MPD2    N113821   4.695   0.549   9.616  0.5309 -0.2575 -0.5198
  941MPD2    H713822   4.726   0.472   9.674 -0.7043 -0.7638 -0.5390
  942MPD2     C13823   4.380   2.250   9.453  0.3485  0.4652  0.1807
  942MPD2    C113824   4.500   2.206   9.401  1.0231  0.5446 -0.0762
  942MPD2    C213825   4.614   2.281   9.429 -0.0212 -0.1352 -0.1657
  942MPD2    C313826   4.607   2.378   9.528  0.7014 -0.0901  0.3393
  942MPD2    C413827   4.488   2.416   9.576 -0.1424 -0.0882 -0.2216
  942MPD2    C513828   4.375   2.353   9.539  0.0027  0.4784 -0.2319
  942MPD2     H13829   4.714   2.256   9.396  0.4790 -2.4857  3.1213
  942MPD2    H113830   4.490   2.495   9.650 -4.1372  0.5450 -0.8020
  942MPD2    H213831   4.290   2.193   9.435  1.2100 -1.0554  0.7516
  942MPD2    H313832   4.278   2.379   9.579 -0.1910  0.5494 -0.7530
  942MPD2     N13833   4.719   2.450   9.575 -0.2061 -0.1976  0.2321
  942MPD2    H513834   4.715   2.528   9.638  2.5003  1.4491 -1.6080
  942MPD2    N113835   4.517   2.096   9.315  0.1245 -0.4187 -0.2958
  942MPD2    H713836   4.610   2.078   9.279 -0.1162 -1.2194 -0.5134
  943MPD2     C13837   3.382   0.633  10.249  0.1468 -0.0184 -0.1215
  943MPD2    C113838   3.310   0.548  10.339 -0.9379 -0.8346 -0.0054
  943MPD2    C213839   3.272   0.608  10.460  0.2200  0.8499  0.5419
  943MPD2    C313840   3.312   0.736  10.491 -0.0777  0.3199  0.2938
  943MPD2    C413841   3.390   0.812  10.403  0.2966 -0.1988 -0.3673
  943MPD2    C513842   3.426   0.758  10.281 -0.2647 -0.0600 -0.1169
  943MPD2     H13843   3.203   0.562  10.529 -0.1180  1.1532  0.4050
  943MPD2    H113844   3.404   0.918  10.425  0.7110 -0.7053  1.8614
  943MPD2    H213845   3.417   0.596  10.153 -0.2965 -2.6751  0.7414
  943MPD2    H313846   3.474   0.825  10.211 -0.0344  0.1728  0.2690
  943MPD2     N13847   3.281   0.794  10.621 -0.6115 -0.5604  0.0014
  943MPD2    H513848   3.287   0.895  10.630  0.8442 -0.8189  1.9494
  943MPD2    N113849   3.287   0.419  10.293  0.4631 -0.1893 -0.3461
  943MPD2    H713850   3.323   0.401  10.200 -0.9795  0.9571 -1.1216
  944MPD2     C13851   2.696   4.004  11.108  0.6120 -0.6009  0.3359
  944MPD2    C113852   2.821   4.069  11.103  0.5054  0.5026 -1.2328
  944MPD2    C213853   2.844   4.169  11.198 -0.2324 -0.1632 -0.3127
  944MPD2    C313854   2.744   4.209  11.286  0.3723  0.0393  0.4280
  944MPD2    C413855   2.631   4.127  11.291  0.1063  0.3149  0.0541
  944MPD2    C513856   2.606   4.030  11.202 -0.3968 -0.2995 -0.8104
  944MPD2     H13857   2.940   4.215  11.217  0.1168 -0.1367 -2.1250
  944MPD2    H113858   2.549   4.157  11.355 -0.4303 -1.3143  0.1063
  944MPD2    H213859   2.671   3.927  11.036 -0.4349  0.8962 -0.9025
  944MPD2    H313860   2.516   3.969  11.203  0.1732 -1.1341 -0.7836
  944MPD2     N13861   2.760   4.313  11.388  0.3871 -0.1716 -0.5216
  944MPD2    H513862   2.845   4.369  11.387 -0.3517  0.9580 -0.4759
  944MPD2    N113863   2.926   4.027  11.013  0.5983  0.5435 -0.3325
  944MPD2    H713864   2.897   3.947  10.957  1.2003  0.4141 -0.4620
    1TMC1    C113865   1.017   0.282  14.610  0.4428  0.4039  0.1581
    1TMC1    C213866   0.887   0.308  14.651 -0.4063  0.3354  0.0456
    1TMC1    C313867   0.833   0.234  14.751 -0.3785 -0.0731  0.6963
    1TMC1    C413868   1.093   0.196  14.684  0.4937 -0.7239  0.9220
    1TMC1    C513869   1.029   0.115  14.780 -0.2174 -0.3599 -0.0665
    1TMC1    C613870   0.897   0.134  14.817 -0.3000  0.3220  0.0105
    1TMC1     C13871   1.087   0.375  14.534  0.0894 -0.0132 -0.9800
    1TMC1     O13872   1.206   0.357  14.523 -0.1792 -0.0821  0.3074
    1TMC1     H13873   0.826   0.383  14.602 -0.6828  0.3109  0.3531
    1TMC1    H113874   1.197   0.174  14.661  0.6757  0.7506  0.3941
    1TMC1    H213875   0.854   0.103  14.911  1.5339  0.1467  0.7957
    1TMC1    C713876   1.112   0.009  14.834 -0.4072  0.4931  0.4886
    1TMC1    C813877   0.712   0.298  14.819 -0.2640 -1.0790  0.1771
    1TMC1    O113878   1.219   4.714  14.783 -0.9311 -0.5835  0.4196
    1TMC1    O213879   0.694   0.280  14.940  0.4198 -0.1880 -0.3706
    1TMC1    O313880   1.040   4.662  14.909 -0.3080 -0.5569 -0.7781
    1TMC1    H313881   0.951   4.690  14.941  0.7194 -0.1462  1.6884
    1TMC1    O513882   0.608   0.292  14.729 -0.0301  0.3127  0.1329
    1TMC1    H513883   0.635   0.279  14.636  1.6726 -0.8231  0.7749
    2MPD2     C13884   1.108   0.766  14.214  0.0473 -0.4920 -0.1723
    2MPD2    C113885   0.996   0.779  14.289 -0.0799  0.7750  0.3822
    2MPD2    C213886   0.971   0.692  14.398  0.0926  0.1603 -0.1075
    2MPD2    C313887   1.057   0.589  14.418  0.3003 -0.3396  0.0842
    2MPD2    C413888   1.168   0.575  14.335  0.0073  0.3861  0.7447
    2MPD2    C513889   1.191   0.662  14.238 -0.0294 -0.0055 -0.1867
    2MPD2     H13890   0.885   0.694  14.463 -0.0008  2.1672 -0.2794
    2MPD2    H113891   1.230   0.486  14.336 -1.7465 -0.8318  1.2549
    2MPD2    H213892   1.133   0.839  14.139 -0.2751 -0.0633  0.1392
    2MPD2    H313893   1.269   0.641  14.166  1.6309  3.1243  0.6993
    2MPD2     N13894   1.021   0.488  14.509  0.2917 -0.1595 -0.4559
    2MPD2    H513895   0.934   0.508  14.557  1.3101 -0.7114  1.6245
    2MPD2    N113896   0.923   0.892  14.259 -0.2435 -0.0012 -0.1607
    2MPD2    H713897   0.965   0.956  14.192 -2.4553 -0.4712 -1.9971
    3TMC2    C113898   0.752   1.050  14.261 -0.3408  0.5541  0.0999
    3TMC2    C213899   0.628   1.101  14.305 -0.0346  0.3940 -0.3128
    3TMC2    C313900   0.571   1.204  14.236  0.8798 -0.0630  0.1050
    3TMC2    C413901   0.803   1.101  14.145  0.7714 -1.1373  1.0962
    3TMC2    C513902   0.740   1.201  14.073  0.0932  0.9763 -0.2460
    3TMC2    C613903   0.624   1.256  14.126  0.2127 -0.1447 -0.3818
    3TMC2     C13904   0.807   0.931  14.318  0.2662  0.2639 -0.4144
    3TMC2     O13905   0.739   0.870  14.402  0.2345  0.5434  0.0097
    3TMC2     H13906   0.581   1.060  14.393  0.5697 -4.3708 -2.2102
    3TMC2    H113907   0.894   1.060  14.103  0.1419 -0.8403 -0.5328
    3TMC2    H213908   0.569   1.340  14.084 -0.9273 -1.4347 -1.4994
    3TMC2    C713909   0.834   1.277  13.994  1.1122 -0.8652 -0.1364
    3TMC2    C813910   0.461   1.268  14.297 -0.1031  0.2968  0.4549
    3TMC2    O113911   0.953   1.256  13.981  0.1053  0.1987 -0.2753
    3TMC2    O213912   0.433   1.225  14.405 -0.0249  0.4289 -0.3795
    3TMC2    O513913   0.373   1.308  14.211 -0.0645  0.7938 -0.1055
    3TMC2    H513914   0.402   1.311  14.117  0.6350 -0.0583  0.0826
    4TMC2    C113915   0.323   1.734  13.322  0.4988  0.7434 -0.4671
    4TMC2    C213916   0.400   1.782  13.217 -1.0178  0.8805  1.2321
    4TMC2    C313917   0.526   1.802  13.251  0.1181  0.2048  0.3473
    4TMC2    C413918   0.371   1.714  13.447  0.1272 -0.7358  0.5373
    4TMC2    C513919   0.502   1.737  13.475 -0.7064 -0.2435 -0.0815
    4TMC2    C613920   0.580   1.791  13.378 -0.0605 -0.6661 -0.0055
    4TMC2     C13921   0.176   1.718  13.304  0.4318  0.5465  0.1578
    4TMC2     O13922   0.113   1.681  13.399  0.1021  0.5033  0.1936
    4TMC2     H13923   0.355   1.810  13.123  1.0095 -0.2790 -0.0906
    4TMC2    H113924   0.317   1.671  13.531  1.6959 -2.1747  0.8055
    4TMC2    H213925   0.686   1.816  13.383  0.1443 -0.5793 -4.2130
    4TMC2    C713926   0.564   1.685  13.591 -0.0124  0.1563  0.2187
    4TMC2    C813927   0.615   1.863  13.160  0.1469  0.3044  0.5896
    4TMC2    O113928   0.495   1.659  13.684  0.6270 -0.0447  0.2686
    4TMC2    O213929   0.694   1.946  13.200 -0.5160  0.1543  0.1154
    4TMC2    O513930   0.631   1.773  13.066 -1.2780 -0.2603 -0.0575
    4TMC2    H513931   0.578   1.692  13.082 -2.5960  0.9807  1.8589
    5MPD2     C13932   4.484   1.634  13.034 -0.5343  1.1182 -0.3980
    5MPD2    C113933   4.583   1.649  12.944 -0.4098  0.0484  0.4514
    5MPD2    C213934   4.712   1.676  12.992 -0.0284 -1.1102 -0.3642
    5MPD2    C313935   0.007   1.680  13.128  0.0787  0.3347 -0.4039
    5MPD2    C413936   4.639   1.664  13.215  0.5698 -0.6646 -0.7122
    5MPD2    C513937   4.509   1.653  13.174 -0.2901  0.6857 -0.6506
    5MPD2     H13938   0.051   1.695  12.916 -1.0470  2.0393 -0.5920
    5MPD2    H113939   4.652   1.661  13.322  0.4616 -0.2204 -0.6828
    5MPD2    H213940   4.379   1.629  13.007 -1.2541  1.5032  2.3166
    5MPD2    H313941   4.430   1.654  13.249  0.7889 -1.7408  0.5029
    5MPD2     N13942   0.140   1.713  13.167 -0.1062 -0.4079 -0.2140
    5MPD2    H513943   0.211   1.716  13.095  0.5894  2.1736  0.5546
    5MPD2    N113944   4.542   1.634  12.810  0.2091  0.4821 -0.3380
    5MPD2    H713945   4.442   1.622  12.800  0.3835 -1.5995  0.5252
    6MPD1     C13946   4.053   3.133  13.370 -0.2703 -0.1793  0.3008
    6MPD1    C113947   4.167   3.133  13.292  0.4099  0.4057  0.7729
    6MPD1    C213948   4.207   3.019  13.220 -0.7312 -0.2411  0.9926
    6MPD1    C313949   4.131   2.904  13.230 -0.2735 -0.1431  0.1409
    6MPD1    C413950   4.025   2.898  13.315 -0.3285 -0.5149  0.3787
    6MPD1    C513951   3.987   3.010  13.381 -0.0971 -0.3923  0.2114
    6MPD1     H13952   4.296   3.018  13.159  0.1621  2.0367  2.2881
    6MPD1    H113953   3.967   2.807  13.319 -1.6062  0.3115  0.7850
    6MPD1    H213954   4.016   3.221  13.422  1.8083  0.9205 -0.0810
    6MPD1    H313955   3.902   3.012  13.447  0.5959  1.1024  1.0841
    6MPD1     N13956   4.164   2.784  13.157  0.2900  0.2468  0.1261
    6MPD1    H513957   4.131   2.696  13.193  0.5609  0.8231  1.7527
    6MPD1    N113958   4.247   3.249  13.293 -0.0651  0.0071 -0.4661
    6MPD1    H613959   4.197   3.337  13.308 -0.9540 -0.4314 -0.8286
    6MPD1    H713960   4.307   3.261  13.212 -1.3894  0.4927 -1.3752
    7MPD2     C13961   3.963   2.056  12.854  0.1638 -0.6476  0.1065
    7MPD2    C113962   4.059   2.125  12.784  0.3085 -0.8077  0.4695
    7MPD2    C213963   4.140   2.053  12.693 -0.3379  0.2734 -0.2456
    7MPD2    C313964   4.114   1.925  12.654 -0.2185 -0.6567  0.6513
    7MPD2    C413965   4.009   1.860  12.728 -0.0389  0.5001  0.5801
    7MPD2    C513966   3.941   1.922  12.825  0.2299 -0.4643  0.1584
    7MPD2     H13967   4.220   2.107  12.642  1.0719 -0.5394  1.1114
    7MPD2    H113968   3.970   1.761  12.705  0.7269  0.5311 -0.8159
    7MPD2    H213969   3.906   2.107  12.930  0.1766  1.2684 -1.1683
    7MPD2    H313970   3.867   1.867  12.882 -0.6279  0.6998  0.1778
    7MPD2     N13971   4.198   1.859  12.556  0.5282 -0.0690 -0.1753
    7MPD2    H513972   4.266   1.909  12.500  0.8191  2.0822  2.1377
    7MPD2    N113973   4.105   2.250  12.824  0.2741 -0.0753  0.0635
    7MPD2    H713974   4.172   2.288  12.758 -1.3273 -2.1679 -2.7722
    8TMC3    C113975   4.325   1.684  12.483 -0.6911  0.1770  0.3204
    8TMC3    C213976   4.414   1.615  12.564 -0.9244 -0.2203 -0.2188
    8TMC3    C313977   4.545   1.660  12.578  0.0356  0.0966 -0.7732
    8TMC3    C413978   4.380   1.789  12.409  0.5986  0.2698  0.5736
    8TMC3    C513979   4.506   1.832  12.429 -0.1770  0.2243  0.7885
    8TMC3    C613980   4.591   1.766  12.512 -0.0595 -0.4018  0.1616
    8TMC3     C13981   4.203   1.723  12.547  0.5978 -0.1954 -0.0838
    8TMC3     O13982   4.167   1.639  12.631  0.0093  0.7987  0.1910
    8TMC3     H13983   4.377   1.551  12.643  2.9409 -1.0167  0.9500
    8TMC3    H113984   4.313   1.838  12.339  0.1938  0.0608  0.8155
    8TMC3    H213985   4.690   1.806  12.534  0.4588 -0.9074 -1.2641
    8TMC3    C713986   4.521   1.973  12.420  0.3536  0.9016  0.6745
    8TMC3    C813987   4.623   1.630  12.701  0.0473 -0.1406 -0.5789
    8TMC3    O113988   4.412   2.026  12.438 -0.3330  0.5719 -0.1885
    8TMC3    O213989   0.008   1.628  12.693 -0.2034 -0.9591  0.2064
    9TMC3    C113990   4.282   2.631  13.038  0.4143  0.0642 -0.3453
    9TMC3    C213991   4.398   2.610  12.976  0.3469  0.5646  0.1104
    9TMC3    C313992   4.411   2.497  12.902  0.3204  0.2970  0.2801
    9TMC3    C413993   4.175   2.538  13.033  0.0949  0.5560 -0.4475
    9TMC3    C513994   4.195   2.426  12.958  0.6898  0.1434 -0.0703
    9TMC3    C613995   4.317   2.395  12.895 -0.7693 -0.7468  0.1796
    9TMC3     C13996   4.261   2.772  13.063  0.5225 -0.7094 -0.0373
    9TMC3     O13997   4.326   2.861  13.009  0.0728  0.1235  0.5327
    9TMC3     H13998   4.474   2.687  12.965  2.9138 -1.9226  0.6075
    9TMC3    H113999   4.085   2.560  13.089 -1.7790 -0.9137 -2.8653
    9TMC3    H214000   4.337   2.297  12.854 -1.3480  0.0008 -1.8930
    9TMC3    C714001   4.095   2.319  12.942  0.1019 -0.1075  0.4364
    9TMC3    C814002   4.541   2.472  12.840 -0.0596  0.6958  0.1044
    9TMC3    O114003   4.037   2.287  13.047  0.8191  0.2592  0.3902
    9TMC3    O214004   4.644   2.526  12.875 -0.4710 -0.2598  0.1079
   10MPD2     C14005   0.080   2.152  12.553 -0.6583  0.0297  0.6585
   10MPD2    C114006   4.681   2.120  12.528 -0.0934 -0.1986  0.8429
   10MPD2    C214007   4.588   2.196  12.597 -0.6913  0.3222 -0.0394
   10MPD2    C314008   4.626   2.302  12.674  0.7838 -0.0330  0.2438
   10MPD2    C414009   0.022   2.338  12.692 -0.0527 -0.1973  0.1192
   10MPD2    C514010   0.112   2.265  12.624  0.6267  0.4251 -0.2085
   10MPD2     H14011   4.482   2.171  12.592 -0.9591  1.6369 -1.0243
   10MPD2    H114012   0.053   2.425  12.749  0.5795 -0.7859  0.6614
   10MPD2    H214013   0.155   2.088  12.506 -1.8268 -3.0861  3.0347
   10MPD2    H314014   0.216   2.294  12.634  1.0214  0.3569 -3.9422
   10MPD2     N14015   4.523   2.371  12.742 -0.1232  0.5781  0.1597
   10MPD2    H514016   4.426   2.347  12.721 -0.6374  4.0948 -1.5271
   10MPD2    N114017   4.644   2.016  12.438  0.3415 -0.1482  0.2887
   10MPD2    H714018   4.716   1.954  12.402  0.0302 -1.9663  2.8361
   11MPD2     C14019   0.954   1.516  13.863  1.0529 -0.0596  0.0629
   11MPD2    C114020   0.824   1.469  13.846  0.8086 -0.8868  0.3754
   11MPD2    C214021   0.742   1.534  13.755 -0.5124  0.0034 -0.1571
   11MPD2    C314022   0.789   1.637  13.681 -0.0808 -0.3184  0.4656
   11MPD2    C414023   0.925   1.679  13.695 -0.1651 -0.2626  0.1219
   11MPD2    C514024   1.002   1.617  13.786 -0.3896  0.2343 -0.1984
   11MPD2     H14025   0.648   1.483  13.736 -1.5107  2.0420 -0.6308
   11MPD2    H114026   0.972   1.760  13.640  0.2592 -2.0929 -2.1995
   11MPD2    H214027   1.028   1.471  13.929 -0.3535 -2.7301 -0.2062
   11MPD2    H314028   1.104   1.653  13.796 -0.5472  0.0846  1.9074
   11MPD2     N14029   0.700   1.694  13.580  0.4145  0.1031 -0.0462
   11MPD2    H514030   0.752   1.751  13.514  0.6094 -1.2054 -1.0297
   11MPD2    N114031   0.761   1.374  13.929 -0.6700  0.2740  0.0771
   11MPD2    H714032   0.660   1.372  13.924 -0.5993  0.7323 -1.6782
    1MPD1     C14033   2.564   2.357  17.566 -0.0478 -0.1473  0.8206
    1MPD1    C114034   2.509   2.317  17.448 -0.4957 -0.1169  0.0919
    1MPD1    C214035   2.582   2.358  17.333  0.3600 -0.0869  0.4676
    1MPD1    C314036   2.703   2.420  17.338  0.0527 -0.0459  0.1339
    1MPD1    C414037   2.757   2.453  17.465  0.2259 -0.3663 -0.0707
    1MPD1    C514038   2.689   2.413  17.578  0.2820  0.2557 -0.3539
    1MPD1     H14039   2.531   2.341  17.239  0.2173 -1.0498  0.7185
    1MPD1    H114040   2.860   2.485  17.470  0.2082 -0.1197 -1.3761
    1MPD1    H214041   2.512   2.329  17.656  2.2996 -0.8819  1.9632
    1MPD1    H314042   2.733   2.423  17.677 -3.1731  3.2286  0.8400
    1MPD1     N14043   2.793   2.450  17.235 -0.4576  0.4105 -0.3015
    1MPD1    H514044   2.873   2.511  17.243 -1.7416  2.0553 -0.0128
    1MPD1    N114045   2.378   2.268  17.447 -0.3382 -0.2422 -0.0621
    1MPD1    H614046   2.357   2.194  17.380 -4.7097 -1.5265  2.7305
    1MPD1    H714047   2.350   2.231  17.537  1.0801 -1.8215 -0.2655
    2MPD1     C14048   3.497   2.987  17.155  0.0773 -0.3282  1.2761
    2MPD1    C114049   3.521   2.857  17.190  0.2000  0.2447 -0.4022
    2MPD1    C214050   3.419   2.763  17.178 -0.3713  0.4893  0.7614
    2MPD1    C314051   3.313   2.781  17.093  0.3003  0.0699 -1.1514
    2MPD1    C414052   3.302   2.909  17.038 -0.3054 -0.0843 -0.7939
    2MPD1    C514053   3.390   3.011  17.072  0.0312 -0.2186 -0.0664
    2MPD1     H14054   3.418   2.669  17.231 -0.2141 -0.3839 -0.7974
    2MPD1    H114055   3.229   2.932  16.962 -2.3674 -0.6274  1.0527
    2MPD1    H214056   3.559   3.071  17.187  1.7800 -1.1964  0.2949
    2MPD1    H314057   3.380   3.112  17.033  1.8015  0.0604  0.1819
    2MPD1     N14058   3.229   2.666  17.074 -0.1103  0.1292 -0.1088
    2MPD1    H514059   3.224   2.591  17.142 -1.3582  0.0613 -0.2788
    2MPD1    N114060   3.630   2.828  17.273 -0.9043 -0.4154  0.3161
    2MPD1    H614061   3.714   2.878  17.243 -0.0528 -1.9854  0.0635
    2MPD1    H714062   3.653   2.731  17.253  0.6263 -0.4107  2.0129
    3TMC3    C114063   3.079   2.534  16.963  0.9807 -1.3323  0.6132
    3TMC3    C214064   3.072   2.500  16.830 -0.5559 -0.0242 -0.0264
    3TMC3    C314065   2.979   2.411  16.802 -0.6173 -0.0667 -0.2255
    3TMC3    C414066   2.994   2.505  17.062  0.7239  0.8252 -0.5906
    3TMC3    C514067   2.894   2.418  17.022  0.0497  0.2938  0.0356
    3TMC3    C614068   2.887   2.374  16.891  0.0098 -0.5150  0.0915
    3TMC3     C14069   3.147   2.658  16.970 -0.1709  0.6563  0.5853
    3TMC3     O14070   3.158   2.721  16.867  0.0779  0.0981 -0.0486
    3TMC3     H14071   3.146   2.529  16.757  2.2829 -0.3635  2.6837
    3TMC3    H114072   3.000   2.550  17.160  0.0806  0.8813 -0.5787
    3TMC3    H214073   2.828   2.285  16.869 -0.7483  0.8628 -3.4081
    3TMC3    C714074   2.787   2.385  17.113  0.3208  0.3287 -0.2618
    3TMC3    C814075   2.942   2.389  16.661  0.0728 -0.1530  0.1115
    3TMC3    O114076   2.700   2.315  17.064 -0.5903 -0.2442 -0.1168
    3TMC3    O214077   2.870   2.291  16.649  0.4260  0.3384  0.3762
    4MPD1     C14078   2.900   2.526  16.168  0.7562 -0.0230 -0.8741
    4MPD1    C114079   2.991   2.614  16.230 -0.5495 -0.0981 -0.5626
    4MPD1    C214080   3.019   2.593  16.363 -0.7960 -1.3502 -0.9808
    4MPD1    C314081   2.961   2.494  16.435 -0.1901  1.2157 -0.2482
    4MPD1    C414082   2.870   2.410  16.375  0.5802  0.1351  0.3191
    4MPD1    C514083   2.839   2.434  16.246 -0.8333  0.6116  0.2048
    4MPD1     H14084   3.090   2.665  16.404 -0.9080 -1.4096 -0.6840
    4MPD1    H114085   2.810   2.336  16.427 -1.6570  1.2195 -0.7013
    4MPD1    H214086   2.881   2.528  16.061 -0.1440  0.2052 -0.7129
    4MPD1    H314087   2.768   2.362  16.208 -0.1644  0.3603 -0.5602
    4MPD1     N14088   2.992   2.483  16.575  0.1113 -0.1227 -0.6286
    4MPD1    H514089   3.073   2.539  16.600 -0.1395  0.8622 -1.9563
    4MPD1    N114090   3.070   2.701  16.153 -0.4861  0.7772 -0.0916
    4MPD1    H614091   3.027   2.711  16.061 -0.1280 -1.4611 -0.5059
    4MPD1    H714092   3.068   2.789  16.202 -0.5839  0.8478 -0.2208
    1TCq1    O114093   4.287   2.298  11.073  0.5079 -0.0008  0.0837
    1TCq1    C114094   4.371   2.252  10.982  0.5016  0.7184  0.5353
    1TCq1    O214095   4.335   2.213  10.872  0.0786  0.2375 -0.3157
    1TCq1    C214096   4.504   2.295  11.008 -0.4146 -0.0759  0.2384
    1TCq1    C314097   4.558   2.294  11.137  0.4113 -0.3498 -0.4077
    1TCq1    C414098   4.689   2.331  11.155  0.6453 -0.0489  0.4371
    1TCq1    C514099   0.018   2.388  11.044  0.1578  0.4935 -0.5060
    1TCq1    C614100   4.706   2.372  10.915 -0.0997 -0.0062 -0.0687
    1TCq1    C714101   4.586   2.315  10.900  0.0271 -0.4832  0.2065
    1TCq1    C814102   0.002   2.462  10.802 -0.0406  0.0499  0.1963
    1TCq1    O414103   4.650   2.485  10.722 -0.2831 -0.2068  0.4848
    1TCq1    C914104   4.735   2.354  11.288  0.3589 -0.3904 -0.3507
    1TCq1    O514105   0.103   2.425  11.301 -0.2696  0.0673 -0.0880
    1TCq1    O614106   4.680   2.295  11.384  0.2400 -0.0996  0.3059
    1TCq1    H114107   4.326   2.355  11.143  2.4961 -1.5421  0.2452
    1TCq1    H214108   4.514   2.246  11.224 -1.5626 -0.2772 -1.3612
    1TCq1    H314109   0.103   2.451  11.068  1.1266 -0.9215 -0.2744
    1TCq1    H414110   4.548   2.292  10.801  0.1750  1.1422 -0.2360
    2MPD1     C14111   0.314   2.736  10.511 -0.5182 -0.1085  0.4825
    2MPD1    C114112   0.373   2.723  10.632  0.8341 -0.2619  0.6025
    2MPD1    C214113   0.297   2.658  10.730  0.0160 -0.2872 -0.1688
    2MPD1    C314114   0.182   2.590  10.703 -0.7532 -0.0441  0.6549
    2MPD1    C414115   0.140   2.588  10.571  0.5803  0.5642 -0.1067
    2MPD1    C514116   0.202   2.664  10.479 -0.3356  0.0447 -0.4719
    2MPD1     H14117   0.333   2.640  10.831 -0.6827  2.6298  0.5845
    2MPD1    H114118   0.058   2.525  10.540  0.4047  1.1567 -0.8491
    2MPD1    H214119   0.369   2.778  10.428 -2.4377  1.1728 -0.1512
    2MPD1    H314120   0.181   2.656  10.373 -3.1511  1.9569 -0.0520
    2MPD1     N14121   0.120   2.520  10.817 -0.5510  0.1321 -0.0663
    2MPD1    H514122   0.177   2.492  10.895  0.1230 -0.0274 -0.6127
    2MPD1    N114123   0.502   2.772  10.658  0.2846  0.5577  0.1424
    2MPD1    H614124   0.538   2.782  10.752  1.0501  2.8451 -0.4024
    2MPD1    H714125   0.531   2.852  10.602 -2.0745  0.0140 -1.8833
    1TMC1    C114126   4.517   3.173   1.457  0.1702  0.1053 -0.5590
    1TMC1    C214127   4.652   3.160   1.436  0.2841  1.0387  0.2185
    1TMC1    C314128   4.685   3.050   1.357  0.0058 -0.1971  0.0251
    1TMC1    C414129   4.431   3.080   1.415 -1.2423  0.2324 -0.0499
    1TMC1    C514130   4.471   2.973   1.346 -0.3380  0.8747  0.3426
    1TMC1    C614131   4.602   2.955   1.309  0.4236  0.2479 -0.2384
    1TMC1     C14132   4.478   3.280   1.555  0.4251 -0.3217  0.3861
    1TMC1     O14133   4.575   3.341   1.597 -0.7796  0.8468  0.6467
    1TMC1     H14134   4.719   3.240   1.465  0.6280  0.4303  1.1116
    1TMC1    H114135   4.324   3.098   1.406 -1.8167 -2.9995  0.3744
    1TMC1    H214136   4.627   2.881   1.234  0.9949 -0.7523  0.9393
    1TMC1    C714137   4.369   2.898   1.280  0.1036 -0.2462  0.9993
    1TMC1    C814138   0.093   3.045   1.324  0.5065  0.1517  0.7627
    1TMC1    O114139   4.392   2.829   1.183 -0.4160  0.3511 -0.2246
    1TMC1    O214140   0.173   3.138   1.303  0.4781  0.5850 -0.0120
    1TMC1    O314141   4.274   2.858   1.371  0.9475 -0.1376  0.3072
    1TMC1    H314142   4.275   2.909   1.455  0.5099 -1.9271  1.4133
    1TMC1    O514143   0.139   2.915   1.321  0.4015 -0.2838 -0.4591
    1TMC1    H514144   0.080   2.843   1.351 -1.2214  1.7565  1.2583
    2MPD1     C14145   4.166   3.476   1.898  0.2299  1.0402 -0.1951
    2MPD1    C114146   4.091   3.454   1.785  0.7452 -0.5706  0.3495
    2MPD1    C214147   4.158   3.404   1.674 -0.2304 -0.1305  0.1973
    2MPD1    C314148   4.291   3.375   1.673  0.1795  0.0346  0.0080
    2MPD1    C414149   4.366   3.398   1.784  0.5076 -0.5494  0.2788
    2MPD1    C514150   4.303   3.446   1.894  0.0785 -0.1352  0.5457
    2MPD1     H14151   4.097   3.396   1.584  0.8807  1.6293 -0.7000
    2MPD1    H114152   4.465   3.359   1.808  0.0997 -1.9626 -0.3197
    2MPD1    H214153   4.136   3.513   1.995  0.7640  2.5945 -0.6240
    2MPD1    H314154   4.366   3.461   1.982  0.5002  0.7606  0.0968
    2MPD1     N14155   4.348   3.306   1.560  0.8405  0.2597  0.0212
    2MPD1    H514156   4.289   3.272   1.484 -0.5082 -0.7178  1.5119
    2MPD1    N114157   3.947   3.479   1.793 -0.8955  0.1932 -0.1118
    2MPD1    H614158   3.913   3.512   1.703  1.5265 -1.4862 -1.6572
    2MPD1    H714159   3.926   3.550   1.864 -0.6001 -1.8791  2.0584
    1MPD1     C14160   3.131   2.184  11.664 -0.3225 -0.3068  0.4184
    1MPD1    C114161   3.031   2.228  11.751 -0.2396 -0.2746  1.1131
    1MPD1    C214162   2.904   2.247  11.703 -0.0617  0.2023  0.4189
    1MPD1    C314163   2.879   2.202  11.572  0.3823 -0.3548  0.2887
    1MPD1    C414164   2.972   2.150  11.493  0.1884 -0.5161 -0.5064
    1MPD1    C514165   3.101   2.135  11.543 -0.0447 -0.6483  0.8384
    1MPD1     H14166   2.832   2.305  11.761 -0.3485  0.2561  0.0060
    1MPD1    H114167   2.939   2.097  11.405  1.7168 -0.8630 -0.8747
    1MPD1    H214168   3.234   2.163  11.691 -0.0005  1.0379  0.2068
    1MPD1    H314169   3.176   2.094  11.477  0.3305 -0.1866  0.9792
    1MPD1     N14170   2.748   2.210  11.523 -0.1003  0.1167  0.2410
    1MPD1    H514171   2.673   2.237  11.586 -0.8915 -2.0764  0.2201
    1MPD1    N114172   3.068   2.283  11.878 -0.4009 -0.3112  0.4580
    1MPD1    H614173   3.120   2.214  11.932  3.2667 -0.3647 -3.2025
    1MPD1    H714174   2.982   2.304  11.929 -1.5103  0.6307 -1.8388
    2MPD1     C14175   0.533   2.525  12.062  0.5423 -0.0356 -0.8065
    2MPD1    C114176   0.448   2.527  11.959 -0.7368 -0.4350 -0.8842
    2MPD1    C214177   0.489   2.489  11.834 -0.7247  0.0642  0.4681
    2MPD1    C314178   0.617   2.447  11.813 -0.8783 -0.0169  0.2155
    2MPD1    C414179   0.702   2.445  11.924 -0.0960  0.3754 -0.1806
    2MPD1    C514180   0.659   2.478  12.048  0.2251 -0.8259  0.5613
    2MPD1     H14181   0.415   2.474  11.757 -0.9053  0.9952  0.4672
    2MPD1    H114182   0.806   2.418  11.910 -0.2817 -0.1703 -0.5064
    2MPD1    H214183   0.499   2.558  12.160 -0.0156  0.7273 -1.2595
    2MPD1    H314184   0.724   2.484  12.134  1.3154  1.3189 -0.4095
    2MPD1     N14185   0.669   2.404  11.695  0.1250  0.1587 -0.4162
    2MPD1    H514186   0.761   2.361  11.706  1.1493  2.5518  0.4547
    2MPD1    N114187   0.312   2.560  11.982  0.5122 -0.1037 -0.0031
    2MPD1    H614188   0.302   2.632  12.052 -0.7653 -0.2332 -0.0459
    2MPD1    H714189   0.264   2.594  11.898  1.3307 -3.0850 -1.7003
    3MPD1     C14190   0.235   1.962  10.918  0.7219  0.1041  0.6134
    3MPD1    C114191   0.190   2.050  11.014  0.8986 -0.0781 -0.2358
    3MPD1    C214192   0.283   2.110  11.095 -1.0483 -0.8369  0.2207
    3MPD1    C314193   0.420   2.105  11.074  0.7593 -0.8708  0.0938
    3MPD1    C414194   0.464   2.027  10.965 -0.1816  0.3761 -0.2491
    3MPD1    C514195   0.371   1.962  10.886 -0.1956 -0.1154  0.1367
    3MPD1     H14196   0.253   2.173  11.179 -3.1166  0.6740 -1.6685
    3MPD1    H114197   0.568   2.012  10.939  0.0194  0.7264  0.3518
    3MPD1    H214198   0.160   1.912  10.859  1.0709  0.2168  0.0812
    3MPD1    H314199   0.393   1.901  10.799 -1.2028  0.8660 -0.8061
    3MPD1     N14200   0.506   2.175  11.162 -0.3859  0.1525  0.0753
    3MPD1    H514201   0.458   2.234  11.230  1.5855 -0.5365  2.0962
    3MPD1    N114202   0.051   2.050  11.052  0.1143 -0.1254  0.1365
    3MPD1    H614203   0.012   2.119  11.115  0.9153 -0.0708  0.5741
    3MPD1    H714204   4.719   2.022  10.981  0.9287 -2.5313  0.2920
    4MPD2     C14205   2.102   2.135  11.794  0.3803 -0.4209  0.4461
    4MPD2    C114206   2.122   2.206  11.677  0.1151  0.2222 -0.2137
    4MPD2    C214207   2.062   2.331  11.669 -0.2257 -0.3653 -0.2106
    4MPD2    C314208   1.971   2.383  11.756 -0.0338  0.2890 -0.2674
    4MPD2    C414209   1.939   2.299  11.860  0.3815 -0.5273  0.4065
    4MPD2    C514210   2.011   2.188  11.883 -0.2862 -0.3713 -0.6250
    4MPD2     H14211   2.086   2.388  11.580 -3.5432 -0.7321 -1.3326
    4MPD2    H114212   1.868   2.333  11.934  1.4922  3.6005 -0.4042
    4MPD2    H214213   2.153   2.045  11.825  0.3418 -0.8585 -0.7906
    4MPD2    H314214   1.982   2.118  11.960 -2.8574  1.0033 -0.3351
    4MPD2     N14215   1.900   2.506  11.740 -0.3005  0.3783 -0.5319
    4MPD2    H514216   1.809   2.510  11.784 -0.0458 -0.6965  0.0901
    4MPD2    N114217   2.205   2.168  11.570  0.4189 -0.4139  0.2728
    4MPD2    H714218   2.211   2.233  11.492 -3.1269 -0.3393  0.0411
    5TMC3    C114219   2.380   2.086  11.452  0.2449  0.8560  0.1390
    5TMC3    C214220   2.512   2.105  11.471 -0.0042 -0.0154 -0.5129
    5TMC3    C314221   2.572   2.177  11.376 -0.2572 -0.7327  0.1196
    5TMC3    C414222   2.312   2.144  11.348 -0.1211 -0.1312  0.3257
    5TMC3    C514223   2.377   2.230  11.259 -0.3293  1.0378 -0.0463
    5TMC3    C614224   2.513   2.246  11.272  0.0394  0.1409 -0.7369
    5TMC3     C14225   2.304   2.075  11.567 -0.2488  0.2549 -0.4921
    5TMC3     O14226   2.326   1.981  11.645  0.1736 -0.0155 -0.4399
    5TMC3     H14227   2.549   2.046  11.555  2.9175  0.4757 -1.4808
    5TMC3    H114228   2.212   2.104  11.331 -0.7920  1.2706  1.0398
    5TMC3    H214229   2.575   2.304  11.205  2.2509  0.5424  1.6729
    5TMC3    C714230   2.292   2.343  11.261  0.0675  0.3773  0.0624
    5TMC3    C814231   2.712   2.194  11.393 -0.5846 -0.4147 -0.4614
    5TMC3    O114232   2.202   2.338  11.344 -0.3065 -0.1538  0.1183
    5TMC3    O214233   2.784   2.226  11.295 -0.4963 -0.3171  0.5267
    6TMC3    C114234   0.687   2.358  11.468 -0.0765 -0.2436 -0.0977
    6TMC3    C214235   0.623   2.292  11.366  0.7937  0.2969  0.4214
    6TMC3    C314236   0.705   2.245  11.273 -0.4435 -0.5406  0.0148
    6TMC3    C414237   0.826   2.372  11.481 -0.2069 -0.3754  0.2504
    6TMC3    C514238   0.905   2.331  11.374  0.3263 -0.0248 -0.3786
    6TMC3    C614239   0.842   2.263  11.270 -0.0554 -0.2888  0.0404
    6TMC3     C14240   0.597   2.395  11.578  0.5861  0.3532 -0.1436
    6TMC3     O14241   0.477   2.409  11.555 -0.6127 -0.3015  0.2716
    6TMC3     H14242   0.524   2.251  11.383  0.1862  1.0169 -1.3397
    6TMC3    H114243   0.864   2.437  11.560  0.0945  0.4840 -0.6085
    6TMC3    H214244   0.900   2.248  11.180  1.1065 -2.3158  1.1255
    6TMC3    C714245   1.042   2.393  11.360  0.2721  0.2602  0.1553
    6TMC3    C814246   0.645   2.164  11.166 -0.0284  0.4620 -0.6383
    6TMC3    O114247   1.088   2.469  11.446 -0.9373  0.5999  0.2178
    6TMC3    O214248   0.719   2.086  11.111 -0.1921 -0.2064 -0.1680
    7MPD2     C14249   2.093   2.781  11.103 -0.2410  0.0495 -0.4359
    7MPD2    C114250   2.078   2.724  11.223 -0.0475 -0.3834 -0.2273
    7MPD2    C214251   2.153   2.612  11.256  0.0214 -0.7035  0.2165
    7MPD2    C314252   2.247   2.562  11.158 -0.5748  0.2050  0.5093
    7MPD2    C414253   2.271   2.633  11.043 -0.2129 -0.2220  0.1566
    7MPD2    C514254   2.180   2.732  11.015 -0.4047 -0.0240  0.5685
    7MPD2     H14255   2.125   2.553  11.342 -1.2959 -1.2171 -0.5710
    7MPD2    H114256   2.337   2.590  10.969 -0.4112 -1.1698  0.5259
    7MPD2    H214257   2.037   2.869  11.074  1.0665  1.1231  0.3355
    7MPD2    H314258   2.192   2.773  10.915 -1.8593  0.2810  0.5307
    7MPD2     N14259   2.316   2.440  11.169 -0.2501 -0.4518  0.1238
    7MPD2    H514260   2.382   2.411  11.097 -0.1562 -2.1707  0.8929
    7MPD2    N114261   1.986   2.761  11.322 -1.0285  0.2783 -0.2871
    7MPD2    H714262   1.986   2.692  11.396  0.8182 -1.6454 -2.0271
    8TMC3    C114263   1.800   2.844  11.428 -0.1396 -0.5362  0.3539
    8TMC3    C214264   1.688   2.783  11.391  0.6301  0.2589 -0.0200
    8TMC3    C314265   1.635   2.690  11.475  0.3961  0.3126 -0.0805
    8TMC3    C414266   1.870   2.807  11.542 -0.0085 -0.2758  0.4621
    8TMC3    C514267   1.822   2.702  11.622 -0.1977  0.1583 -0.7238
    8TMC3    C614268   1.702   2.650  11.591 -0.7949 -0.0652 -0.9610
    8TMC3     C14269   1.890   2.857  11.315  0.3947  0.2902 -0.0357
    8TMC3     O14270   1.863   2.942  11.230 -0.3315 -0.0677 -0.2153
    8TMC3     H14271   1.658   2.804  11.289  1.0718  1.8444  0.1829
    8TMC3    H114272   1.970   2.846  11.558  0.3423  0.0341 -2.4413
    8TMC3    H214273   1.666   2.560  11.638 -0.4445  0.1672 -0.2495
    8TMC3    C714274   1.931   2.607  11.658  0.7643  0.3339 -0.1064
    8TMC3    C814275   1.524   2.601  11.431  0.2933  0.1452  0.5644
    8TMC3    O114276   2.026   2.623  11.581 -0.1708  0.3053 -0.1410
    8TMC3    O214277   1.469   2.539  11.517  0.0443 -0.4816 -0.0617
    9MPD2     C14278   1.469   2.459  11.100 -0.7447 -0.0744  0.4705
    9MPD2    C114279   1.428   2.508  11.218  0.5666 -0.1802 -0.5097
    9MPD2    C214280   1.305   2.476  11.267  0.5489 -0.3349  0.3023
    9MPD2    C314281   1.226   2.397  11.197 -0.0797  0.2640  0.6010
    9MPD2    C414282   1.272   2.340  11.076 -0.4658 -0.6651 -0.0944
    9MPD2    C514283   1.394   2.371  11.026  0.0499 -0.1285  0.0801
    9MPD2     H14284   1.289   2.519  11.365 -0.1280 -0.2946  0.1743
    9MPD2    H114285   1.205   2.282  11.014  0.4505 -1.1686 -0.6075
    9MPD2    H214286   1.569   2.479  11.064 -0.9739 -0.4346 -0.3793
    9MPD2    H314287   1.410   2.351  10.920  3.0240  1.0887  0.2943
    9MPD2     N14288   1.101   2.353  11.241  0.8627  0.4157  0.0553
    9MPD2    H514289   1.057   2.281  11.185 -4.1441  2.7002  1.0290
    9MPD2    N114290   1.532   2.574  11.293  0.5653 -0.3671 -0.0351
    9MPD2    H714291   1.619   2.598  11.246  0.1073  0.5623 -0.3979
    1MPD1     C14292   1.005   0.166  15.882  0.4992 -0.5111 -0.5749
    1MPD1    C114293   1.084   0.130  15.773  0.4266  0.4490 -0.0495
    1MPD1    C214294   1.114   0.228  15.676 -0.7487  0.2828 -0.3400
    1MPD1    C314295   1.062   0.362  15.680 -0.7051 -0.1368  0.4899
    1MPD1    C414296   0.991   0.390  15.793  0.7067 -0.3347  0.4514
    1MPD1    C514297   0.961   0.293  15.891  0.4640 -0.4203 -0.2392
    1MPD1     H14298   1.177   0.204  15.591  0.3074  1.8350  0.0260
    1MPD1    H114299   0.954   0.490  15.808  0.9851 -0.1366 -0.1769
    1MPD1    H214300   0.971   0.099  15.960 -1.3500  1.5184  0.3638
    1MPD1    H314301   0.921   0.337  15.982 -3.6022  0.6218 -2.5685
    1MPD1     N14302   1.072   0.462  15.580 -0.2249 -0.3640  0.0622
    1MPD1    H514303   1.039   0.557  15.592  0.0390 -0.5925  2.5571
    1MPD1    N114304   1.144   0.004  15.773 -0.6681 -0.1396 -0.0385
    1MPD1    H614305   1.188   4.721  15.683  0.1876  2.8372 -0.2591
    1MPD1    H714306   1.086   4.673  15.822  0.3711 -0.0918  1.2828
    2TMC2    C114307   1.085   0.770  15.296 -0.1347 -0.4048  0.1890
    2TMC2    C214308   1.185   0.761  15.206  0.1356 -0.1144 -0.5539
    2TMC2    C314309   1.275   0.652  15.220 -0.5362 -0.4712  0.6601
    2TMC2    C414310   1.054   0.668  15.377  0.1889 -0.3916  0.4613
    2TMC2    C514311   1.132   0.558  15.372  0.3632 -0.4022 -0.3258
    2TMC2    C614312   1.249   0.555  15.308 -0.6659  0.5653  0.2085
    2TMC2     C14313   1.023   0.903  15.318 -0.4245 -0.0227  0.2323
    2TMC2     O14314   1.061   0.993  15.248 -0.1754  0.3596  0.3322
    2TMC2     H14315   1.213   0.850  15.152 -0.8718 -0.8751 -2.3450
    2TMC2    H114316   0.960   0.666  15.430  0.5898 -3.1834  1.0557
    2TMC2    H214317   1.297   0.458  15.306 -2.2730 -0.2959  3.1981
    2TMC2    C714318   1.105   0.438  15.449  0.6624  0.6379 -0.2930
    2TMC2    C814319   1.382   0.651  15.127 -0.4253  0.3507 -0.4520
    2TMC2    O114320   1.144   0.334  15.394  0.2512  0.0235 -0.6899
    2TMC2    O214321   1.381   0.725  15.031  1.0233 -0.0657 -0.4209
    2TMC2    O514322   1.480   0.567  15.167  0.4589 -0.1048  0.4550
    2TMC2    H514323   1.449   0.512  15.242 -0.8821  0.8951  0.6494
    3MPD1     C14324   0.790   1.255  15.623  0.3983  0.7295  0.2226
    3MPD1    C114325   0.833   1.146  15.695 -0.2018 -0.4744  0.1517
    3MPD1    C214326   0.868   1.037  15.619 -0.8530  0.3759 -0.0143
    3MPD1    C314327   0.909   1.042  15.487 -0.6368 -0.4612  0.2290
    3MPD1    C414328   0.882   1.166  15.423 -0.7084  0.5922 -1.2638
    3MPD1    C514329   0.813   1.264  15.492 -0.0206 -0.1345 -0.2785
    3MPD1     H14330   0.889   0.950  15.680 -0.7511  0.4607  0.0694
    3MPD1    H114331   0.895   1.174  15.316 -0.5745  0.8550 -1.2272
    3MPD1    H214332   0.736   1.332  15.677 -0.7517  1.4749 -2.0244
    3MPD1    H314333   0.791   1.364  15.454 -1.6824 -0.7162 -0.8776
    3MPD1     N14334   0.960   0.919  15.440 -0.7402 -0.0067 -1.0160
    3MPD1    H514335   0.956   0.838  15.501  0.1777 -0.2336 -1.2591
    3MPD1    N114336   0.805   1.127  15.830 -0.1107 -0.4573 -0.2755
    3MPD1    H614337   0.861   1.056  15.878  0.7958  0.3136 -0.1889
    3MPD1    H714338   0.808   1.206  15.894 -1.3832  0.7455 -1.7143
    1TMC1    C114339   4.100   0.421  12.541 -0.5418 -0.1328  0.1438
    1TMC1    C214340   4.038   0.346  12.635  0.0935  0.4183  0.3411
    1TMC1    C314341   3.906   0.325  12.631 -0.0373 -0.8305  0.1256
    1TMC1    C414342   4.032   0.488  12.440  0.1331  0.1441 -0.1335
    1TMC1    C514343   3.903   0.452  12.427  0.3611 -0.1964 -0.5727
    1TMC1    C614344   3.840   0.382  12.520 -0.5208 -0.1367 -0.3234
    1TMC1     C14345   4.240   0.462  12.562 -0.1678  0.1656 -0.5540
    1TMC1     O14346   4.282   0.544  12.481  0.2816  0.4569 -0.0610
    1TMC1     H14347   4.092   0.305  12.720 -1.5243  1.4149  1.8578
    1TMC1    H114348   4.074   0.559  12.370  1.2424 -1.3522 -1.0028
    1TMC1    H214349   3.735   0.357  12.515 -0.4567 -0.6893  1.1544
    1TMC1    C714350   3.815   0.547  12.360  0.0832 -0.2604 -0.9943
    1TMC1    C814351   3.839   0.260  12.743 -0.5840 -0.4322 -0.9000
    1TMC1    O114352   3.741   0.618  12.428 -0.1696  0.5444  0.1958
    1TMC1    O214353   3.853   0.290  12.860  0.0999  0.2168 -0.5636
    1TMC1    O314354   3.879   0.593  12.248 -0.2891  0.5070  0.0826
    1TMC1    H314355   3.925   0.518  12.204 -0.5833  1.0886 -1.1900
    1TMC1    O514356   3.735   0.184  12.696  0.5832  0.0296 -0.2478
    1TMC1    H514357   3.738   0.159  12.601  1.4903  2.1436 -0.7703
    2MPD2     C14358   4.481   0.586  12.705  0.2269  0.6329 -0.3847
    2MPD2    C114359   4.428   0.462  12.735  0.3805 -0.2364 -0.1313
    2MPD2    C214360   4.501   0.386  12.827  0.2577  0.2028 -0.4209
    2MPD2    C314361   4.623   0.427  12.889  0.4599 -0.8134 -0.2321
    2MPD2    C414362   4.672   0.548  12.841  0.2929 -0.0207  0.4624
    2MPD2    C514363   4.595   0.625  12.758  0.1302  0.5821  0.1754
    2MPD2     H14364   4.463   0.287  12.851  1.6482 -0.2860 -0.1929
    2MPD2    H114365   0.026   0.592  12.883 -0.1433  0.5578  0.8032
    2MPD2    H214366   4.424   0.654  12.643  0.2058  1.9940  1.0885
    2MPD2    H314367   4.628   0.725  12.730  0.5051  0.0299 -1.3658
    2MPD2     N14368   4.701   0.338  12.969  0.2346  0.9054 -0.1180
    2MPD2    H514369   4.665   0.249  12.999  2.6157 -0.1705 -0.4319
    2MPD2    N114370   4.304   0.408  12.674 -0.6018 -0.0668  0.0374
    2MPD2    H714371   4.271   0.321  12.715  0.8915 -0.9694 -0.6633
    3TCq1    O114372   0.283   0.338  13.494 -0.0687  0.0672 -0.4713
    3TCq1    C114373   0.324   0.240  13.415 -0.1112 -0.1196  0.7058
    3TCq1    O214374   0.413   0.164  13.448 -0.6917  0.8608  0.4042
    3TCq1    C214375   0.220   0.215  13.324 -0.1533 -0.0876 -0.5897
    3TCq1    C314376   0.206   0.080  13.288  0.0937 -0.3791 -0.6874
    3TCq1    C414377   0.129   0.036  13.180 -0.1316 -0.7155 -0.1629
    3TCq1    C514378   0.081   0.136  13.100  0.0883  0.5528 -0.0874
    3TCq1    C614379   0.122   0.265  13.126  0.2682  0.2696 -0.6494
    3TCq1    C714380   0.189   0.310  13.234 -0.5049  0.1766 -0.0539
    3TCq1    C814381   0.081   0.373  13.039 -0.5195 -0.3614  0.1758
    3TCq1    O414382   0.160   0.469  13.025  0.5282  0.1262 -0.2081
    3TCq1    C914383   0.091   4.640  13.160  0.0282  1.1536  0.7472
    3TCq1    O514384   0.026   4.616  13.054 -0.4098  0.6591 -0.4401
    3TCq1    O614385   0.113   4.557  13.251  0.0404  0.4552  0.1598
    3TCq1    H114386   0.202   0.388  13.472  0.4252  1.1187  0.0638
    3TCq1    H214387   0.242   0.005  13.357 -1.7795 -1.9304 -1.3955
    3TCq1    H314388   0.022   0.113  13.013  0.7436  0.4591 -0.5108
    3TCq1    H414389   0.226   0.411  13.244 -3.9409  1.3063  1.2678
    1MPD2     C14390   3.874   1.010  14.874  0.7991 -0.0407  0.3976
    1MPD2    C114391   3.794   0.992  14.762  0.4405  0.3145  0.1936
    1MPD2    C214392   3.684   0.900  14.763 -0.4539  0.4697  0.0578
    1MPD2    C314393   3.646   0.841  14.883  0.6454  0.0151 -0.5578
    1MPD2    C414394   3.723   0.871  14.995  0.1902  0.8069  0.2873
    1MPD2    C514395   3.837   0.947  14.986  0.6820 -0.4052 -0.1119
    1MPD2     H14396   3.630   0.883  14.670  1.1254 -1.8838 -0.4349
    1MPD2    H114397   3.690   0.821  15.085  0.7476  0.5919  0.3721
    1MPD2    H214398   3.961   1.074  14.877  1.3218 -0.7303 -0.0550
    1MPD2    H314399   3.897   0.961  15.075  2.4058 -0.0783 -1.3350
    1MPD2     N14400   3.519   0.779  14.898  0.5553  0.0002 -0.4890
    1MPD2    H514401   3.484   0.749  14.989 -1.4176  3.2543 -0.1559
    1MPD2    N114402   3.815   1.073  14.651 -1.1721  0.4871  0.6979
    1MPD2    H714403   3.872   1.155  14.668  0.6159 -0.5129 -0.4092
    2TMC3    C114404   3.782   1.193  14.462 -0.3476  0.6261 -0.0254
    2TMC3    C214405   3.709   1.199  14.349 -0.5560 -0.7752 -0.0179
    2TMC3    C314406   3.632   1.308  14.326 -0.6859  0.3068  0.0743
    2TMC3    C414407   3.794   1.304  14.550 -0.5195  0.1853  1.0268
    2TMC3    C514408   3.732   1.421  14.507  0.4167 -0.3796  0.4690
    2TMC3    C614409   3.651   1.419  14.397  0.3430  1.0423  0.0923
    2TMC3     C14410   3.747   1.070  14.534  0.2210 -0.5420  0.4693
    2TMC3     O14411   3.648   1.004  14.501 -0.4756 -0.4341  0.4615
    2TMC3     H14412   3.691   1.110  14.291 -1.2178 -0.0450 -0.9445
    2TMC3    H114413   3.857   1.310  14.637 -0.3374  1.0086  0.8382
    2TMC3    H214414   3.569   1.490  14.402 -0.1887  0.4013  0.4367
    2TMC3    C714415   3.740   1.541  14.591 -0.0739  0.8009  0.8656
    2TMC3    C814416   3.489   1.280  14.324  0.2686 -0.0587  0.0487
    2TMC3    O114417   3.784   1.523  14.700  0.7770  0.0138  0.0047
    2TMC3    O214418   3.421   1.367  14.266 -0.4090 -0.1977 -0.4570
    3TCq1    O114419   3.312   2.437  14.027  0.7009 -0.0036 -0.3453
    3TCq1    C114420   3.345   2.331  14.107 -0.0518 -0.3214 -0.0544
    3TCq1    O214421   3.288   2.224  14.109  0.6031  0.5248 -0.0794
    3TCq1    C214422   3.460   2.377  14.187  0.8681 -0.0727 -0.4601
    3TCq1    C314423   3.529   2.493  14.166  0.2636  0.9709  1.3058
    3TCq1    C414424   3.627   2.528  14.254  0.2392 -0.5520  0.0353
    3TCq1    C514425   3.654   2.459  14.367  0.7027 -0.1571 -0.5483
    3TCq1    C614426   3.602   2.337  14.370  0.4979 -0.3962  0.3842
    3TCq1    C714427   3.502   2.298  14.288  0.2561 -0.8875 -0.8978
    3TCq1    C814428   3.625   2.250  14.480 -0.3411 -0.8298 -0.1832
    3TCq1    O414429   3.675   2.309  14.578  0.4256 -0.0316  0.1666
    3TCq1    C914430   3.700   2.649  14.226 -0.5628  0.6534  0.4173
    3TCq1    O514431   3.694   2.688  14.111  0.0913  0.4868  0.2953
    3TCq1    O614432   3.781   2.687  14.315 -0.0709  0.1351 -0.1127
    3TCq1    H114433   3.355   2.521  14.052 -0.0697  0.9859 -2.4139
    3TCq1    H214434   3.513   2.551  14.076  2.4719 -0.0879  0.2218
    3TCq1    H314435   3.740   2.487  14.428  1.6427 -1.5327 -1.2440
    3TCq1    H414436   3.438   2.215  14.314 -1.4376  0.7355  0.1207
    4MPD2     C14437   3.666   2.043  14.677 -1.1350 -0.0647 -0.2167
    4MPD2    C114438   3.660   2.016  14.541 -0.0420  0.0722  0.1810
    4MPD2    C214439   3.677   1.887  14.493 -0.4825 -0.7205 -0.1585
    4MPD2    C314440   3.703   1.778  14.579  0.6453 -0.2611 -0.0628
    4MPD2    C414441   3.710   1.801  14.714  0.0809  0.5904 -0.4097
    4MPD2    C514442   3.701   1.934  14.761  0.4059 -0.4488 -0.1483
    4MPD2     H14443   3.675   1.877  14.385 -1.6327 -0.8216 -0.1289
    4MPD2    H114444   3.716   1.724  14.790 -1.8309  2.0688  1.2393
    4MPD2    H214445   3.632   2.139  14.714  0.7989  0.1507  0.9523
    4MPD2    H314446   3.709   1.953  14.867 -0.3881 -2.4454  0.2696
    4MPD2     N14447   3.696   1.647  14.524  0.2800  0.1119 -0.2802
    4MPD2    H514448   3.666   1.644  14.427 -0.0078  0.1464 -0.1917
    4MPD2    N114449   3.625   2.119  14.451  0.2965 -0.4423 -0.0533
    4MPD2    H714450   3.597   2.081  14.361  0.6914 -0.6671 -0.0808
    5TMC2    C114451   3.104   0.683  14.725 -0.9613  0.4335  0.3514
    5TMC2    C214452   3.044   0.703  14.846 -0.0283  0.0780  0.2065
    5TMC2    C314453   3.119   0.699  14.952  0.6123  0.1424  0.3823
    5TMC2    C414454   3.237   0.663  14.726 -0.2509 -0.1755 -0.4206
    5TMC2    C514455   3.313   0.684  14.832 -0.3707 -0.0586  0.3385
    5TMC2    C614456   3.259   0.696  14.953  0.5311 -0.3825  0.1056
    5TMC2     C14457   3.055   0.781  14.628 -0.7331 -0.4895 -0.1264
    5TMC2     O14458   2.943   0.819  14.633  0.9824 -0.0977  0.2001
    5TMC2     H14459   2.937   0.718  14.843 -0.4507 -2.8857 -0.2449
    5TMC2    H114460   3.293   0.633  14.638  0.3483 -0.4861  0.0667
    5TMC2    H214461   3.314   0.716  15.044 -1.1091 -0.0442  1.0225
    5TMC2    C714462   3.434   0.747  14.794  0.3306  0.3892 -0.4389
    5TMC2    C814463   3.066   0.759  15.072 -0.0525  0.0631 -0.1235
    5TMC2    O114464   3.453   0.754  14.673  0.1894  0.4938  0.3127
    5TMC2    O214465   2.967   0.835  15.055  0.5245 -0.0059  0.0555
    5TMC2    O514466   3.105   0.686  15.179  0.7581 -0.0096 -0.2365
    5TMC2    H514467   3.184   0.629  15.169 -1.0484 -2.4008 -0.7302
    6MPD2     C14468   3.208   1.191  14.344 -0.0101 -0.5334 -0.2125
    6MPD2    C114469   3.313   1.120  14.397 -0.3092  0.3593  0.6479
    6MPD2    C214470   3.297   1.006  14.466 -0.2716 -0.1499  0.0011
    6MPD2    C314471   3.169   0.961  14.499 -0.0261 -0.1296 -0.1118
    6MPD2    C414472   3.060   1.023  14.438  0.0045 -0.0769  1.4309
    6MPD2    C514473   3.084   1.131  14.353  0.2049  0.4694  0.4284
    6MPD2     H14474   3.385   0.949  14.493 -0.2603  1.2379  2.8882
    6MPD2    H114475   2.961   0.980  14.447 -0.3709 -0.2011 -3.1114
    6MPD2    H214476   3.220   1.270  14.270 -1.3670 -0.2787 -0.1642
    6MPD2    H314477   3.002   1.180  14.302 -0.2195  0.6109  1.2413
    6MPD2     N14478   3.162   0.842  14.570 -0.5945 -0.1546  0.3190
    6MPD2    H514479   3.251   0.806  14.603  0.8071 -0.1221 -3.4089
    6MPD2    N114480   3.452   1.160  14.377  0.3616 -0.1504  0.2289
    6MPD2    H714481   3.524   1.105  14.421  1.0420  0.0160 -0.6799
  945NH3     N114482   1.996   4.493   3.217 -0.3415  0.5256 -0.2704
  945NH3     H214483   2.087   4.537   3.207 -0.5621  0.7163 -1.3985
  945NH3     H314484   1.958   4.529   3.130  1.1610  1.2642 -0.6135
  945NH3     H414485   2.012   4.394   3.200 -2.8717  0.0599 -0.0241
  946SOD     NA14486   3.580   1.727  15.115  0.5570  0.0461  0.7402
  947SOD     NA14487   2.736   4.669  14.080  0.3275 -0.3263 -0.0904
  948SOD     NA14488   0.882   2.633   2.543  0.0112  0.4172  0.0421
  949SOD     NA14489   0.273   2.403  11.454  0.3505 -0.1942 -0.3986
  950SOD     NA14490   3.509   0.422   5.632 -0.0458 -0.0300  0.0369
  951SOD     NA14491   0.317   3.208   1.161 -0.0989 -0.2024  0.4793
  952SOD     NA14492   1.043   4.389   1.780 -0.1726 -0.4692 -0.4355
  953SOD     NA14493   2.514   2.414  10.766 -0.1113 -0.0384  0.6227
  954SOL     OW14494   2.296   1.846   9.947 -0.4842  0.1028  0.3566
  954SOL    HW114495   2.381   1.827   9.987  0.1168  1.3544 -0.3202
  954SOL    HW214496   2.257   1.773   9.994 -1.4852 -0.5891 -1.5563
  955SOL     OW14497   4.091   0.631  16.290 -0.0457 -0.6456  0.7738
  955SOL    HW114498   4.007   0.676  16.285  0.4900  0.3434  0.7908
  955SOL    HW214499   4.125   0.648  16.378 -1.4568  0.9623  0.9983
  956SOL     OW14500   3.733   3.188   8.057 -0.3604  0.3209 -0.2831
  956SOL    HW114501   3.799   3.185   7.988  0.6189 -3.0461  0.8093
  956SOL    HW214502   3.754   3.265   8.111  0.4426 -0.6088  0.7194
  957SOL     OW14503   0.648   2.358   1.949 -0.2904 -0.3544 -0.7011
  957SOL    HW114504   0.627   2.445   1.915 -1.1437 -0.2457  0.0776
  957SOL    HW214505   0.568   2.337   1.998  1.0822 -2.4612  0.6581
  958SOL     OW14506   2.408   3.097  10.134  0.1265  0.1191 -0.1438
  958SOL    HW114507   2.433   3.179  10.092  1.1754  0.2059  0.6340
  958SOL    HW214508   2.330   3.126  10.181  0.1122 -0.4324  0.1729
  959SOL     OW14509   1.881   3.482   5.231 -0.2965 -0.0738 -0.2756
  959SOL    HW114510   1.794   3.519   5.249 -0.3165  0.0542 -0.6378
  959SOL    HW214511   1.913   3.452   5.316 -1.9382  2.0068  1.0796
  960SOL     OW14512   0.159   3.267   4.363 -0.3707 -0.1880 -0.3223
  960SOL    HW114513   0.147   3.272   4.457 -1.8252  2.2875 -0.6543
  960SOL    HW214514   0.071   3.234   4.342 -1.0034 -0.0407  2.1488
  961SOL     OW14515   2.751   1.805   6.044  0.1831  0.0042 -0.2917
  961SOL    HW114516   2.688   1.733   6.038  0.4273 -0.3929  1.8311
  961SOL    HW214517   2.715   1.874   5.989  1.8294  0.7844 -0.3984
  962SOL     OW14518   1.918   3.136   4.141 -0.3474  0.0293 -0.8163
  962SOL    HW114519   1.909   3.140   4.236  2.7713  3.1358 -0.6519
  962SOL    HW214520   1.922   3.230   4.126  0.4743 -0.1545 -1.7859
  963SOL     OW14521   1.123   2.110   5.999 -0.5037  0.1936 -0.5020
  963SOL    HW114522   1.068   2.035   6.023 -1.3597  0.8765 -0.3184
  963SOL    HW214523   1.080   2.177   6.053  0.3464 -0.5730  1.1447
  964SOL     OW14524   0.559   3.478   5.474  0.3525  0.5570  0.3149
  964SOL    HW114525   0.500   3.540   5.432 -0.6139 -0.7533 -0.2794
  964SOL    HW214526   0.620   3.539   5.516  1.7605 -0.9439  0.4678
  965SOL     OW14527   3.333   1.171   2.917  0.0588 -0.0721  0.1489
  965SOL    HW114528   3.327   1.195   3.010 -0.1273  0.8974 -0.1129
  965SOL    HW214529   3.284   1.243   2.879 -0.5132 -0.5006  0.0794
  966SOL     OW14530   1.543   3.539  15.737  0.3695 -0.2714  0.1114
  966SOL    HW114531   1.450   3.543  15.717  0.6972  0.8822 -1.2049
  966SOL    HW214532   1.540   3.615  15.794 -1.4315 -0.6624  0.5356
  967SOL     OW14533   1.482   2.295   4.147 -0.3057  0.0535 -0.0384
  967SOL    HW114534   1.483   2.365   4.213 -0.9011 -0.8152  0.8927
  967SOL    HW214535   1.567   2.253   4.160 -0.5299 -0.9352 -1.7184
  968SOL     OW14536   2.488   1.748   3.210  0.4110 -0.1912  0.4972
  968SOL    HW114537   2.466   1.662   3.173  0.5352 -0.1912  0.4213
  968SOL    HW214538   2.510   1.722   3.300 -0.7854 -0.9282  0.5772
  969SOL     OW14539   3.108   3.717   8.729  0.1991  0.2380 -0.1342
  969SOL    HW114540   3.125   3.630   8.765  0.4279 -0.0404 -0.9145
  969SOL    HW214541   3.190   3.758   8.755  0.0191 -0.0821  0.9469
  970SOL     OW14542   0.270   2.715  12.291 -0.2646 -0.3280  0.3775
  970SOL    HW114543   0.250   2.678  12.377 -0.2877  2.3579  1.5342
  970SOL    HW214544   0.356   2.753  12.308 -1.0998  1.4957  0.4843
  971SOL     OW14545   3.299   2.089  10.518 -0.2463 -0.5214 -0.0218
  971SOL    HW114546   3.345   2.006  10.528 -1.6352 -1.2121  0.5946
  971SOL    HW214547   3.358   2.147  10.470 -1.1672  0.5683  0.1665
  972SOL     OW14548   3.226   0.656   0.962 -0.8163  0.3214  0.6179
  972SOL    HW114549   3.262   0.578   1.004 -1.0014 -0.4481 -0.6272
  972SOL    HW214550   3.136   0.644   0.991  0.0644  0.7344  3.5124
  973SOL     OW14551   2.711   1.788  16.172 -0.3506 -0.7513  0.4496
  973SOL    HW114552   2.641   1.741  16.216 -0.3045 -0.5791  0.7123
  973SOL    HW214553   2.750   1.723  16.114 -0.1972 -0.7288  0.5245
  974SOL     OW14554   0.136   4.655  11.001 -0.0225 -0.0390  0.1208
  974SOL    HW114555   0.171   4.571  10.972 -1.2207 -0.5351  0.0889
  974SOL    HW214556   0.088   4.691  10.926  0.3780  0.1744 -0.0298
  975SOL     OW14557   2.260   0.718   9.363 -0.3720  0.4419  0.2037
  975SOL    HW114558   2.336   0.755   9.318 -1.7445  2.2568 -0.5851
  975SOL    HW214559   2.180   0.759   9.329  0.8174  2.1769 -0.4800
  976SOL     OW14560   0.936   0.641   3.796  0.0724 -0.3406  0.1790
  976SOL    HW114561   0.974   0.553   3.792  0.6592 -0.0886  0.2296
  976SOL    HW214562   1.013   0.694   3.777  0.8672 -0.7204  2.3187
  977SOL     OW14563   1.225   2.331  10.053 -0.2177 -0.5751 -0.0749
  977SOL    HW114564   1.219   2.377  10.137  0.7245 -0.2520 -0.1809
  977SOL    HW214565   1.217   2.241  10.085 -0.5606 -0.3330  0.5233
  978SOL     OW14566   2.933   2.458  14.308  0.3706 -0.0968 -0.5817
  978SOL    HW114567   2.850   2.492  14.342 -0.1711 -1.1140 -0.8912
  978SOL    HW214568   2.917   2.484  14.217  2.5759  0.6069 -0.7777
  979SOL     OW14569   0.076   4.527   7.074  0.1756  0.1963 -0.1060
  979SOL    HW114570   0.086   4.492   6.986  0.3808 -0.9314  0.3756
  979SOL    HW214571   0.000   4.479   7.107  0.7999 -0.9054 -0.2948
  980SOL     OW14572   3.243   0.050   7.629  0.6326  0.2491  0.4868
  980SOL    HW114573   3.156   0.066   7.668  0.1890  0.7960 -0.7277
  980SOL    HW214574   3.302   0.060   7.703 -1.6988 -1.5118  2.5994
  981SOL     OW14575   0.100   1.662  17.389 -0.2613  0.0824  0.1815
  981SOL    HW114576   0.113   1.746  17.434  2.3944 -1.2269  1.8054
  981SOL    HW214577   0.173   1.616  17.429  0.7846  0.3605 -1.4030
  982SOL     OW14578   4.708   3.897   5.316  0.2568  0.2418  0.1338
  982SOL    HW114579   0.035   3.933   5.379  1.7727 -0.5123 -0.9524
  982SOL    HW214580   4.713   3.960   5.243  0.0165  1.0997  0.8572
  983SOL     OW14581   0.486   0.992   9.143  0.2917 -0.2495 -0.2211
  983SOL    HW114582   0.480   0.955   9.231  0.0837  0.0328 -0.1190
  983SOL    HW214583   0.511   0.910   9.099  0.5629 -0.6964  0.7691
  984SOL     OW14584   2.325   1.407   7.100  0.2749 -0.4949 -0.1942
  984SOL    HW114585   2.244   1.377   7.059  0.3733 -2.7318  1.2430
  984SOL    HW214586   2.318   1.374   7.190  2.6894  0.4577  0.3490
  985SOL     OW14587   4.511   1.564  16.193  0.9098  0.1058  0.0556
  985SOL    HW114588   4.589   1.609  16.224  1.7209 -0.1643 -1.6098
  985SOL    HW214589   4.448   1.588  16.261 -2.7075  1.4464 -3.7300
  986SOL     OW14590   1.374   2.560   4.568 -0.1126  0.6413  0.1447
  986SOL    HW114591   1.286   2.541   4.601  0.6328  0.2268  1.9000
  986SOL    HW214592   1.370   2.641   4.518  0.3687  0.9189  0.5562
  987SOL     OW14593   0.866   3.930   6.253 -0.1102 -0.7016 -0.4699
  987SOL    HW114594   0.937   3.886   6.206  2.8336  2.7055  0.7716
  987SOL    HW214595   0.820   3.857   6.294 -1.8879  0.9156  0.4163
  988SOL     OW14596   3.438   4.381   4.490 -0.1888 -0.3923  0.2398
  988SOL    HW114597   3.367   4.341   4.541  0.2905  1.2265  2.1165
  988SOL    HW214598   3.492   4.308   4.460  0.0212  0.4824 -1.5530
  989SOL     OW14599   0.056   4.531   5.741 -0.1379  0.3158 -0.2124
  989SOL    HW114600   0.057   4.485   5.657  4.1696  1.3463 -0.7290
  989SOL    HW214601   4.701   4.556   5.753  0.2831  1.7742 -0.0405
  990SOL     OW14602   1.124   3.057   4.966  0.6101  0.0335  0.5138
  990SOL    HW114603   1.089   3.145   4.979  0.2853  0.0568 -0.5793
  990SOL    HW214604   1.169   3.050   5.051 -0.3357 -0.5388  0.9753
  991SOL     OW14605   2.009   0.968  12.241 -0.0440 -0.1699 -0.3035
  991SOL    HW114606   1.917   0.969  12.266 -0.3160 -0.5759 -1.2988
  991SOL    HW214607   2.053   1.034  12.295 -0.0598 -1.8384  1.7318
  992SOL     OW14608   2.812   1.738   9.157 -0.5847 -0.4021  0.2419
  992SOL    HW114609   2.737   1.725   9.099  0.5390  0.5309 -1.4141
  992SOL    HW214610   2.764   1.735   9.239 -1.4900  3.0886 -0.1623
  993SOL     OW14611   4.365   4.483   3.121 -0.8887 -0.2663 -0.2190
  993SOL    HW114612   4.356   4.527   3.036  0.9278  1.6561  0.5850
  993SOL    HW214613   4.332   4.393   3.124  0.3768 -0.7334 -0.5987
  994SOL     OW14614   3.265   1.533   3.547  0.4417 -0.0062 -0.5202
  994SOL    HW114615   3.316   1.469   3.497  0.4862  0.5868 -1.2359
  994SOL    HW214616   3.173   1.516   3.526  0.0963 -0.5842  1.4177
  995SOL     OW14617   0.894   3.027   8.204 -0.8814 -0.0074 -0.2256
  995SOL    HW114618   0.909   2.932   8.204  3.9920  0.8051  0.9515
  995SOL    HW214619   0.813   3.033   8.255 -0.0825  1.4759  0.8376
  996SOL     OW14620   1.857   0.364   3.087 -0.0847 -0.2857  0.8724
  996SOL    HW114621   1.836   0.376   2.995 -1.7461  2.2368  1.5719
  996SOL    HW214622   1.909   0.284   3.084  1.1244  0.3944  2.9437
  997SOL     OW14623   3.135   3.495   2.741 -0.2540  0.0704 -0.4336
  997SOL    HW114624   3.092   3.422   2.786  0.2420 -0.1599 -0.3257
  997SOL    HW214625   3.060   3.549   2.720  0.4856  0.2794 -2.4756
  998SOL     OW14626   3.319   1.616   7.783 -0.2526  0.5489 -0.3469
  998SOL    HW114627   3.346   1.623   7.874  0.2697 -0.0987 -0.4462
  998SOL    HW214628   3.228   1.587   7.779 -0.3483  1.0981 -2.1236
  999SOL     OW14629   3.812   3.745   6.968  0.3350  0.6704 -0.1794
  999SOL    HW114630   3.896   3.702   6.958  0.4995  0.3587  2.5399
  999SOL    HW214631   3.770   3.695   6.898  1.8436 -1.2429  0.2840
 1000SOL     OW14632   0.679   3.454  11.384  0.2336 -0.2561  0.0767
 1000SOL    HW114633   0.770   3.477  11.405  0.0927  0.2416  0.1383
 1000SOL    HW214634   0.661   3.366  11.417 -0.3265 -0.1411  0.0829
 1001SOL     OW14635   3.695   2.291   7.482 -0.2708  0.1082  0.2932
 1001SOL    HW114636   3.725   2.376   7.452  2.3348 -0.3047  1.7214
 1001SOL    HW214637   3.721   2.282   7.574 -1.5417  0.3716  0.6767
 1002SOL     OW14638   3.302   4.164  15.333  0.8180  0.1154 -0.1890
 1002SOL    HW114639   3.357   4.229  15.378 -0.5295  0.5215  0.8774
 1002SOL    HW214640   3.219   4.187  15.374  0.9346 -0.2146  0.2345
 1003SOL     OW14641   0.155   4.113   4.904  0.4035  0.0131  0.3846
 1003SOL    HW114642   0.115   4.194   4.935 -1.7083 -0.1018 -2.0209
 1003SOL    HW214643   0.234   4.105   4.957  0.9246  0.1418 -0.3789
 1004SOL     OW14644   0.884   2.765  16.683  0.3712 -0.0413  0.5177
 1004SOL    HW114645   0.913   2.686  16.638 -0.3773  1.5376 -2.7098
 1004SOL    HW214646   0.855   2.824  16.613  2.8009  2.7046  1.8309
 1005SOL     OW14647   4.574   2.747  14.301 -0.2426 -0.0003  0.0775
 1005SOL    HW114648   4.627   2.680  14.344 -2.0991 -0.4358  1.7032
 1005SOL    HW214649   4.599   2.749  14.209  0.8277 -0.8318  0.3573
 1006SOL     OW14650   0.040   3.332   3.564 -0.4183 -0.1039  0.5065
 1006SOL    HW114651   4.703   3.391   3.550 -0.0248 -0.0606 -1.4207
 1006SOL    HW214652   0.042   3.294   3.476 -0.4728 -1.2060  0.9838
 1007SOL     OW14653   2.726   1.995   8.285  0.3267  0.3070  0.0874
 1007SOL    HW114654   2.637   1.969   8.261  0.1840  0.5220  0.3858
 1007SOL    HW214655   2.740   2.024   8.195  1.9722 -1.2305 -0.1453
 1008SOL     OW14656   4.320   4.404   3.919  0.6364  0.0731  0.5587
 1008SOL    HW114657   4.296   4.311   3.912  1.8615 -0.0309 -2.1684
 1008SOL    HW214658   4.294   4.428   4.008  1.2035 -0.0456  0.7534
 1009SOL     OW14659   4.057   4.235   8.109  0.0315 -0.0702 -0.5560
 1009SOL    HW114660   3.983   4.203   8.161  0.2850  0.2624  0.0020
 1009SOL    HW214661   4.040   4.328   8.101  0.5996  0.2342  1.9403
 1010SOL     OW14662   0.394   0.421   7.933 -0.0792 -0.2655 -0.9356
 1010SOL    HW114663   0.365   0.501   7.978 -1.1020  0.8187 -3.5235
 1010SOL    HW214664   0.399   0.446   7.841 -0.7795  0.0787 -0.8830
 1011SOL     OW14665   2.111   1.393   7.630 -0.4289 -0.2483 -0.5272
 1011SOL    HW114666   2.067   1.325   7.579 -0.2018 -1.4065  0.8301
 1011SOL    HW214667   2.069   1.471   7.594 -2.5051 -0.3846  1.6600
 1012SOL     OW14668   0.577   3.759   9.058 -0.2778 -0.2581 -0.4471
 1012SOL    HW114669   0.570   3.721   9.145 -3.2125  1.3401  0.0322
 1012SOL    HW214670   0.671   3.751   9.045 -0.1480 -0.2226  0.4472
 1013SOL     OW14671   1.863   1.958   7.268  0.2122 -0.3681 -0.3761
 1013SOL    HW114672   1.798   2.024   7.294  0.9218  0.7738 -1.4902
 1013SOL    HW214673   1.944   2.009   7.271  0.3049 -0.5255 -0.2183
 1014SOL     OW14674   0.216   4.589  14.981  0.3233  0.1684  0.2220
 1014SOL    HW114675   0.140   4.617  14.929  1.6170  0.1405 -1.6622
 1014SOL    HW214676   0.282   4.645  14.942  0.0028 -0.3817 -1.1096
 1015SOL     OW14677   2.719   1.008   8.226  0.0873 -0.7576 -0.0756
 1015SOL    HW114678   2.679   0.925   8.253  1.5165 -1.0578  1.1306
 1015SOL    HW214679   2.686   1.008   8.136  2.0823  0.4844 -0.7992
 1016SOL     OW14680   2.184   4.177   3.093 -0.7842 -0.9260 -0.4127
 1016SOL    HW114681   2.180   4.165   3.188  1.7698 -0.4629 -0.2256
 1016SOL    HW214682   2.091   4.168   3.076 -1.2494  1.8260  0.7995
 1017SOL     OW14683   4.183   0.545  11.124 -0.2744 -0.8782 -0.1881
 1017SOL    HW114684   4.267   0.576  11.089 -0.5801 -0.3260 -0.4351
 1017SOL    HW214685   4.187   0.564  11.217  0.5120  0.8242 -0.5791
 1018SOL     OW14686   3.369   1.013   8.422  0.4436 -0.6259 -0.4298
 1018SOL    HW114687   3.320   1.082   8.377 -0.6642 -0.8974  0.3602
 1018SOL    HW214688   3.380   0.952   8.349 -0.6187 -1.3736  0.0286
 1019SOL     OW14689   0.475   3.938   6.782 -0.0415  0.4367 -0.0754
 1019SOL    HW114690   0.552   3.995   6.777  0.9803 -0.9880 -0.7122
 1019SOL    HW214691   0.451   3.941   6.874 -0.2420  1.0839 -0.1441
 1020SOL     OW14692   1.338   1.548   7.716 -0.7226 -0.8167 -0.1966
 1020SOL    HW114693   1.331   1.544   7.811 -1.2399  0.1178 -0.1929
 1020SOL    HW214694   1.247   1.563   7.691 -0.5776 -1.3126 -1.0116
 1021SOL     OW14695   3.711   1.960   2.305 -0.0452  0.1550  0.1394
 1021SOL    HW114696   3.639   1.913   2.263 -0.2053  2.5086 -2.1845
 1021SOL    HW214697   3.667   2.036   2.343 -0.7586 -0.5865  0.8177
 1022SOL     OW14698   0.451   1.050   8.455  0.3097  0.4563 -0.4031
 1022SOL    HW114699   0.384   1.108   8.490 -0.3704 -0.9725  0.6419
 1022SOL    HW214700   0.538   1.071   8.489  0.3731  0.0848 -0.3377
 1023SOL     OW14701   2.278   1.325   1.952 -0.1258  0.3333 -0.3468
 1023SOL    HW114702   2.198   1.336   1.901  0.2218  3.3927 -0.1957
 1023SOL    HW214703   2.259   1.397   2.012 -0.1464 -1.3216  1.6386
 1024SOL     OW14704   3.003   2.047  12.454 -0.1843  0.1684  0.2445
 1024SOL    HW114705   3.004   2.128  12.404 -0.1878 -0.3275 -0.5680
 1024SOL    HW214706   2.913   2.030  12.424  0.9164 -2.4157 -1.5778
 1025SOL     OW14707   0.734   0.384  12.375 -0.0944 -0.2174  0.4598
 1025SOL    HW114708   0.694   0.468  12.354  0.3497  0.0428  0.6361
 1025SOL    HW214709   0.826   0.394  12.350 -0.8923  0.5576 -2.1938
 1026SOL     OW14710   0.777   2.539   3.786 -0.1517  0.1960 -0.0606
 1026SOL    HW114711   0.693   2.584   3.774  0.0909  1.1038  1.6954
 1026SOL    HW214712   0.834   2.594   3.733 -0.9573  0.6292 -0.4789
 1027SOL     OW14713   4.171   3.417   9.446 -0.1997 -0.6631 -0.5941
 1027SOL    HW114714   4.263   3.435   9.426 -0.4873  0.5947 -0.7499
 1027SOL    HW214715   4.128   3.421   9.361 -3.1983 -1.0928  0.8936
 1028SOL     OW14716   4.239   4.313   1.918  0.1833 -0.0925  0.3163
 1028SOL    HW114717   4.294   4.357   1.983 -0.1516  0.3029  0.3330
 1028SOL    HW214718   4.159   4.331   1.967 -0.2529  2.1270 -1.2431
 1029SOL     OW14719   2.182   4.191   2.040 -0.2364  0.0156  0.1347
 1029SOL    HW114720   2.108   4.162   2.092  0.4505 -1.6000  0.2254
 1029SOL    HW214721   2.133   4.248   1.980 -0.1749  0.4198  0.4692
 1030SOL     OW14722   1.722   4.057   4.786  0.5015 -0.3642 -0.5903
 1030SOL    HW114723   1.805   4.046   4.832 -0.1881 -2.6528  0.0745
 1030SOL    HW214724   1.749   4.058   4.694  0.5688 -1.1036 -0.5755
 1031SOL     OW14725   3.662   4.135  13.434 -0.0008  0.7229 -0.1295
 1031SOL    HW114726   3.620   4.105  13.514 -0.2305  1.0188 -0.1404
 1031SOL    HW214727   3.673   4.051  13.389  2.2138  1.1654 -0.4319
 1032SOL     OW14728   2.798   4.601  16.337 -0.3509  0.3207  0.0897
 1032SOL    HW114729   2.754   4.641  16.412  2.6990 -1.4620  2.8497
 1032SOL    HW214730   2.816   4.671  16.276 -1.0190  0.0120 -0.4589
 1033SOL     OW14731   3.657   3.240   5.397  0.7784  0.0358 -0.3212
 1033SOL    HW114732   3.600   3.315   5.379  0.5866  0.0070  0.1835
 1033SOL    HW214733   3.646   3.236   5.492  0.1922  1.1889 -0.3349
 1034SOL     OW14734   4.132   4.457   2.306  0.5174  0.0892 -0.9623
 1034SOL    HW114735   4.053   4.484   2.353  1.4514 -0.4250  0.9366
 1034SOL    HW214736   4.168   4.401   2.375  2.2883  2.1912 -0.1946
 1035SOL     OW14737   4.670   3.218   9.428  0.5505 -0.5985 -0.4799
 1035SOL    HW114738   0.011   3.275   9.425  0.2841 -0.1397  1.1798
 1035SOL    HW214739   4.701   3.159   9.497 -1.4970 -0.1410  0.8356
 1036SOL     OW14740   0.459   2.501   4.425  0.2571  0.0928  0.4392
 1036SOL    HW114741   0.474   2.451   4.345 -0.8060  2.7915 -1.4377
 1036SOL    HW214742   0.364   2.506   4.431  0.4708  0.3847  3.3970
 1037SOL     OW14743   4.281   0.111  11.213 -0.7698  0.2209 -0.3085
 1037SOL    HW114744   4.304   0.100  11.120 -2.4344  0.2313 -0.7142
 1037SOL    HW214745   4.296   0.026  11.254 -1.1935  0.0857 -0.4339
 1038SOL     OW14746   3.381   3.396  16.064  0.1728 -0.4450  0.5902
 1038SOL    HW114747   3.415   3.424  16.149 -2.2203  2.7499  0.4924
 1038SOL    HW214748   3.469   3.366  16.040 -0.2268 -0.7737 -0.4756
 1039SOL     OW14749   2.154   0.727   6.308 -0.2697  0.2693  0.5073
 1039SOL    HW114750   2.159   0.798   6.244  0.0135 -0.9669 -0.8402
 1039SOL    HW214751   2.155   0.766   6.395  0.8356  0.6731  0.3093
 1040SOL     OW14752   2.072   0.174   2.053 -0.0280  0.4782 -1.0309
 1040SOL    HW114753   2.037   0.130   2.131 -0.3914  1.1536 -0.8142
 1040SOL    HW214754   2.148   0.221   2.088  0.0750 -0.1208 -0.4448
 1041SOL     OW14755   1.815   2.714   5.537 -0.1638  0.4397 -0.0734
 1041SOL    HW114756   1.806   2.810   5.538 -0.8805  0.3674  0.4947
 1041SOL    HW214757   1.722   2.691   5.538  0.1462 -0.7774  0.6573
 1042SOL     OW14758   4.257   0.070   0.462  0.2835  0.1398 -0.6287
 1042SOL    HW114759   4.332   0.120   0.429  0.6086 -1.2339 -1.9938
 1042SOL    HW214760   4.248   0.004   0.394  0.0687  1.9874 -2.4107
 1043SOL     OW14761   1.620   1.623  16.178 -0.0104 -0.0277  0.4786
 1043SOL    HW114762   1.670   1.621  16.096  1.1719  0.9460  1.1602
 1043SOL    HW214763   1.596   1.531  16.184 -0.7655  0.0818 -1.1400
 1044SOL     OW14764   4.023   3.560  12.496 -0.6693  0.6315  0.4038
 1044SOL    HW114765   4.076   3.575  12.574 -1.0496 -2.6192  1.2904
 1044SOL    HW214766   3.936   3.535  12.529 -0.9012 -1.1841 -1.5758
 1045SOL     OW14767   1.605   3.057  10.126 -0.1684 -0.0875  0.1763
 1045SOL    HW114768   1.571   3.098  10.206 -0.5773 -1.1714  0.5607
 1045SOL    HW214769   1.642   2.978  10.165  0.4383  0.0974 -0.0259
 1046SOL     OW14770   3.846   4.235   8.537 -0.1809 -0.4698  0.3028
 1046SOL    HW114771   3.789   4.297   8.492  1.4014  0.7427 -0.0259
 1046SOL    HW214772   3.780   4.171   8.567 -1.0726  0.6059  0.6334
 1047SOL     OW14773   4.449   2.569   1.113 -0.1297  0.2166  0.1156
 1047SOL    HW114774   4.368   2.539   1.154 -1.2649  2.4832 -0.4693
 1047SOL    HW214775   4.448   2.659   1.145  1.7025  0.3592 -0.2451
 1048SOL     OW14776   0.844   3.831   5.758 -0.0285  0.5439 -0.6129
 1048SOL    HW114777   0.837   3.834   5.854  2.6718 -2.6616 -0.3392
 1048SOL    HW214778   0.779   3.898   5.738 -1.1355 -0.3392 -0.0307
 1049SOL     OW14779   2.328   4.594  11.162  0.5443  0.3582 -0.0754
 1049SOL    HW114780   2.245   4.641  11.163  1.9803  2.9051 -0.3353
 1049SOL    HW214781   2.365   4.594  11.250 -0.9340  0.0292  0.5365
 1050SOL     OW14782   2.040   0.980   8.269  0.0310  0.3523  0.2694
 1050SOL    HW114783   1.962   1.021   8.231  0.0478 -0.0708 -0.2279
 1050SOL    HW214784   2.062   0.928   8.192  0.5392 -0.7797  1.1855
 1051SOL     OW14785   0.918   3.624   4.453 -0.2862 -0.0161 -0.3457
 1051SOL    HW114786   0.824   3.635   4.441 -0.4128  1.0299  1.6090
 1051SOL    HW214787   0.928   3.529   4.460 -1.9403 -0.2020 -0.5727
 1052SOL     OW14788   2.332   0.023   8.896  0.1176 -0.4946 -0.2365
 1052SOL    HW114789   2.255   0.079   8.896  0.9745  0.6451  1.3794
 1052SOL    HW214790   2.333   0.007   8.990 -1.8362 -3.1402 -0.6576
 1053SOL     OW14791   0.983   3.563   7.085  0.3083  0.0978  0.3117
 1053SOL    HW114792   0.969   3.653   7.117  1.5872  0.2945  0.3187
 1053SOL    HW214793   1.002   3.513   7.165  2.4245  1.3152  0.5924
 1054SOL     OW14794   3.138   1.493  15.924 -0.0383  0.2949 -0.6099
 1054SOL    HW114795   3.135   1.402  15.952  2.3608 -0.0717 -1.5468
 1054SOL    HW214796   3.231   1.514  15.916  0.4873 -1.8513 -0.2024
 1055SOL     OW14797   2.575   2.315   5.967  0.0411 -0.4945  0.2320
 1055SOL    HW114798   2.596   2.372   5.893 -1.1394  0.9074  0.9703
 1055SOL    HW214799   2.515   2.373   6.013  0.8429  0.9250 -0.4965
 1056SOL     OW14800   4.084   4.018   7.955 -0.1078 -0.7349  0.2320
 1056SOL    HW114801   4.150   4.063   7.902 -0.7259  0.8124  0.7726
 1056SOL    HW214802   4.061   4.093   8.009 -3.3695 -2.1456  0.7858
 1057SOL     OW14803   0.131   3.875  15.700  0.6298 -0.5177  0.6161
 1057SOL    HW114804   0.038   3.864  15.720  0.9826 -0.2664  2.3458
 1057SOL    HW214805   0.128   3.866  15.604  2.5604  2.3734  0.2995
 1058SOL     OW14806   3.236   0.115   6.766  0.1146 -0.3343 -0.4070
 1058SOL    HW114807   3.265   0.097   6.855  0.6259  1.7102 -0.1613
 1058SOL    HW214808   3.285   0.194   6.747  0.3998 -0.5024 -0.3680
 1059SOL     OW14809   0.360   0.748   7.700  0.4097  0.1551  0.1404
 1059SOL    HW114810   0.419   0.823   7.690  1.8977 -1.0268  0.0191
 1059SOL    HW214811   0.338   0.764   7.792  1.8568 -4.4799  1.2652
 1060SOL     OW14812   3.300   4.540   6.823 -0.0584  0.8274  0.0513
 1060SOL    HW114813   3.350   4.511   6.899  0.5591  0.1257 -0.6264
 1060SOL    HW214814   3.276   4.630   6.844 -0.4789  0.5504  0.7534
 1061SOL     OW14815   0.234   3.404   1.089  0.0760 -0.8155 -0.1653
 1061SOL    HW114816   0.294   3.465   1.048  0.8967 -0.2210  1.9322
 1061SOL    HW214817   0.171   3.463   1.130  0.6014 -0.0621 -0.4600
 1062SOL     OW14818   1.970   4.346   8.047 -0.7520 -0.6042 -0.0724
 1062SOL    HW114819   1.942   4.282   7.981  1.2810  0.0596 -1.5559
 1062SOL    HW214820   1.910   4.416   8.023  1.0154  0.5434 -1.1165
 1063SOL     OW14821   1.313   1.707   8.891 -0.3698 -0.0361 -0.5097
 1063SOL    HW114822   1.322   1.702   8.986 -2.0774 -0.9315 -0.3820
 1063SOL    HW214823   1.305   1.800   8.870 -1.1364  0.1871  0.8008
 1064SOL     OW14824   0.957   2.302   6.093 -0.4990  0.1181 -0.0797
 1064SOL    HW114825   0.875   2.334   6.130 -0.6751 -0.1307 -0.2501
 1064SOL    HW214826   1.015   2.372   6.123 -1.6077  0.7773  0.5054
 1065SOL     OW14827   3.638   3.345   3.190  0.4386 -0.9980 -0.3774
 1065SOL    HW114828   3.639   3.300   3.106  0.3443 -0.5835 -0.5954
 1065SOL    HW214829   3.547   3.334   3.218  0.6143 -0.2583  0.5035
 1066SOL     OW14830   2.761   0.030   6.995 -0.6140  0.3680  0.3394
 1066SOL    HW114831   2.808   0.056   6.916 -0.8388 -1.1383 -0.2863
 1066SOL    HW214832   2.762   0.114   7.040 -0.8351  0.0325  0.9667
 1067SOL     OW14833   2.278   1.626  15.932  0.1295  0.0124 -0.0002
 1067SOL    HW114834   2.283   1.646  16.025 -0.4263  2.9538 -0.5874
 1067SOL    HW214835   2.335   1.693  15.895  0.5980  0.1937  1.0559
 1068SOL     OW14836   1.071   2.718  10.610 -0.3740  0.4147 -0.2864
 1068SOL    HW114837   0.976   2.729  10.609 -0.4819 -0.4286  0.2125
 1068SOL    HW214838   1.105   2.786  10.552 -0.6459  0.3990 -0.4652
 1069SOL     OW14839   0.385   0.631   2.456  0.4587 -0.4760  0.0129
 1069SOL    HW114840   0.337   0.551   2.478  2.0910 -1.3493  0.3987
 1069SOL    HW214841   0.474   0.598   2.470  0.2615 -0.3740  1.4928
 1070SOL     OW14842   3.199   2.391  13.492 -1.3033 -0.1887 -0.2173
 1070SOL    HW114843   3.188   2.459  13.426  1.6289  0.5035  0.0147
 1070SOL    HW214844   3.123   2.410  13.547 -1.1138  0.7920 -0.3043
 1071SOL     OW14845   2.410   4.715   3.649  0.3609 -0.0254  0.0010
 1071SOL    HW114846   2.385   4.651   3.583 -1.1068  1.3238 -0.7506
 1071SOL    HW214847   2.424   4.668   3.732  0.8663  1.9488  1.0399
 1072SOL     OW14848   4.146   1.505  11.569 -0.3608 -0.0857 -0.0916
 1072SOL    HW114849   4.169   1.449  11.495 -1.7927  0.1513 -0.7066
 1072SOL    HW214850   4.162   1.456  11.650  1.4472  1.8856  0.7558
 1073SOL     OW14851   4.085   4.146   6.844  0.2539  0.2589 -0.1154
 1073SOL    HW114852   3.996   4.115   6.862  1.0313 -1.1132  1.3383
 1073SOL    HW214853   4.126   4.121   6.927 -1.0596  1.9337  1.0381
 1074SOL     OW14854   3.370   2.193   4.805  0.1592 -0.3831  0.4382
 1074SOL    HW114855   3.309   2.251   4.850 -0.5098  1.1050 -2.4367
 1074SOL    HW214856   3.350   2.105   4.840  0.6187  0.2273  2.2585
 1075SOL     OW14857   2.976   4.188   6.328 -0.3574 -0.3886  0.4695
 1075SOL    HW114858   2.908   4.241   6.369 -1.2259 -1.6743  0.7002
 1075SOL    HW214859   3.020   4.257   6.278 -0.0169 -1.3277 -0.5559
 1076SOL     OW14860   1.774   0.305  10.873 -1.2047 -0.2329  0.2990
 1076SOL    HW114861   1.684   0.316  10.905 -1.5975  0.4675 -1.0170
 1076SOL    HW214862   1.814   0.283  10.957  2.0026  1.5178 -0.7825
 1077SOL     OW14863   1.499   2.871   5.252  0.0581 -0.2532 -0.4246
 1077SOL    HW114864   1.481   2.865   5.158 -2.9378 -0.9732  0.1959
 1077SOL    HW214865   1.578   2.924   5.244 -0.1460  0.0214 -0.5992
 1078SOL     OW14866   1.689   1.664  14.182 -0.5173 -0.5327  0.0481
 1078SOL    HW114867   1.753   1.610  14.229 -0.8531 -1.7437 -0.8862
 1078SOL    HW214868   1.752   1.700  14.119 -1.2633 -1.3305 -1.1557
 1079SOL     OW14869   3.649   0.563   4.515  0.1173 -0.8808 -0.0216
 1079SOL    HW114870   3.716   0.630   4.532  0.1828 -0.8581 -0.3712
 1079SOL    HW214871   3.581   0.617   4.475  2.0001  2.6811  1.5709
 1080SOL     OW14872   1.688   0.266   8.269  0.0883  0.3068 -0.4328
 1080SOL    HW114873   1.743   0.219   8.332 -1.2944  1.1933  1.4434
 1080SOL    HW214874   1.642   0.193   8.228  0.0207  0.9879 -1.5737
 1081SOL     OW14875   2.662   0.558   8.242 -0.1677  0.2033 -0.3257
 1081SOL    HW114876   2.656   0.497   8.316 -0.3727  1.7227  0.9022
 1081SOL    HW214877   2.569   0.561   8.219  0.3216  1.7178 -2.0405
 1082SOL     OW14878   3.985   2.909   3.613 -0.5555  0.3099 -0.0542
 1082SOL    HW114879   3.932   2.922   3.535  0.4219  0.7165 -0.6351
 1082SOL    HW214880   4.013   3.000   3.619 -2.9105  0.9971  0.5115
 1083SOL     OW14881   3.196   3.771   4.308  0.2455  0.8544 -0.1951
 1083SOL    HW114882   3.127   3.809   4.361  0.7017  2.9694 -1.1021
 1083SOL    HW214883   3.150   3.704   4.257  1.1519  0.5430 -0.6153
 1084SOL     OW14884   3.572   3.354   0.682  0.0811 -0.0936 -0.4679
 1084SOL    HW114885   3.593   3.313   0.599 -0.3213 -0.2791 -0.4781
 1084SOL    HW214886   3.633   3.321   0.747  0.9004 -0.8856 -1.6616
 1085SOL     OW14887   1.242   2.553  17.063  0.0912 -0.6363  0.1716
 1085SOL    HW114888   1.313   2.576  17.004 -0.8315  0.1656 -0.6304
 1085SOL    HW214889   1.165   2.580  17.012  0.7734  2.5560  0.8154
 1086SOL     OW14890   3.083   1.137   8.091 -0.1596  0.3728 -0.0727
 1086SOL    HW114891   3.026   1.132   8.014 -0.5386 -0.2525  0.2417
 1086SOL    HW214892   3.041   1.067   8.141 -1.9457  1.0990 -0.5160
 1087SOL     OW14893   1.810   0.831   3.433  0.1968 -0.0508  0.3953
 1087SOL    HW114894   1.740   0.895   3.436  0.5459  0.3430  0.0520
 1087SOL    HW214895   1.864   0.870   3.364  1.1006 -0.5176  0.8270
 1088SOL     OW14896   0.040   1.113   7.799 -0.0960 -0.5415 -0.2574
 1088SOL    HW114897   0.119   1.167   7.806 -0.2966 -0.2924  0.0773
 1088SOL    HW214898   4.706   1.173   7.823 -1.1292 -0.8987 -2.4057
 1089SOL     OW14899   3.739   1.675   1.423  0.3043 -0.0660  0.2364
 1089SOL    HW114900   3.773   1.749   1.373  0.3922  0.0963  0.5364
 1089SOL    HW214901   3.815   1.631   1.461  1.0274  1.3889  0.4800
 1090SOL     OW14902   4.446   0.399   8.392  0.1028 -0.6943  0.0920
 1090SOL    HW114903   4.401   0.484   8.393  2.7344  0.7676 -3.2913
 1090SOL    HW214904   4.456   0.369   8.482 -0.5643 -0.6816  0.1668
 1091SOL     OW14905   2.624   3.287  16.349  0.1457 -0.3582  0.1984
 1091SOL    HW114906   2.550   3.330  16.307  1.6008  0.6179 -1.4015
 1091SOL    HW214907   2.697   3.331  16.304 -0.1112  0.8560  0.9691
 1092SOL     OW14908   2.499   3.091   5.175  0.0065  0.3444 -0.4058
 1092SOL    HW114909   2.447   3.171   5.178  0.3712  0.4439  3.6746
 1092SOL    HW214910   2.448   3.032   5.231 -1.2372  2.0601  0.2633
 1093SOL     OW14911   4.028   0.730  10.083 -0.1410  0.3749  0.7354
 1093SOL    HW114912   3.990   0.709  10.168  0.2965  0.6086  0.9851
 1093SOL    HW214913   4.100   0.791  10.100  0.0109  0.1070  1.0483
 1094SOL     OW14914   4.390   0.899  15.876  0.5776  0.4614  0.0996
 1094SOL    HW114915   4.377   0.961  15.804  1.4453  0.5615  0.0274
 1094SOL    HW214916   4.475   0.859  15.858  0.9581  1.7515 -0.9662
 1095SOL     OW14917   4.720   1.200   6.424  0.4434  0.1620 -0.1629
 1095SOL    HW114918   4.687   1.170   6.339 -0.5978  0.6903  0.0576
 1095SOL    HW214919   0.048   1.129   6.428  0.4910  0.3265  1.8263
 1096SOL     OW14920   0.284   0.059   6.924 -0.1878 -0.3340 -0.3043
 1096SOL    HW114921   0.205   0.020   6.885  0.1888 -0.5711 -0.8224
 1096SOL    HW214922   0.354   0.023   6.869  0.4400 -0.4239  0.5539
 1097SOL     OW14923   2.662   1.943  13.202 -0.1149 -0.4289  0.5444
 1097SOL    HW114924   2.745   1.986  13.180  0.6470 -3.1372 -1.8684
 1097SOL    HW214925   2.628   1.985  13.281  0.9413 -0.5687  1.0629
 1098SOL     OW14926   0.505   2.163   8.558 -0.3837  0.1806 -0.2735
 1098SOL    HW114927   0.542   2.219   8.626 -0.7278  0.1609 -0.0676
 1098SOL    HW214928   0.423   2.134   8.599 -0.5217 -0.6406 -1.1463
 1099SOL     OW14929   1.979   3.137  14.879  0.5208 -0.4027 -0.3953
 1099SOL    HW114930   2.036   3.210  14.856  0.7865  0.2793  2.4352
 1099SOL    HW214931   1.990   3.118  14.972 -0.2224 -1.3730 -0.5034
 1100SOL     OW14932   4.018   4.401   3.121  0.6013  0.5297  0.1535
 1100SOL    HW114933   3.994   4.443   3.203 -2.0681 -0.1855 -0.2561
 1100SOL    HW214934   4.034   4.317   3.163 -0.4734  1.1074  1.6937
 1101SOL     OW14935   1.633   4.545   8.400  0.3049  0.1106 -0.1100
 1101SOL    HW114936   1.599   4.464   8.362  1.2226 -0.6055  0.6026
 1101SOL    HW214937   1.659   4.514   8.487 -0.6869  2.5311  1.0386
 1102SOL     OW14938   1.040   2.185   3.031  0.5244 -0.2256 -0.4177
 1102SOL    HW114939   1.079   2.134   3.101  0.4947  2.3634  1.5136
 1102SOL    HW214940   0.991   2.121   2.980 -3.1630  1.2685  1.2405
 1103SOL     OW14941   0.602   0.386   4.137  0.1803 -0.0521 -0.0725
 1103SOL    HW114942   0.618   0.418   4.048 -2.1687  0.2578 -0.3937
 1103SOL    HW214943   0.631   0.462   4.188 -1.1145 -0.0527  0.6657
 1104SOL     OW14944   0.584   3.280   7.952  0.3045  0.5024 -0.0805
 1104SOL    HW114945   0.555   3.248   8.037  1.0545 -0.1719 -0.0822
 1104SOL    HW214946   0.678   3.265   7.964  0.2754  0.7247  0.4446
 1105SOL     OW14947   1.323   0.449   4.643  0.7974 -0.7953 -0.2879
 1105SOL    HW114948   1.330   0.380   4.577  0.0748  1.0728 -2.3337
 1105SOL    HW214949   1.331   0.398   4.723 -3.2633  0.0077  0.6763
 1106SOL     OW14950   0.295   4.711   2.734 -0.2275  0.2373 -0.3481
 1106SOL    HW114951   0.321   0.010   2.819 -0.6919  1.5776 -0.7584
 1106SOL    HW214952   0.241   0.040   2.689 -0.7570 -2.1265 -3.1220
 1107SOL     OW14953   1.359   4.679   6.244  0.9844  0.3988 -0.4715
 1107SOL    HW114954   1.317   0.018   6.203 -1.2585  0.2075  1.5217
 1107SOL    HW214955   1.366   4.615   6.172 -0.5226 -0.2336 -0.0462
 1108SOL     OW14956   2.634   1.345   6.799  0.2004  0.1597  0.4243
 1108SOL    HW114957   2.633   1.284   6.873  1.0509 -0.6427 -0.2191
 1108SOL    HW214958   2.697   1.296   6.746 -0.2395 -0.8211  0.8130
 1109SOL     OW14959   1.525   1.335   9.131 -0.1479 -0.4111 -0.1458
 1109SOL    HW114960   1.613   1.305   9.154 -0.3730 -0.0061  1.2264
 1109SOL    HW214961   1.537   1.422   9.170 -0.8476 -0.5297  0.3410
 1110SOL     OW14962   2.433   4.196  12.304 -0.3166  0.4983  0.3386
 1110SOL    HW114963   2.514   4.245  12.316  1.7214 -2.4110 -1.7643
 1110SOL    HW214964   2.451   4.115  12.351  0.3667  0.3492 -0.1804
 1111SOL     OW14965   2.730   0.960  14.920 -0.4530 -0.6626 -0.6297
 1111SOL    HW114966   2.760   0.956  14.829  2.2285 -2.9978  0.3639
 1111SOL    HW214967   2.788   0.898  14.964  0.9300  0.8634 -0.3295
 1112SOL     OW14968   2.801   1.744   3.700 -0.0629  0.3142 -0.3089
 1112SOL    HW114969   2.739   1.774   3.634 -1.9381 -1.4664  0.6543
 1112SOL    HW214970   2.857   1.820   3.711 -1.4831  1.4206 -0.7244
 1113SOL     OW14971   4.283   2.733  14.130  0.3131 -0.0662  0.0044
 1113SOL    HW114972   4.193   2.738  14.162  0.6942 -0.4556  1.1351
 1113SOL    HW214973   4.336   2.738  14.209  1.0148  2.6981 -0.6561
 1114SOL     OW14974   0.046   3.668  14.651 -0.7548 -0.5988 -0.6706
 1114SOL    HW114975   0.138   3.657  14.676 -0.8771  0.6789  0.2927
 1114SOL    HW214976   0.024   3.576  14.633 -0.8539 -1.3300  3.2692
 1115SOL     OW14977   2.692   3.109   1.214  0.6814  0.8799 -0.1510
 1115SOL    HW114978   2.647   3.186   1.246 -1.5924  0.2019 -1.7401
 1115SOL    HW214979   2.785   3.133   1.222  1.0049 -0.8838  1.4759
 1116SOL     OW14980   0.001   4.207   4.669 -0.0432 -0.1643 -0.2571
 1116SOL    HW114981   0.065   4.252   4.613  0.9578 -0.9783  0.2300
 1116SOL    HW214982   0.007   4.245   4.756 -1.1061  0.7819 -0.5988
 1117SOL     OW14983   4.206   0.937  17.247  0.1081  0.1466  0.2734
 1117SOL    HW114984   4.190   0.985  17.165  1.9148 -2.1581 -1.4145
 1117SOL    HW214985   4.254   0.995  17.306 -0.4564  0.9856 -0.0806
 1118SOL     OW14986   3.380   4.380  10.922 -0.2017  0.2842 -0.2070
 1118SOL    HW114987   3.444   4.382  10.993 -1.7373 -4.1383  1.2676
 1118SOL    HW214988   3.340   4.467  10.931 -1.2768 -0.1328 -0.9066
 1119SOL     OW14989   0.111   0.234   4.487 -0.2429 -0.1871  0.1362
 1119SOL    HW114990   0.022   0.206   4.464 -0.8683  2.6106 -0.8112
 1119SOL    HW214991   0.157   0.157   4.453  1.5793  0.5592  0.9271
 1120SOL     OW14992   0.107   0.827  11.928  0.4564 -0.0185 -0.2515
 1120SOL    HW114993   0.116   0.739  11.892  1.4447  0.4534 -1.2067
 1120SOL    HW214994   0.013   0.841  11.934  0.4227 -0.0238 -0.7349
 1121SOL     OW14995   4.641   4.057  14.813 -0.2123  0.7406 -0.3162
 1121SOL    HW114996   4.676   4.146  14.803 -2.4509  1.7171  0.6956
 1121SOL    HW214997   4.634   4.053  14.908  2.3630  0.2792 -0.1201
 1122SOL     OW14998   1.654   0.798   7.553 -0.0415 -0.0978 -0.5697
 1122SOL    HW114999   1.561   0.789   7.533 -0.7710  2.0648  1.7351
 1122SOL    HW215000   1.688   0.733   7.492 -1.8200 -0.0683 -1.5758
 1123SOL     OW15001   4.128   0.530   3.460 -0.3896  0.3865  0.2371
 1123SOL    HW115002   4.197   0.578   3.505  1.9227 -2.3022 -0.4028
 1123SOL    HW215003   4.141   0.563   3.371 -0.1118 -0.5517 -0.0759
 1124SOL     OW15004   4.681   3.145   4.966 -0.2056  0.0902  0.4278
 1124SOL    HW115005   4.618   3.188   5.024 -2.9438 -1.5496 -1.3294
 1124SOL    HW215006   4.700   3.062   5.011  1.1801  0.7987  1.1483
 1125SOL     OW15007   3.639   2.367   1.779 -0.5054 -0.2627  0.0052
 1125SOL    HW115008   3.728   2.350   1.749  0.0813  1.3884  0.7839
 1125SOL    HW215009   3.649   2.346   1.872 -1.0149 -3.2895 -0.6284
 1126SOL     OW15010   2.805   1.695   4.469 -0.1503  0.4789 -0.2947
 1126SOL    HW115011   2.840   1.772   4.514  0.5925 -0.4192  0.6678
 1126SOL    HW215012   2.882   1.639   4.474 -1.1158 -1.0910 -3.1090
 1127SOL     OW15013   1.774   0.961   9.937  0.0368  0.2886 -0.8741
 1127SOL    HW115014   1.771   0.993   9.847  2.9310  1.8617 -0.4065
 1127SOL    HW215015   1.745   0.872   9.916 -0.5558  0.0721  0.7910
 1128SOL     OW15016   2.436   0.830   1.961  0.1536  0.2989  0.2354
 1128SOL    HW115017   2.432   0.737   1.940  2.3325 -0.1422  1.6893
 1128SOL    HW215018   2.351   0.866   1.937  0.5072  2.4719  2.2360
 1129SOL     OW15019   0.283   4.224   7.517 -0.0862 -0.0178  0.4896
 1129SOL    HW115020   0.266   4.318   7.518  2.3981  0.4553 -0.3019
 1129SOL    HW215021   0.372   4.230   7.551  0.3154 -1.5199 -0.2613
 1130SOL     OW15022   4.409   2.010  11.598 -0.2771 -0.3281 -1.0005
 1130SOL    HW115023   4.333   2.046  11.645 -0.5226  0.5403 -2.0557
 1130SOL    HW215024   4.384   1.917  11.600  0.7476 -0.5532  1.1329
 1131SOL     OW15025   1.821   2.040   3.257  0.1750 -0.3087  0.5412
 1131SOL    HW115026   1.735   2.030   3.297 -1.1298 -0.5517 -2.3338
 1131SOL    HW215027   1.874   2.076   3.329 -0.9066  0.7661  0.8094
 1132SOL     OW15028   3.975   3.272   0.828 -0.1455 -0.1908  0.3698
 1132SOL    HW115029   4.013   3.253   0.742  2.1128  0.1487  1.2871
 1132SOL    HW215030   4.000   3.363   0.845  0.0776  0.0154 -1.0397
 1133SOL     OW15031   3.091   1.514   6.076  0.1807  0.0855  0.1819
 1133SOL    HW115032   3.043   1.522   5.993  0.4204  0.9694  0.1236
 1133SOL    HW215033   3.051   1.586   6.124  0.6937  1.6682 -1.7582
 1134SOL     OW15034   2.411   1.568  10.129 -0.6315 -0.7120 -0.0589
 1134SOL    HW115035   2.406   1.540  10.220 -0.0160 -1.2219 -0.1807
 1134SOL    HW215036   2.442   1.658  10.131 -0.0708 -0.7957 -4.0577
 1135SOL     OW15037   2.455   0.779   4.598  0.3190  0.4481  0.0291
 1135SOL    HW115038   2.542   0.819   4.596  0.0759  0.9614 -0.1403
 1135SOL    HW215039   2.434   0.791   4.690  0.3660  0.1738  0.0764
 1136SOL     OW15040   1.262   1.288   2.270 -0.1834 -0.1462 -1.0950
 1136SOL    HW115041   1.349   1.328   2.272  0.3555 -1.3357 -0.9177
 1136SOL    HW215042   1.253   1.268   2.177  0.6984 -2.9317 -0.5872
 1137SOL     OW15043   3.935   1.873   3.234 -0.0858 -0.0231 -0.2292
 1137SOL    HW115044   4.008   1.923   3.197  0.1968 -1.3082 -1.3933
 1137SOL    HW215045   3.945   1.781   3.211  0.8271  0.0978 -0.3053
 1138SOL     OW15046   4.013   1.704   3.622 -0.6049  0.2166 -0.0778
 1138SOL    HW115047   3.986   1.796   3.628 -1.5585 -0.1194  0.6285
 1138SOL    HW215048   4.108   1.715   3.623 -0.7456  1.3599  1.4286
 1139SOL     OW15049   0.770   0.016  16.671  0.5704 -0.3808 -0.0506
 1139SOL    HW115050   0.824   0.046  16.743  2.1065 -2.2840 -0.4118
 1139SOL    HW215051   0.706   4.697  16.716  0.2082 -0.1255 -0.2476
 1140SOL     OW15052   3.827   0.356   0.892  0.1275  0.1769  0.4831
 1140SOL    HW115053   3.803   0.401   0.974  1.5719  3.8973 -1.0995
 1140SOL    HW215054   3.759   0.380   0.830  1.0745 -2.6836 -1.6307
 1141SOL     OW15055   2.363   1.774   1.116 -0.4646 -0.2037 -0.0661
 1141SOL    HW115056   2.377   1.755   1.024  0.7112 -0.3447  0.1392
 1141SOL    HW215057   2.274   1.807   1.107 -0.1019  0.6850 -0.3923
 1142SOL     OW15058   4.060   0.027   0.689  0.4499 -0.6200 -0.0693
 1142SOL    HW115059   3.988   0.089   0.678  1.2994 -0.0303 -2.2291
 1142SOL    HW215060   4.126   0.061   0.628  1.7529 -0.4325  1.4711
 1143SOL     OW15061   3.919   0.335   3.578  0.1050 -0.9443  1.2001
 1143SOL    HW115062   3.980   0.395   3.536 -0.6525 -1.8570 -1.1589
 1143SOL    HW215063   3.888   0.294   3.498 -1.3430  0.6426  0.9416
 1144SOL     OW15064   4.102   1.460   3.958  0.1982 -0.3632  0.4965
 1144SOL    HW115065   4.141   1.462   4.046 -0.2139  0.3615  0.6647
 1144SOL    HW215066   4.025   1.404   3.964  0.5066 -0.8531 -0.2636
 1145SOL     OW15067   3.883   1.888   1.749  0.1096 -0.2135  0.0001
 1145SOL    HW115068   3.963   1.847   1.781  1.0582  1.8695  0.3260
 1145SOL    HW215069   3.825   1.813   1.758  0.8540 -0.3937  3.2557
 1146SOL     OW15070   4.005   4.731   5.441  0.2734  0.0850 -0.1535
 1146SOL    HW115071   4.080   0.026   5.391  0.9809 -0.4144  0.5940
 1146SOL    HW215072   3.965   4.674   5.375  2.0440  1.1833 -2.1685
 1147SOL     OW15073   0.682   1.167  12.006 -0.1993 -0.1705  0.1925
 1147SOL    HW115074   0.765   1.135  11.972  0.3677  0.1337  1.3149
 1147SOL    HW215075   0.665   1.246  11.954  0.0951 -0.1776  0.0878
 1148SOL     OW15076   3.039   0.698   9.206  0.3582  0.1726 -0.6233
 1148SOL    HW115077   2.986   0.639   9.259 -0.0765 -1.2515 -2.6040
 1148SOL    HW215078   3.036   0.645   9.126  0.4321  2.8208 -2.3513
 1149SOL     OW15079   0.764   4.469   6.478  0.3446  0.2451  1.0045
 1149SOL    HW115080   0.731   4.559   6.487  1.0052  0.5753  0.1244
 1149SOL    HW215081   0.717   4.417   6.542  2.3367 -3.2137 -0.3464
 1150SOL     OW15082   2.753   4.522   9.738  0.3540  0.1794  0.2524
 1150SOL    HW115083   2.687   4.590   9.753  0.2335  0.1422 -0.1070
 1150SOL    HW215084   2.736   4.468   9.815  0.7324 -0.5895 -0.1981
 1151SOL     OW15085   3.681   1.802   0.020  0.1259  0.0335  0.2767
 1151SOL    HW115086   3.743   1.864  17.723  0.1131 -1.0348 -1.3877
 1151SOL    HW215087   3.695   1.719  17.719  2.3347  1.4956 -1.7949
 1152SOL     OW15088   4.526   1.885  15.036 -0.0456  0.2154 -0.6218
 1152SOL    HW115089   4.544   1.806  15.086 -0.0927  1.3531  1.2131
 1152SOL    HW215090   4.592   1.944  15.074  0.1254 -0.8392  0.7024
 1153SOL     OW15091   3.215   2.456   4.801 -0.3223  0.3070  0.4459
 1153SOL    HW115092   3.263   2.483   4.880  0.9582  0.9858 -0.5772
 1153SOL    HW215093   3.127   2.437   4.834 -0.1792 -0.0021  0.6592
 1154SOL     OW15094   2.168   0.382   6.013  0.0373 -0.0575 -0.0846
 1154SOL    HW115095   2.115   0.319   5.965 -1.7054  0.4783  1.1178
 1154SOL    HW215096   2.224   0.322   6.063  1.4557  0.1215 -1.4776
 1155SOL     OW15097   3.736   1.418   9.669  0.0773 -0.4502 -0.0581
 1155SOL    HW115098   3.643   1.400   9.656  0.3277 -0.8377 -1.2747
 1155SOL    HW215099   3.735   1.442   9.762 -1.7460  0.2328 -0.2585
 1156SOL     OW15100   0.117   0.813   1.455 -0.1925  0.3624 -0.1514
 1156SOL    HW115101   0.177   0.832   1.527  1.5212 -0.7428 -1.2739
 1156SOL    HW215102   0.176   0.775   1.390  2.1105  1.8674  1.0484
 1157SOL     OW15103   0.946   3.387  13.666  0.1126  0.0630  0.3687
 1157SOL    HW115104   0.908   3.318  13.720 -1.0974  0.6248  0.2277
 1157SOL    HW215105   0.892   3.464  13.685 -1.1295 -1.0882  1.4699
 1158SOL     OW15106   2.600   1.988   6.194 -0.3992  0.0047 -0.3647
 1158SOL    HW115107   2.550   1.957   6.118 -0.6047  0.0441 -0.2466
 1158SOL    HW215108   2.690   1.973   6.165 -0.7351 -0.8135 -0.9871
 1159SOL     OW15109   4.235   3.006   3.093  0.3371  0.0284 -0.5916
 1159SOL    HW115110   4.219   2.976   3.182  1.5868  1.5313  0.1326
 1159SOL    HW215111   4.310   2.950   3.072  0.5180  0.3845 -0.8987
 1160SOL     OW15112   3.344   4.415   7.328 -0.2045  0.3331  0.0867
 1160SOL    HW115113   3.278   4.473   7.368 -0.9204 -1.5212  1.5754
 1160SOL    HW215114   3.365   4.353   7.397  3.5611  0.6411 -0.7899
 1161SOL     OW15115   2.628   2.311   3.491 -0.5974 -0.0247  0.1389
 1161SOL    HW115116   2.595   2.324   3.402 -0.6211 -0.7966  0.0370
 1161SOL    HW215117   2.611   2.398   3.528 -1.3504  0.7133 -1.9331
 1162SOL     OW15118   1.640   0.217   7.010  0.3326  0.1688 -0.4765
 1162SOL    HW115119   1.681   0.132   7.028  1.2768  0.7400  0.0750
 1162SOL    HW215120   1.687   0.235   6.929 -0.0567 -2.7205 -1.3593
 1163SOL     OW15121   2.312   3.757   0.328 -0.1573 -0.7566 -0.2934
 1163SOL    HW115122   2.240   3.731   0.385  0.2435 -1.9941 -0.3539
 1163SOL    HW215123   2.334   3.849   0.346  1.2388 -0.7171 -2.1060
 1164SOL     OW15124   1.158   0.852   7.987 -0.4491 -0.0900  0.5087
 1164SOL    HW115125   1.175   0.932   8.037 -0.7040 -0.7451  1.6631
 1164SOL    HW215126   1.174   0.788   8.056 -0.9305 -0.4025  0.3309
 1165SOL     OW15127   0.467   3.044   1.205 -0.1438 -0.2085 -0.0567
 1165SOL    HW115128   0.426   2.958   1.197 -0.2690 -0.0181 -1.3516
 1165SOL    HW215129   0.559   3.037   1.179 -0.2258 -3.2008  0.4609
 1166SOL     OW15130   3.900   0.041   1.984  0.9133  0.2913 -0.4388
 1166SOL    HW115131   3.963   4.722   1.939 -0.1015 -0.4724 -0.9272
 1166SOL    HW215132   3.886   4.735   2.069  1.1032  1.8996  0.3897
 1167SOL     OW15133   3.833   0.346   8.492 -0.5443 -0.2509  0.4014
 1167SOL    HW115134   3.810   0.417   8.552  0.6017  0.7617 -0.3671
 1167SOL    HW215135   3.821   0.271   8.551 -2.9888  0.3878  0.6862
 1168SOL     OW15136   3.428   3.600   3.973 -0.1885 -0.3060 -0.0400
 1168SOL    HW115137   3.503   3.541   3.966 -0.5328 -0.6424 -0.9266
 1168SOL    HW215138   3.461   3.685   3.944  1.4867 -0.9968 -0.1750
 1169SOL     OW15139   3.712   2.546   5.441  0.4800 -0.2502 -0.5455
 1169SOL    HW115140   3.800   2.553   5.478  1.7299 -3.6570 -2.8142
 1169SOL    HW215141   3.669   2.609   5.499  0.5158  1.0456 -1.9491
 1170SOL     OW15142   2.595   0.884  14.292 -0.2227  0.7109 -0.0273
 1170SOL    HW115143   2.518   0.913  14.244 -0.0118 -0.4622 -1.0525
 1170SOL    HW215144   2.594   0.930  14.376  1.8591 -0.4276  0.6295
 1171SOL     OW15145   1.387   4.660  10.188 -0.3809 -0.6588 -0.3638
 1171SOL    HW115146   1.310   4.605  10.201 -0.7382 -0.1338 -0.2907
 1171SOL    HW215147   1.447   4.586  10.177 -1.3813 -1.1239 -2.6804
 1172SOL     OW15148   3.912   4.712  16.462 -0.3396  0.4144  0.1394
 1172SOL    HW115149   3.992   4.673  16.426 -0.0339  1.0651  0.1080
 1172SOL    HW215150   3.856   4.706  16.384  0.8572 -1.6899 -0.5792
 1173SOL     OW15151   4.310   3.859   3.577  0.3163 -0.3486 -0.6992
 1173SOL    HW115152   4.231   3.877   3.628  0.3924  0.4092 -0.8534
 1173SOL    HW215153   4.296   3.772   3.538 -0.5724 -0.5230  0.0254
 1174SOL     OW15154   4.167   0.601   9.838 -0.3110  0.4006 -0.4796
 1174SOL    HW115155   4.123   0.622   9.920  2.9840 -1.7502  1.8472
 1174SOL    HW215156   4.196   0.514   9.865  1.1662  1.1176  0.2574
 1175SOL     OW15157   2.750   1.639   8.223 -0.2865 -0.2524  0.5647
 1175SOL    HW115158   2.677   1.667   8.279 -2.4445  1.0825 -2.8959
 1175SOL    HW215159   2.698   1.647   8.143 -1.3851  0.2249  1.3231
 1176SOL     OW15160   1.782   1.278   9.195 -0.1930 -0.3079  0.1368
 1176SOL    HW115161   1.801   1.296   9.288 -2.6236  1.7356  0.2213
 1176SOL    HW215162   1.838   1.347   9.161 -0.6027 -0.0337  0.0160
 1177SOL     OW15163   1.281   1.114   8.381 -0.0813 -0.2644 -0.1927
 1177SOL    HW115164   1.297   1.188   8.439  2.7238 -1.0762  0.0848
 1177SOL    HW215165   1.364   1.067   8.392  0.4148  0.7463  0.4051
 1178SOL     OW15166   2.271   0.996  16.152 -0.0419 -0.0616  0.3942
 1178SOL    HW115167   2.250   1.054  16.225  2.0463  1.0605  0.1021
 1178SOL    HW215168   2.180   0.974  16.132  0.4560 -1.1298 -0.6998
 1179SOL     OW15169   3.143   1.074  10.556 -0.6838 -0.2736  0.3127
 1179SOL    HW115170   3.169   1.147  10.501 -0.3072  1.1058  2.3509
 1179SOL    HW215171   3.108   1.016  10.488 -0.7453  1.2161 -0.9274
 1180SOL     OW15172   3.860   4.366   7.796  0.6686  0.1693 -0.4857
 1180SOL    HW115173   3.829   4.431   7.859 -0.8750 -1.2537  0.1908
 1180SOL    HW215174   3.943   4.401   7.763  2.1051 -1.1465  1.7712
 1181SOL     OW15175   2.414   3.608   1.649 -1.0194  0.3977 -0.6324
 1181SOL    HW115176   2.427   3.572   1.561 -2.4588 -0.0156 -0.6814
 1181SOL    HW215177   2.432   3.701   1.637  0.2862  0.1259 -0.7498
 1182SOL     OW15178   2.967   3.414   9.224 -0.0815  0.4872 -0.1047
 1182SOL    HW115179   2.995   3.477   9.158 -0.5005 -0.2755 -1.0063
 1182SOL    HW215180   2.872   3.420   9.225 -0.1788 -1.1878 -0.1227
 1183SOL     OW15181   3.973   0.786   7.436  0.6640 -0.2435  0.9165
 1183SOL    HW115182   4.001   0.849   7.370  1.1865 -0.5022  0.8928
 1183SOL    HW215183   3.890   0.757   7.399  0.3588  1.1560  0.5127
 1184SOL     OW15184   0.468   4.305   4.171  0.0948 -0.1731  0.6145
 1184SOL    HW115185   0.374   4.324   4.168  0.2019  0.0185 -1.4394
 1184SOL    HW215186   0.463   4.210   4.178  0.0016 -0.1910  0.2937
 1185SOL     OW15187   0.813   4.367   7.861  0.2030  0.1803 -0.1893
 1185SOL    HW115188   0.907   4.356   7.870 -0.0262  0.0865  1.8859
 1185SOL    HW215189   0.774   4.293   7.907  1.8669 -0.5320  0.0531
 1186SOL     OW15190   4.443   4.608   2.334 -0.1654  0.0317  0.4521
 1186SOL    HW115191   4.500   4.571   2.402  3.1484 -1.9010 -3.3958
 1186SOL    HW215192   4.478   4.691   2.303 -0.4016  0.5481  1.5772
 1187SOL     OW15193   2.447   2.598   4.400 -0.3506  0.3275 -1.1919
 1187SOL    HW115194   2.446   2.524   4.340 -0.5721 -1.1432  0.6298
 1187SOL    HW215195   2.437   2.559   4.487 -3.3190  0.7980 -1.3214
 1188SOL     OW15196   4.254   4.257   4.722 -0.5696  0.2666  0.4649
 1188SOL    HW115197   4.346   4.242   4.700 -0.5378 -1.0995  1.4725
 1188SOL    HW215198   4.237   4.323   4.655 -0.3516  3.0659  3.2005
 1189SOL     OW15199   3.238   3.156   5.501 -0.3177  0.4287  0.1418
 1189SOL    HW115200   3.185   3.077   5.507 -1.1574  1.1840  2.6415
 1189SOL    HW215201   3.219   3.193   5.415  1.0597  1.1811  0.1556
 1190SOL     OW15202   3.210   3.753   7.902  0.5063  0.4561 -0.0822
 1190SOL    HW115203   3.269   3.710   7.840  1.4487 -2.0258  2.4863
 1190SOL    HW215204   3.232   3.711   7.986  1.0283  0.5074 -0.1925
 1191SOL     OW15205   3.002   0.207   4.040  0.2047 -0.1550 -0.2165
 1191SOL    HW115206   3.048   0.164   4.111  2.4968 -0.7220 -2.0320
 1191SOL    HW215207   2.918   0.163   4.027 -1.2949  2.5290  0.4551
 1192SOL     OW15208   4.090   2.716   4.872  0.3370  0.2476 -0.2423
 1192SOL    HW115209   4.045   2.649   4.923  1.8739 -1.2613 -0.8830
 1192SOL    HW215210   4.054   2.794   4.915 -3.0419 -2.1986  1.3939
 1193SOL     OW15211   1.745   1.136   7.413 -0.0172 -0.6314  0.4751
 1193SOL    HW115212   1.659   1.163   7.382 -0.2948 -1.8671  0.1412
 1193SOL    HW215213   1.748   1.172   7.501 -0.9875  1.2867 -0.2900
 1194SOL     OW15214   0.235   1.415   5.348  0.0071 -0.1131 -0.4201
 1194SOL    HW115215   0.228   1.359   5.426 -5.6491  0.3598 -0.5634
 1194SOL    HW215216   0.208   1.357   5.277 -1.0183 -1.8842  1.3847
 1195SOL     OW15217   0.083   1.900   6.502 -0.0654  0.5064 -0.9918
 1195SOL    HW115218   0.045   1.813   6.489  1.3767  0.0210 -2.0207
 1195SOL    HW215219   0.174   1.887   6.475 -0.8868 -1.7726 -2.7757
 1196SOL     OW15220   3.988   4.490   8.088  1.0112 -0.1218 -0.3188
 1196SOL    HW115221   3.921   4.525   8.029 -1.1985 -1.7320  1.2385
 1196SOL    HW215222   4.058   4.555   8.093  1.7390 -1.0431  1.2983
 1197SOL     OW15223   1.548   2.846   1.906  0.0785 -0.2177  0.1760
 1197SOL    HW115224   1.590   2.903   1.842 -0.7577 -2.2265 -2.1668
 1197SOL    HW215225   1.616   2.822   1.968 -0.4877 -0.6092  0.6406
 1198SOL     OW15226   1.787   1.323   4.027 -0.4192  0.1936  0.0885
 1198SOL    HW115227   1.778   1.418   4.037 -1.7806  0.4540 -3.3440
 1198SOL    HW215228   1.777   1.283   4.113  2.3268  2.1111  1.2615
 1199SOL     OW15229   3.157   2.543   3.721  0.5139  0.2226 -0.4550
 1199SOL    HW115230   3.150   2.610   3.653  0.6649  1.0668  0.3581
 1199SOL    HW215231   3.118   2.469   3.675  1.3997 -0.9125  0.6428
 1200SOL     OW15232   1.421   3.666   4.329  0.4575 -0.1250 -0.3053
 1200SOL    HW115233   1.367   3.604   4.378  2.0341 -0.3802  1.1122
 1200SOL    HW215234   1.508   3.624   4.330  0.4989  0.0056  1.0103
 1201SOL     OW15235   3.814   0.296   9.735  0.0209 -0.4646  0.2294
 1201SOL    HW115236   3.782   0.233   9.799 -1.4235 -0.4113 -0.4347
 1201SOL    HW215237   3.823   0.229   9.667  2.3527 -1.2480  1.3094
 1202SOL     OW15238   1.271   1.567   3.638 -0.3265 -0.0349 -0.0223
 1202SOL    HW115239   1.266   1.481   3.680  2.7299  0.9394  2.3406
 1202SOL    HW215240   1.207   1.616   3.690  1.9971  0.6466  2.1946
 1203SOL     OW15241   2.482   4.605   5.032  0.0636  0.6540 -0.7504
 1203SOL    HW115242   2.411   4.617   5.094  0.3645 -2.0883  0.0947
 1203SOL    HW215243   2.432   4.549   4.972  1.9376 -1.6363 -0.1654
 1204SOL     OW15244   3.917   3.893   2.538 -0.3387  0.5323 -0.2752
 1204SOL    HW115245   3.916   3.914   2.445  2.0090 -0.7807 -0.5935
 1204SOL    HW215246   3.826   3.902   2.567 -0.0244 -1.2855  1.2478
 1205SOL     OW15247   2.793   1.252   6.543  0.2021  0.2029  0.0687
 1205SOL    HW115248   2.860   1.186   6.563 -0.5924 -1.1249 -1.7057
 1205SOL    HW215249   2.745   1.201   6.478 -1.1555  1.7044 -0.1045
 1206SOL     OW15250   0.301   2.929   4.008 -0.0067  0.0173 -1.1477
 1206SOL    HW115251   0.300   3.019   4.040 -1.2341 -0.0574 -0.9716
 1206SOL    HW215252   0.258   2.876   4.075  1.8076  1.2120  0.9504
 1207SOL     OW15253   0.576   2.850   7.728 -0.2346 -0.4388  0.1093
 1207SOL    HW115254   0.562   2.771   7.781  1.3041 -1.4001 -0.9271
 1207SOL    HW215255   0.538   2.911   7.791 -1.7978 -0.8842 -0.4040
 1208SOL     OW15256   0.820   3.157   7.035  0.2824 -0.1458  0.2194
 1208SOL    HW115257   0.798   3.211   6.959  0.2570 -0.4211  0.0312
 1208SOL    HW215258   0.816   3.218   7.108  0.1434  0.7935 -0.5714
 1209SOL     OW15259   0.377   0.607   1.957 -0.4102  0.5308  0.1406
 1209SOL    HW115260   0.351   0.554   2.032  0.7486 -0.7366 -0.3479
 1209SOL    HW215261   0.372   0.697   1.988  1.2644  0.1558  1.5109
 1210SOL     OW15262   2.299   3.224   1.594  0.3895  0.0679 -0.3302
 1210SOL    HW115263   2.315   3.311   1.556 -0.1161 -0.9225 -2.7862
 1210SOL    HW215264   2.206   3.233   1.615  0.3293  0.5385 -0.7796
 1211SOL     OW15265   0.316   0.467   8.972  0.2920  0.2605  0.0121
 1211SOL    HW115266   0.391   0.414   9.002 -0.4503 -1.4253 -1.1574
 1211SOL    HW215267   0.340   0.461   8.880 -1.6788  1.1497 -0.5484
 1212SOL     OW15268   1.890   3.646   8.685  0.0484  0.6371  0.4083
 1212SOL    HW115269   1.956   3.651   8.754  0.7135  0.4654 -0.2231
 1212SOL    HW215270   1.870   3.739   8.678  0.8802  0.8785  1.1890
 1213SOL     OW15271   4.135   1.436   7.551  0.6839  0.8412  0.5350
 1213SOL    HW115272   4.099   1.503   7.492  0.1107  1.5614  1.7037
 1213SOL    HW215273   4.072   1.429   7.623 -0.3594 -0.1214 -0.4728
 1214SOL     OW15274   3.257   0.983   0.156 -0.0683  0.2727 -0.2183
 1214SOL    HW115275   3.228   0.950   0.242  2.0154  0.3345  0.4911
 1214SOL    HW215276   3.244   0.898   0.113 -1.0557 -0.9811  2.4823
 1215SOL     OW15277   1.050   0.576   4.683  0.4385  0.4783  0.0749
 1215SOL    HW115278   1.009   0.500   4.723  0.6768 -0.6901 -1.8740
 1215SOL    HW215279   1.110   0.529   4.625  1.6537  1.8404  0.2272
 1216SOL     OW15280   4.551   0.320   6.185  0.7096 -0.6291 -0.5046
 1216SOL    HW115281   4.489   0.392   6.172 -0.7399 -1.5041  1.5989
 1216SOL    HW215282   4.634   0.365   6.166 -0.2967  1.2901 -0.4034
 1217SOL     OW15283   0.291   4.047   9.682 -0.3607  0.0124 -0.2110
 1217SOL    HW115284   0.268   4.008   9.598 -0.9826 -1.4777  0.6502
 1217SOL    HW215285   0.377   4.008   9.697  0.3554  1.4339 -0.5637
 1218SOL     OW15286   2.761   4.510   4.444 -0.2805 -0.4258 -0.0654
 1218SOL    HW115287   2.834   4.571   4.431 -0.8806  0.8477  2.4222
 1218SOL    HW215288   2.779   4.483   4.534 -0.6597  0.9128  0.4152
 1219SOL     OW15289   4.158   4.634  13.918 -0.5914  0.1860  0.3174
 1219SOL    HW115290   4.152   4.728  13.900 -1.9607  0.3937  1.8565
 1219SOL    HW215291   4.223   4.611  13.852 -0.2155  1.1742  0.3590
 1220SOL     OW15292   1.726   0.902   8.026 -0.0333 -0.2316 -0.9597
 1220SOL    HW115293   1.793   0.834   8.025  0.3605  0.1590 -1.0856
 1220SOL    HW215294   1.676   0.881   7.948  0.7635 -2.2368 -0.9474
 1221SOL     OW15295   2.694   4.699   2.387  0.0822 -0.3357  0.5496
 1221SOL    HW115296   2.614   4.691   2.334 -0.0018 -4.1479  1.2902
 1221SOL    HW215297   2.757   4.653   2.331  0.7474  1.5039 -0.2196
 1222SOL     OW15298   1.799   3.171  11.105 -0.4928 -0.0421 -0.0352
 1222SOL    HW115299   1.794   3.078  11.125 -1.5749  0.0617  0.1402
 1222SOL    HW215300   1.730   3.207  11.159  1.5980 -0.7156  3.0849
 1223SOL     OW15301   3.772   0.129   9.924  0.2841  0.3827  0.2414
 1223SOL    HW115302   3.742   0.039   9.911 -0.3859  0.9618 -2.2331
 1223SOL    HW215303   3.712   0.150   9.996  1.9176  0.2341  1.6364
 1224SOL     OW15304   2.234   0.690   8.509 -0.1971 -0.6253  0.0678
 1224SOL    HW115305   2.300   0.755   8.485 -0.3197  0.6905  3.3837
 1224SOL    HW215306   2.180   0.695   8.430 -0.5652  1.6375  0.4573
 1225SOL     OW15307   3.836   2.957   3.904  0.1232  0.3960  0.2098
 1225SOL    HW115308   3.902   2.937   3.837  0.5578  0.4431  0.6270
 1225SOL    HW215309   3.879   2.928   3.984 -0.0832 -1.7528 -0.4410
 1226SOL     OW15310   3.049   4.001  12.731  0.1405  0.2337  0.1005
 1226SOL    HW115311   3.044   4.076  12.671 -0.2850 -0.5147 -0.7911
 1226SOL    HW215312   3.142   3.986  12.715 -0.5999 -4.1982  0.0218
 1227SOL     OW15313   1.402   3.516   2.601  0.5042 -0.0282  0.3687
 1227SOL    HW115314   1.489   3.555   2.615  0.2874  0.1839  1.0940
 1227SOL    HW215315   1.340   3.587   2.613  1.4000  0.5473  1.6366
 1228SOL     OW15316   0.262   0.368   1.765 -0.4475  0.0978  0.2011
 1228SOL    HW115317   0.205   0.364   1.842  1.0510 -0.1259  1.2974
 1228SOL    HW215318   0.206   0.391   1.691 -0.1153  4.3261  1.2651
 1229SOL     OW15319   4.297   2.173   5.220  0.0122 -0.2403  0.1839
 1229SOL    HW115320   4.339   2.112   5.281 -1.2392 -1.6620 -0.3539
 1229SOL    HW215321   4.207   2.144   5.210 -0.2116  0.6054 -0.1863
 1230SOL     OW15322   1.620   1.338   8.606  0.2535 -0.2715  0.9566
 1230SOL    HW115323   1.567   1.290   8.670  0.3292  0.6846  1.7395
 1230SOL    HW215324   1.637   1.274   8.537 -0.6791  1.0488 -0.4716
 1231SOL     OW15325   1.393   1.950   3.110  0.2073  0.5726  0.1344
 1231SOL    HW115326   1.354   1.867   3.136 -0.0936  0.4196 -0.8133
 1231SOL    HW215327   1.422   1.927   3.021 -1.3248  2.5423 -0.8796
 1232SOL     OW15328   1.498   0.761   2.117  0.4539 -0.3271  0.2722
 1232SOL    HW115329   1.413   0.764   2.161 -0.5326 -2.2590 -1.4505
 1232SOL    HW215330   1.563   0.805   2.171 -0.8724  1.3347  0.4874
 1233SOL     OW15331   3.822   1.888   2.913 -0.1319 -0.2939  0.1809
 1233SOL    HW115332   3.783   1.904   2.999  1.7982 -2.7294  1.5083
 1233SOL    HW215333   3.916   1.888   2.932  0.1748 -3.2852 -1.3569
 1234SOL     OW15334   1.922   4.339  14.428  0.0015 -0.0978 -0.0208
 1234SOL    HW115335   1.866   4.261  14.418  1.6197 -1.1968 -0.4703
 1234SOL    HW215336   1.889   4.380  14.508  0.7265 -3.0801  1.8022
 1235SOL     OW15337   3.371   1.332   3.382  0.3311  0.1423 -0.0639
 1235SOL    HW115338   3.368   1.377   3.297 -0.1649  1.4602  0.6467
 1235SOL    HW215339   3.460   1.297   3.379  0.0716 -0.5787  0.8614
 1236SOL     OW15340   1.520   0.586   5.052 -0.2894 -0.0348  0.5374
 1236SOL    HW115341   1.591   0.556   5.109 -0.7462  2.3161  2.3547
 1236SOL    HW215342   1.572   0.648   5.001  0.4395  0.6622  2.1245
 1237SOL     OW15343   3.393   0.806  15.359  0.2849 -0.2077 -0.1896
 1237SOL    HW115344   3.445   0.882  15.334  2.5883 -1.7852 -0.1244
 1237SOL    HW215345   3.304   0.842  15.368  0.7235  1.3357 -1.9796
 1238SOL     OW15346   0.274   3.419   3.995  0.1141  0.0482  0.0314
 1238SOL    HW115347   0.192   3.392   3.954  1.4823 -0.7580 -2.2333
 1238SOL    HW215348   0.321   3.337   3.979  0.2378  0.4477 -1.6850
 1239SOL     OW15349   1.686   2.641  13.534 -0.3318 -0.2774  0.5203
 1239SOL    HW115350   1.730   2.615  13.615 -0.5453 -0.5652  0.5467
 1239SOL    HW215351   1.759   2.656  13.473 -1.3544  1.2293 -0.3289
 1240SOL     OW15352   3.908   0.090   3.700 -0.0249  0.3037  0.7293
 1240SOL    HW115353   3.923   0.165   3.643  0.3607 -0.0605  0.3521
 1240SOL    HW215354   3.875   0.139   3.775  2.1120 -1.4781  2.8256
 1241SOL     OW15355   4.545   2.749  14.023  0.5776  0.3484 -0.1527
 1241SOL    HW115356   4.540   2.713  13.934  3.4108  2.8613 -1.3404
 1241SOL    HW215357   4.451   2.752  14.040  0.4768  0.1777 -0.6616
 1242SOL     OW15358   1.355   1.692  13.257 -0.5312 -0.1011  0.5141
 1242SOL    HW115359   1.261   1.682  13.271 -0.9059  1.0401 -1.1972
 1242SOL    HW215360   1.393   1.622  13.311 -1.4335  0.4464  1.8394
 1243SOL     OW15361   4.386   1.798   9.811  0.5460  0.3546  0.6972
 1243SOL    HW115362   4.376   1.773   9.719 -1.1522  0.8046  0.7583
 1243SOL    HW215363   4.445   1.872   9.797 -0.2992  0.2666 -3.4458
 1244SOL     OW15364   4.102   1.219   1.417 -0.1400 -0.2452  0.6503
 1244SOL    HW115365   4.179   1.164   1.427 -1.1226 -1.7275 -0.0487
 1244SOL    HW215366   4.144   1.289   1.366  0.6936  0.5747  2.4854
 1245SOL     OW15367   2.282   1.085   1.802  0.0077 -0.3713 -0.9512
 1245SOL    HW115368   2.278   1.172   1.843  1.3613 -1.4400  1.4183
 1245SOL    HW215369   2.222   1.033   1.856  0.1839  1.1541  0.7598
 1246SOL     OW15370   1.167   3.055   3.644  0.1726  0.7116 -0.0764
 1246SOL    HW115371   1.215   2.983   3.687 -2.3156 -1.4338 -0.8988
 1246SOL    HW215372   1.181   3.049   3.550 -1.1371  1.7345 -0.3288
 1247SOL     OW15373   0.239   3.073   3.688 -0.3685  0.3470 -0.6952
 1247SOL    HW115374   0.283   3.084   3.771 -0.4907  1.8258 -0.8264
 1247SOL    HW215375   0.157   3.118   3.710 -1.8643 -2.9217  0.4396
 1248SOL     OW15376   2.923   0.494   6.941  0.0562  0.3096 -0.1352
 1248SOL    HW115377   2.915   0.403   6.914 -0.1264  0.1067  0.6029
 1248SOL    HW215378   2.965   0.484   7.026 -1.2985 -2.9146  0.1528
 1249SOL     OW15379   1.994   0.528   5.657  0.0585 -0.0934 -0.5203
 1249SOL    HW115380   2.059   0.519   5.588  1.0889  1.5133  0.2371
 1249SOL    HW215381   1.931   0.457   5.644  0.4261 -0.3584 -0.8381
 1250SOL     OW15382   2.228   0.538   2.048 -0.2172 -0.2615 -0.1708
 1250SOL    HW115383   2.243   0.572   1.959 -0.9133  0.0256 -0.1739
 1250SOL    HW215384   2.136   0.560   2.062 -0.5743 -0.9076 -1.4920
 1251SOL     OW15385   4.506   3.294   5.129 -0.2906  0.0335 -0.3798
 1251SOL    HW115386   4.440   3.238   5.170  1.4960 -1.6137  0.2420
 1251SOL    HW215387   4.577   3.292   5.193 -0.9437 -0.1355  0.3261
 1252SOL     OW15388   0.218   4.567   3.770 -0.1706 -0.0719 -0.7833
 1252SOL    HW115389   0.295   4.576   3.826  1.4521  1.6956 -3.2869
 1252SOL    HW215390   0.156   4.631   3.805 -0.3750 -0.6535 -0.0725
 1253SOL     OW15391   1.648   3.414  12.403 -0.2730  0.1506  0.1563
 1253SOL    HW115392   1.609   3.484  12.455 -1.1685 -0.8491  0.8214
 1253SOL    HW215393   1.618   3.335  12.446 -1.7959 -0.3187 -1.7908
 1254SOL     OW15394   0.066   2.861   5.360 -0.1551  0.0681  0.0172
 1254SOL    HW115395   0.105   2.933   5.409 -1.0316  2.1462 -2.3478
 1254SOL    HW215396   4.717   2.904   5.348 -0.7640 -1.7374 -2.0987
 1255SOL     OW15397   4.125   2.858   3.345  0.2892  0.3304 -0.4395
 1255SOL    HW115398   4.066   2.793   3.383 -0.0180 -0.2781 -1.9387
 1255SOL    HW215399   4.195   2.877   3.407 -1.9719  0.7747  1.9598
 1256SOL     OW15400   0.478   4.368   9.369 -0.0798  0.6003 -0.0077
 1256SOL    HW115401   0.554   4.344   9.421 -1.1774 -1.6319  0.5993
 1256SOL    HW215402   0.520   4.426   9.306  3.5217 -1.3189  0.6238
 1257SOL     OW15403   1.946   4.065   2.998  0.4604 -0.1374 -0.2605
 1257SOL    HW115404   1.998   4.071   2.917  0.5422  0.7125 -0.1446
 1257SOL    HW215405   1.870   4.112   2.962  2.2398  2.7764 -0.2503
 1258SOL     OW15406   3.668   3.456  16.803 -0.3199  0.5682  0.3149
 1258SOL    HW115407   3.752   3.501  16.814 -0.6875  1.4792 -0.5333
 1258SOL    HW215408   3.610   3.530  16.821  1.0793  1.8722 -0.5674
 1259SOL     OW15409   0.329   0.488   7.686 -0.2446  0.1011  0.1069
 1259SOL    HW115410   0.335   0.584   7.693  1.4065 -0.0928  1.5808
 1259SOL    HW215411   0.248   0.479   7.637 -0.9510  0.6836  1.1557
 1260SOL     OW15412   4.210   1.183   4.334  0.3741 -0.5276  0.4843
 1260SOL    HW115413   4.185   1.274   4.322  2.3160 -0.3082 -1.6554
 1260SOL    HW215414   4.266   1.174   4.257 -1.4026  2.1119 -1.1268
 1261SOL     OW15415   0.587   2.301   8.331  0.0269 -0.1461 -0.1714
 1261SOL    HW115416   0.542   2.253   8.400 -0.5847 -0.1795 -0.5896
 1261SOL    HW215417   0.514   2.344   8.285  0.6661  2.4970  1.2883
 1262SOL     OW15418   1.983   2.445   5.693  0.0162 -0.1840 -0.5468
 1262SOL    HW115419   1.994   2.436   5.788  2.0025 -2.8837 -1.0240
 1262SOL    HW215420   1.949   2.534   5.692 -0.6191 -0.4209  0.4112
 1263SOL     OW15421   2.163   0.838   6.023 -0.1851  0.4334 -0.5943
 1263SOL    HW115422   2.142   0.763   5.967 -0.9124 -0.2143  0.5597
 1263SOL    HW215423   2.078   0.880   6.022  0.6794  2.1685 -1.3335
 1264SOL     OW15424   4.027   1.887   0.415 -0.0811  0.1815  0.2111
 1264SOL    HW115425   4.065   1.947   0.480  1.6044  1.5939 -2.0926
 1264SOL    HW215426   4.036   1.930   0.330  2.2492 -0.2953  0.2164
 1265SOL     OW15427   4.488   3.348   6.331 -0.4817  0.2395  0.0652
 1265SOL    HW115428   4.541   3.322   6.406 -2.3837 -0.8557  1.0339
 1265SOL    HW215429   4.494   3.443   6.337 -0.5682  0.2620 -0.1871
 1266SOL     OW15430   2.641   4.712   4.147 -0.2621  0.1035  0.0534
 1266SOL    HW115431   2.675   0.051   4.098 -2.0782  0.7852 -0.1834
 1266SOL    HW215432   2.573   0.018   4.200  0.5239  0.8955  0.4230
 1267SOL     OW15433   0.394   3.060   7.570  0.1613  0.4920 -0.4349
 1267SOL    HW115434   0.310   3.015   7.583  0.2757  0.5553  0.5476
 1267SOL    HW215435   0.426   3.050   7.660  0.5042  0.2037 -0.5929
 1268SOL     OW15436   0.264   2.060   8.657 -0.7360 -0.6722 -0.2425
 1268SOL    HW115437   0.203   1.993   8.626 -1.0941  0.9411 -3.0371
 1268SOL    HW215438   0.213   2.113   8.719 -0.3644 -0.8237  0.1960
 1269SOL     OW15439   4.169   2.562  13.923  0.2592  0.0322 -0.5236
 1269SOL    HW115440   4.210   2.645  13.948 -0.2128 -0.1525  0.8768
 1269SOL    HW215441   4.076   2.568  13.944  0.1469  2.2180 -1.7570
 1270SOL     OW15442   4.370   1.797   2.651  0.2608 -0.1441 -0.1875
 1270SOL    HW115443   4.407   1.821   2.566 -1.1746 -0.8455 -1.0054
 1270SOL    HW215444   4.280   1.823   2.631 -0.9322 -2.4999  2.0938
 1271SOL     OW15445   4.453   1.240   4.865 -0.1852 -0.0625  0.2894
 1271SOL    HW115446   4.476   1.187   4.788  1.0198 -0.5035  0.9577
 1271SOL    HW215447   4.411   1.318   4.828  0.0657  0.7470  1.7194
 1272SOL     OW15448   0.835   0.858   3.303  0.5708  0.2378 -0.0810
 1272SOL    HW115449   0.755   0.901   3.273  1.0391  2.1035  1.3625
 1272SOL    HW215450   0.890   0.931   3.328  0.9945 -0.5903  1.4237
 1273SOL     OW15451   4.515   2.607   5.803 -0.0305 -0.0127  0.4703
 1273SOL    HW115452   4.430   2.629   5.766  0.4611 -1.4648 -1.5453
 1273SOL    HW215453   4.531   2.687   5.853 -1.5294  1.7235 -1.8264
 1274SOL     OW15454   0.193   1.875  13.765  0.2715  0.5121 -0.0596
 1274SOL    HW115455   0.164   1.907  13.679  0.1565  1.6552  0.4035
 1274SOL    HW215456   0.159   1.786  13.764  2.9667 -0.5416  0.5362
 1275SOL     OW15457   2.856   1.331   4.245  0.0264 -0.6615 -0.4290
 1275SOL    HW115458   2.899   1.300   4.165 -0.0534 -3.0178  0.4545
 1275SOL    HW215459   2.762   1.322   4.236 -0.0273 -1.0920  0.5999
 1276SOL     OW15460   3.164   3.811   5.463 -0.2140  0.4276  0.5144
 1276SOL    HW115461   3.121   3.790   5.380  0.8101  2.4888 -0.5164
 1276SOL    HW215462   3.246   3.848   5.431 -0.2426  1.7118  1.9193
 1277SOL     OW15463   3.770   4.686   3.207  0.1062  0.3057 -0.4944
 1277SOL    HW115464   3.733   0.034   3.179  2.0218  1.0645 -0.7129
 1277SOL    HW215465   3.696   4.631   3.180  0.5766 -0.7385  0.3456
 1278SOL     OW15466   3.609   3.094   5.937  0.0597  0.0520 -0.4353
 1278SOL    HW115467   3.573   3.081   5.849  1.3975 -1.9827 -0.6732
 1278SOL    HW215468   3.529   3.101   5.990  1.5180  3.8536  1.2921
 1279SOL     OW15469   3.573   4.631   1.044  0.1622 -0.0526  0.5617
 1279SOL    HW115470   3.508   4.697   1.020 -1.8097 -2.3792 -0.4979
 1279SOL    HW215471   3.526   4.554   1.013  1.9083 -0.9572  0.1812
 1280SOL     OW15472   0.710   3.746   7.973  0.1201 -0.1233 -0.1490
 1280SOL    HW115473   0.701   3.773   8.064 -0.4704 -2.2765  0.4457
 1280SOL    HW215474   0.625   3.706   7.957 -0.5753  0.6728  1.6034
 1281SOL     OW15475   3.626   4.374   2.251  0.0684  0.0238  0.1532
 1281SOL    HW115476   3.623   4.369   2.347  0.2466  0.0668  0.1621
 1281SOL    HW215477   3.548   4.322   2.233  0.6268 -0.3170 -1.2777
 1282SOL     OW15478   1.482   2.429   7.862  0.2279  0.6224  0.0901
 1282SOL    HW115479   1.541   2.400   7.792  0.0900 -1.5773  0.8809
 1282SOL    HW215480   1.414   2.365   7.843  0.1775  1.2718 -1.9169
 1283SOL     OW15481   2.178   1.848  11.280 -0.4634 -0.2556  0.3306
 1283SOL    HW115482   2.229   1.808  11.351 -0.9774 -0.2757  0.6836
 1283SOL    HW215483   2.171   1.780  11.214  1.6105 -1.6331  1.5107
 1284SOL     OW15484   3.343   0.269  13.650 -0.5614 -0.1836  0.5083
 1284SOL    HW115485   3.262   0.317  13.632 -0.1043 -0.1732 -1.5987
 1284SOL    HW215486   3.313   0.181  13.627  1.1686 -0.7973  0.6203
 1285SOL     OW15487   4.624   1.204   8.329  0.0098 -0.6624  0.5564
 1285SOL    HW115488   4.529   1.206   8.340  0.1498  0.1059  1.6586
 1285SOL    HW215489   4.646   1.198   8.422 -1.4539  2.1013  1.0658
 1286SOL     OW15490   1.647   1.115   1.923 -0.6834  0.5555 -0.2007
 1286SOL    HW115491   1.642   1.028   1.883  0.8803  0.1024  0.5725
 1286SOL    HW215492   1.632   1.164   1.842  2.3663 -0.8563 -1.6140
 1287SOL     OW15493   3.282   2.103  15.475  0.1136 -0.3208  0.4304
 1287SOL    HW115494   3.211   2.137  15.529 -0.2860 -1.4023  0.5838
 1287SOL    HW215495   3.251   2.020  15.441  0.1818 -0.4056  0.5732
 1288SOL     OW15496   0.104   2.238   4.344  0.1235  0.2491 -0.0997
 1288SOL    HW115497   0.126   2.151   4.311  0.1580  0.3565 -0.3670
 1288SOL    HW215498   0.177   2.252   4.404  0.8158 -1.2201 -0.6063
 1289SOL     OW15499   3.655   1.643   7.181  0.6020  0.8573  0.1671
 1289SOL    HW115500   3.750   1.648   7.176  0.7276 -2.4229 -0.8010
 1289SOL    HW215501   3.637   1.550   7.198  0.2221  1.3597  2.5305
 1290SOL     OW15502   3.695   0.193   6.533  0.4501  0.3633 -0.1431
 1290SOL    HW115503   3.670   0.168   6.622 -0.8138 -1.4426 -1.0010
 1290SOL    HW215504   3.769   0.134   6.519  1.4606  1.1774  1.8959
 1291SOL     OW15505   1.109   3.613  14.871 -0.4019  0.6804 -0.0963
 1291SOL    HW115506   1.047   3.544  14.892 -0.2266  0.5528 -0.0068
 1291SOL    HW215507   1.092   3.617  14.776 -1.5473  1.0520  0.1176
 1292SOL     OW15508   3.068   2.037   3.224 -0.0807 -0.1436  0.2222
 1292SOL    HW115509   3.028   2.119   3.253  2.0631  0.6661  0.8876
 1292SOL    HW215510   3.158   2.066   3.208  0.7057 -1.9708  1.2825
 1293SOL     OW15511   0.766   2.431   4.345  0.0740 -0.4578 -0.6787
 1293SOL    HW115512   0.767   2.515   4.391 -0.2756 -0.3815 -0.8138
 1293SOL    HW215513   0.683   2.391   4.370  0.2930 -0.0870  0.6422
 1294SOL     OW15514   2.151   1.348   9.155 -0.6679  0.1421  0.3242
 1294SOL    HW115515   2.210   1.415   9.188  0.0576  0.9965 -2.8062
 1294SOL    HW215516   2.066   1.391   9.146 -1.7069 -2.3274 -1.4491
 1295SOL     OW15517   2.669   4.471  14.506 -0.2669 -0.0671 -0.2386
 1295SOL    HW115518   2.578   4.442  14.519  0.0123 -0.1238  1.6096
 1295SOL    HW215519   2.662   4.531  14.432 -1.2097 -2.4281 -2.0842
 1296SOL     OW15520   0.066   4.405   2.545 -0.3010 -0.8890 -0.9605
 1296SOL    HW115521   0.133   4.414   2.611  0.5297 -0.8808 -1.8042
 1296SOL    HW215522   0.028   4.329   2.590 -0.7979  0.9406  1.6509
 1297SOL     OW15523   2.102   2.422   5.460  0.0619 -0.1364 -0.9380
 1297SOL    HW115524   2.033   2.432   5.526 -0.9081  0.5859 -2.0630
 1297SOL    HW215525   2.055   2.453   5.382  0.4454  1.4787 -0.5191
 1298SOL     OW15526   2.433   3.548   3.894  0.5336  0.1989 -0.5776
 1298SOL    HW115527   2.512   3.521   3.940 -0.4638  1.0222  1.6154
 1298SOL    HW215528   2.466   3.608   3.828  2.2158 -0.7726 -0.6214
 1299SOL     OW15529   1.352   2.684   7.482  0.0250  0.1319 -0.2616
 1299SOL    HW115530   1.401   2.696   7.401  2.4595  0.7115  1.2921
 1299SOL    HW215531   1.344   2.777   7.505 -2.1318 -0.3694  1.0575
 1300SOL     OW15532   0.533   1.780   4.344 -0.4793 -0.8636  0.1381
 1300SOL    HW115533   0.527   1.781   4.249 -4.3043  2.3571  0.4121
 1300SOL    HW215534   0.486   1.700   4.365 -0.7011 -0.5158  0.9677
 1301SOL     OW15535   3.320   0.807   5.434 -0.2849 -0.3505 -0.0142
 1301SOL    HW115536   3.301   0.833   5.524  0.7002 -0.4900  0.2355
 1301SOL    HW215537   3.364   0.887   5.406 -3.0328  1.1805  0.0395
 1302SOL     OW15538   3.590   2.721   1.223  0.4407  0.0072 -0.0855
 1302SOL    HW115539   3.523   2.674   1.272  1.5414  0.6080  2.0017
 1302SOL    HW215540   3.665   2.708   1.282  1.0240 -0.6854 -0.9825
 1303SOL     OW15541   2.023   4.363   1.349 -0.1820 -0.0938  0.6779
 1303SOL    HW115542   2.081   4.343   1.423 -0.3017  1.3132  1.1515
 1303SOL    HW215543   1.948   4.310   1.376 -1.3951  1.0440 -0.4343
 1304SOL     OW15544   1.574   2.143   5.770  0.4791  0.2701  0.0879
 1304SOL    HW115545   1.494   2.194   5.757  0.2502 -0.4483 -1.3060
 1304SOL    HW215546   1.538   2.064   5.730  1.5993 -0.1379 -0.1025
 1305SOL     OW15547   4.655   1.810  11.546 -0.0731 -0.1865  0.0656
 1305SOL    HW115548   4.589   1.793  11.614 -0.7595 -1.7260 -0.9818
 1305SOL    HW215549   4.646   1.902  11.523  1.1192 -0.2671 -0.7466
 1306SOL     OW15550   4.223   3.807  15.308 -0.4299 -0.0524  0.0454
 1306SOL    HW115551   4.180   3.891  15.322 -0.5153 -0.2279  0.8606
 1306SOL    HW215552   4.147   3.748  15.298  0.5488 -1.0342 -1.6326
 1307SOL     OW15553   0.878   2.345   8.323 -0.0155 -0.1101 -0.3428
 1307SOL    HW115554   0.793   2.377   8.352 -0.2534  0.9787 -2.1966
 1307SOL    HW215555   0.895   2.411   8.256 -1.8890 -1.0412 -1.7359
 1308SOL     OW15556   4.663   1.184  14.966  0.7499  0.5610  0.1248
 1308SOL    HW115557   4.588   1.243  14.974  1.6718  1.7445  0.1593
 1308SOL    HW215558   4.669   1.166  14.873 -0.1585  0.5463  0.0703
 1309SOL     OW15559   0.741   3.733   5.112  0.2786 -0.3997 -0.0328
 1309SOL    HW115560   0.769   3.763   5.199 -2.7550  0.0925  0.7869
 1309SOL    HW215561   0.809   3.669   5.093  0.1020 -1.2020  1.9503
 1310SOL     OW15562   3.717   1.533   8.502  0.5612 -0.0169 -0.3375
 1310SOL    HW115563   3.719   1.532   8.598  2.3115  1.7513 -0.3664
 1310SOL    HW215564   3.707   1.626   8.482 -0.6378 -0.1786 -0.4952
 1311SOL     OW15565   2.695   1.317   5.919 -0.5365  0.1903 -0.7442
 1311SOL    HW115566   2.723   1.408   5.921 -0.2921  0.0903  0.2655
 1311SOL    HW215567   2.683   1.292   5.827  1.6104 -0.4872 -0.8265
 1312SOL     OW15568   4.193   4.453   5.108  0.3976  0.4792 -0.4214
 1312SOL    HW115569   4.134   4.520   5.075 -0.2063  1.0570  1.8374
 1312SOL    HW215570   4.157   4.364   5.101  0.4541  0.3701  0.6717
 1313SOL     OW15571   4.480   3.588   2.354 -0.0812 -0.2171 -0.0647
 1313SOL    HW115572   4.557   3.540   2.324  1.3169  0.7839  1.8993
 1313SOL    HW215573   4.517   3.670   2.388 -0.0072 -1.3946  2.7276
 1314SOL     OW15574   2.953   0.363   0.207 -0.2944  0.5446 -0.3401
 1314SOL    HW115575   2.864   0.328   0.196  0.2115 -1.4160  1.9411
 1314SOL    HW215576   2.954   0.444   0.156 -0.7709 -0.3340 -1.7580
 1315SOL     OW15577   0.093   0.507   2.904 -0.4884  0.2054 -0.1771
 1315SOL    HW115578   0.051   0.590   2.880 -0.2175 -0.0096 -1.3854
 1315SOL    HW215579   0.060   0.443   2.842  0.3385  0.6819 -1.0965
 1316SOL     OW15580   0.687   0.796   2.559  0.0289 -0.0094  0.3871
 1316SOL    HW115581   0.669   0.835   2.474 -1.2658  0.6852  0.9728
 1316SOL    HW215582   0.672   0.702   2.548 -1.6700  0.5302 -1.9542
 1317SOL     OW15583   4.627   3.135   4.338 -0.0137 -0.5787 -0.0063
 1317SOL    HW115584   4.541   3.143   4.380  0.6109  1.1869  0.9731
 1317SOL    HW215585   4.636   3.042   4.318 -1.4756 -0.4855 -1.0684
 1318SOL     OW15586   4.252   3.220   7.243 -0.2145  0.4310  0.0233
 1318SOL    HW115587   4.228   3.305   7.279  1.3601  1.3198 -0.9788
 1318SOL    HW215588   4.325   3.200   7.302 -2.0591  0.9529  2.4335
 1319SOL     OW15589   4.236   0.636  11.372 -0.0883  0.1293  0.6170
 1319SOL    HW115590   4.188   0.653  11.453 -0.7094 -2.6569  0.8241
 1319SOL    HW215591   4.325   0.640  11.405  0.1247 -1.0456  0.1917
 1320SOL     OW15592   3.157   3.584  16.422 -0.7190 -0.0660 -0.2320
 1320SOL    HW115593   3.159   3.574  16.517 -1.6700 -0.6973 -0.2863
 1320SOL    HW215594   3.229   3.645  16.401 -1.2731  1.3102  1.8697
 1321SOL     OW15595   0.031   2.525  16.147  0.2007  0.1954 -0.2083
 1321SOL    HW115596   0.056   2.552  16.235  0.5922  1.2590 -0.6457
 1321SOL    HW215597   0.111   2.519  16.095  0.5512 -1.7813  0.5410
 1322SOL     OW15598   2.123   1.358  16.856  0.8486  0.3156  0.1159
 1322SOL    HW115599   2.125   1.263  16.865 -2.4839  0.0476 -1.9333
 1322SOL    HW215600   2.045   1.380  16.907  0.6363 -1.6632  0.6578
 1323SOL     OW15601   2.589   4.131   7.843  0.0757  1.0211  0.0018
 1323SOL    HW115602   2.555   4.207   7.891 -2.0489  0.5299 -0.7114
 1323SOL    HW215603   2.512   4.090   7.803  1.7937  0.5550 -2.8137
 1324SOL     OW15604   0.128   0.763  16.476  0.2122 -0.7196 -0.0529
 1324SOL    HW115605   0.183   0.684  16.475  0.8283 -0.2917  0.3554
 1324SOL    HW215606   0.041   0.730  16.498  1.2989 -0.8989  3.9088
 1325SOL     OW15607   2.119   1.088  16.846  0.6839  0.4960  0.4714
 1325SOL    HW115608   2.086   1.050  16.927 -1.0422 -0.3098 -0.6075
 1325SOL    HW215609   2.097   1.014  16.790 -1.1159 -1.2390  3.4794
 1326SOL     OW15610   1.850   0.140  17.469 -0.6838 -0.2486 -0.5281
 1326SOL    HW115611   1.778   0.202  17.477 -1.1889 -1.0280  1.0309
 1326SOL    HW215612   1.803   0.062  17.438 -0.1304 -2.0274  3.0774
 1327SOL     OW15613   1.370   3.972   7.932  0.5675  0.0991 -0.3831
 1327SOL    HW115614   1.280   3.970   7.900  0.6239 -0.2332 -0.5226
 1327SOL    HW215615   1.402   4.047   7.882  2.0224  0.4123  1.0054
 1328SOL     OW15616   2.766   1.680  15.260  0.5834  0.1094  0.3388
 1328SOL    HW115617   2.681   1.654  15.224  0.2700  1.1875  0.3089
 1328SOL    HW215618   2.764   1.774  15.241 -0.8558  0.0068 -0.0312
 1329SOL     OW15619   3.029   3.777  14.625  0.3461 -0.2919  0.0098
 1329SOL    HW115620   3.018   3.819  14.710  1.5435 -2.3284  1.1466
 1329SOL    HW215621   3.124   3.781  14.626  0.3758 -1.7667  1.6274
 1330SOL     OW15622   4.727   1.105   4.743 -0.0657  0.1653  0.1083
 1330SOL    HW115623   0.048   1.174   4.775  2.0853 -0.9261 -1.3889
 1330SOL    HW215624   0.047   1.068   4.676  0.5300  1.4538 -0.1083
 1331SOL     OW15625   3.245   1.864   6.424  0.0869 -0.1457 -0.3706
 1331SOL    HW115626   3.201   1.859   6.340 -0.6987  1.1619 -0.0332
 1331SOL    HW215627   3.162   1.887   6.466  0.9462  2.8111 -0.3498
 1332SOL     OW15628   3.982   0.298   8.918  0.0698 -0.2400  0.1851
 1332SOL    HW115629   3.914   0.232   8.927  0.1487 -0.6568 -2.2343
 1332SOL    HW215630   4.026   0.293   9.003  0.9596 -0.9238 -0.3127
 1333SOL     OW15631   3.938   0.900   3.320  0.6323  0.2590 -0.0519
 1333SOL    HW115632   3.925   0.808   3.344  1.9885 -0.1675 -0.9654
 1333SOL    HW215633   3.864   0.947   3.358  2.4928  1.7880  1.6801
 1334SOL     OW15634   2.443   1.975  13.695  0.3659 -0.0526 -0.5113
 1334SOL    HW115635   2.445   2.046  13.631 -0.3126 -0.1904 -0.6858
 1334SOL    HW215636   2.512   1.917  13.663 -0.1883 -0.5506 -0.8109
 1335SOL     OW15637   4.551   2.074   0.977 -0.3485 -0.5470 -0.4594
 1335SOL    HW115638   4.455   2.082   0.976 -0.4479 -1.8490 -1.1698
 1335SOL    HW215639   4.570   2.052   0.886 -1.1281 -1.8080 -0.3163
 1336SOL     OW15640   2.847   3.344   5.477  0.1341 -0.1415  0.8906
 1336SOL    HW115641   2.851   3.259   5.433  1.7292  0.6166 -0.4189
 1336SOL    HW215642   2.935   3.380   5.470  0.4267 -1.3498 -1.4555
 1337SOL     OW15643   2.253   3.696   5.457 -0.6714 -0.2824 -0.0708
 1337SOL    HW115644   2.164   3.693   5.492 -0.8321  0.1169 -0.4529
 1337SOL    HW215645   2.235   3.715   5.365 -0.2411 -1.7131 -0.4459
 1338SOL     OW15646   1.530   0.218   9.218 -0.8037 -0.4535 -0.2232
 1338SOL    HW115647   1.571   0.287   9.165 -1.3975  0.0377 -0.0518
 1338SOL    HW215648   1.471   0.265   9.278  0.0062 -0.1852  0.3638
 1339SOL     OW15649   4.554   0.597  13.466  0.3060 -0.4889  0.3147
 1339SOL    HW115650   4.526   0.546  13.390 -0.8542 -2.3634  2.0047
 1339SOL    HW215651   4.510   0.552  13.538  0.1240 -0.3096  0.3178
 1340SOL     OW15652   3.538   2.728  15.588 -0.4226  0.4565 -0.4683
 1340SOL    HW115653   3.471   2.795  15.579 -0.0676  0.7892 -0.6367
 1340SOL    HW215654   3.513   2.699  15.675  1.7076 -1.3358 -0.4333
 1341SOL     OW15655   2.896   1.470  12.140 -0.0630 -0.0645 -0.0548
 1341SOL    HW115656   2.917   1.385  12.178  1.9128 -0.2507 -1.5557
 1341SOL    HW215657   2.926   1.450  12.051  0.2511  3.0403 -0.6490
 1342SOL     OW15658   4.600   0.730   4.114 -0.0880  0.6464 -0.2338
 1342SOL    HW115659   4.601   0.761   4.205  1.3220  3.0742 -1.0501
 1342SOL    HW215660   4.643   0.646   4.123 -2.3911 -0.2924  1.8308
 1343SOL     OW15661   0.164   4.494   7.481  0.0561 -0.5970 -0.0079
 1343SOL    HW115662   0.070   4.478   7.491 -0.3018  1.4683 -0.1710
 1343SOL    HW215663   0.158   4.584   7.450  3.3329 -0.4659 -0.2700
 1344SOL     OW15664   4.461   1.015   5.472  0.5717 -0.1966  0.0404
 1344SOL    HW115665   4.555   1.032   5.467  0.9384 -2.0239  1.0498
 1344SOL    HW215666   4.437   0.994   5.381  1.6184 -1.1085 -0.0212
 1345SOL     OW15667   1.921   2.219   7.494 -0.1530 -0.8856 -0.5024
 1345SOL    HW115668   1.947   2.276   7.422 -1.5211  0.7964  0.3086
 1345SOL    HW215669   1.843   2.175   7.460  0.1066 -1.2021 -0.6846
 1346SOL     OW15670   3.644   0.137   7.629 -0.6138  0.3053 -0.1652
 1346SOL    HW115671   3.610   0.048   7.638 -2.3966  1.0943  0.8074
 1346SOL    HW215672   3.738   0.116   7.634 -1.2158 -2.1168  1.0762
 1347SOL     OW15673   4.024   2.448   7.553  0.4139  0.4025 -0.2382
 1347SOL    HW115674   3.995   2.428   7.642  1.0943 -0.6552 -0.2575
 1347SOL    HW215675   4.115   2.420   7.558 -0.2223 -1.2736  1.8415
 1348SOL     OW15676   0.864   1.104  14.661  0.4642  0.2635  0.8245
 1348SOL    HW115677   0.878   1.187  14.616  2.1468 -1.4103 -1.7805
 1348SOL    HW215678   0.953   1.070  14.650 -0.3972 -1.6428 -0.3774
 1349SOL     OW15679   3.973   4.499   1.896  0.0372 -0.3273 -0.2703
 1349SOL    HW115680   3.878   4.497   1.890  0.0583 -3.0474  0.3236
 1349SOL    HW215681   3.981   4.428   1.960  0.8854  0.0961  0.0898
 1350SOL     OW15682   3.600   1.069  10.589  0.2361  0.2776  0.4022
 1350SOL    HW115683   3.594   0.974  10.600 -2.5804  0.2746 -1.2133
 1350SOL    HW215684   3.638   1.077  10.502 -1.3077  1.1095 -0.1914
 1351SOL     OW15685   4.092   2.969   4.704 -0.0367 -0.4148 -0.0266
 1351SOL    HW115686   3.999   2.968   4.684  0.2680 -0.8847 -1.4093
 1351SOL    HW215687   4.120   2.891   4.656 -0.4605 -2.2627  2.7340
 1352SOL     OW15688   3.263   4.426  15.786 -0.4693  0.3696  0.0496
 1352SOL    HW115689   3.221   4.409  15.871  1.0162 -0.1896  0.6615
 1352SOL    HW215690   3.205   4.493  15.749  0.5048 -0.1691 -2.4173
 1353SOL     OW15691   0.781   2.894   3.148  0.2039 -0.0865 -0.1215
 1353SOL    HW115692   0.748   2.943   3.073 -1.8130  0.5534  1.1897
 1353SOL    HW215693   0.703   2.840   3.154  0.3602 -0.2196  0.7002
 1354SOL     OW15694   1.225   2.097   3.546  0.0869  0.3172  0.1645
 1354SOL    HW115695   1.198   2.153   3.619 -1.5140 -1.0018  0.5753
 1354SOL    HW215696   1.276   2.155   3.490  0.0826  0.4968  0.3464
 1355SOL     OW15697   3.873   2.038  16.018  0.4092 -0.3800 -0.0725
 1355SOL    HW115698   3.789   2.062  15.977  1.6016  1.8407 -1.2077
 1355SOL    HW215699   3.868   1.943  16.010  0.4117 -0.4376  0.6590
 1356SOL     OW15700   0.359   2.802   1.211 -0.5246 -0.2577 -0.1372
 1356SOL    HW115701   0.395   2.741   1.276 -0.7483 -1.3988 -1.0970
 1356SOL    HW215702   0.299   2.852   1.267  0.6224  0.3905  0.5318
 1357SOL     OW15703   4.352   2.808   4.537 -0.7035 -0.0782  0.1300
 1357SOL    HW115704   4.345   2.904   4.533  1.0077  0.0141 -0.4642
 1357SOL    HW215705   4.399   2.787   4.456 -2.2235 -0.8650 -0.5384
 1358SOL     OW15706   4.281   1.128   2.837 -0.0040  0.1983  0.0034
 1358SOL    HW115707   4.193   1.128   2.872  0.7878  0.1673  1.9874
 1358SOL    HW215708   4.281   1.212   2.792 -2.1975  0.5315  0.6637
 1359SOL     OW15709   0.513   0.250   3.732  0.2908  0.4344  0.4583
 1359SOL    HW115710   0.587   0.296   3.692 -2.0231  2.0317 -1.9455
 1359SOL    HW215711   0.493   0.188   3.662  1.9957 -3.2678  3.2821
 1360SOL     OW15712   3.743   4.198   3.019  0.4743 -0.1778 -0.4040
 1360SOL    HW115713   3.724   4.188   3.112 -2.4677  2.6228 -0.6974
 1360SOL    HW215714   3.729   4.108   2.990  0.8400 -0.5706  0.6481
 1361SOL     OW15715   0.092   2.462   1.871 -0.7112 -0.2247 -0.0235
 1361SOL    HW115716   0.136   2.379   1.856 -0.6298  0.1219 -1.7318
 1361SOL    HW215717   0.005   2.428   1.891 -0.3786 -0.2212  1.4250
 1362SOL     OW15718   1.028   4.614   3.385 -0.5082 -0.6355 -0.2763
 1362SOL    HW115719   1.013   4.697   3.340  1.9715  0.3470  0.7330
 1362SOL    HW215720   0.938   4.581   3.379 -0.8529  0.1559  0.4738
 1363SOL     OW15721   4.735   2.017  15.146 -0.1446 -0.1186 -0.2569
 1363SOL    HW115722   0.022   1.998  15.236  0.4295  0.1723 -0.3434
 1363SOL    HW215723   0.080   1.997  15.098 -0.0460  1.4833 -0.7677
 1364SOL     OW15724   0.823   0.592  17.048  0.0983 -0.0163 -0.5889
 1364SOL    HW115725   0.814   0.625  16.959 -0.9716 -2.4828 -1.3825
 1364SOL    HW215726   0.872   0.662  17.091 -1.7398  1.3219 -0.7070
 1365SOL     OW15727   0.025   3.563   5.738  0.4944 -0.4177 -0.1368
 1365SOL    HW115728   0.096   3.559   5.673 -0.4230 -1.2625 -1.0870
 1365SOL    HW215729   0.044   3.650   5.771 -0.2731 -0.4356  0.3408
 1366SOL     OW15730   0.990   1.403   5.347 -0.3152  0.6777 -0.0358
 1366SOL    HW115731   0.905   1.439   5.323 -0.5128 -0.1440 -0.5433
 1366SOL    HW215732   0.994   1.434   5.438  0.9246 -0.4305  0.2920
 1367SOL     OW15733   2.699   3.061   3.362 -0.1143  0.1071  0.0407
 1367SOL    HW115734   2.740   3.145   3.340  0.3642  0.0675  0.7887
 1367SOL    HW215735   2.694   3.019   3.276 -0.7561  0.0323  0.1158
 1368SOL     OW15736   0.996   2.031  11.752  0.4375  0.5092 -0.0372
 1368SOL    HW115737   1.013   2.020  11.845  0.1813  0.3252 -0.0096
 1368SOL    HW215738   0.973   2.122  11.732  2.0489  1.2944  1.7553
 1369SOL     OW15739   4.558   1.590  10.551 -0.0070 -0.1255  0.5935
 1369SOL    HW115740   4.494   1.624  10.488 -0.6586 -0.1239  1.2494
 1369SOL    HW215741   4.526   1.501  10.568  0.5043 -0.6921 -1.4253
 1370SOL     OW15742   1.334   1.439   6.816  0.0094 -0.1974 -0.1487
 1370SOL    HW115743   1.347   1.476   6.729 -0.2710 -3.5911 -1.6352
 1370SOL    HW215744   1.247   1.468   6.842  0.7312 -0.1083  2.1809
 1371SOL     OW15745   3.906   3.180   9.400  0.3404 -0.5168  0.2216
 1371SOL    HW115746   3.841   3.161   9.467 -0.2512  1.2680  0.1562
 1371SOL    HW215747   3.893   3.274   9.389 -0.0751 -0.6835 -0.7651
 1372SOL     OW15748   2.759   1.484  16.023  0.1823  0.3588 -1.1894
 1372SOL    HW115749   2.808   1.409  15.990 -1.4715 -0.8264 -0.9611
 1372SOL    HW215750   2.670   1.450  16.019 -0.4231  1.9124 -0.8684
 1373SOL     OW15751   1.955   2.219   3.435 -0.2163 -0.3525 -0.6028
 1373SOL    HW115752   2.028   2.277   3.414  0.4056 -1.8040 -2.4427
 1373SOL    HW215753   1.893   2.282   3.471 -0.4438 -1.2120  0.4898
 1374SOL     OW15754   0.061   2.915   1.629  0.1607 -0.0789  0.1279
 1374SOL    HW115755   0.149   2.937   1.600  0.4529 -0.3416  0.8126
 1374SOL    HW215756   0.071   2.859   1.706 -1.0699 -1.9294 -1.0612
 1375SOL     OW15757   4.122   2.025   8.752  0.1916  0.5568 -0.0360
 1375SOL    HW115758   4.083   1.972   8.821  0.5874  1.8024  1.1506
 1375SOL    HW215759   4.104   2.115   8.781  3.3065  0.6179  1.7504
 1376SOL     OW15760   0.894   1.176  13.666 -0.4077 -0.2935  0.2978
 1376SOL    HW115761   0.815   1.220  13.698 -0.2768 -1.7234  2.5554
 1376SOL    HW215762   0.861   1.101  13.617 -2.4866 -0.3905  1.8802
 1377SOL     OW15763   2.766   4.069   4.496 -0.0508  0.5178 -0.4422
 1377SOL    HW115764   2.833   4.107   4.553  0.7006  0.4754 -1.2959
 1377SOL    HW215765   2.818   4.073   4.416  0.4159 -0.8778 -0.2248
 1378SOL     OW15766   3.261   4.255   6.014  0.6330 -0.0335 -0.2130
 1378SOL    HW115767   3.244   4.190   5.945 -2.4413 -0.2986  0.7810
 1378SOL    HW215768   3.172   4.254   6.049  0.5992 -0.6863 -0.3176
 1379SOL     OW15769   2.941   4.217   0.860  0.0947  0.6433  0.7476
 1379SOL    HW115770   2.899   4.145   0.907  1.2507 -1.2437 -1.1269
 1379SOL    HW215771   3.009   4.234   0.925  1.9392 -2.8551 -0.2334
 1380SOL     OW15772   2.764   3.677   4.245  0.7146 -0.2176  0.4382
 1380SOL    HW115773   2.751   3.768   4.216 -1.4413 -0.7469 -0.2913
 1380SOL    HW215774   2.693   3.665   4.308  0.6391 -3.3920 -0.2543
 1381SOL     OW15775   2.637   2.424   8.112  0.0524  0.1657  0.6996
 1381SOL    HW115776   2.730   2.403   8.122 -0.6016 -2.4731  1.2067
 1381SOL    HW215777   2.602   2.342   8.077 -0.1098  0.1011  1.0180
 1382SOL     OW15778   4.588   3.753   8.369  0.1054  0.3012 -0.1600
 1382SOL    HW115779   4.657   3.735   8.433 -0.4146 -0.7262  0.1011
 1382SOL    HW215780   4.637   3.732   8.289 -0.9632  1.4890 -1.1362
 1383SOL     OW15781   4.216   2.097  11.780  0.1808  0.0459 -0.1642
 1383SOL    HW115782   4.264   2.167  11.825 -0.8241  0.4533  0.2710
 1383SOL    HW215783   4.131   2.142  11.786  0.2821 -0.0171  1.9146
 1384SOL     OW15784   4.697   1.786   1.939 -0.2402 -0.4075 -0.0788
 1384SOL    HW115785   4.626   1.750   1.886 -0.7804  0.3509  0.1217
 1384SOL    HW215786   0.033   1.782   1.877 -0.9349 -2.6304 -0.7305
 1385SOL     OW15787   0.597   0.567   1.504  0.2886 -0.4587 -0.0304
 1385SOL    HW115788   0.604   0.662   1.497  1.6468 -0.6587 -1.3775
 1385SOL    HW215789   0.513   0.565   1.549 -0.0275 -1.3082 -0.6604
 1386SOL     OW15790   3.165   3.176   5.241 -0.1975 -0.0606 -0.2700
 1386SOL    HW115791   3.071   3.161   5.253 -0.2448 -2.2617 -3.4070
 1386SOL    HW215792   3.181   3.106   5.178 -0.1140 -1.4615  1.3167
 1387SOL     OW15793   3.348   3.478   0.973 -0.0015  0.0582 -0.1382
 1387SOL    HW115794   3.333   3.425   0.895  1.6176  0.5705 -0.7947
 1387SOL    HW215795   3.424   3.427   1.002  0.7314  2.1577  1.7199
 1388SOL     OW15796   1.899   0.676   6.452  0.1061  0.4697 -0.3395
 1388SOL    HW115797   1.833   0.732   6.492 -0.4412 -0.8635  0.6189
 1388SOL    HW215798   1.882   0.694   6.359 -1.2293  1.4354  0.1016
 1389SOL     OW15799   1.852   1.122   7.845 -0.2377 -0.0824  0.4128
 1389SOL    HW115800   1.947   1.132   7.831 -0.0293  0.1274  1.9306
 1389SOL    HW215801   1.838   1.037   7.804 -1.8356  0.2066  0.3844
 1390SOL     OW15802   1.367   1.596   8.531 -0.2697 -0.0240 -0.2908
 1390SOL    HW115803   1.409   1.599   8.445 -0.1970 -0.9754 -0.2935
 1390SOL    HW215804   1.313   1.675   8.526 -0.4129 -0.0156  1.3548
 1391SOL     OW15805   1.173   2.669   4.085  0.3259 -0.2403 -0.2874
 1391SOL    HW115806   1.080   2.679   4.062 -0.1299 -0.3998  1.4513
 1391SOL    HW215807   1.158   2.595   4.144  0.2803 -0.5391 -0.6728
 1392SOL     OW15808   3.700   2.945   3.641 -0.9480 -0.4142 -0.3022
 1392SOL    HW115809   3.621   2.937   3.694 -0.1973  0.0821  0.8975
 1392SOL    HW215810   3.761   2.945   3.715 -1.5511  3.2425  0.1831
 1393SOL     OW15811   4.387   1.114  17.407 -0.0643  0.0870 -0.3295
 1393SOL    HW115812   4.407   1.051  17.476 -0.0224  0.1379 -0.2959
 1393SOL    HW215813   4.388   1.198  17.451  0.2661 -0.1462  0.1044
 1394SOL     OW15814   2.535   1.197   7.083 -0.5936  0.0403  0.4187
 1394SOL    HW115815   2.509   1.130   7.019 -0.6199 -3.0639  3.6409
 1394SOL    HW215816   2.474   1.266   7.059  0.0013  1.2885  2.5787
 1395SOL     OW15817   4.548   1.353  11.198  0.5485 -0.4412 -0.1617
 1395SOL    HW115818   4.599   1.385  11.273  0.1963 -1.4568  0.5237
 1395SOL    HW215819   4.611   1.314  11.138  1.5758  0.4747  0.3355
 1396SOL     OW15820   3.097   2.818   4.778 -0.1758  0.8284  0.1984
 1396SOL    HW115821   3.180   2.779   4.750 -0.4890 -0.5168  1.1546
 1396SOL    HW215822   3.062   2.848   4.695 -2.2768 -1.3371  0.3074
 1397SOL     OW15823   3.070   3.754  15.715  0.2166  0.1860  0.0572
 1397SOL    HW115824   3.002   3.686  15.713  1.4954 -1.0994  0.1125
 1397SOL    HW215825   3.117   3.739  15.633  2.7002 -0.2349  1.5674
 1398SOL     OW15826   4.319   1.113   4.561  0.0558 -0.1424 -0.6991
 1398SOL    HW115827   4.405   1.082   4.534  0.8124 -0.2202  1.7629
 1398SOL    HW215828   4.292   1.161   4.483 -0.7546  0.4240 -0.0713
 1399SOL     OW15829   1.479   3.695   7.478 -0.1891  0.4842  0.0551
 1399SOL    HW115830   1.483   3.741   7.561 -1.8763 -0.1846  0.5111
 1399SOL    HW215831   1.492   3.606   7.512  0.5744  0.6932  0.3181
 1400SOL     OW15832   4.405   4.050  14.493  0.3852  0.1317  0.0766
 1400SOL    HW115833   4.431   4.135  14.459 -1.7329 -0.2905 -2.5906
 1400SOL    HW215834   4.478   4.008  14.539  0.7705 -0.1602 -0.7927
 1401SOL     OW15835   3.962   0.983  16.455  0.6107 -0.1859  0.0811
 1401SOL    HW115836   3.913   0.918  16.404 -0.8497  0.1786  1.0051
 1401SOL    HW215837   4.044   0.995  16.407  1.0330 -3.4279  0.0250
 1402SOL     OW15838   3.849   3.882   5.040  0.3057  0.3015  0.4069
 1402SOL    HW115839   3.943   3.895   5.052  0.0074  1.8876  0.9675
 1402SOL    HW215840   3.818   3.849   5.124  1.5279 -0.3111  0.6219
 1403SOL     OW15841   2.635   1.949   2.849 -0.2857 -0.0945  0.1437
 1403SOL    HW115842   2.636   2.012   2.776  2.4197  0.0701  0.3295
 1403SOL    HW215843   2.575   1.882   2.817  1.4125 -1.1073 -0.8643
 1404SOL     OW15844   0.420   0.017  12.125  0.2481 -0.2395  0.1530
 1404SOL    HW115845   0.328   4.726  12.125  0.3751 -0.6836 -0.8477
 1404SOL    HW215846   0.456   4.700  12.195  0.0805 -0.5945 -0.0330
 1405SOL     OW15847   2.186   3.166   2.215 -0.0528 -0.0381 -0.1766
 1405SOL    HW115848   2.209   3.123   2.133 -0.7183  0.5071 -0.6495
 1405SOL    HW215849   2.106   3.119   2.238 -0.0830  0.3457  0.5298
 1406SOL     OW15850   0.882   3.523  15.295 -0.2773  0.3214 -0.7385
 1406SOL    HW115851   0.867   3.561  15.382  0.1246  0.8917 -0.9206
 1406SOL    HW215852   0.916   3.601  15.251 -0.9326  0.8436 -0.3264
 1407SOL     OW15853   2.418   0.497   9.073 -0.1871 -0.1179 -0.5629
 1407SOL    HW115854   2.387   0.481   9.162  0.9258 -2.5211 -0.6150
 1407SOL    HW215855   2.482   0.426   9.073  0.2470  0.2738 -0.6821
 1408SOL     OW15856   3.657   3.797   4.023  0.3721 -0.0619  0.1521
 1408SOL    HW115857   3.595   3.826   3.956  2.3302 -0.7660 -1.9679
 1408SOL    HW215858   3.606   3.772   4.100 -0.9117  0.0362 -0.6643
 1409SOL     OW15859   4.154   1.208   6.322  0.3856 -0.2879 -0.1025
 1409SOL    HW115860   4.242   1.193   6.358 -0.5380  0.7652  2.5785
 1409SOL    HW215861   4.144   1.301   6.344  0.8826 -0.2699  0.0528
 1410SOL     OW15862   0.249   4.661   1.384 -0.5259 -0.7838 -0.4395
 1410SOL    HW115863   0.179   4.726   1.393 -0.3648 -0.9479  1.8552
 1410SOL    HW215864   0.206   4.583   1.418 -0.5959 -0.2537  0.6794
 1411SOL     OW15865   1.934   3.263   4.940  0.1609  0.0176 -0.0137
 1411SOL    HW115866   1.888   3.181   4.924 -0.8211  0.4815  0.3785
 1411SOL    HW215867   1.865   3.327   4.960 -0.6041 -0.7572 -0.1771
 1412SOL     OW15868   0.398   1.319  13.935 -0.1248 -0.4119 -0.1000
 1412SOL    HW115869   0.353   1.389  13.887  1.2242  0.4358 -0.1143
 1412SOL    HW215870   0.457   1.290  13.866 -0.4096  2.4560 -1.5549
 1413SOL     OW15871   3.501   4.724   3.177  0.1282  0.2845 -0.3047
 1413SOL    HW115872   3.446   4.679   3.112 -0.0253  0.3339 -0.2090
 1413SOL    HW215873   3.435   0.024   3.236 -0.6869 -1.8797  0.1416
 1414SOL     OW15874   4.112   1.919   6.806 -0.3069 -0.1458  0.1899
 1414SOL    HW115875   4.144   1.965   6.729 -0.2864 -0.9102 -0.2589
 1414SOL    HW215876   4.019   1.938   6.794 -0.5800 -2.5649 -1.4508
 1415SOL     OW15877   2.101   3.426   6.471  0.0137 -0.0932 -0.4871
 1415SOL    HW115878   2.121   3.347   6.420 -0.9561 -3.3412  4.1651
 1415SOL    HW215879   2.190   3.456   6.492 -0.5129 -1.4896  3.6973
 1416SOL     OW15880   2.698   2.247   8.991  0.1667  0.3691  0.6289
 1416SOL    HW115881   2.696   2.254   9.087 -0.7799 -2.6563  0.8281
 1416SOL    HW215882   2.622   2.299   8.966  1.0406  1.2383 -0.1833
 1417SOL     OW15883   0.649   1.740   8.044 -0.2802 -0.2669 -0.1053
 1417SOL    HW115884   0.616   1.651   8.032  0.4534  0.0796 -4.7356
 1417SOL    HW215885   0.615   1.798   7.976 -2.2545 -0.9101  0.3317
 1418SOL     OW15886   1.355   4.496   9.233 -0.6005 -0.0480  0.1031
 1418SOL    HW115887   1.318   4.563   9.289 -1.0968 -2.5674  2.8105
 1418SOL    HW215888   1.393   4.432   9.293  2.7137  0.4696 -1.4113
 1419SOL     OW15889   3.053   4.089  10.320 -0.7202  0.0456 -0.0281
 1419SOL    HW115890   3.004   4.164  10.353  0.6723  1.1267 -0.4285
 1419SOL    HW215891   3.129   4.126  10.275 -1.2656  0.1412 -0.8590
 1420SOL     OW15892   3.426   0.464   1.947  0.5963 -0.6782 -0.4451
 1420SOL    HW115893   3.408   0.523   2.019  0.5376  0.1693 -1.1550
 1420SOL    HW215894   3.483   0.408   1.999 -0.7447 -2.0919 -0.4782
 1421SOL     OW15895   3.591   2.751   6.482 -0.0464 -0.3845  0.2097
 1421SOL    HW115896   3.505   2.725   6.513 -0.0406  1.9852  2.2432
 1421SOL    HW215897   3.638   2.668   6.479 -0.0508 -0.4638  2.3360
 1422SOL     OW15898   0.293   3.531   7.662  0.7296  0.1151  0.0688
 1422SOL    HW115899   0.249   3.505   7.744 -2.4036 -1.3294 -2.0857
 1422SOL    HW215900   0.386   3.518   7.683  0.4863 -1.0288  0.4700
 1423SOL     OW15901   1.729   2.648   3.659 -1.0350 -0.5223  0.4474
 1423SOL    HW115902   1.803   2.697   3.697  0.9496 -1.3341 -2.3571
 1423SOL    HW215903   1.671   2.639   3.734 -0.5759 -0.0593  0.8671
 1424SOL     OW15904   3.693   4.460   2.002 -0.0679 -0.4042 -0.0628
 1424SOL    HW115905   3.697   4.402   2.078  0.7649  0.1696  0.3220
 1424SOL    HW215906   3.623   4.515   2.038  1.2765  0.8435  0.6005
 1425SOL     OW15907   2.036   1.496   3.988 -0.3802 -0.4414 -0.3637
 1425SOL    HW115908   2.125   1.531   3.982  0.0146 -0.9661  2.1586
 1425SOL    HW215909   2.027   1.445   3.908 -0.9999 -0.3244 -0.3629
 1426SOL     OW15910   1.509   4.734  11.551  0.4431 -0.3483 -0.7915
 1426SOL    HW115911   1.481   4.672  11.483 -1.8660 -0.0363 -0.1225
 1426SOL    HW215912   1.439   4.734  11.616  1.5040  2.3436  0.3544
 1427SOL     OW15913   3.746   1.877   0.473  0.3531 -0.1411  0.1381
 1427SOL    HW115914   3.756   1.790   0.511 -2.0003 -0.4518  0.0234
 1427SOL    HW215915   3.834   1.905   0.448  0.8278 -2.1293 -0.4545
 1428SOL     OW15916   0.604   3.417   1.143 -0.0815 -0.7278 -0.1114
 1428SOL    HW115917   0.584   3.341   1.089 -1.6478 -1.0483  0.9357
 1428SOL    HW215918   0.520   3.429   1.187 -0.0307 -1.5575  0.1969
 1429SOL     OW15919   1.183   2.052  10.100 -0.8797  0.1869 -0.0263
 1429SOL    HW115920   1.263   2.006  10.075  0.8964  2.0892  2.1279
 1429SOL    HW215921   1.124   2.005  10.040  0.0370 -0.9652 -0.0159
 1430SOL     OW15922   2.048   1.139   7.542  0.0323 -0.1017 -0.0103
 1430SOL    HW115923   2.043   1.090   7.624 -0.9386  1.7060  1.0003
 1430SOL    HW215924   2.012   1.074   7.480 -1.6613  0.1599  0.6987
 1431SOL     OW15925   1.113   3.010   1.792 -0.4754  0.1014 -0.0897
 1431SOL    HW115926   1.195   3.021   1.744  1.0584  1.8914  2.9262
 1431SOL    HW215927   1.059   2.974   1.722  0.8164  0.8701 -1.4726
 1432SOL     OW15928   3.273   2.862   8.705 -0.8482  0.4948 -0.3360
 1432SOL    HW115929   3.309   2.824   8.624  0.4809 -0.3133  0.6259
 1432SOL    HW215930   3.183   2.830   8.707 -0.5409 -0.3339  0.1620
 1433SOL     OW15931   1.927   3.452  14.207 -0.5354 -0.3578 -0.0502
 1433SOL    HW115932   1.888   3.384  14.152 -3.6401  1.7733 -0.4622
 1433SOL    HW215933   2.020   3.453  14.183 -0.7676 -0.8569 -0.9865
 1434SOL     OW15934   1.185   4.642   6.951  0.1338 -0.4464  0.2393
 1434SOL    HW115935   1.249   4.648   7.022  1.0183  0.0471 -0.6030
 1434SOL    HW215936   1.126   4.571   6.980 -0.7923  1.1753  2.3672
 1435SOL     OW15937   4.361   0.484   8.905  0.0729  0.1455  0.2921
 1435SOL    HW115938   4.373   0.572   8.869  1.5797  0.7064  2.1661
 1435SOL    HW215939   4.450   0.475   8.938  0.3797 -2.0010 -1.1074
 1436SOL     OW15940   4.720   3.472   4.228 -0.1691  0.1802  0.0145
 1436SOL    HW115941   0.010   3.513   4.145 -1.4474 -2.9800 -1.9470
 1436SOL    HW215942   0.069   3.440   4.257 -0.3303  0.4849  0.8126
 1437SOL     OW15943   2.611   4.176   6.335 -0.2052  0.7996 -0.6651
 1437SOL    HW115944   2.578   4.124   6.262 -0.4332  0.6383 -0.4445
 1437SOL    HW215945   2.569   4.259   6.311 -0.3321  1.0941  0.5900
 1438SOL     OW15946   1.430   4.653  13.274 -0.1408  0.1917  0.6367
 1438SOL    HW115947   1.439   0.009  13.296 -0.1502 -0.0339  1.5758
 1438SOL    HW215948   1.503   4.642  13.213  0.8952 -0.9332  2.1015
 1439SOL     OW15949   3.805   0.454   7.537 -0.0627 -1.1216  0.3894
 1439SOL    HW115950   3.806   0.389   7.466 -0.6637  0.8477 -1.3911
 1439SOL    HW215951   3.726   0.433   7.586 -0.9664  1.1471 -0.1100
 1440SOL     OW15952   0.179   3.441   2.890 -0.7914  0.3010 -0.4715
 1440SOL    HW115953   0.253   3.382   2.900  0.6245  1.9545 -1.2520
 1440SOL    HW215954   0.211   3.524   2.924  0.3352  0.4875 -2.0021
 1441SOL     OW15955   4.710   1.029   4.007  0.4353  0.1925 -0.3377
 1441SOL    HW115956   4.627   1.015   3.962  1.3503 -2.1662 -1.3241
 1441SOL    HW215957   0.014   1.106   3.968  0.7441 -0.8680 -2.1124
 1442SOL     OW15958   2.649   1.745   9.401 -0.1970  0.2106  0.2417
 1442SOL    HW115959   2.655   1.790   9.485  1.3093 -1.6849  1.1727
 1442SOL    HW215960   2.573   1.790   9.367 -0.9347 -0.8367  0.5106
 1443SOL     OW15961   2.220   1.678   7.434  0.1034 -0.4684  0.3006
 1443SOL    HW115962   2.198   1.709   7.522 -0.2014 -0.0248  0.0685
 1443SOL    HW215963   2.304   1.638   7.458 -0.6580 -2.1768  0.0770
 1444SOL     OW15964   1.980   0.206   5.915 -0.4782  0.2950  0.3615
 1444SOL    HW115965   1.962   0.127   5.967 -0.8007 -1.0161 -1.7331
 1444SOL    HW215966   1.894   0.243   5.896 -0.2820  0.1424 -0.8460
 1445SOL     OW15967   0.469   1.953   7.288  0.0984 -0.1477  0.3154
 1445SOL    HW115968   0.489   1.860   7.301 -1.8528 -0.5885  0.2677
 1445SOL    HW215969   0.464   1.955   7.192 -0.5348 -1.9358  0.2932
 1446SOL     OW15970   4.194   3.596   5.013  0.2773  0.8015  0.6894
 1446SOL    HW115971   4.142   3.540   5.071 -1.0750  2.8767  1.4903
 1446SOL    HW215972   4.273   3.599   5.067 -1.2258  2.0871  2.8447
 1447SOL     OW15973   3.694   0.556   4.111  0.7952 -0.3691 -0.2530
 1447SOL    HW115974   3.639   0.620   4.065 -0.6150  0.4267  2.5428
 1447SOL    HW215975   3.639   0.510   4.174  1.3083 -1.5251 -0.6325
 1448SOL     OW15976   4.551   1.255   7.832  0.6332 -0.5964  0.1643
 1448SOL    HW115977   4.503   1.288   7.756  0.8113 -1.7790 -0.4625
 1448SOL    HW215978   4.486   1.212   7.888 -0.0519  0.2480  0.0062
 1449SOL     OW15979   3.309   4.030  15.104  0.4520  0.1176  0.0047
 1449SOL    HW115980   3.309   4.076  15.188 -0.7037 -0.0116  0.0688
 1449SOL    HW215981   3.402   4.008  15.102  0.2889 -0.5570 -0.2559
 1450SOL     OW15982   0.558   3.633  11.232 -0.4978 -0.4309 -0.2214
 1450SOL    HW115983   0.508   3.679  11.299  0.6797 -1.8240  1.6437
 1450SOL    HW215984   0.608   3.571  11.286  0.9662 -0.0010 -1.0792
 1451SOL     OW15985   1.112   2.483   3.430  0.2921 -0.4027 -0.4461
 1451SOL    HW115986   1.192   2.458   3.478  0.1269 -0.9636 -0.4609
 1451SOL    HW215987   1.049   2.419   3.465 -0.9374  0.5522 -0.9284
 1452SOL     OW15988   3.169   4.159   8.594  0.2124  0.2175  0.0643
 1452SOL    HW115989   3.103   4.151   8.524  1.7322  1.0857 -1.4586
 1452SOL    HW215990   3.121   4.221   8.649 -1.3342 -0.5681 -0.3805
 1453SOL     OW15991   0.170   1.146   8.442  0.1337  0.3540 -0.3634
 1453SOL    HW115992   0.097   1.143   8.503 -1.2368  0.7198 -1.9659
 1453SOL    HW215993   0.161   1.055   8.414  0.9752 -0.0696  0.7790
 1454SOL     OW15994   0.333   0.197   3.464 -0.5113  0.3790  0.1994
 1454SOL    HW115995   0.399   0.145   3.509  0.4735  1.4879  0.0186
 1454SOL    HW215996   0.250   0.149   3.466 -1.6517  2.2769 -0.5953
 1455SOL     OW15997   3.610   3.810   3.650  0.0190 -0.6618  0.3510
 1455SOL    HW115998   3.542   3.743   3.652 -1.0692  0.4327  0.1587
 1455SOL    HW215999   3.595   3.855   3.567  2.8967 -1.6975 -0.7170
 1456SOL     OW16000   1.460   0.682   3.858 -0.0380  0.1766 -0.6607
 1456SOL    HW116001   1.500   0.607   3.814 -3.0505 -1.1893 -1.1008
 1456SOL    HW216002   1.467   0.651   3.948 -1.6912  0.1282 -0.5361
 1457SOL     OW16003   2.350   4.094  10.315 -0.2791  0.0366  0.2619
 1457SOL    HW116004   2.262   4.124  10.337 -0.3613  0.6858 -0.9504
 1457SOL    HW216005   2.401   4.165  10.353  1.8914 -1.2557 -0.2603
 1458SOL     OW16006   2.331   0.543  11.765 -0.3704  0.1338  0.1728
 1458SOL    HW116007   2.244   0.574  11.789 -0.8836 -0.6052 -0.7267
 1458SOL    HW216008   2.375   0.606  11.823 -0.0558 -0.4518  0.5702
 1459SOL     OW16009   0.813   2.749   6.758 -0.3042 -0.1351  0.1113
 1459SOL    HW116010   0.836   2.687   6.689 -0.7251 -1.2004  0.9275
 1459SOL    HW216011   0.807   2.689   6.832 -2.2738  0.9384  0.8151
 1460SOL     OW16012   1.151   3.593   9.727 -0.3687 -0.2097 -0.1770
 1460SOL    HW116013   1.246   3.595   9.740 -0.2919 -1.0777 -0.5545
 1460SOL    HW216014   1.122   3.535   9.799 -1.4938  0.8211  0.2011
 1461SOL     OW16015   0.081   2.623  15.321  0.2284  0.0755  0.0936
 1461SOL    HW116016   0.132   2.590  15.395 -1.1313 -1.0314  0.5293
 1461SOL    HW216017   0.065   2.541  15.275 -0.5588  0.2395  0.0805
 1462SOL     OW16018   0.463   0.259   4.350  0.2533  0.3540 -0.0325
 1462SOL    HW116019   0.506   0.310   4.280  1.5555 -1.4134 -0.5130
 1462SOL    HW216020   0.384   0.312   4.361  0.3575  0.6972 -0.9107
 1463SOL     OW16021   0.196   0.048  16.243  0.1362 -0.6182  0.1688
 1463SOL    HW116022   0.270   4.730  16.273 -0.5222 -1.8759 -0.4916
 1463SOL    HW216023   0.168   0.001  16.165 -0.8169  1.6795 -0.8757
 1464SOL     OW16024   1.721   2.200   2.920 -0.0584 -0.2107  0.2039
 1464SOL    HW116025   1.688   2.200   2.830  1.0398  0.9995 -0.1970
 1464SOL    HW216026   1.640   2.192   2.970 -0.4468 -0.7592 -0.5077
 1465SOL     OW16027   1.261   1.330  14.586  0.1371 -0.2210  0.0208
 1465SOL    HW116028   1.260   1.424  14.602  2.3767 -0.0610 -0.6874
 1465SOL    HW216029   1.354   1.311  14.600  0.5184  1.2638 -0.4864
 1466SOL     OW16030   0.090   0.687   2.381  0.9393 -0.2663  0.3926
 1466SOL    HW116031   0.135   0.731   2.454  1.4539 -0.2128  0.0472
 1466SOL    HW216032   4.734   0.695   2.404  0.5587 -0.7119 -0.9846
 1467SOL     OW16033   0.231   3.036   0.686  0.2967  0.7277  0.0358
 1467SOL    HW116034   0.216   3.128   0.664 -1.6039 -0.2717 -2.9010
 1467SOL    HW216035   0.140   3.008   0.702  1.1019 -1.6456  0.4540
 1468SOL     OW16036   3.987   1.126   2.720 -0.2394  0.3317  0.2559
 1468SOL    HW116037   3.927   1.066   2.765 -1.9659  1.4503 -0.5248
 1468SOL    HW216038   4.003   1.080   2.638  1.1664  1.4390 -0.0911
 1469SOL     OW16039   0.840   0.729  13.426  0.0514  0.0945  0.4800
 1469SOL    HW116040   0.766   0.668  13.424  0.3418 -0.2957  1.3189
 1469SOL    HW216041   0.896   0.709  13.352 -0.3508 -1.6217  0.6350
 1470SOL     OW16042   4.178   2.428   1.734 -0.1636  0.6037 -0.7394
 1470SOL    HW116043   4.195   2.442   1.641 -0.6215 -0.3110 -0.9632
 1470SOL    HW216044   4.135   2.342   1.736  1.0200 -0.0378 -2.1532
 1471SOL     OW16045   3.706   1.634   7.770 -0.3470  0.0308 -0.0810
 1471SOL    HW116046   3.700   1.667   7.860  0.0552 -0.6762  0.2002
 1471SOL    HW216047   3.671   1.705   7.716  0.7289  0.5216 -0.1305
 1472SOL     OW16048   0.236   2.821  16.071 -0.4233 -0.2913  0.2475
 1472SOL    HW116049   0.149   2.847  16.043 -0.4572 -0.1361  0.5039
 1472SOL    HW216050   0.254   2.884  16.140 -4.2031  0.9730  0.0476
 1473SOL     OW16051   2.743   0.076   8.048 -0.3090 -0.1232 -0.3743
 1473SOL    HW116052   2.704   4.725   8.053 -0.8436  0.1921  0.8440
 1473SOL    HW216053   2.676   0.131   8.090 -0.3986  0.3667 -1.1612
 1474SOL     OW16054   1.788   3.032   3.164 -0.3752 -0.6614  0.1605
 1474SOL    HW116055   1.865   2.975   3.173  1.2778  1.3701 -1.1546
 1474SOL    HW216056   1.727   2.972   3.207  0.6112  1.0631  4.0124
 1475SOL     OW16057   1.893   0.175  12.868  0.3567 -0.3218  0.1678
 1475SOL    HW116058   1.980   0.212  12.849 -0.5277  2.0517  0.7742
 1475SOL    HW216059   1.885   0.104  12.803 -0.7978  0.8800 -1.0021
 1476SOL     OW16060   0.355   2.462  13.407  0.0286  0.2622  0.4297
 1476SOL    HW116061   0.367   2.528  13.476 -0.1799  0.1381  0.5850
 1476SOL    HW216062   0.279   2.410  13.434  0.8011 -1.6644 -1.1192
 1477SOL     OW16063   0.433   1.806   4.079  0.9005 -0.2145  0.2760
 1477SOL    HW116064   0.445   1.728   4.024  1.1122 -0.0115  0.0312
 1477SOL    HW216065   0.340   1.828   4.069  0.4280 -0.7129  3.6687
 1478SOL     OW16066   0.252   0.818   2.623 -0.2861 -0.2995 -0.0933
 1478SOL    HW116067   0.319   0.763   2.583 -0.7770 -2.0137  1.4618
 1478SOL    HW216068   0.271   0.903   2.582 -1.0757  0.9281  2.0327
 1479SOL     OW16069   1.319   2.076   4.134 -0.0120 -0.4998  0.3732
 1479SOL    HW116070   1.385   2.022   4.177  0.0940 -1.0374 -0.4800
 1479SOL    HW216071   1.355   2.165   4.140  0.7509 -0.7063 -1.2070
 1480SOL     OW16072   2.922   2.277   0.145  0.5027  0.0435 -0.2136
 1480SOL    HW116073   2.914   2.349   0.207  1.1347  0.4325 -0.5736
 1480SOL    HW216074   2.872   2.203   0.178  1.6415 -0.3890  0.5506
 1481SOL     OW16075   2.575   2.080   3.657  0.0090 -0.0759  1.0504
 1481SOL    HW116076   2.529   2.099   3.739  0.7871  1.1175  1.2095
 1481SOL    HW216077   2.557   2.157   3.603  1.8165 -0.2135  0.2361
 1482SOL     OW16078   2.482   0.290   3.348 -0.4770  0.4692 -0.7513
 1482SOL    HW116079   2.550   0.226   3.327 -0.3047  0.1009  0.9104
 1482SOL    HW216080   2.418   0.271   3.279 -1.1612 -0.2388  0.0634
 1483SOL     OW16081   3.885   1.085   6.999 -0.4105  0.6582  0.5218
 1483SOL    HW116082   3.803   1.036   7.001  2.0002 -3.2760  1.6668
 1483SOL    HW216083   3.866   1.179   6.997  0.5615  0.8169 -0.8708
 1484SOL     OW16084   1.792   1.578   7.237  0.4191  0.2079 -0.5577
 1484SOL    HW116085   1.751   1.511   7.181 -1.0341  0.6499 -0.0209
 1484SOL    HW216086   1.854   1.519   7.280 -2.0088 -1.0563  1.1920
 1485SOL     OW16087   3.069   2.438   2.899 -0.1903  0.5593 -0.2766
 1485SOL    HW116088   3.130   2.415   2.969 -0.7247 -0.1449 -0.0390
 1485SOL    HW216089   3.092   2.530   2.886  1.6448  0.4342  2.1913
 1486SOL     OW16090   3.186   2.735  15.663  0.3116 -0.7608 -0.7195
 1486SOL    HW116091   3.175   2.796  15.590 -0.6694 -0.8036 -0.6125
 1486SOL    HW216092   3.205   2.651  15.620  0.4538 -1.5005  0.7705
 1487SOL     OW16093   4.021   2.584   2.714  0.3586 -0.4091 -0.3002
 1487SOL    HW116094   4.021   2.678   2.697  3.5270 -0.7870 -2.4067
 1487SOL    HW216095   3.946   2.566   2.770 -0.9106 -2.1652 -2.5741
 1488SOL     OW16096   1.020   2.911   0.140  0.2649 -0.8535 -0.7763
 1488SOL    HW116097   1.108   2.910   0.179 -0.7153 -0.3675  1.4728
 1488SOL    HW216098   1.013   2.831   0.089  0.9505 -1.2722 -0.2200
 1489SOL     OW16099   1.174   0.963   9.192 -0.2324 -0.2275  0.6234
 1489SOL    HW116100   1.234   0.961   9.117  0.1379  1.6687  0.8847
 1489SOL    HW216101   1.189   0.876   9.229  0.7635 -0.4980 -0.4125
 1490SOL     OW16102   0.571   1.231  12.286 -0.6984  0.0378 -0.7002
 1490SOL    HW116103   0.618   1.203  12.208  1.5050  2.0741 -0.0845
 1490SOL    HW216104   0.533   1.316  12.262 -3.1940 -1.3600 -1.6834
 1491SOL     OW16105   3.282   1.872  13.450 -0.3677 -0.7094 -0.0458
 1491SOL    HW116106   3.259   1.933  13.380  0.4592 -0.3166  0.0303
 1491SOL    HW216107   3.202   1.870  13.502  0.0207 -0.3399  0.5654
 1492SOL     OW16108   1.216   3.985  15.368 -0.6353 -0.3436 -0.1669
 1492SOL    HW116109   1.267   3.919  15.321 -0.6657  0.0892 -0.8129
 1492SOL    HW216110   1.205   4.046  15.295  0.4666 -1.0430 -0.9244
 1493SOL     OW16111   4.474   0.683   8.658 -0.0449  0.1482 -0.2855
 1493SOL    HW116112   4.504   0.598   8.689  0.4565 -0.3258 -2.0967
 1493SOL    HW216113   4.384   0.665   8.630  0.9536 -1.0088 -2.6960
 1494SOL     OW16114   2.563   0.381   9.494 -0.1489 -0.1369 -0.0506
 1494SOL    HW116115   2.599   0.441   9.560 -0.9663  1.0958 -0.7054
 1494SOL    HW216116   2.559   0.302   9.547  1.1823 -0.5278 -0.5393
 1495SOL     OW16117   3.926   2.547   8.443 -0.5729 -0.4188  0.2688
 1495SOL    HW116118   3.920   2.467   8.390  0.1342  0.1743 -0.7099
 1495SOL    HW216119   3.852   2.595   8.404  1.3874  0.7101 -2.0057
 1496SOL     OW16120   0.931   0.061   4.588  0.5351 -0.9359 -0.0910
 1496SOL    HW116121   0.995   0.039   4.657 -0.3243 -1.2345  0.6093
 1496SOL    HW216122   0.868   0.106   4.644 -0.6918 -0.7688 -1.6157
 1497SOL     OW16123   0.218   2.053   7.314  0.1103 -0.4280  0.1988
 1497SOL    HW116124   0.309   2.025   7.301 -0.0198 -0.7115 -0.0812
 1497SOL    HW216125   0.184   1.974   7.356  2.1011  0.4417  3.5319
 1498SOL     OW16126   3.627   3.558   4.981 -0.2071 -0.1032  0.0875
 1498SOL    HW116127   3.581   3.558   4.897 -0.1481  0.4160  0.0544
 1498SOL    HW216128   3.576   3.488   5.023  0.2038 -0.7170 -0.4277
 1499SOL     OW16129   4.609   1.202  11.653 -0.5531 -0.0269  0.2824
 1499SOL    HW116130   4.650   1.115  11.650 -2.1211 -0.7528 -0.0600
 1499SOL    HW216131   4.521   1.188  11.687  0.6315  0.9899  3.7014
 1500SOL     OW16132   1.281   1.119   5.793  0.0458  0.0288 -0.6356
 1500SOL    HW116133   1.253   1.153   5.708  0.5699  1.7120 -0.1230
 1500SOL    HW216134   1.255   1.027   5.790  1.4965 -0.4151  0.7566
 1501SOL     OW16135   1.052   0.603   7.221  0.6183 -0.1196  0.1493
 1501SOL    HW116136   0.973   0.553   7.200 -0.0566  0.3736  1.5402
 1501SOL    HW216137   1.036   0.608   7.315  0.9688 -2.1142  0.3265
 1502SOL     OW16138   0.658   2.811   2.393  0.1794  0.1897 -0.1239
 1502SOL    HW116139   0.738   2.854   2.362  1.0755 -0.8151  0.8021
 1502SOL    HW216140   0.601   2.866   2.339 -0.4850  1.3510  1.7517
 1503SOL     OW16141   4.309   0.679   3.589  0.1607 -0.5004 -0.7250
 1503SOL    HW116142   4.365   0.747   3.551 -1.9601  0.8310 -1.4660
 1503SOL    HW216143   4.373   0.633   3.643 -1.8450 -0.3145  1.8090
 1504SOL     OW16144   0.879   2.003   7.879  0.2098  0.0450  0.5343
 1504SOL    HW116145   0.785   2.014   7.894 -0.3252 -2.1423 -0.9808
 1504SOL    HW216146   0.906   2.091   7.853  0.2243  0.7286  2.8986
 1505SOL     OW16147   2.172   2.610   7.772 -0.8061  0.4672  0.4698
 1505SOL    HW116148   2.170   2.520   7.741 -1.0451  0.8730 -0.7117
 1505SOL    HW216149   2.253   2.638   7.729  0.0553  1.1090  2.5179
 1506SOL     OW16150   3.666   1.728   3.899 -0.1208  0.1258 -0.1429
 1506SOL    HW116151   3.761   1.737   3.910 -0.3410  1.1991  0.9003
 1506SOL    HW216152   3.656   1.782   3.821  1.6673 -0.5046 -0.8118
 1507SOL     OW16153   2.734   3.620   4.763 -0.0317 -0.8317  0.0971
 1507SOL    HW116154   2.778   3.573   4.692  1.9301 -0.0019  0.7769
 1507SOL    HW216155   2.801   3.673   4.805 -1.7445  0.2977  1.4194
 1508SOL     OW16156   1.058   1.546   4.485  0.0313  0.0054  0.0883
 1508SOL    HW116157   1.050   1.641   4.471  1.8843  0.3258  1.2293
 1508SOL    HW216158   0.977   1.507   4.452  0.6219 -1.1474  0.0007
 1509SOL     OW16159   0.701   2.584   1.793  0.1216 -0.0770  0.0222
 1509SOL    HW116160   0.784   2.587   1.744  0.1561 -2.1207 -0.0438
 1509SOL    HW216161   0.678   2.673   1.818 -2.1050 -0.2943 -1.2065
 1510SOL     OW16162   1.155   4.135  10.726  0.4463 -0.3045  0.0287
 1510SOL    HW116163   1.065   4.133  10.692  0.8565 -0.1633 -1.0587
 1510SOL    HW216164   1.201   4.150  10.644  1.4652  0.3522  0.7140
 1511SOL     OW16165   1.068   0.689   4.416  0.1379 -0.2475 -0.1120
 1511SOL    HW116166   1.042   0.689   4.508  1.1310  2.5060  0.1744
 1511SOL    HW216167   1.037   0.772   4.381  0.5097  0.9037  2.2668
 1512SOL     OW16168   1.561   3.481   6.683  1.0739  0.7141  0.1738
 1512SOL    HW116169   1.565   3.571   6.651 -0.5529  1.2414  1.4475
 1512SOL    HW216170   1.524   3.502   6.769 -0.6808  2.4740 -1.0298
 1513SOL     OW16171   3.787   0.429   4.861  0.4369 -0.3804  0.2154
 1513SOL    HW116172   3.765   0.495   4.926 -1.7042 -0.4502 -0.4456
 1513SOL    HW216173   3.699   0.394   4.849 -0.9212  3.8023 -2.0869
 1514SOL     OW16174   4.276   1.250  13.047  0.2304  0.3481  0.0178
 1514SOL    HW116175   4.273   1.197  13.126 -0.5803 -0.5213 -0.5908
 1514SOL    HW216176   4.325   1.192  12.988 -1.3826 -2.8109  1.8053
 1515SOL     OW16177   2.395   2.964   5.470 -0.0246  0.2312  0.3778
 1515SOL    HW116178   2.366   2.884   5.427  0.8646 -1.2285  2.5402
 1515SOL    HW216179   2.489   2.954   5.452  0.0684 -0.4348  1.2697
 1516SOL     OW16180   3.130   0.293   8.696 -0.0927 -0.2409 -0.5872
 1516SOL    HW116181   3.164   0.289   8.785  1.1725 -0.8052 -1.0809
 1516SOL    HW216182   3.127   0.386   8.676  3.2658 -0.2870 -1.2915
 1517SOL     OW16183   3.080   3.086   5.950 -0.4022 -0.0700 -0.1466
 1517SOL    HW116184   2.998   3.134   5.946 -1.6069 -2.0855  0.0968
 1517SOL    HW216185   3.133   3.157   5.915  2.4644 -1.5711  1.1008
 1518SOL     OW16186   2.555   3.285   9.954 -0.1408  0.3484 -0.3381
 1518SOL    HW116187   2.602   3.335  10.021 -2.8004  1.9118  0.3991
 1518SOL    HW216188   2.574   3.335   9.875 -0.6282  1.3119  0.1443
 1519SOL     OW16189   3.893   2.451   7.295  0.1691 -0.2457  0.6693
 1519SOL    HW116190   3.940   2.456   7.378 -0.1789 -1.8797  0.9651
 1519SOL    HW216191   3.905   2.539   7.258  1.8486  0.0093  1.8242
 1520SOL     OW16192   4.454   0.617   1.664 -0.1585  0.4874 -0.6727
 1520SOL    HW116193   4.504   0.651   1.739 -1.6465 -0.9037  0.9494
 1520SOL    HW216194   4.497   0.533   1.648  3.4512  2.0396  0.7907
 1521SOL     OW16195   0.409   1.123   4.149 -1.0113  0.1217 -0.3483
 1521SOL    HW116196   0.361   1.064   4.207 -0.1354 -1.4591 -1.2464
 1521SOL    HW216197   0.402   1.071   4.070  1.3387 -2.3518  1.0791
 1522SOL     OW16198   2.003   0.642   2.808 -0.0852 -0.1690  0.1109
 1522SOL    HW116199   1.996   0.674   2.718  2.1146  2.1501  0.7677
 1522SOL    HW216200   2.013   0.730   2.845  0.9225  0.4301 -1.6201
 1523SOL     OW16201   4.416   2.490  16.403  0.5798  0.2387  0.0834
 1523SOL    HW116202   4.322   2.512  16.403  0.4038 -0.5354  1.4089
 1523SOL    HW216203   4.425   2.395  16.416 -2.3545  0.2968  2.5351
 1524SOL     OW16204   1.476   3.048  12.976 -0.1156 -0.0086 -0.1205
 1524SOL    HW116205   1.442   3.027  13.063 -0.4665  2.0121  0.2321
 1524SOL    HW216206   1.424   3.126  12.956 -0.4069  0.0623  0.8689
 1525SOL     OW16207   0.674   0.584  10.588 -0.2646  0.4377 -0.6403
 1525SOL    HW116208   0.666   0.489  10.598  0.4261  0.4755  0.2706
 1525SOL    HW216209   0.730   0.597  10.665 -1.1813  1.6724 -0.1845
 1526SOL     OW16210   3.961   0.355  16.538  0.4606 -0.4374  0.0894
 1526SOL    HW116211   3.927   0.351  16.448 -0.1421  0.1023  0.2952
 1526SOL    HW216212   3.993   0.445  16.541 -0.0114 -0.3029  0.9618
 1527SOL     OW16213   0.299   0.376  16.955  0.7283  0.2244  0.9815
 1527SOL    HW116214   0.262   0.403  16.871  0.9361 -1.2342  0.4183
 1527SOL    HW216215   0.283   0.456  17.004  1.3787  0.2307  1.1852
 1528SOL     OW16216   4.284   3.849   8.055  0.0809  0.1478  0.1175
 1528SOL    HW116217   4.205   3.900   8.039 -1.3990 -2.1372  0.1867
 1528SOL    HW216218   4.248   3.780   8.110 -0.2622  1.1893  1.2035
 1529SOL     OW16219   0.581   1.790   1.355 -0.5544 -0.0901  0.5801
 1529SOL    HW116220   0.563   1.728   1.285  0.3735 -0.0310  0.2883
 1529SOL    HW216221   0.564   1.871   1.308  0.5548 -0.4968 -0.5166
 1530SOL     OW16222   4.575   3.326   9.031  0.5928  0.0305 -0.0274
 1530SOL    HW116223   4.493   3.322   8.982 -0.0141 -0.8297  1.0358
 1530SOL    HW216224   4.549   3.257   9.092  0.4404 -1.2228 -1.5111
 1531SOL     OW16225   2.526   0.959   0.115  1.0671  0.4129  0.0250
 1531SOL    HW116226   2.435   0.930   0.123  0.5697  1.8241 -0.4999
 1531SOL    HW216227   2.522   1.024   0.045 -0.5806 -2.1989 -2.3258
 1532SOL     OW16228   1.672   2.811   7.001  0.5827  0.0662  0.0928
 1532SOL    HW116229   1.708   2.898   7.017  0.6534  0.1320 -0.4323
 1532SOL    HW216230   1.584   2.839   6.977  1.0202 -0.3397 -2.0156
 1533SOL     OW16231   0.587   0.390  11.727 -0.6658  0.0217 -0.5191
 1533SOL    HW116232   0.498   0.418  11.743 -0.4511 -0.8077  2.2294
 1533SOL    HW216233   0.633   0.471  11.747 -1.1335 -0.5651  2.8839
 1534SOL     OW16234   2.524   3.218   7.790 -0.0920 -0.0055 -0.3072
 1534SOL    HW116235   2.606   3.262   7.766 -0.7116 -0.9652 -4.0939
 1534SOL    HW216236   2.483   3.211   7.704  0.1925  0.2820 -0.4699
 1535SOL     OW16237   0.674   1.920   6.541 -0.2643  0.3842 -0.5285
 1535SOL    HW116238   0.718   1.836   6.558 -1.7191 -0.1962  0.3669
 1535SOL    HW216239   0.627   1.903   6.459  0.4546  0.7917 -1.0274
 1536SOL     OW16240   1.217   0.714   9.322 -0.0983 -0.1447 -0.2010
 1536SOL    HW116241   1.305   0.676   9.314 -0.0547  0.2559 -1.6026
 1536SOL    HW216242   1.175   0.643   9.371 -0.2492 -0.0186 -0.1469
 1537SOL     OW16243   4.582   0.188   3.346 -0.3002  0.2619 -0.0370
 1537SOL    HW116244   4.667   0.226   3.367 -0.3422  0.7251 -0.6928
 1537SOL    HW216245   4.530   0.268   3.339 -1.4109 -0.2960  1.8325
 1538SOL     OW16246   0.609   4.563   5.307  0.1254  0.0698 -0.0093
 1538SOL    HW116247   0.540   4.604   5.254  0.7846  0.4891 -0.5573
 1538SOL    HW216248   0.685   4.619   5.288 -2.0208  2.8225 -0.5327
 1539SOL     OW16249   4.382   4.674   5.407  0.0875 -0.1509 -0.2979
 1539SOL    HW116250   4.409   4.672   5.315 -0.0181 -0.4580 -0.3256
 1539SOL    HW216251   4.372   0.033   5.407 -0.4662 -0.2076 -0.2657
 1540SOL     OW16252   0.977   1.070   7.829 -0.4227  0.1045  0.0365
 1540SOL    HW116253   1.053   1.035   7.876  0.0975  1.5239  0.2390
 1540SOL    HW216254   1.025   1.083   7.747 -0.2206 -0.3302  0.0816
 1541SOL     OW16255   1.960   4.657   9.650  0.0059 -0.3845 -0.0578
 1541SOL    HW116256   2.046   4.695   9.632 -0.5946  1.4979  1.0818
 1541SOL    HW216257   1.919   4.719   9.710  0.5201 -1.4543  1.3986
 1542SOL     OW16258   2.334   4.101   9.965  0.8147  0.4032  0.6782
 1542SOL    HW116259   2.403   4.056   9.916 -0.1264  0.0700 -0.3611
 1542SOL    HW216260   2.369   4.189   9.974  0.4131  0.5954  0.3708
 1543SOL     OW16261   4.380   0.553  17.462  0.0612 -0.6483 -0.1947
 1543SOL    HW116262   4.309   0.587  17.407  0.0491  1.7758  1.3241
 1543SOL    HW216263   4.361   0.602  17.542 -0.2420 -1.3741  0.1739
 1544SOL     OW16264   0.048   2.591   6.610 -0.1615 -0.4165  0.4609
 1544SOL    HW116265   0.126   2.589   6.665 -1.6146 -0.9788  2.4635
 1544SOL    HW216266   0.084   2.633   6.532 -0.7241 -0.7992 -0.0061
 1545SOL     OW16267   1.335   1.279   9.478 -0.1639 -0.0382 -0.4695
 1545SOL    HW116268   1.310   1.303   9.389  0.5948 -2.7378 -1.4305
 1545SOL    HW216269   1.275   1.206   9.494 -2.4812  1.9968  0.0118
 1546SOL     OW16270   1.949   3.620  10.172  0.0421 -0.3223 -0.6142
 1546SOL    HW116271   1.951   3.631  10.077 -0.8721 -0.1600 -0.6165
 1546SOL    HW216272   1.890   3.544  10.167 -0.6241  0.0960  0.7209
 1547SOL     OW16273   0.920   2.102  17.382 -0.3664 -0.5170  0.6833
 1547SOL    HW116274   0.891   2.188  17.412 -1.1675 -0.3245 -0.6480
 1547SOL    HW216275   0.966   2.071  17.460 -0.3694  2.6290  1.9494
 1548SOL     OW16276   1.078   2.463   4.276  0.7504  0.7931 -0.2712
 1548SOL    HW116277   1.060   2.373   4.247 -1.5191  0.8637  0.9459
 1548SOL    HW216278   0.991   2.499   4.260 -0.2596 -1.4121  0.1625
 1549SOL     OW16279   0.698   0.423   6.564  0.0195  0.1516  0.1005
 1549SOL    HW116280   0.717   0.379   6.647  1.8391 -1.5736 -1.2270
 1549SOL    HW216281   0.633   0.359   6.536 -0.5113  1.0756 -0.7740
 1550SOL     OW16282   3.598   2.570   8.002  0.5124  0.1260 -0.2768
 1550SOL    HW116283   3.571   2.661   7.990  0.3567 -0.1610 -2.1687
 1550SOL    HW216284   3.523   2.536   8.050  0.9936  0.6651  0.8399
 1551SOL     OW16285   4.198   3.966   0.217  0.8767 -0.3886 -0.1535
 1551SOL    HW116286   4.262   4.031   0.187  0.7654  1.3736  3.3482
 1551SOL    HW216287   4.262   3.895   0.225  1.3952  0.0094 -0.7859
 1552SOL     OW16288   1.049   2.204  12.020 -0.1788  0.5106  0.0653
 1552SOL    HW116289   1.127   2.218  11.966 -0.2174  0.3344 -0.0358
 1552SOL    HW216290   1.082   2.129  12.069 -1.4164 -0.7912 -1.0804
 1553SOL     OW16291   2.903   3.067   8.730 -0.1441 -0.1240 -0.0429
 1553SOL    HW116292   2.925   2.989   8.781  0.0403 -0.2146 -0.2616
 1553SOL    HW216293   2.833   3.031   8.675 -0.2132 -0.9383  0.5807
 1554SOL     OW16294   0.236   1.952   5.544  0.3903 -0.0704  0.3144
 1554SOL    HW116295   0.232   1.857   5.531  0.9881  0.1491 -1.4997
 1554SOL    HW216296   0.328   1.959   5.519  0.5051  1.2343  1.0677
 1555SOL     OW16297   3.983   1.325   2.918  0.1950 -0.0627  0.1783
 1555SOL    HW116298   3.982   1.287   2.830  2.3873 -1.1982  0.6721
 1555SOL    HW216299   3.960   1.253   2.977 -1.0165 -0.6924 -1.0573
 1556SOL     OW16300   1.949   4.510   6.556  0.0048 -0.0866 -0.4808
 1556SOL    HW116301   1.863   4.471   6.570  1.0561 -2.2072 -0.0237
 1556SOL    HW216302   1.926   4.578   6.492 -1.1966 -0.7682 -0.7686
 1557SOL     OW16303   1.463   1.596  12.430 -0.2206 -0.0995 -0.2154
 1557SOL    HW116304   1.417   1.587  12.513  0.2521 -1.8872 -0.1350
 1557SOL    HW216305   1.549   1.564  12.458  0.1038 -0.3573 -1.4986
 1558SOL     OW16306   2.794   1.234  12.836  0.1191 -0.3151 -0.0037
 1558SOL    HW116307   2.857   1.255  12.767  1.4286  0.6399  1.4798
 1558SOL    HW216308   2.858   1.190  12.892 -0.4415 -0.8404  0.2257
 1559SOL     OW16309   1.156   1.067   9.463  0.1367  0.1591  0.0815
 1559SOL    HW116310   1.144   1.020   9.381 -1.7451 -1.5759  1.3336
 1559SOL    HW216311   1.151   0.990   9.520 -0.6328  1.2745  1.5192
 1560SOL     OW16312   1.731   0.305   0.615  0.3959 -0.4655  0.4745
 1560SOL    HW116313   1.733   0.347   0.530  2.5774 -0.6695  0.4233
 1560SOL    HW216314   1.699   0.215   0.603  1.1694 -0.5850 -0.7427
 1561SOL     OW16315   0.756   3.261   2.702  0.0147  0.0076  0.2133
 1561SOL    HW116316   0.794   3.176   2.679  1.0665  0.6557 -0.4550
 1561SOL    HW216317   0.712   3.282   2.619  1.9804 -0.4094 -0.9339
 1562SOL     OW16318   0.701   4.469  11.638  0.2911 -0.4196  0.3483
 1562SOL    HW116319   0.747   4.483  11.721 -1.1022 -1.8435  1.3591
 1562SOL    HW216320   0.678   4.376  11.633 -1.1024  0.0194 -1.2678
 1563SOL     OW16321   3.142   0.241  13.135  0.5611  0.3399 -0.0458
 1563SOL    HW116322   3.090   0.176  13.087 -2.4279  0.8348  2.5136
 1563SOL    HW216323   3.229   0.224  13.098  0.3452 -0.7836 -0.0430
 1564SOL     OW16324   4.337   2.320   4.529  0.5474 -0.6966 -0.1252
 1564SOL    HW116325   4.369   2.379   4.460 -0.0925  0.8266  0.8892
 1564SOL    HW216326   4.245   2.326   4.505  0.4119  1.0470  0.8885
 1565SOL     OW16327   1.654   2.991  16.195 -0.0110 -0.1078  0.2508
 1565SOL    HW116328   1.719   2.940  16.242  1.1822  0.1266 -1.1493
 1565SOL    HW216329   1.688   2.987  16.106 -0.8152  1.9591 -0.1549
 1566SOL     OW16330   4.397   3.090   9.482 -0.2390  1.0524 -0.1718
 1566SOL    HW116331   4.427   3.150   9.550  2.0869  0.7124 -0.9155
 1566SOL    HW216332   4.301   3.089   9.489 -0.0622 -1.9908  1.8722
 1567SOL     OW16333   2.947   4.508   7.605  0.5889  0.6620 -0.1730
 1567SOL    HW116334   2.872   4.565   7.620  1.8155  2.4288 -0.8131
 1567SOL    HW216335   2.919   4.436   7.548  1.1247  1.8688 -1.9513
 1568SOL     OW16336   4.425   1.857   1.581  0.5134  0.1190 -0.6350
 1568SOL    HW116337   4.385   1.928   1.531 -4.1989 -2.3516 -0.3332
 1568SOL    HW216338   4.464   1.791   1.524  0.2508  0.6287 -1.4045
 1569SOL     OW16339   3.557   0.265   3.636 -0.6058  0.3906  0.2619
 1569SOL    HW116340   3.570   0.172   3.617  2.1034  0.6750  0.6632
 1569SOL    HW216341   3.561   0.295   3.545  1.5830  0.0467  0.2384
 1570SOL     OW16342   2.377   1.447  10.372 -0.3736 -0.0989  1.0356
 1570SOL    HW116343   2.471   1.455  10.385  0.0118 -0.3453 -1.5651
 1570SOL    HW216344   2.338   1.453  10.459  2.2738  0.9788  2.1175
 1571SOL     OW16345   2.712   3.453  10.615  0.1152 -0.2381  0.0785
 1571SOL    HW116346   2.714   3.470  10.710  0.5681 -0.9533  0.2025
 1571SOL    HW216347   2.630   3.403  10.607 -0.9444  1.6353 -0.6936
 1572SOL     OW16348   3.626   2.786   5.545 -0.6304  0.1788 -0.3325
 1572SOL    HW116349   3.648   2.870   5.504 -1.4272  0.0898 -0.9357
 1572SOL    HW216350   3.530   2.785   5.544 -0.6424 -0.9670  1.8814
 1573SOL     OW16351   0.079   3.848   4.902  0.3844 -0.2831  0.2178
 1573SOL    HW116352   0.097   3.934   4.940 -1.3871 -0.3138  1.0930
 1573SOL    HW216353   0.044   3.864   4.814 -0.0104  0.1155  0.4505
 1574SOL     OW16354   4.597   2.416  10.179 -0.0381  0.1775 -0.0216
 1574SOL    HW116355   4.502   2.413  10.176  0.0524 -2.3028 -0.2781
 1574SOL    HW216356   4.597   2.505  10.144 -0.0200  0.1205 -0.1675
 1575SOL     OW16357   4.292   1.847   3.408 -0.1267  0.2774  0.0835
 1575SOL    HW116358   4.332   1.760   3.418  2.4635  1.4628 -0.0051
 1575SOL    HW216359   4.308   1.876   3.498 -0.6992  1.4048 -0.1774
 1576SOL     OW16360   1.995   1.860   9.858 -0.0079 -0.1548  0.2187
 1576SOL    HW116361   1.977   1.940   9.908  1.9907 -0.2165  1.0258
 1576SOL    HW216362   2.015   1.801   9.931 -0.1905  0.6293  0.9059
 1577SOL     OW16363   2.591   0.867   2.677 -0.0937  0.2856 -0.0904
 1577SOL    HW116364   2.501   0.899   2.669  0.6014  2.3450  0.2230
 1577SOL    HW216365   2.610   0.880   2.584 -0.7924 -3.0110 -0.6709
 1578SOL     OW16366   0.442   3.755   5.091  0.1006 -0.6125 -0.4040
 1578SOL    HW116367   0.407   3.763   5.002 -0.5975  1.8670  0.0920
 1578SOL    HW216368   0.516   3.697   5.074  0.8141  1.0714 -3.0322
 1579SOL     OW16369   0.816   3.084   3.340  0.2149  0.0131 -0.1187
 1579SOL    HW116370   0.827   3.012   3.278 -1.5145 -1.6887  1.5467
 1579SOL    HW216371   0.834   3.156   3.279  0.9761 -2.2064 -2.5039
 1580SOL     OW16372   2.675   0.634   7.544 -0.1597  0.2675 -0.1779
 1580SOL    HW116373   2.725   0.618   7.464  1.3848  4.2099 -0.0296
 1580SOL    HW216374   2.621   0.705   7.510  1.0738  0.9548 -0.6994
 1581SOL     OW16375   2.352   3.791  16.016  0.3308 -0.7467 -0.4858
 1581SOL    HW116376   2.400   3.849  15.957  3.0268 -0.2821  2.1649
 1581SOL    HW216377   2.279   3.847  16.044  1.6825  0.9706 -0.3774
 1582SOL     OW16378   2.181   0.647  11.372  0.0593  0.4701 -0.0765
 1582SOL    HW116379   2.224   0.695  11.442  0.8573  1.1883 -1.0558
 1582SOL    HW216380   2.222   0.686  11.294  0.6472  1.1085  0.5552
 1583SOL     OW16381   3.778   1.559   8.778  0.2298 -0.0446 -0.1100
 1583SOL    HW116382   3.745   1.634   8.826 -0.6601 -0.2032 -0.4774
 1583SOL    HW216383   3.780   1.496   8.850  1.4084  0.4386  0.2865
 1584SOL     OW16384   1.885   0.202   2.605 -0.0491  0.1527 -0.4122
 1584SOL    HW116385   1.857   0.148   2.679  0.1896  1.5304  0.6819
 1584SOL    HW216386   1.816   0.193   2.539 -0.1226 -0.2269 -0.2836
 1585SOL     OW16387   3.847   3.478   4.060 -0.3465  0.1590 -0.2679
 1585SOL    HW116388   3.817   3.426   4.134  1.4545 -0.9900 -0.3507
 1585SOL    HW216389   3.923   3.432   4.025 -1.1355  0.1350 -1.9549
 1586SOL     OW16390   2.519   2.990   6.411 -0.1770 -0.4808 -0.2745
 1586SOL    HW116391   2.614   2.993   6.406 -0.1967 -1.5060 -1.2890
 1586SOL    HW216392   2.505   3.063   6.471  1.0459 -1.2452  0.9466
 1587SOL     OW16393   2.885   0.223   2.235  0.6473 -0.0510 -0.0196
 1587SOL    HW116394   2.902   0.231   2.141  1.9090  1.2873  0.3288
 1587SOL    HW216395   2.795   0.257   2.240  1.4332  2.0941 -0.5028
 1588SOL     OW16396   4.573   0.405  11.858  0.3018 -0.1918  0.0225
 1588SOL    HW116397   4.492   0.441  11.821 -2.2074 -0.8690  4.8983
 1588SOL    HW216398   4.560   0.314  11.831 -3.6116  0.6215 -0.8439
 1589SOL     OW16399   4.692   2.751   8.159  0.1561  0.0638 -0.0334
 1589SOL    HW116400   4.604   2.712   8.162  0.8053 -1.2099  2.9180
 1589SOL    HW216401   0.014   2.684   8.195  0.5539 -0.2072 -1.1825
 1590SOL     OW16402   0.075   3.796   0.746 -0.3809  0.6116  0.4215
 1590SOL    HW116403   0.157   3.826   0.785 -0.2577 -0.7701  1.2230
 1590SOL    HW216404   0.018   3.791   0.822 -0.4097 -2.4207  0.2087
 1591SOL     OW16405   0.976   3.397   1.659  0.3843  0.1868 -0.6251
 1591SOL    HW116406   0.944   3.408   1.749 -0.5510  1.3732 -1.1034
 1591SOL    HW216407   0.951   3.305   1.661 -0.0692  0.3960  3.0935
 1592SOL     OW16408   0.754   3.944   5.992 -0.5816 -0.2326 -0.1760
 1592SOL    HW116409   0.723   4.030   6.019  1.0763  0.3640 -0.1427
 1592SOL    HW216410   0.785   3.895   6.068  1.1231 -0.4214 -0.9847
 1593SOL     OW16411   2.614   1.109   3.597  0.0869  0.4215 -0.3958
 1593SOL    HW116412   2.560   1.116   3.676 -1.8727  0.3683 -1.7427
 1593SOL    HW216413   2.699   1.079   3.628  0.9978  1.5949 -1.7564
 1594SOL     OW16414   1.139   2.552   7.211  0.4415  0.3090  0.0470
 1594SOL    HW116415   1.158   2.460   7.231 -1.3507 -0.5123 -2.1563
 1594SOL    HW216416   1.084   2.581   7.284 -0.4412  0.9405 -0.8885
 1595SOL     OW16417   1.923   1.313   9.789  0.1938  0.7765 -0.9255
 1595SOL    HW116418   1.884   1.231   9.758  0.6322 -0.3777  1.6139
 1595SOL    HW216419   1.976   1.279   9.861 -0.2988 -0.6870 -1.2537
 1596SOL     OW16420   3.943   1.730   3.937 -0.4739 -0.4046  1.1907
 1596SOL    HW116421   4.022   1.706   3.888  0.1974  0.5325  1.8257
 1596SOL    HW216422   3.944   1.684   4.022  0.8691 -1.0334  0.8425
 1597SOL     OW16423   0.779   1.418   4.928  0.2550 -0.1786 -0.2798
 1597SOL    HW116424   0.699   1.445   4.883  0.8407 -0.2828 -1.3739
 1597SOL    HW216425   0.817   1.502   4.956  1.5765 -2.0228  3.4251
 1598SOL     OW16426   3.217   2.218  14.428  0.2780 -0.1925 -0.3544
 1598SOL    HW116427   3.236   2.208  14.521 -3.1280 -2.1250  0.1196
 1598SOL    HW216428   3.237   2.133  14.389  0.3140  0.0172 -0.7934
 1599SOL     OW16429   1.231   2.712   3.255  0.3696 -0.7396 -0.3394
 1599SOL    HW116430   1.205   2.714   3.347 -0.2364 -0.0619 -0.5291
 1599SOL    HW216431   1.149   2.691   3.212 -0.2886  0.4784  0.3337
 1600SOL     OW16432   0.396   2.993   3.303 -0.6323 -0.0357 -0.0827
 1600SOL    HW116433   0.445   3.067   3.267  1.5709 -1.6790 -0.5139
 1600SOL    HW216434   0.465   2.931   3.328  0.0263 -0.2712 -2.4863
 1601SOL     OW16435   1.314   3.356   7.448 -0.1932  0.2552 -0.8250
 1601SOL    HW116436   1.332   3.297   7.375 -0.4323 -1.0362  0.1527
 1601SOL    HW216437   1.395   3.357   7.498 -1.2400 -0.6941  0.8847
 1602SOL     OW16438   4.241   0.815   1.911  0.1854 -0.3968  0.1369
 1602SOL    HW116439   4.286   0.832   1.828  0.6579 -1.9962  0.0710
 1602SOL    HW216440   4.270   0.892   1.960 -0.6465 -0.3224  0.5106
 1603SOL     OW16441   0.563   3.361   0.706 -0.8518 -0.0479  0.3583
 1603SOL    HW116442   0.515   3.360   0.623  0.8703 -2.3635 -0.6225
 1603SOL    HW216443   0.637   3.305   0.681 -1.8198 -1.3543  0.3868
 1604SOL     OW16444   3.958   2.956   8.694 -0.1759 -0.4248 -0.0324
 1604SOL    HW116445   3.883   2.971   8.636 -0.6982  0.5412  0.8931
 1604SOL    HW216446   4.015   2.909   8.633 -0.8915 -1.3411 -0.0071
 1605SOL     OW16447   0.763   0.628  14.663  0.0090 -0.2624 -0.0722
 1605SOL    HW116448   0.785   0.715  14.695  1.2188 -0.0869 -1.3646
 1605SOL    HW216449   0.686   0.637  14.606  0.8207 -1.4448 -1.3602
 1606SOL     OW16450   4.348   0.514   6.156  0.1847 -0.4026 -0.0193
 1606SOL    HW116451   4.375   0.606   6.161 -0.2176 -0.2716 -0.1906
 1606SOL    HW216452   4.275   0.499   6.215  0.7402  1.2429  1.0652
 1607SOL     OW16453   3.173   4.264   8.254  0.3677 -0.0755 -0.1428
 1607SOL    HW116454   3.113   4.272   8.329 -0.1309 -0.3435 -0.5128
 1607SOL    HW216455   3.256   4.285   8.296  1.8696 -1.1708 -2.6117
 1608SOL     OW16456   4.450   0.768   5.274 -1.0107  0.3469 -0.2937
 1608SOL    HW116457   4.492   0.849   5.246 -0.7796  0.1877 -0.4117
 1608SOL    HW216458   4.433   0.720   5.193  0.4684  0.8870 -0.9239
 1609SOL     OW16459   1.983   2.377  10.671  0.0640  0.1425  0.5105
 1609SOL    HW116460   1.993   2.380  10.766 -0.3150 -1.1420  0.5853
 1609SOL    HW216461   2.060   2.325  10.649 -2.5012 -2.9892 -0.9219
 1610SOL     OW16462   0.366   1.734   1.512 -0.5686 -0.2436  0.2655
 1610SOL    HW116463   0.450   1.745   1.469 -1.4355  0.3211 -1.3009
 1610SOL    HW216464   0.400   1.714   1.600  0.0735 -2.3688 -0.4614
 1611SOL     OW16465   4.108   0.278   8.473  0.4259 -0.3770  0.4105
 1611SOL    HW116466   4.024   0.312   8.442 -0.1285  1.4075  3.9207
 1611SOL    HW216467   4.124   0.319   8.558 -1.8650 -0.4946  0.8983
 1612SOL     OW16468   2.453   1.338   6.204  0.7621 -0.6905  0.3959
 1612SOL    HW116469   2.502   1.363   6.126  2.4403 -1.7231  1.1049
 1612SOL    HW216470   2.364   1.324   6.172  0.2108 -1.1937  2.1558
 1613SOL     OW16471   1.559   1.360   5.546 -0.3205 -0.6352  0.7997
 1613SOL    HW116472   1.466   1.370   5.565 -0.4159  0.2225 -0.1175
 1613SOL    HW216473   1.568   1.292   5.479  1.1945 -0.8397  1.2015
 1614SOL     OW16474   1.723   4.685   5.855 -0.3240  0.1279  0.1785
 1614SOL    HW116475   1.807   4.665   5.898  0.5816 -0.4489 -1.8755
 1614SOL    HW216476   1.673   4.708   5.934  0.7056 -0.8200  1.1205
 1615SOL     OW16477   2.896   2.344   5.786 -0.2464  0.3837 -0.7145
 1615SOL    HW116478   2.910   2.292   5.865  2.7813  1.5634 -0.5054
 1615SOL    HW216479   2.967   2.317   5.727  0.2296  0.8419 -0.3478
 1616SOL     OW16480   2.989   2.258   5.025 -0.2634  0.0354 -0.1597
 1616SOL    HW116481   2.953   2.218   4.946 -2.3478 -0.1834  0.8942
 1616SOL    HW216482   3.017   2.184   5.079  2.1086  1.6513  0.7959
 1617SOL     OW16483   0.851   0.909  16.307  0.1633  0.5480  0.4809
 1617SOL    HW116484   0.903   0.935  16.231  1.1032  3.5567  2.1537
 1617SOL    HW216485   0.778   0.861  16.268 -1.0486  2.8408 -0.0620
 1618SOL     OW16486   2.373   0.808  16.591 -0.2361 -0.3976  0.1608
 1618SOL    HW116487   2.460   0.842  16.569 -0.5825  1.0060  1.0108
 1618SOL    HW216488   2.345   0.782  16.503  1.3923  0.4209 -0.6023
 1619SOL     OW16489   0.646   2.494   5.863 -0.4290 -0.3355  0.0214
 1619SOL    HW116490   0.599   2.557   5.918  1.9818  1.3131  0.1882
 1619SOL    HW216491   0.651   2.548   5.785  0.4773 -3.2095 -1.8801
 1620SOL     OW16492   2.580   0.680   5.657 -0.1184  0.3106 -0.2918
 1620SOL    HW116493   2.586   0.670   5.562 -0.6790 -0.3391 -0.2582
 1620SOL    HW216494   2.490   0.650   5.671 -0.4812  2.6378  2.2986
 1621SOL     OW16495   2.988   2.434  10.803  0.5884 -0.3580 -0.1845
 1621SOL    HW116496   3.039   2.436  10.884 -1.3859  3.4742  0.9650
 1621SOL    HW216497   3.027   2.360  10.755  0.8838 -0.2547 -0.1009
 1622SOL     OW16498   4.635   1.837   3.941  0.5861 -0.4882 -0.2121
 1622SOL    HW116499   4.720   1.845   3.898  1.0829  0.3646  0.9319
 1622SOL    HW216500   4.621   1.926   3.974  1.4676 -0.7510  0.8430
 1623SOL     OW16501   0.916   3.187   5.212 -0.6001 -0.3473  0.8484
 1623SOL    HW116502   0.928   3.128   5.286  0.2469 -0.9779  0.2115
 1623SOL    HW216503   0.830   3.156   5.184 -0.9440  0.1065  1.4147
 1624SOL     OW16504   3.191   1.384   2.829  0.5554 -0.5582 -0.1722
 1624SOL    HW116505   3.177   1.355   2.739 -1.5235  0.0124 -0.0399
 1624SOL    HW216506   3.112   1.438   2.839  0.7110 -0.6455  1.4667
 1625SOL     OW16507   3.798   3.645  14.216 -0.1362 -0.5984 -0.3441
 1625SOL    HW116508   3.811   3.565  14.267 -0.0854  0.5218  1.3719
 1625SOL    HW216509   3.890   3.670  14.206 -0.5857  1.6278  1.2345
 1626SOL     OW16510   1.555   1.035   5.859 -0.5980  0.0146 -0.6050
 1626SOL    HW116511   1.599   1.115   5.887  0.6330  0.3055 -3.3213
 1626SOL    HW216512   1.460   1.048   5.857 -0.7540 -0.9932  0.1668
 1627SOL     OW16513   4.318   3.305  16.535 -0.2480  0.1518 -0.5510
 1627SOL    HW116514   4.243   3.359  16.562  0.3181  1.2765 -1.2358
 1627SOL    HW216515   4.371   3.312  16.614  0.3642 -0.0854 -0.9422
 1628SOL     OW16516   1.814   2.477   3.901  0.5751 -0.1763 -0.2139
 1628SOL    HW116517   1.752   2.539   3.938  0.3046 -0.0310 -0.9102
 1628SOL    HW216518   1.789   2.474   3.809  1.9943  2.2668 -0.6744
 1629SOL     OW16519   3.108   1.845   5.897  0.3237  0.4848  0.0007
 1629SOL    HW116520   3.198   1.830   5.871  1.0689  0.9996  2.2481
 1629SOL    HW216521   3.062   1.808   5.822 -0.5292 -2.0490  1.7677
 1630SOL     OW16522   1.902   3.939  10.349  0.3272  0.3153  0.3777
 1630SOL    HW116523   1.861   3.940  10.436  2.9058  0.1652  1.6090
 1630SOL    HW216524   1.967   4.009  10.352 -0.3618  1.0845 -3.5947
 1631SOL     OW16525   2.446   3.253   3.806 -0.1179 -0.2960 -0.1907
 1631SOL    HW116526   2.510   3.272   3.737 -2.1068  1.6646 -1.4902
 1631SOL    HW216527   2.388   3.329   3.809 -0.1306 -0.4061  2.8040
 1632SOL     OW16528   3.029   0.810   3.794  0.0142 -0.2194  0.2154
 1632SOL    HW116529   3.044   0.783   3.703 -0.1773  1.6384 -0.3632
 1632SOL    HW216530   3.038   0.725   3.837  2.8610  0.1069  0.2689
 1633SOL     OW16531   2.472   1.386   8.436 -0.2410 -0.4974 -0.2136
 1633SOL    HW116532   2.545   1.355   8.383  1.5975  1.0310  1.4261
 1633SOL    HW216533   2.498   1.360   8.524 -0.7549 -0.6079 -0.0970
 1634SOL     OW16534   0.596   1.614  11.647  0.3594 -0.3040  0.2218
 1634SOL    HW116535   0.615   1.671  11.722 -1.6392 -1.2697  1.4692
 1634SOL    HW216536   0.505   1.590  11.669 -0.4937  3.4598  0.8532
 1635SOL     OW16537   0.827   1.083   8.789  0.3999 -0.1661  0.0143
 1635SOL    HW116538   0.916   1.058   8.766 -0.6510 -3.8407 -0.0688
 1635SOL    HW216539   0.820   1.038   8.873  0.5571 -0.4687 -0.1368
 1636SOL     OW16540   0.264   1.703   6.631 -0.4285  0.0777 -0.0962
 1636SOL    HW116541   0.329   1.646   6.590 -0.8332 -1.1918  1.0128
 1636SOL    HW216542   0.277   1.781   6.578 -1.7082  0.9049  0.7881
 1637SOL     OW16543   2.933   3.050  16.245  0.4488 -0.3839  0.3044
 1637SOL    HW116544   2.947   3.002  16.326 -0.0778 -2.4046 -0.8129
 1637SOL    HW216545   3.023   3.058  16.214  0.2623  1.0718  0.1181
 1638SOL     OW16546   1.321   1.064   3.042 -0.1857 -0.1575  0.8593
 1638SOL    HW116547   1.359   0.982   3.074 -1.5999 -1.9726 -2.0750
 1638SOL    HW216548   1.247   1.030   2.992  0.7546  0.3558 -0.8938
 1639SOL     OW16549   1.222   3.920  14.191  0.0218 -0.5620 -0.5240
 1639SOL    HW116550   1.176   4.003  14.179  0.4171 -0.0416  1.4886
 1639SOL    HW216551   1.289   3.948  14.254  0.2424 -1.8603 -0.1768
 1640SOL     OW16552   3.857   0.697   6.057 -0.1041  0.1760 -0.3062
 1640SOL    HW116553   3.821   0.611   6.032 -1.3627  0.3091  1.1096
 1640SOL    HW216554   3.776   0.744   6.071 -1.7974 -2.4602 -1.2230
 1641SOL     OW16555   3.856   0.562   9.959 -0.0382 -0.7250  0.2798
 1641SOL    HW116556   3.897   0.643   9.990  1.7744  0.1546 -4.3462
 1641SOL    HW216557   3.903   0.496  10.010  0.3965 -0.0303  0.7787
 1642SOL     OW16558   4.075   4.107   8.508  0.0369  0.1927 -0.3361
 1642SOL    HW116559   3.994   4.141   8.544 -0.6346  0.0719 -1.7156
 1642SOL    HW216560   4.121   4.128   8.589 -1.9456 -1.5507  1.2453
 1643SOL     OW16561   1.092   2.839  11.010  0.2589  0.4472  0.2479
 1643SOL    HW116562   1.115   2.775  10.943  1.6684  0.6325  0.5491
 1643SOL    HW216563   1.164   2.821  11.070 -0.5196 -3.1173  0.1326
 1644SOL     OW16564   3.533   0.974   0.756  0.4539 -0.7960  0.1511
 1644SOL    HW116565   3.472   0.901   0.749  1.1303 -1.2941 -0.5189
 1644SOL    HW216566   3.611   0.925   0.729  1.5852  0.5090  1.0523
 1645SOL     OW16567   4.308   2.646   8.510 -0.6581 -0.1463 -0.0075
 1645SOL    HW116568   4.322   2.554   8.531 -0.4001  0.4435  2.4187
 1645SOL    HW216569   4.393   2.669   8.472 -1.9417  0.7134 -2.3469
 1646SOL     OW16570   3.335   3.255   7.228 -0.1505  0.3453 -0.6467
 1646SOL    HW116571   3.322   3.247   7.134 -0.1645 -2.2107 -0.4151
 1646SOL    HW216572   3.365   3.346   7.230  0.9278 -0.0285  0.4623
 1647SOL     OW16573   0.232   0.269  16.367  0.0469  0.2008  0.0511
 1647SOL    HW116574   0.208   0.198  16.308  0.0938 -1.2541  1.7566
 1647SOL    HW216575   0.253   0.221  16.448  1.1990 -0.4443 -0.6249
 1648SOL     OW16576   2.736   2.877  13.902  0.1587 -0.0199  0.0065
 1648SOL    HW116577   2.797   2.836  13.841  2.2709  0.4490  1.8378
 1648SOL    HW216578   2.661   2.824  13.874  0.2060 -1.2336  2.1934
 1649SOL     OW16579   4.612   2.455  12.098 -0.3440 -0.0656  0.0352
 1649SOL    HW116580   4.619   2.397  12.174 -0.5381 -0.8742 -0.5623
 1649SOL    HW216581   4.668   2.530  12.118  1.0290 -0.7200 -1.3730
 1650SOL     OW16582   4.499   3.576   6.913  0.3013 -0.0488 -0.0713
 1650SOL    HW116583   4.429   3.513   6.929  2.5656 -2.2941  1.0363
 1650SOL    HW216584   4.573   3.520   6.938 -0.3533 -0.7578  0.3005
 1651SOL     OW16585   4.219   2.608   1.264 -0.0151 -0.0352 -0.2034
 1651SOL    HW116586   4.143   2.609   1.207 -1.0920 -0.6200  1.2144
 1651SOL    HW216587   4.207   2.700   1.290 -2.2951 -0.6288  0.8420
 1652SOL     OW16588   2.363   3.460  17.246  0.0809  0.1159 -0.4229
 1652SOL    HW116589   2.314   3.379  17.262  1.5063 -0.4526  1.1361
 1652SOL    HW216590   2.451   3.435  17.276 -0.4381  0.1324  1.1235
 1653SOL     OW16591   1.993   0.891   2.909 -0.5446 -0.6228  0.0931
 1653SOL    HW116592   1.904   0.882   2.943 -0.5296 -0.0703  0.2792
 1653SOL    HW216593   2.001   0.983   2.884  0.1577 -0.1739  1.9282
 1654SOL     OW16594   3.424   3.856   3.902 -0.0001 -0.2670 -0.7310
 1654SOL    HW116595   3.447   3.897   3.819  0.9344 -0.2127 -0.4402
 1654SOL    HW216596   3.348   3.911   3.922 -1.5458 -2.2412 -1.1178
 1655SOL     OW16597   0.096   3.889   9.399  0.1069 -0.4282 -0.6225
 1655SOL    HW116598   0.037   3.876   9.325 -0.2733 -0.6102 -0.2823
 1655SOL    HW216599   0.162   3.952   9.369 -0.4339  0.1499 -0.5973
 1656SOL     OW16600   4.386   2.662   7.217  0.2208  0.2767 -0.5857
 1656SOL    HW116601   4.304   2.711   7.227  0.6560  0.6268  1.2686
 1656SOL    HW216602   4.393   2.619   7.302  3.4730 -0.9766 -1.4738
 1657SOL     OW16603   4.470   0.638   8.217 -0.0292  0.2549 -0.3567
 1657SOL    HW116604   4.390   0.656   8.266 -0.4111 -0.2287 -0.8040
 1657SOL    HW216605   4.532   0.674   8.280  0.2045 -1.6854  0.4939
 1658SOL     OW16606   1.263   1.464   3.042  0.4503 -0.3580  0.4676
 1658SOL    HW116607   1.221   1.401   3.100 -0.2063 -1.1179 -0.8328
 1658SOL    HW216608   1.264   1.543   3.094 -0.8080 -0.2483  0.3384
 1659SOL     OW16609   0.693   4.473  12.483 -0.9843  0.2694 -0.1846
 1659SOL    HW116610   0.702   4.520  12.566 -3.7886  2.6633 -1.2546
 1659SOL    HW216611   0.773   4.498  12.438 -0.1032  0.3149  1.4233
 1660SOL     OW16612   1.822   3.961   3.234 -0.1288  0.9326  0.0515
 1660SOL    HW116613   1.881   3.886   3.238 -2.2874 -0.7134  1.5140
 1660SOL    HW216614   1.857   4.012   3.161 -0.1851  0.1724 -0.5125
 1661SOL     OW16615   1.495   4.464   5.402 -0.4975 -0.7116  0.0485
 1661SOL    HW116616   1.504   4.458   5.498 -1.1706 -1.5709  0.0651
 1661SOL    HW216617   1.439   4.541   5.391  0.3148 -0.4627 -2.3329
 1662SOL     OW16618   3.629   3.893   7.752  0.3219  0.2571 -0.1352
 1662SOL    HW116619   3.699   3.955   7.772  0.8092 -0.8204  1.4404
 1662SOL    HW216620   3.571   3.916   7.824  0.9453  0.9890  0.1421
 1663SOL     OW16621   3.083   2.873  12.556 -0.0328  0.5159 -0.3511
 1663SOL    HW116622   3.065   2.785  12.589  0.2262  0.7606  0.4430
 1663SOL    HW216623   3.175   2.861  12.536 -0.5004  1.6772 -3.1821
 1664SOL     OW16624   0.717   0.408   5.331  0.1835  0.1417 -0.5853
 1664SOL    HW116625   0.695   0.369   5.247  1.2696 -1.5740 -0.0689
 1664SOL    HW216626   0.652   0.357   5.379  0.3329 -0.0071 -0.5402
 1665SOL     OW16627   0.159   1.964   5.814  0.3773 -0.1654  0.5798
 1665SOL    HW116628   0.072   1.925   5.825 -1.6710  3.5820 -2.3711
 1665SOL    HW216629   0.186   1.937   5.726 -0.5505 -0.4345  0.3724
 1666SOL     OW16630   2.192   3.609  14.586 -0.1381  0.0306  0.0484
 1666SOL    HW116631   2.110   3.645  14.550  0.8704 -1.4809 -3.8156
 1666SOL    HW216632   2.249   3.618  14.509  1.8392 -0.2056  1.4925
 1667SOL     OW16633   3.045   3.065   3.061  0.9205 -0.3024 -0.0646
 1667SOL    HW116634   3.044   3.049   3.155 -0.0681 -1.2907 -0.2440
 1667SOL    HW216635   3.010   2.984   3.024  2.5623 -1.4265  0.9111
 1668SOL     OW16636   0.937   3.997   3.854  0.4256  0.0067 -0.2789
 1668SOL    HW116637   0.873   4.063   3.880 -2.4311 -1.6432 -3.1364
 1668SOL    HW216638   0.941   4.025   3.762  0.8702 -1.3767 -0.6704
 1669SOL     OW16639   1.537   2.536   2.893 -0.2097 -1.0653 -0.2292
 1669SOL    HW116640   1.513   2.555   2.984  2.9663  1.5250  0.0307
 1669SOL    HW216641   1.457   2.566   2.849 -0.8284 -0.4331  1.3394
 1670SOL     OW16642   2.561   2.186  16.759  0.3506 -0.0327 -0.2656
 1670SOL    HW116643   2.624   2.136  16.706  0.5807 -0.1141  0.0910
 1670SOL    HW216644   2.569   2.274  16.723 -1.7477 -0.0207 -0.7115
 1671SOL     OW16645   3.034   2.317   1.835  0.1958  0.2475  0.1145
 1671SOL    HW116646   3.123   2.291   1.855  0.6645  2.9718  1.5818
 1671SOL    HW216647   3.035   2.329   1.740 -0.3276 -0.9427 -0.0504
 1672SOL     OW16648   0.795   1.205  16.589  0.0028  0.2264  0.3461
 1672SOL    HW116649   0.858   1.194  16.519  2.5056  0.7903  2.5191
 1672SOL    HW216650   0.745   1.281  16.561 -0.5938 -0.3978 -0.2915
 1673SOL     OW16651   1.565   4.514  14.402  0.2752 -0.1224 -0.1431
 1673SOL    HW116652   1.570   4.426  14.440 -2.1848  1.2020  3.2245
 1673SOL    HW216653   1.506   4.555  14.466  3.3126  1.7701  1.4473
 1674SOL     OW16654   4.305   3.939  10.226 -0.4673 -0.2222 -0.6038
 1674SOL    HW116655   4.312   3.903  10.314 -2.6749 -0.7589 -0.6421
 1674SOL    HW216656   4.399   3.933  10.206  0.0843  1.1058  1.5721
 1675SOL     OW16657   4.064   1.576   6.972 -1.0406 -0.6580  0.8811
 1675SOL    HW116658   4.124   1.517   7.018  0.0784 -0.5630 -0.4540
 1675SOL    HW216659   4.112   1.614   6.899 -1.3667 -1.6287  0.1627
 1676SOL     OW16660   0.239   1.154   3.154  0.5972  0.4976  0.0754
 1676SOL    HW116661   0.308   1.212   3.123  1.4531 -1.4231 -1.5650
 1676SOL    HW216662   0.259   1.071   3.112 -0.5815 -1.1757  2.7827
 1677SOL     OW16663   4.021   2.521   9.060  0.6537  0.3217 -0.2318
 1677SOL    HW116664   3.967   2.453   9.020  1.8201  0.3239 -1.8052
 1677SOL    HW216665   4.006   2.597   9.004  0.5183  1.1025  0.8614
 1678SOL     OW16666   1.312   3.950   5.669 -0.0096  0.0902  0.5194
 1678SOL    HW116667   1.245   3.888   5.641  1.9840 -1.3602 -1.1277
 1678SOL    HW216668   1.276   4.001   5.741 -3.1113 -0.4522 -0.6812
 1679SOL     OW16669   0.692   4.276   4.418  0.3951  0.2124 -0.4261
 1679SOL    HW116670   0.654   4.256   4.333  0.0960 -1.1820  0.0492
 1679SOL    HW216671   0.783   4.284   4.387  0.3981 -0.2202 -0.5301
 1680SOL     OW16672   1.083   3.438   7.684 -0.5287  0.1071  0.7976
 1680SOL    HW116673   1.083   3.502   7.613 -0.9478  0.0856  0.7733
 1680SOL    HW216674   0.990   3.453   7.704 -0.3267  1.3451  0.7588
 1681SOL     OW16675   1.175   1.141   8.118  0.2487 -0.7909 -0.0728
 1681SOL    HW116676   1.206   1.096   8.197 -1.2304  0.2469  1.0920
 1681SOL    HW216677   1.112   1.204   8.152  3.3100  2.6998 -0.9867
 1682SOL     OW16678   1.136   1.645   5.754  0.1040  0.0760 -0.0702
 1682SOL    HW116679   1.121   1.675   5.664 -0.6616 -1.4029 -0.4298
 1682SOL    HW216680   1.046   1.654   5.786  1.4813  4.6248  2.4644
 1683SOL     OW16681   1.015   4.064   6.826 -0.4306 -1.3425 -0.7338
 1683SOL    HW116682   1.072   3.988   6.838  1.5151  0.0122 -1.3790
 1683SOL    HW216683   1.038   4.115   6.905 -2.2266 -0.1019 -1.0204
 1684SOL     OW16684   3.395   0.571   2.206  0.1266 -0.3483 -0.0376
 1684SOL    HW116685   3.352   0.639   2.258 -1.8522 -1.0795 -0.6979
 1684SOL    HW216686   3.480   0.563   2.250 -0.7282  1.1768  1.8897
 1685SOL     OW16687   1.283   0.842  13.603  0.1763  0.8844 -0.4800
 1685SOL    HW116688   1.356   0.898  13.628 -0.3445  0.2163  2.4901
 1685SOL    HW216689   1.209   0.898  13.625  0.2022  0.5289  0.5046
 1686SOL     OW16690   4.639   3.365   4.534 -0.3794  0.3579  0.1378
 1686SOL    HW116691   4.551   3.402   4.541 -0.6620 -0.1159 -0.9044
 1686SOL    HW216692   4.634   3.271   4.545 -2.7404  0.1376 -2.7660
 1687SOL     OW16693   3.750   2.258   0.563  0.1391  0.2763 -0.4855
 1687SOL    HW116694   3.729   2.190   0.628  1.0382  1.2083  0.7684
 1687SOL    HW216695   3.845   2.248   0.557  0.1288 -0.4833  0.6614
 1688SOL     OW16696   3.645   1.420   1.327 -0.0995  0.8304  0.2469
 1688SOL    HW116697   3.705   1.359   1.370 -0.5426 -0.1304 -0.4645
 1688SOL    HW216698   3.678   1.507   1.347 -0.3521  1.0960 -0.4847
 1689SOL     OW16699   1.852   1.842   5.944  0.9985  0.0347 -0.2170
 1689SOL    HW116700   1.933   1.818   5.899  2.3478 -0.8723  2.7291
 1689SOL    HW216701   1.789   1.788   5.896 -2.0203  0.1686  3.5600
 1690SOL     OW16702   1.679   0.461   3.285  0.3225 -0.7162  0.4846
 1690SOL    HW116703   1.725   0.418   3.357  2.7049  1.8136  0.4684
 1690SOL    HW216704   1.728   0.425   3.211 -2.9265 -0.6100 -1.6881
 1691SOL     OW16705   2.189   3.668  10.234  0.0650  0.1415 -0.3745
 1691SOL    HW116706   2.098   3.662  10.203 -0.2469 -0.3771  0.6428
 1691SOL    HW216707   2.212   3.758  10.215 -2.4524  0.9717  0.5172
 1692SOL     OW16708   3.583   3.951   8.315 -0.3570  0.6371 -0.2999
 1692SOL    HW116709   3.497   3.937   8.276 -1.3271 -0.0640  2.1336
 1692SOL    HW216710   3.638   3.878   8.285 -1.8443 -0.1764 -1.0174
 1693SOL     OW16711   1.483   2.878   4.999  0.4409  0.3381  0.3466
 1693SOL    HW116712   1.453   2.958   4.956  0.4644  0.2702  0.2033
 1693SOL    HW216713   1.517   2.824   4.928  0.9910 -1.4935  2.0174
 1694SOL     OW16714   1.197   4.064   6.246 -0.6799  0.3351 -0.5285
 1694SOL    HW116715   1.263   4.099   6.306  0.8614 -1.7673 -0.9632
 1694SOL    HW216716   1.141   4.016   6.307  1.4889 -1.3009  0.1794
 1695SOL     OW16717   4.493   0.967  17.605  0.1256  0.6399  0.0546
 1695SOL    HW116718   4.564   0.902  17.598 -0.5174  0.0003 -0.4565
 1695SOL    HW216719   4.530   1.019  17.677  2.1254 -0.0020 -0.4913
 1696SOL     OW16720   0.040   0.318   9.764 -0.4393  0.2719 -0.4692
 1696SOL    HW116721   0.036   0.251   9.696  2.3839  1.0177 -1.3683
 1696SOL    HW216722   0.005   0.263   9.834 -0.4422  1.7783  0.7282
 1697SOL     OW16723   2.142   0.125   7.496  0.5396  0.7563 -0.1925
 1697SOL    HW116724   2.216   0.170   7.537  2.0531 -1.6796 -0.2398
 1697SOL    HW216725   2.104   0.203   7.456 -0.0639  1.5117  1.8209
 1698SOL     OW16726   4.472   0.093   1.500  0.3010  0.1932  0.4716
 1698SOL    HW116727   4.431   0.121   1.418  0.0428  0.1248  0.5781
 1698SOL    HW216728   4.399   0.063   1.554 -1.3863  2.5779 -0.4828
 1699SOL     OW16729   0.071   4.194   9.795  0.6636 -0.1515 -0.3727
 1699SOL    HW116730   0.003   4.165   9.735 -0.3253 -0.9675  1.1436
 1699SOL    HW216731   0.139   4.138   9.759  0.9401  0.9297 -1.5397
 1700SOL     OW16732   2.077   0.802  15.444 -0.2089 -0.3071  0.4738
 1700SOL    HW116733   2.074   0.707  15.458  3.1241 -0.5569 -0.6035
 1700SOL    HW216734   1.990   0.819  15.407 -0.1221  1.2217  0.9748
 1701SOL     OW16735   4.731   2.858   2.096  0.3701  0.0075  0.1866
 1701SOL    HW116736   0.017   2.779   2.145  0.8227  1.5475  2.4649
 1701SOL    HW216737   4.641   2.839   2.070  0.5461  1.1333 -1.2253
 1702SOL     OW16738   0.181   3.485   8.517 -0.2662  0.0700  0.0018
 1702SOL    HW116739   0.265   3.526   8.501 -0.0546  0.5892  2.4627
 1702SOL    HW216740   0.119   3.558   8.519 -0.2575  0.0512  1.5540
 1703SOL     OW16741   3.714   0.542   3.680  0.6069 -0.1607 -0.1565
 1703SOL    HW116742   3.710   0.452   3.648  0.6097 -0.1457 -0.1994
 1703SOL    HW216743   3.791   0.540   3.737 -0.3379 -0.8626  1.0895
 1704SOL     OW16744   1.132   2.560   5.760  0.0442  0.2506  0.3026
 1704SOL    HW116745   1.156   2.570   5.668  2.5052  1.7079  1.0933
 1704SOL    HW216746   1.082   2.479   5.756 -1.6742  1.4439 -2.2847
 1705SOL     OW16747   3.799   3.389   8.239 -0.1659  0.2689 -0.2248
 1705SOL    HW116748   3.864   3.457   8.250  0.0700 -0.0174  0.1307
 1705SOL    HW216749   3.723   3.435   8.274  0.1415 -0.0595  0.8467
 1706SOL     OW16750   2.005   1.901  13.001 -0.6611  0.2726  0.4117
 1706SOL    HW116751   2.067   1.829  13.008  1.3782  1.9409 -0.7335
 1706SOL    HW216752   1.942   1.887  13.072 -1.3304 -0.9726 -0.4288
 1707SOL     OW16753   2.151   3.723   6.618 -0.0912 -0.1299  0.6744
 1707SOL    HW116754   2.185   3.797   6.568 -0.4591 -1.1035 -1.0298
 1707SOL    HW216755   2.136   3.756   6.707  1.2643  1.4248  0.3195
 1708SOL     OW16756   0.231   2.365   5.598 -0.3615  0.2932 -0.4095
 1708SOL    HW116757   0.207   2.389   5.687  1.0722  2.2108 -0.5318
 1708SOL    HW216758   0.211   2.451   5.562 -0.4504  1.1933  1.7990
 1709SOL     OW16759   0.040   3.619   4.625 -0.5438 -0.1379  0.1284
 1709SOL    HW116760   0.121   3.581   4.659 -0.4688  1.3411  1.5542
 1709SOL    HW216761   4.734   3.534   4.615  1.8321 -1.3739  0.5999
 1710SOL     OW16762   2.137   4.618   4.792  0.3679 -0.4896  0.5846
 1710SOL    HW116763   2.102   4.660   4.714 -0.0537  0.2936  1.2008
 1710SOL    HW216764   2.099   4.674   4.859 -3.3856  1.1438 -2.9751
 1711SOL     OW16765   1.758   1.452   3.681  0.3264  0.3132  0.2612
 1711SOL    HW116766   1.702   1.483   3.752  2.7846  1.0263  1.8979
 1711SOL    HW216767   1.769   1.533   3.632 -1.4311  0.8674  0.7839
 1712SOL     OW16768   0.131   2.179   7.801 -0.4052 -0.1331  0.4018
 1712SOL    HW116769   0.122   2.205   7.709  3.0781 -1.4074 -0.2990
 1712SOL    HW216770   0.090   2.095   7.822  0.0061 -0.6452 -0.8309
 1713SOL     OW16771   0.562   3.790   6.196 -0.0370  0.0437 -0.2401
 1713SOL    HW116772   0.495   3.818   6.258 -0.3572 -2.4548  0.5351
 1713SOL    HW216773   0.632   3.763   6.256 -0.5714  0.8417  0.7336
 1714SOL     OW16774   3.013   0.135   7.234 -0.6058  0.0234 -0.2473
 1714SOL    HW116775   3.002   0.161   7.325 -0.9637 -1.0355  0.0180
 1714SOL    HW216776   2.933   0.177   7.204 -0.7328 -0.4049 -0.5036
 1715SOL     OW16777   4.099   3.868   3.300  0.4232 -0.4140  0.2558
 1715SOL    HW116778   4.082   3.876   3.393  2.7366  0.1479  0.6484
 1715SOL    HW216779   4.060   3.782   3.288  1.1445 -0.7130  0.0199
 1716SOL     OW16780   2.633   1.184   6.339  0.2622  0.3190 -0.3155
 1716SOL    HW116781   2.550   1.229   6.319  0.5329  0.4858 -1.0955
 1716SOL    HW216782   2.611   1.105   6.290  2.1801  0.6893 -1.7654
 1717SOL     OW16783   4.556   1.505   8.517 -0.5055  0.0737 -0.2121
 1717SOL    HW116784   4.512   1.461   8.444  1.1474 -1.2903 -0.3998
 1717SOL    HW216785   4.613   1.566   8.470  2.7805 -2.6730  0.1133
 1718SOL     OW16786   0.630   3.558   9.637 -0.4325 -0.4730 -0.5335
 1718SOL    HW116787   0.606   3.481   9.586 -0.9846 -0.1695 -0.7408
 1718SOL    HW216788   0.619   3.638   9.585  0.4161  0.0299  0.0619
 1719SOL     OW16789   0.311   3.278   1.678 -0.0272  0.8352  0.3679
 1719SOL    HW116790   0.283   3.202   1.627 -0.6631  0.8652  0.6721
 1719SOL    HW216791   0.309   3.339   1.604 -0.8965 -0.6024 -0.7941
 1720SOL     OW16792   2.378   3.848  14.071  0.0436 -0.1089  0.0474
 1720SOL    HW116793   2.412   3.934  14.098  1.3740 -0.7613  0.4503
 1720SOL    HW216794   2.447   3.784  14.086  0.4381  0.3868  0.3695
 1721SOL     OW16795   4.696   1.485   3.821 -0.2087  0.4632  0.3035
 1721SOL    HW116796   4.721   1.509   3.732  0.1780  0.0963  0.3122
 1721SOL    HW216797   0.045   1.455   3.854  1.4196  1.0438 -3.3591
 1722SOL     OW16798   0.649   1.220   5.033  0.4870 -0.0396 -0.2598
 1722SOL    HW116799   0.716   1.284   5.012  1.9314 -1.1712  0.9008
 1722SOL    HW216800   0.573   1.260   4.991  0.0351 -0.4665  0.1407
 1723SOL     OW16801   4.508   0.764   6.150  0.3080 -0.0553 -0.0435
 1723SOL    HW116802   4.482   0.832   6.212  0.2838  1.0838 -1.3127
 1723SOL    HW216803   4.580   0.729   6.202  0.9735  0.5078 -0.5882
 1724SOL     OW16804   2.031   0.201   3.772 -0.0130 -0.1973  0.0283
 1724SOL    HW116805   2.039   0.105   3.775 -1.3783 -0.2722  1.3555
 1724SOL    HW216806   2.010   0.217   3.680 -0.6888  1.8582  0.5535
 1725SOL     OW16807   2.681   0.923   4.395  0.1196  0.6743 -0.0083
 1725SOL    HW116808   2.776   0.918   4.383  0.1568 -2.4503  1.3344
 1725SOL    HW216809   2.672   1.008   4.436  0.7013  1.6671 -1.9547
 1726SOL     OW16810   0.999   4.155   1.806  0.1535  0.1679  1.2740
 1726SOL    HW116811   0.947   4.172   1.884  0.5901  4.9265  0.5226
 1726SOL    HW216812   1.045   4.072   1.819  1.0312  0.5880  0.8787
 1727SOL     OW16813   1.764   4.529   3.803  0.0923 -0.1636  0.3533
 1727SOL    HW116814   1.756   4.618   3.837  3.4154 -0.0223  0.7354
 1727SOL    HW216815   1.858   4.518   3.794  0.2274  0.9714  0.4641
 1728SOL     OW16816   2.157   0.113   9.362 -0.0146 -0.2072  0.5802
 1728SOL    HW116817   2.211   0.137   9.437 -0.1623  1.9842 -0.0110
 1728SOL    HW216818   2.131   0.198   9.328  0.8455  0.0195  0.5113
 1729SOL     OW16819   0.594   0.581  17.182  0.0836  0.0094  0.4969
 1729SOL    HW116820   0.671   0.568  17.127 -1.2292 -0.5166 -1.2475
 1729SOL    HW216821   0.601   0.675  17.197  0.6257 -0.0767  0.7825
 1730SOL     OW16822   4.413   0.872   4.848 -0.4183  0.2882 -0.1620
 1730SOL    HW116823   4.484   0.925   4.885 -1.5160  0.0574  2.3264
 1730SOL    HW216824   4.420   0.797   4.907 -1.6402  1.7325  1.8510
 1731SOL     OW16825   3.723   1.807   8.934 -0.0904  0.1141  0.6664
 1731SOL    HW116826   3.818   1.813   8.927 -0.4366  1.3526 -3.1188
 1731SOL    HW216827   3.724   1.792   9.028 -2.1087  0.3618  0.7333
 1732SOL     OW16828   0.906   4.168   2.728  0.6149 -0.0485 -0.2091
 1732SOL    HW116829   0.853   4.103   2.774  1.6089 -0.2508  0.6433
 1732SOL    HW216830   0.902   4.240   2.790  0.8648 -1.6060  1.6163
 1733SOL     OW16831   4.376   4.281   8.022 -0.5035 -0.8695  0.5619
 1733SOL    HW116832   4.451   4.340   8.023 -1.2933  0.1304  1.9081
 1733SOL    HW216833   4.344   4.271   8.112 -0.6585 -0.3568  0.5638
 1734SOL     OW16834   4.390   1.847   5.706  1.0896  0.5260  0.7075
 1734SOL    HW116835   4.408   1.809   5.620 -1.2608 -0.5887  0.7055
 1734SOL    HW216836   4.308   1.804   5.731  1.6478 -0.6181  0.5715
 1735SOL     OW16837   1.170   4.016  11.733 -0.5418 -0.8130 -0.4255
 1735SOL    HW116838   1.148   4.042  11.643 -0.9010 -0.4099 -0.2216
 1735SOL    HW216839   1.227   4.087  11.760 -0.2176 -1.0241 -0.5536
 1736SOL     OW16840   3.142   1.714   3.005  0.4142 -0.2945  0.1019
 1736SOL    HW116841   3.092   1.771   2.947 -0.7500 -1.5259 -0.0969
 1736SOL    HW216842   3.085   1.720   3.082 -1.0343  0.5438 -1.0465
 1737SOL     OW16843   2.323   3.419   5.901 -0.1162  0.1748 -0.1843
 1737SOL    HW116844   2.402   3.473   5.892  1.0482 -1.4185  0.4014
 1737SOL    HW216845   2.358   3.330   5.908  0.1235  0.2541 -0.3550
 1738SOL     OW16846   1.491   0.317   5.262 -0.4848  0.2183 -0.1090
 1738SOL    HW116847   1.554   0.267   5.314  0.3020  0.7341 -0.5707
 1738SOL    HW216848   1.445   0.250   5.211  1.0040  0.1787 -1.4029
 1739SOL     OW16849   2.538   3.798   4.718 -0.3441 -0.2884  0.2911
 1739SOL    HW116850   2.612   3.738   4.725  1.4876  2.0106  0.6136
 1739SOL    HW216851   2.489   3.746   4.782 -0.5219 -2.3501 -1.5371
 1740SOL     OW16852   3.109   2.879   5.738  0.0217  0.2245 -0.2553
 1740SOL    HW116853   3.090   2.938   5.811 -3.3697  1.4866 -2.1513
 1740SOL    HW216854   3.196   2.852   5.764 -0.0758 -0.2234 -0.3869
 1741SOL     OW16855   1.611   0.145   7.764  0.1233  0.6381  0.2838
 1741SOL    HW116856   1.654   0.214   7.714  1.1478  0.0950  0.4074
 1741SOL    HW216857   1.631   0.164   7.856 -2.6423 -1.8992  1.4258
 1742SOL     OW16858   3.889   1.048   5.700 -0.3316 -0.5651 -0.1727
 1742SOL    HW116859   3.860   1.032   5.790 -3.9779 -0.4301 -1.3286
 1742SOL    HW216860   3.872   1.142   5.691  2.2966 -0.1072 -0.2836
 1743SOL     OW16861   1.648   2.985   1.677  1.0837  0.7486  0.1029
 1743SOL    HW116862   1.743   2.987   1.670  1.0870  0.0413  0.0137
 1743SOL    HW216863   1.621   3.003   1.587 -1.1073 -2.9317  0.0388
 1744SOL     OW16864   0.818   3.485   7.711 -0.6390  0.3635  0.3987
 1744SOL    HW116865   0.800   3.410   7.655 -0.7722 -0.0228  0.9578
 1744SOL    HW216866   0.735   3.489   7.758 -0.3174  2.5596  0.7584
 1745SOL     OW16867   0.919   3.592   8.149 -0.3393  0.0833  0.1799
 1745SOL    HW116868   0.850   3.582   8.083 -2.4923  1.0870  2.2961
 1745SOL    HW216869   0.899   3.522   8.210  1.7453  0.4854  1.3163
 1746SOL     OW16870   2.031   0.417   3.313  0.7400  0.1903 -0.4772
 1746SOL    HW116871   1.991   0.413   3.226 -1.9465  0.7453  0.7146
 1746SOL    HW216872   2.025   0.511   3.326  0.4501  0.2424 -1.0241
 1747SOL     OW16873   0.724   0.231   6.752 -0.2965  0.0467 -0.0988
 1747SOL    HW116874   0.694   0.226   6.843  0.6497 -1.9289  0.0991
 1747SOL    HW216875   0.815   0.252   6.769  0.8041 -2.0949 -3.3413
 1748SOL     OW16876   1.528   2.175  10.153  0.0945  0.4149 -0.3564
 1748SOL    HW116877   1.495   2.131  10.074  0.4964 -0.2741 -0.1323
 1748SOL    HW216878   1.620   2.149  10.150  0.3214  1.2776 -0.9350
 1749SOL     OW16879   1.687   2.162   7.320  0.0936  0.1962 -0.0311
 1749SOL    HW116880   1.592   2.165   7.331  0.1046  0.2673  0.0432
 1749SOL    HW216881   1.705   2.227   7.252  0.2136 -0.2384 -0.4115
 1750SOL     OW16882   3.725   0.901   7.070 -0.4104 -0.1932  0.1544
 1750SOL    HW116883   3.663   0.840   7.030 -1.2072 -0.7623  2.2287
 1750SOL    HW216884   3.711   0.868   7.159 -0.9675  0.3733  0.2745
 1751SOL     OW16885   2.083   2.192   8.691 -0.4844 -0.2001 -0.8610
 1751SOL    HW116886   2.102   2.283   8.667  0.7274 -0.3414 -0.4404
 1751SOL    HW216887   1.991   2.217   8.706 -1.1148 -3.1863  0.2825
 1752SOL     OW16888   1.371   2.780   4.417  0.7772 -0.1028 -0.1162
 1752SOL    HW116889   1.408   2.856   4.462 -1.3051 -0.5802  2.4283
 1752SOL    HW216890   1.375   2.810   4.326 -0.0341  1.9350  0.4950
 1753SOL     OW16891   4.535   1.831  17.242 -0.1738 -0.1659 -0.0662
 1753SOL    HW116892   4.517   1.824  17.336 -0.1849  1.7099  0.0833
 1753SOL    HW216893   4.631   1.836  17.237 -0.0412 -1.8656  0.6172
 1754SOL     OW16894   4.295   1.640   6.477 -0.6871  0.0907 -0.4604
 1754SOL    HW116895   4.313   1.734   6.472 -0.3501  0.0619  0.3003
 1754SOL    HW216896   4.339   1.621   6.559 -0.9962  0.6360 -0.1698
 1755SOL     OW16897   2.546   3.735   0.037 -0.2621  0.1445  0.1909
 1755SOL    HW116898   2.619   3.739  17.719 -1.0778 -1.0705 -0.8826
 1755SOL    HW216899   2.513   3.824   0.028 -0.6183 -0.1555 -1.6127
 1756SOL     OW16900   3.728   4.295  10.350  0.4492  0.0930 -0.5176
 1756SOL    HW116901   3.751   4.293  10.443  0.1181  0.4015 -0.4326
 1756SOL    HW216902   3.684   4.377  10.332  0.6441  0.3566  0.1945
 1757SOL     OW16903   3.639   2.900   4.157 -0.2371 -0.0818  0.3469
 1757SOL    HW116904   3.578   2.858   4.097 -0.0197 -0.6404  0.5154
 1757SOL    HW216905   3.679   2.823   4.198 -0.9217  0.7187  2.5082
 1758SOL     OW16906   3.334   2.577  16.590  0.5397  0.1519  0.1366
 1758SOL    HW116907   3.336   2.650  16.528 -0.7483 -1.8386 -2.2498
 1758SOL    HW216908   3.326   2.499  16.535 -0.6142  0.9838 -0.8801
 1759SOL     OW16909   2.877   3.917   6.343 -0.5738 -0.0526  0.5825
 1759SOL    HW116910   2.895   4.010   6.331  1.0531 -0.3196  0.9289
 1759SOL    HW216911   2.893   3.902   6.436  0.9955  2.3412  0.7161
 1760SOL     OW16912   4.012   1.755   8.195  0.2091 -0.2558  0.1016
 1760SOL    HW116913   4.014   1.745   8.290 -0.8125  0.6899  0.2298
 1760SOL    HW216914   3.951   1.686   8.172 -0.3346  0.6612 -1.1919
 1761SOL     OW16915   3.461   1.657   1.452 -0.0043 -0.1269 -0.5258
 1761SOL    HW116916   3.442   1.570   1.485  0.2774 -0.1828 -0.5103
 1761SOL    HW216917   3.554   1.654   1.430  0.5582 -0.2091  1.9235
 1762SOL     OW16918   1.488   0.696   8.343  0.4196  0.3829  0.0097
 1762SOL    HW116919   1.550   0.651   8.286 -1.1061  1.1504 -2.2605
 1762SOL    HW216920   1.400   0.669   8.314  0.2585  0.3953  0.4861
 1763SOL     OW16921   1.616   4.157   6.288 -0.2324  0.1368  0.2273
 1763SOL    HW116922   1.570   4.114   6.216 -1.3449  2.5357 -0.5044
 1763SOL    HW216923   1.544   4.212   6.315 -0.4215 -1.2817  2.5720
 1764SOL     OW16924   3.448   4.301   9.463  0.0068  0.3510  0.4791
 1764SOL    HW116925   3.423   4.234   9.527 -1.2052 -0.1587 -0.5239
 1764SOL    HW216926   3.543   4.291   9.463  0.0183  0.4650  2.3425
 1765SOL     OW16927   2.143   2.453  16.939  0.0050 -0.2901  0.0973
 1765SOL    HW116928   2.083   2.381  16.923 -2.1271  1.9850 -2.2380
 1765SOL    HW216929   2.082   2.524  16.918 -0.1493 -0.9969 -1.8856
 1766SOL     OW16930   2.552   1.402   8.708 -0.1643  0.3980  0.1593
 1766SOL    HW116931   2.619   1.465   8.682 -0.0059  1.0822  2.2568
 1766SOL    HW216932   2.485   1.462   8.740 -2.5181 -2.5764  0.7547
 1767SOL     OW16933   3.502   1.349   0.587  0.1052  0.4901  0.0322
 1767SOL    HW116934   3.562   1.307   0.648  0.2922  0.2668 -0.3021
 1767SOL    HW216935   3.433   1.381   0.646 -0.3187  0.4497 -0.4396
 1768SOL     OW16936   1.078   1.730   7.488 -0.1755  0.7557 -0.5847
 1768SOL    HW116937   1.170   1.753   7.473 -0.3748 -0.5841 -3.6674
 1768SOL    HW216938   1.041   1.795   7.549  1.5357  0.1124  1.1577
 1769SOL     OW16939   4.701   2.919   5.093 -0.5693 -0.2971 -0.0613
 1769SOL    HW116940   0.054   2.906   5.127 -0.1517  2.2806 -0.1603
 1769SOL    HW216941   4.677   2.829   5.074 -1.2750 -0.1412  0.1167
 1770SOL     OW16942   2.698   2.861   7.521  0.5248 -0.1950  0.2255
 1770SOL    HW116943   2.662   2.821   7.442  0.4250 -0.0753  0.2103
 1770SOL    HW216944   2.681   2.953   7.504  2.5857  0.2647  0.6487
 1771SOL     OW16945   3.216   1.533   8.980 -0.1549 -0.0173 -0.0136
 1771SOL    HW116946   3.188   1.623   8.997 -1.5036 -0.2916 -0.7128
 1771SOL    HW216947   3.207   1.528   8.884 -1.2080  2.4058 -0.0449
 1772SOL     OW16948   3.577   3.008   0.437  0.0478 -0.2984  0.1298
 1772SOL    HW116949   3.639   2.935   0.439  0.7633  0.3046 -0.0583
 1772SOL    HW216950   3.505   2.965   0.390  0.5869 -0.3626 -0.6363
 1773SOL     OW16951   0.109   1.598  17.043  0.6537 -0.1118  0.1824
 1773SOL    HW116952   0.165   1.577  17.117  2.3466  1.4480 -0.6569
 1773SOL    HW216953   0.130   1.517  16.996 -1.0200 -0.1947 -0.4349
 1774SOL     OW16954   0.375   2.655   3.405 -0.0462  0.0901  0.5066
 1774SOL    HW116955   0.365   2.566   3.372 -2.1588  0.7363 -0.6170
 1774SOL    HW216956   0.289   2.662   3.448 -0.2293 -1.3516  0.3842
 1775SOL     OW16957   3.350   2.125   8.510 -0.2220  0.1617  0.7329
 1775SOL    HW116958   3.321   2.037   8.537  0.7832 -1.1661 -2.5473
 1775SOL    HW216959   3.366   2.161   8.598  2.2508  0.2174  0.2518
 1776SOL     OW16960   4.630   3.650  16.867  0.4135  0.3376 -0.4140
 1776SOL    HW116961   4.658   3.738  16.844  0.0932  0.9497  1.5211
 1776SOL    HW216962   4.621   3.626  16.775  0.1522 -0.5885 -0.1482
 1777SOL     OW16963   4.427   3.271   3.285  0.2766  0.4507  0.0549
 1777SOL    HW116964   4.473   3.332   3.227 -0.6158  1.1511  0.0888
 1777SOL    HW216965   4.493   3.241   3.347  0.4024 -1.0502 -0.8098
 1778SOL     OW16966   3.373   3.523   2.882 -0.0619  0.4674  0.3902
 1778SOL    HW116967   3.294   3.543   2.832  1.1407  2.9725 -0.5280
 1778SOL    HW216968   3.434   3.521   2.808  1.6234  0.9174  1.7684
 1779SOL     OW16969   0.727   3.948  10.436 -0.2456  0.2000 -0.3858
 1779SOL    HW116970   0.792   3.920  10.500  0.2645  1.3212 -0.4002
 1779SOL    HW216971   0.764   4.026  10.394  2.5033 -1.5072 -1.1142
 1780SOL     OW16972   1.759   2.041   5.144 -0.0884 -0.3597  0.4415
 1780SOL    HW116973   1.752   2.125   5.190 -0.2715  0.0854 -0.4107
 1780SOL    HW216974   1.833   2.048   5.084  0.8419 -0.7470  1.5419
 1781SOL     OW16975   3.949   2.668   3.729 -0.3041  0.8064 -0.0318
 1781SOL    HW116976   3.878   2.656   3.666  0.1531 -2.6020  0.1132
 1781SOL    HW216977   3.969   2.757   3.700  1.9685  0.0575 -0.7282
 1782SOL     OW16978   1.325   3.502   5.529  0.1880 -0.6273  0.3445
 1782SOL    HW116979   1.414   3.522   5.559 -0.3931  1.7275  0.5349
 1782SOL    HW216980   1.336   3.418   5.486 -1.2846 -0.0616 -1.1115
 1783SOL     OW16981   1.024   2.017   1.777 -0.1516  0.0610 -0.2859
 1783SOL    HW116982   1.022   2.101   1.823  0.6568 -0.7319  1.2018
 1783SOL    HW216983   1.111   1.985   1.798 -0.4563 -2.6090 -3.0703
 1784SOL     OW16984   4.705   3.256   5.278  0.7072 -0.6409  0.2936
 1784SOL    HW116985   4.695   3.300   5.362  1.9136  0.6158 -0.2117
 1784SOL    HW216986   0.056   3.217   5.284 -0.3649 -3.2198 -0.6846
 1785SOL     OW16987   1.037   1.121   3.327  0.0672  0.1336 -0.0485
 1785SOL    HW116988   0.988   1.189   3.374 -0.1223 -0.9206  1.2730
 1785SOL    HW216989   1.066   1.169   3.249  1.2237  0.8221  0.8090
 1786SOL     OW16990   3.321   2.876   2.927  0.8493 -0.0062  0.1462
 1786SOL    HW116991   3.394   2.909   2.980  0.4131 -0.5525  1.1016
 1786SOL    HW216992   3.295   2.953   2.877 -0.9744 -0.1053  0.9416
 1787SOL     OW16993   4.071   0.465  10.400  0.2770 -0.3784 -0.5041
 1787SOL    HW116994   4.021   0.393  10.360 -0.4238 -1.1380  1.7219
 1787SOL    HW216995   4.156   0.422  10.405  0.0245 -0.7829  0.3391
 1788SOL     OW16996   3.531   1.039   2.792 -0.2977  0.3568 -0.1116
 1788SOL    HW116997   3.617   1.060   2.828 -0.0186  1.4929 -1.4549
 1788SOL    HW216998   3.463   1.066   2.853  0.8354 -0.6457  1.6114
 1789SOL     OW16999   0.383   3.262   4.645  0.1444  0.3663  0.7786
 1789SOL    HW117000   0.427   3.178   4.655 -2.2590 -0.8318  1.2580
 1789SOL    HW217001   0.412   3.270   4.554 -1.5805  0.5440  0.2322
 1790SOL     OW17002   4.525   2.037   0.114 -0.2698  0.3840  0.1970
 1790SOL    HW117003   4.582   2.054   0.039 -0.6171  0.2170 -0.1043
 1790SOL    HW217004   4.591   2.013   0.179  0.3307 -0.5191 -0.7414
 1791SOL     OW17005   2.609   3.319   9.120  0.3435  0.1809  0.2158
 1791SOL    HW117006   2.629   3.302   9.028 -0.7159  2.2101 -0.3967
 1791SOL    HW217007   2.632   3.411   9.129  0.6191  0.0010  1.3798
 1792SOL     OW17008   4.206   1.582   2.349 -0.0247  0.3081 -0.3002
 1792SOL    HW117009   4.140   1.554   2.413 -0.3057 -0.7543 -1.0374
 1792SOL    HW217010   4.176   1.540   2.268 -1.3977  1.5774 -0.4394
 1793SOL     OW17011   1.778   1.109   8.447 -0.2173  0.3511 -0.0299
 1793SOL    HW117012   1.829   1.189   8.462 -0.5222  0.3336  1.0547
 1793SOL    HW217013   1.769   1.110   8.352  1.2643  0.5813 -0.1727
 1794SOL     OW17014   4.483   4.151   6.113  0.4341  0.2926 -0.0694
 1794SOL    HW117015   4.420   4.210   6.073 -1.0733 -0.2051  1.5948
 1794SOL    HW217016   4.519   4.200   6.187  1.3190 -3.3625  1.9180
 1795SOL     OW17017   0.089   1.448  17.661  0.2173 -0.1587 -0.0635
 1795SOL    HW117018   0.149   1.483  17.596 -0.6799  1.1911 -0.1728
 1795SOL    HW217019   0.030   1.523  17.665  0.3927  0.0542 -1.6989
 1796SOL     OW17020   0.842   1.312   0.310 -0.0572 -0.2110  0.6228
 1796SOL    HW117021   0.801   1.226   0.323 -0.0701 -0.4811 -1.1626
 1796SOL    HW217022   0.769   1.355   0.266 -0.5416 -1.1193  0.5263
 1797SOL     OW17023   4.325   0.407   1.433  0.4073 -0.0874 -0.2726
 1797SOL    HW117024   4.290   0.455   1.358 -1.9079  1.2808  1.6876
 1797SOL    HW217025   4.252   0.344   1.439  0.5429 -0.2041  0.2225
 1798SOL     OW17026   3.937   3.215   5.300 -0.5477  0.2391 -0.7159
 1798SOL    HW117027   3.851   3.175   5.312 -0.8118  0.7828 -0.7721
 1798SOL    HW217028   3.957   3.228   5.393 -2.8816  1.6126 -0.3920
 1799SOL     OW17029   2.356   2.250   2.763 -0.3840 -0.2504  0.6193
 1799SOL    HW117030   2.294   2.318   2.735  0.3099 -0.3743 -1.2198
 1799SOL    HW217031   2.336   2.173   2.710 -1.0711 -0.3936  1.0887
 1800SOL     OW17032   0.142   0.319  15.126 -0.1764 -0.7516 -0.0956
 1800SOL    HW117033   0.225   0.339  15.169 -2.1443  0.1202  3.2632
 1800SOL    HW217034   0.129   0.231  15.162  2.4505 -1.3145 -0.5042
 1801SOL     OW17035   0.297   4.539   6.729  0.0822 -0.1299 -0.1276
 1801SOL    HW117036   0.222   4.513   6.782  0.9490 -1.6345  0.3627
 1801SOL    HW217037   0.257   4.567   6.647  2.0002 -1.6579 -1.5738
 1802SOL     OW17038   3.054   4.278   9.619 -0.1040  0.0490 -0.7407
 1802SOL    HW117039   2.980   4.312   9.568 -1.8310  0.8714  2.2812
 1802SOL    HW217040   3.072   4.358   9.668 -2.1723  0.5689 -0.8125
 1803SOL     OW17041   1.844   2.310  12.844 -0.7209  1.0719 -0.1735
 1803SOL    HW117042   1.932   2.347  12.834  0.0506 -1.3220 -2.2274
 1803SOL    HW217043   1.853   2.221  12.811 -1.8011  0.6777  0.5989
 1804SOL     OW17044   0.986   4.235   8.403 -0.3401  0.5449  0.2868
 1804SOL    HW117045   0.940   4.168   8.455 -1.2957  2.3069  1.7176
 1804SOL    HW217046   1.049   4.170   8.371 -0.5643  1.4336 -1.9325
 1805SOL     OW17047   3.582   2.331   5.280  0.3394 -0.0541 -0.3459
 1805SOL    HW117048   3.633   2.316   5.200 -0.8862 -1.9797 -0.7624
 1805SOL    HW217049   3.633   2.391   5.334  0.9871 -1.2078  0.3098
 1806SOL     OW17050   0.707   0.556   9.234  0.1531 -0.3570  0.4778
 1806SOL    HW117051   0.744   0.468   9.236 -2.6248 -1.6075 -3.3032
 1806SOL    HW217052   0.615   0.546   9.208  0.2455  1.2732 -0.4458
 1807SOL     OW17053   1.541   4.475   2.733  0.0887  0.1672 -0.3024
 1807SOL    HW117054   1.447   4.489   2.736  0.2111  0.8185  0.6426
 1807SOL    HW217055   1.539   4.397   2.678 -3.1131 -0.8372  1.2564
 1808SOL     OW17056   4.116   4.189   7.420 -0.0722  0.1519 -0.5491
 1808SOL    HW117057   4.035   4.173   7.468 -0.4139  2.9412 -0.1918
 1808SOL    HW217058   4.178   4.142   7.475 -0.1218  1.1265  0.3379
 1809SOL     OW17059   3.951   2.159   4.636  0.0573 -0.0370  0.2998
 1809SOL    HW117060   4.006   2.225   4.593 -1.4253  1.1143  0.1700
 1809SOL    HW217061   3.891   2.206   4.693 -0.0667  1.0304 -0.7031
 1810SOL     OW17062   3.304   1.317  10.942 -0.0856 -0.3252 -0.6220
 1810SOL    HW117063   3.266   1.386  10.997 -1.9087 -1.0680 -0.9528
 1810SOL    HW217064   3.254   1.338  10.863 -0.9161 -2.2056 -0.5760
 1811SOL     OW17065   1.163   0.363   7.570  0.0387 -0.3440  0.3651
 1811SOL    HW117066   1.091   0.324   7.619  0.0806  0.4109  1.0335
 1811SOL    HW217067   1.223   0.332   7.638  2.2973  1.1171 -0.9324
 1812SOL     OW17068   4.441   0.519   6.524  0.3541 -0.1757  0.8812
 1812SOL    HW117069   4.393   0.537   6.605 -2.3082 -0.1405 -0.6916
 1812SOL    HW217070   4.522   0.478   6.555  0.5632 -1.3635 -1.2268
 1813SOL     OW17071   1.960   2.214   2.750  0.3852  0.3895 -0.5441
 1813SOL    HW117072   1.909   2.231   2.829 -2.5295 -1.0596 -2.0917
 1813SOL    HW217073   2.026   2.154   2.786  0.1347  0.6876  0.4043
 1814SOL     OW17074   0.597   4.014   3.326  0.2166  0.0663  1.0509
 1814SOL    HW117075   0.584   3.993   3.418 -0.2606  0.0413  0.9817
 1814SOL    HW217076   0.583   4.109   3.324 -2.4990 -0.2992  1.9138
 1815SOL     OW17077   2.402   0.662   1.347  0.2252  0.1568  0.4206
 1815SOL    HW117078   2.473   0.721   1.323 -0.7005  0.9723 -0.2560
 1815SOL    HW217079   2.426   0.649   1.439 -2.9974 -1.7129  0.9878
 1816SOL     OW17080   0.326   0.975   5.372  0.2680 -0.0272  0.2008
 1816SOL    HW117081   0.294   0.921   5.444  0.3282 -0.5876 -0.1925
 1816SOL    HW217082   0.421   0.974   5.383  0.1959  1.2080  0.9860
 1817SOL     OW17083   1.009   1.918   6.463 -0.2159  0.1543 -0.6811
 1817SOL    HW117084   0.939   1.976   6.431  0.3873 -0.3331 -2.9227
 1817SOL    HW217085   1.027   1.866   6.385 -1.4119 -1.1740 -0.0695
 1818SOL     OW17086   1.591   2.385   7.597  0.0822  0.1349  0.1558
 1818SOL    HW117087   1.615   2.439   7.521  0.9787 -1.3399 -0.6180
 1818SOL    HW217088   1.497   2.377   7.586  0.0541 -1.2338  1.3694
 1819SOL     OW17089   4.545   1.418   2.308  0.3734 -0.1938 -0.2782
 1819SOL    HW117090   4.503   1.429   2.393  0.4135 -1.4629 -0.1000
 1819SOL    HW217091   4.591   1.502   2.312  0.2177 -0.0521 -1.4380
 1820SOL     OW17092   2.155   4.141  15.482 -0.0375  0.8856 -0.0735
 1820SOL    HW117093   2.123   4.165  15.395  1.7524  1.2585 -0.6264
 1820SOL    HW217094   2.234   4.194  15.473  0.6856  0.4035  3.2517
 1821SOL     OW17095   0.996   0.987   9.763 -0.1314 -0.2398 -0.5263
 1821SOL    HW117096   1.057   0.914   9.774 -1.2070 -0.9040  1.0893
 1821SOL    HW217097   0.920   0.969   9.819  0.8526 -1.3688  0.4653
 1822SOL     OW17098   0.096   3.177  17.004  1.2585 -0.1488  0.2514
 1822SOL    HW117099   0.032   3.152  17.071 -0.3778 -1.4115 -1.7771
 1822SOL    HW217100   0.044   3.241  16.957  1.5365 -0.3838 -0.3706
 1823SOL     OW17101   2.727   0.336   9.787 -0.2935  0.5296  0.1393
 1823SOL    HW117102   2.819   0.309   9.784  0.2992  2.6517 -0.9877
 1823SOL    HW217103   2.725   0.405   9.720  1.3247  1.1440  0.7230
 1824SOL     OW17104   0.871   1.207   3.592  0.6235 -0.3778 -0.5442
 1824SOL    HW117105   0.828   1.140   3.645  1.4179 -0.3635  0.1235
 1824SOL    HW217106   0.820   1.199   3.512 -0.2700  2.3482 -0.2358
 1825SOL     OW17107   4.305   2.607   3.503  0.1341 -0.5730  0.1430
 1825SOL    HW117108   4.275   2.559   3.581 -1.1079 -0.1106 -0.0398
 1825SOL    HW217109   4.301   2.702   3.513 -1.7805 -0.5424 -0.9621
 1826SOL     OW17110   3.990   0.754  12.053  0.4148  0.4536 -0.7288
 1826SOL    HW117111   4.071   0.746  12.104 -0.0382  1.2565  0.1102
 1826SOL    HW217112   3.930   0.723  12.120 -0.0587 -1.2598 -1.9530
 1827SOL     OW17113   2.920   1.915   0.964  0.0657  0.5201  0.4800
 1827SOL    HW117114   2.955   1.848   1.023  1.2148 -0.4841 -1.3672
 1827SOL    HW217115   2.826   1.895   0.970  0.1628 -0.3672 -0.9155
 1828SOL     OW17116   0.345   3.163   7.215 -0.2620 -0.3356  0.2601
 1828SOL    HW117117   0.318   3.195   7.301 -0.9289 -0.2143  0.0022
 1828SOL    HW217118   0.317   3.072   7.221  0.8986 -0.5322  2.6196
 1829SOL     OW17119   0.760   3.131   9.629  0.8062 -0.1436 -0.1033
 1829SOL    HW117120   0.853   3.110   9.624  0.5963 -1.2096  0.3891
 1829SOL    HW217121   0.771   3.194   9.700 -0.9905 -0.8985  0.8404
 1830SOL     OW17122   1.520   3.875   3.194 -0.2123  0.2195 -0.0874
 1830SOL    HW117123   1.454   3.879   3.263  0.6293  1.2512  0.6520
 1830SOL    HW217124   1.602   3.887   3.242 -0.6286  2.2378  0.0778
 1831SOL     OW17125   1.400   2.850  14.009  0.6790 -0.5484  0.1700
 1831SOL    HW117126   1.398   2.768  14.058 -0.7480 -0.4174  0.3186
 1831SOL    HW217127   1.317   2.844  13.961  0.5025  0.5814  0.3236
 1832SOL     OW17128   2.732   3.660   8.223  0.4632 -0.1472 -0.0201
 1832SOL    HW117129   2.711   3.570   8.198  0.8904 -0.9737  2.6369
 1832SOL    HW217130   2.660   3.679   8.284 -0.9718  2.6185 -2.5797
 1833SOL     OW17131   0.552   2.041   1.242 -0.3036  0.3466  0.3221
 1833SOL    HW117132   0.620   2.103   1.269  0.5936 -0.0849 -0.9585
 1833SOL    HW217133   0.477   2.057   1.299 -1.3130 -2.2404 -0.2586
 1834SOL     OW17134   4.535   2.182   7.759  0.2313 -0.9544  0.0066
 1834SOL    HW117135   4.514   2.254   7.818  0.4429  0.5681 -1.7570
 1834SOL    HW217136   4.563   2.126   7.831  1.4363 -0.4451 -0.0633
 1835SOL     OW17137   4.532   2.969   0.643 -0.0963  0.4097 -0.0658
 1835SOL    HW117138   4.572   2.985   0.557  1.2293 -2.4062 -0.0024
 1835SOL    HW217139   4.445   2.991   0.609  0.6773  2.8664 -0.4581
 1836SOL     OW17140   0.091   1.372   3.153  0.9955 -0.1337  0.2236
 1836SOL    HW117141   0.131   1.285   3.153  0.4683 -0.3713  0.8882
 1836SOL    HW217142   0.003   1.335   3.142  0.3720  0.7460  2.1829
 1837SOL     OW17143   2.098   4.672   8.747  0.3779  0.4615  0.4092
 1837SOL    HW117144   2.173   4.718   8.786  0.7594  1.3173 -1.3161
 1837SOL    HW217145   2.049   4.668   8.829  0.9809 -2.0500  0.6249
 1838SOL     OW17146   0.657   2.696   5.656 -0.8795 -0.1816  0.0432
 1838SOL    HW117147   0.676   2.784   5.687  0.5936 -1.0660  1.6297
 1838SOL    HW217148   0.563   2.701   5.638 -2.0225  0.3118  6.3344
 1839SOL     OW17149   3.380   2.590  14.808  0.0441  0.0728 -0.1071
 1839SOL    HW117150   3.439   2.514  14.810  0.4620  0.3866 -0.4498
 1839SOL    HW217151   3.400   2.619  14.719 -2.2354  2.3085  0.1562
 1840SOL     OW17152   4.562   3.886  10.117 -0.3617  0.1056  0.0915
 1840SOL    HW117153   4.590   3.976  10.100 -0.8754  0.0627 -0.9536
 1840SOL    HW217154   4.571   3.844  10.032  0.9636  1.4114 -0.4259
 1841SOL     OW17155   2.941   1.333  11.896  0.0368  0.0515  0.4784
 1841SOL    HW117156   2.990   1.253  11.878  3.1842  2.3761 -1.3457
 1841SOL    HW217157   2.861   1.314  11.848  0.2242  1.6811 -0.4909
 1842SOL     OW17158   1.925   1.517   9.099  0.1543  0.3788 -0.3795
 1842SOL    HW117159   1.910   1.610   9.082  0.3429  0.3431 -0.7425
 1842SOL    HW217160   1.916   1.486   9.009 -1.3197 -1.6372  0.4659
 1843SOL     OW17161   2.994   1.191   5.509  0.1105 -0.2523  0.5543
 1843SOL    HW117162   2.928   1.127   5.483  1.3163 -0.5036 -1.8426
 1843SOL    HW217163   2.944   1.272   5.515 -0.8692 -0.7440 -1.1084
 1844SOL     OW17164   0.126   1.265   5.151 -0.1682  0.2910 -0.2981
 1844SOL    HW117165   0.064   1.194   5.163  0.4067  0.1135  1.7701
 1844SOL    HW217166   0.089   1.306   5.074  2.4820 -1.6591 -2.6228
 1845SOL     OW17167   3.683   1.602   3.564  0.1410  0.0835  0.2920
 1845SOL    HW117168   3.700   1.525   3.619  1.1549 -0.0933 -0.2712
 1845SOL    HW217169   3.765   1.643   3.537 -1.3618  3.1009  0.3525
 1846SOL     OW17170   3.822   0.547   8.863 -0.3187  0.4145  0.6120
 1846SOL    HW117171   3.878   0.470   8.858 -2.0568 -0.6574 -2.3202
 1846SOL    HW217172   3.887   0.616   8.875 -1.2553  0.9684  2.5076
 1847SOL     OW17173   3.409   0.724   9.778  0.3949 -0.0403 -0.2864
 1847SOL    HW117174   3.347   0.660   9.812  1.3894 -1.7444 -1.6902
 1847SOL    HW217175   3.483   0.668   9.754  0.3783 -0.2160  0.0766
 1848SOL     OW17176   3.818   0.081  12.048  0.3628 -0.0040  0.3642
 1848SOL    HW117177   3.880   0.092  12.121 -0.0947  2.5408  0.3489
 1848SOL    HW217178   3.879   0.060  11.977 -1.0909  0.4506 -0.9842
 1849SOL     OW17179   3.090   1.753  15.167 -0.6414  0.1767  0.5719
 1849SOL    HW117180   3.011   1.804  15.150 -1.2636 -1.6483 -1.9797
 1849SOL    HW217181   3.060   1.663  15.160  1.9774 -0.6120 -0.6814
 1850SOL     OW17182   1.877   3.830   6.486 -0.0477  0.2488 -0.6954
 1850SOL    HW117183   1.890   3.738   6.460 -1.2757 -0.5796  1.6392
 1850SOL    HW217184   1.826   3.814   6.565  2.2976  3.0112  1.3534
 1851SOL     OW17185   0.278   0.161  10.793 -0.2728  0.6001 -0.4712
 1851SOL    HW117186   0.316   0.172  10.706 -0.8000  1.4478 -0.5903
 1851SOL    HW217187   0.188   0.144  10.766 -0.0766 -1.2987  0.0694
 1852SOL     OW17188   4.256   4.664  11.603 -0.3070 -0.3519  0.1660
 1852SOL    HW117189   4.331   4.605  11.619 -1.8363 -1.4541  3.2269
 1852SOL    HW217190   4.234   4.642  11.513 -1.4022 -1.1641  0.6394
 1853SOL     OW17191   0.998   0.570   1.649  0.4105 -0.0472  0.1864
 1853SOL    HW117192   1.056   0.597   1.577  1.2939 -0.5527  0.7033
 1853SOL    HW217193   1.059   0.530   1.711  1.4475  0.4897 -0.4787
 1854SOL     OW17194   1.337   0.091  11.735 -0.3095 -0.4146  0.1431
 1854SOL    HW117195   1.324   0.180  11.703  1.1333  0.0582  0.8888
 1854SOL    HW217196   1.251   0.048  11.736  0.2802 -1.5234  2.2534
 1855SOL     OW17197   2.356   1.141  15.909 -0.1336  0.4173 -0.6836
 1855SOL    HW117198   2.280   1.115  15.856  0.9354  0.4499 -2.2424
 1855SOL    HW217199   2.317   1.118  15.993  0.4147  2.1246  0.0337
 1856SOL     OW17200   2.820   1.558   5.023  0.6449 -1.0608  0.2157
 1856SOL    HW117201   2.761   1.561   5.099  2.1570 -3.2850  1.4654
 1856SOL    HW217202   2.830   1.651   5.001 -0.3902 -0.6560  1.4003
 1857SOL     OW17203   1.856   0.297   8.983 -0.3357  0.5040 -0.3977
 1857SOL    HW117204   1.813   0.304   8.898 -1.8117  0.2375  0.3251
 1857SOL    HW217205   1.785   0.284   9.045  0.6986 -1.8434  0.3182
 1858SOL     OW17206   2.594   3.924   3.946 -0.5102 -0.5865 -0.3763
 1858SOL    HW117207   2.627   3.898   4.031 -1.0550 -0.5672 -0.1582
 1858SOL    HW217208   2.504   3.945   3.970  0.9582  2.7729  2.1000
 1859SOL     OW17209   4.424   4.349   2.543 -0.2386  0.0468 -0.2967
 1859SOL    HW117210   4.354   4.371   2.605 -1.0036 -3.0633 -0.0452
 1859SOL    HW217211   4.477   4.428   2.549 -3.1500  1.8852  0.8168
 1860SOL     OW17212   2.781   1.017   6.892  0.4707  0.2107  0.0881
 1860SOL    HW117213   2.802   0.994   6.983 -1.5809  3.1459  1.2949
 1860SOL    HW217214   2.686   1.009   6.886  0.5544  0.2619 -1.1888
 1861SOL     OW17215   4.700   0.926   1.264 -0.6489 -0.5522  0.7025
 1861SOL    HW117216   0.018   0.880   1.329  0.7504 -0.7243 -0.6074
 1861SOL    HW217217   4.696   1.016   1.298  1.8481  0.0233 -0.5312
 1862SOL     OW17218   0.228   3.785   2.942 -0.4481 -0.0513  0.7582
 1862SOL    HW117219   0.221   3.741   3.027 -1.9267  1.6023  1.4907
 1862SOL    HW217220   0.287   3.857   2.962 -0.0814 -0.3672  0.8082
 1863SOL     OW17221   0.747   2.319   6.471 -0.0693 -0.5389  0.4765
 1863SOL    HW117222   0.690   2.364   6.408  0.0323 -1.5586 -0.3525
 1863SOL    HW217223   0.824   2.375   6.464 -0.1713 -0.4874 -0.2551
 1864SOL     OW17224   0.931   2.085   4.794 -0.4931  0.0420 -0.4681
 1864SOL    HW117225   0.920   2.174   4.828 -0.0348 -0.6709  1.5737
 1864SOL    HW217226   0.916   2.094   4.700 -1.5938 -1.2717 -0.4193
 1865SOL     OW17227   1.057   4.545  16.865 -0.6278 -0.7738  0.2545
 1865SOL    HW117228   0.992   4.602  16.906 -0.9070 -0.5271 -0.5129
 1865SOL    HW217229   1.026   4.459  16.893 -0.7126 -0.2686  1.6883
 1866SOL     OW17230   0.935   3.777   7.829 -0.0818 -0.0262  0.0444
 1866SOL    HW117231   0.865   3.765   7.894  0.7342 -0.5856  0.8092
 1866SOL    HW217232   0.912   3.701   7.775 -2.6815  0.7801  0.0052
 1867SOL     OW17233   0.004   2.983   5.968  0.0366 -0.0563  0.0976
 1867SOL    HW117234   0.019   2.919   6.038 -1.0220  0.1414  0.4996
 1867SOL    HW217235   0.009   3.056   6.029 -1.3135  1.7478 -1.9541
 1868SOL     OW17236   2.349   3.495  10.371 -0.1155 -0.2729  0.0922
 1868SOL    HW117237   2.262   3.523  10.343 -0.8381 -0.1342  2.4862
 1868SOL    HW217238   2.405   3.552  10.318 -1.0639  0.9724  0.4510
 1869SOL     OW17239   0.673   3.961   4.909  0.1776 -0.0428  0.7092
 1869SOL    HW117240   0.755   3.962   4.959  0.0625 -2.8662  0.9621
 1869SOL    HW217241   0.681   3.884   4.852 -0.1201  0.7115 -0.3468
 1870SOL     OW17242   0.669   4.392   0.965 -0.1566 -0.6385 -0.1769
 1870SOL    HW117243   0.687   4.376   1.057 -1.0162  0.5476  0.1902
 1870SOL    HW217244   0.591   4.338   0.949 -0.6394  0.1502 -0.4787
 1871SOL     OW17245   0.883   3.084   4.415 -0.0662  0.1243 -0.3230
 1871SOL    HW117246   0.853   3.041   4.335 -0.5523  1.1887 -0.7144
 1871SOL    HW217247   0.958   3.028   4.437  0.2395  0.2790 -0.9658
 1872SOL     OW17248   2.156   2.634   3.621 -0.0035  0.1362 -0.0674
 1872SOL    HW117249   2.083   2.666   3.673  0.6778  0.4846  0.6723
 1872SOL    HW217250   2.217   2.707   3.631 -0.2304  0.2403  0.5876
 1873SOL     OW17251   0.076   0.958  11.284 -0.1024 -0.6219 -0.0454
 1873SOL    HW117252   0.031   0.894  11.340  1.5686  0.2845  2.3706
 1873SOL    HW217253   0.156   0.965  11.337  0.5248  1.4456 -1.2379
 1874SOL     OW17254   0.256   1.570   7.958  0.0520  0.2997  0.2067
 1874SOL    HW117255   0.211   1.622   8.024 -0.4695  0.4817 -0.2923
 1874SOL    HW217256   0.343   1.556   7.995 -1.3672 -1.1399  2.9517
 1875SOL     OW17257   0.336   2.426   8.950  0.5478  0.6374 -0.0415
 1875SOL    HW117258   0.339   2.515   8.985 -1.4763  1.2338 -1.4033
 1875SOL    HW217259   0.367   2.380   9.029 -0.2651 -0.8760 -0.6049
 1876SOL     OW17260   3.155   2.494   0.963 -0.4432 -0.2923  0.3680
 1876SOL    HW117261   3.108   2.430   0.909  1.4105  0.1290 -1.7189
 1876SOL    HW217262   3.245   2.496   0.931  0.3331  0.9094  2.6355
 1877SOL     OW17263   2.376   3.310   1.236  0.0947  0.0291  0.0006
 1877SOL    HW117264   2.298   3.304   1.181 -0.8482  1.4111  1.1966
 1877SOL    HW217265   2.403   3.219   1.221  1.4721  0.1068  2.0805
 1878SOL     OW17266   0.287   2.253   1.557 -0.4618  0.3652 -0.5176
 1878SOL    HW117267   0.316   2.324   1.499  0.3279  0.3079 -0.1989
 1878SOL    HW217268   0.290   2.178   1.497  1.9755 -0.2228  0.3398
 1879SOL     OW17269   3.852   3.312   7.326 -0.4487  0.6066 -0.2617
 1879SOL    HW117270   3.773   3.355   7.358  0.4256  0.4460  2.1246
 1879SOL    HW217271   3.885   3.373   7.260  1.1824  0.7738  0.6976
 1880SOL     OW17272   0.549   0.395  16.846  0.2443 -0.0237 -0.2481
 1880SOL    HW117273   0.462   0.431  16.863  0.3386  0.1265 -0.0873
 1880SOL    HW217274   0.546   0.329  16.915  1.7839  1.1877  0.9982
 1881SOL     OW17275   1.262   3.508  16.066 -0.2544  0.0475 -0.0046
 1881SOL    HW117276   1.255   3.417  16.096 -0.7359 -0.7560 -2.6001
 1881SOL    HW217277   1.340   3.532  16.117 -0.4177 -0.2890  0.4091
 1882SOL     OW17278   0.991   0.577   7.480  0.1491  0.0520 -0.3081
 1882SOL    HW117279   0.951   0.579   7.567  2.3315 -1.4782  0.7263
 1882SOL    HW217280   1.049   0.504   7.503  0.7562 -0.4899 -3.5916
 1883SOL     OW17281   3.984   1.548   1.473  0.3839  0.5731  0.1576
 1883SOL    HW117282   4.054   1.595   1.518 -1.1577  0.9219  2.1592
 1883SOL    HW217283   4.035   1.517   1.398  0.9325 -1.8727  1.5538
 1884SOL     OW17284   1.042   2.474   8.081 -0.2154  0.4278 -0.1648
 1884SOL    HW117285   0.951   2.484   8.051  0.0252  1.5304 -0.5037
 1884SOL    HW217286   1.076   2.402   8.028  1.6055  2.7180 -2.0784
 1885SOL     OW17287   1.721   0.599   5.859  0.4643 -0.6024  0.4173
 1885SOL    HW117288   1.659   0.659   5.899 -0.6492 -2.4165  1.3924
 1885SOL    HW217289   1.802   0.592   5.910  2.3776  0.6539 -2.4374
 1886SOL     OW17290   2.647   1.874   3.490 -0.1014 -0.3110 -0.0172
 1886SOL    HW117291   2.674   1.931   3.419 -1.6222 -0.2420 -0.5429
 1886SOL    HW217292   2.608   1.937   3.552 -1.7544 -0.6818 -0.6663
 1887SOL     OW17293   2.748   4.229  12.565  0.0722  0.2271 -0.3680
 1887SOL    HW117294   2.655   4.246  12.584  1.0136  3.2391  1.4554
 1887SOL    HW217295   2.778   4.238  12.656 -1.1149  1.7166 -0.1287
 1888SOL     OW17296   1.444   2.489   5.367 -0.3161 -0.2395 -0.1058
 1888SOL    HW117297   1.394   2.449   5.438 -2.6454  1.1767 -0.9705
 1888SOL    HW217298   1.403   2.454   5.288 -0.2355  0.6957 -0.5604
 1889SOL     OW17299   0.435   2.579   7.351  0.0353  0.0124 -0.4163
 1889SOL    HW117300   0.518   2.542   7.320 -0.0887 -2.4396  2.1574
 1889SOL    HW217301   0.417   2.641   7.280 -1.5452  0.3060  0.2367
 1890SOL     OW17302   1.308   3.025   6.584  0.3773  0.2542 -0.3217
 1890SOL    HW117303   1.372   3.095   6.596 -0.4748  1.3867 -2.4256
 1890SOL    HW217304   1.240   3.078   6.543  1.7550  1.5074 -0.9721
 1891SOL     OW17305   0.054   1.610   6.797  0.4612 -0.4082  0.3195
 1891SOL    HW117306   0.120   1.661   6.751 -0.2379 -0.3949 -0.6605
 1891SOL    HW217307   0.029   1.662   6.873  1.8522 -2.2193  2.0249
 1892SOL     OW17308   0.075   1.790   2.443  0.5104 -0.1196  0.0129
 1892SOL    HW117309   0.047   1.787   2.534 -1.1844 -0.5560 -0.5152
 1892SOL    HW217310   0.140   1.860   2.435  0.8462 -0.4798 -0.4800
 1893SOL     OW17311   0.013   0.289   7.950  0.0868 -0.2315 -0.0319
 1893SOL    HW117312   4.707   0.323   8.029 -0.7194  1.1077 -1.0353
 1893SOL    HW217313   4.682   0.234   7.909 -1.3416  1.9772 -0.6441
 1894SOL     OW17314   0.434   4.177   8.185  0.0211 -0.7314 -0.0732
 1894SOL    HW117315   0.494   4.246   8.213  0.1559 -1.6841  2.0272
 1894SOL    HW217316   0.356   4.222   8.219 -0.0062 -0.8994  0.0872
 1895SOL     OW17317   4.615   0.385   1.247  0.7512  0.4987  0.2958
 1895SOL    HW117318   4.615   0.437   1.328 -2.3864  0.7066  0.1860
 1895SOL    HW217319   4.709   0.377   1.232  0.9010  4.3696 -0.8167
 1896SOL     OW17320   1.248   3.697   0.531 -0.5641  0.2709 -0.1799
 1896SOL    HW117321   1.199   3.779   0.521  0.5238  1.2658  2.6849
 1896SOL    HW217322   1.287   3.699   0.444 -3.2406  2.3664 -1.3433
 1897SOL     OW17323   2.493   3.296   8.792  0.0626 -0.1246 -0.5341
 1897SOL    HW117324   2.581   3.308   8.756 -0.3531  0.9273 -1.1681
 1897SOL    HW217325   2.443   3.361   8.743 -0.0602  1.4265  1.6796
 1898SOL     OW17326   4.111   1.258  12.801  0.5616 -0.2124 -0.4527
 1898SOL    HW117327   4.144   1.232  12.887  0.0209 -0.5464 -0.3440
 1898SOL    HW217328   4.162   1.339  12.798  1.1694 -0.6889 -2.9890
 1899SOL     OW17329   4.344   2.766  17.680  0.4332 -0.4583  0.5797
 1899SOL    HW117330   4.299   2.693  17.636  0.4358  0.7059 -1.3421
 1899SOL    HW217331   4.378   2.811  17.603 -1.3957 -0.5939 -0.3263
 1900SOL     OW17332   4.512   2.436   8.163 -0.2404 -0.3375 -0.4555
 1900SOL    HW117333   4.562   2.405   8.238 -0.0055  0.1011 -0.4267
 1900SOL    HW217334   4.427   2.433   8.207  0.5051 -2.4462  0.7869
 1901SOL     OW17335   3.680   1.997  12.704 -0.5183 -0.6373  0.0207
 1901SOL    HW117336   3.725   1.926  12.657  2.9408  2.0176 -0.6574
 1901SOL    HW217337   3.694   1.985  12.798  1.1846 -1.4464 -0.3309
 1902SOL     OW17338   0.916   4.117   4.172  0.0011 -0.3688  0.4665
 1902SOL    HW117339   1.007   4.102   4.199 -0.3590 -1.5274  1.0248
 1902SOL    HW217340   0.901   4.210   4.187  1.1819 -0.0216 -0.4891
 1903SOL     OW17341   3.633   2.673  13.764 -0.0961 -0.1447 -0.3559
 1903SOL    HW117342   3.686   2.655  13.687 -0.2121  3.5497 -1.3018
 1903SOL    HW217343   3.576   2.596  13.762  0.3981 -0.4716 -1.6978
 1904SOL     OW17344   4.380   2.591   2.565  0.0022 -0.2545 -0.2977
 1904SOL    HW117345   4.357   2.606   2.657  0.0721  0.0080 -0.3254
 1904SOL    HW217346   4.298   2.592   2.517  1.2351  1.7516 -2.3752
 1905SOL     OW17347   4.067   1.207   4.882 -0.4284  0.2367 -0.2288
 1905SOL    HW117348   4.107   1.288   4.913  0.3835 -0.0840 -0.4346
 1905SOL    HW217349   4.020   1.247   4.809 -1.6141  1.0177  0.9706
 1906SOL     OW17350   0.267   0.113   8.817 -0.3189 -0.2496 -0.4277
 1906SOL    HW117351   0.318   0.182   8.775 -0.9195 -0.2759 -1.2155
 1906SOL    HW217352   0.272   0.043   8.752 -0.9560  0.1763 -0.9469
 1907SOL     OW17353   2.179   3.974   9.140 -0.0354  0.8506  0.0264
 1907SOL    HW117354   2.236   3.922   9.196 -1.7188 -0.4964  0.4724
 1907SOL    HW217355   2.236   4.051   9.131 -0.5514  1.4098  1.5744
 1908SOL     OW17356   2.396   4.064   7.041  0.3467 -0.1346  0.3171
 1908SOL    HW117357   2.319   4.061   7.097 -0.9697  1.0394 -1.3986
 1908SOL    HW217358   2.431   4.148   7.070 -0.2690  0.1687  0.1930
 1909SOL     OW17359   3.517   3.163   2.467 -0.4862 -0.0427 -0.1867
 1909SOL    HW117360   3.530   3.071   2.443  0.7517  0.2186 -0.5468
 1909SOL    HW217361   3.558   3.160   2.553 -0.3768 -2.1012 -0.3014
 1910SOL     OW17362   2.416   1.195  12.374 -0.1925 -0.3219  0.5873
 1910SOL    HW117363   2.454   1.197  12.462  1.1100 -0.1222  0.0085
 1910SOL    HW217364   2.454   1.279  12.348  0.9914 -1.3535 -0.9754
 1911SOL     OW17365   1.805   1.265   2.738 -0.0030 -0.0529  0.1934
 1911SOL    HW117366   1.748   1.253   2.814 -2.1674 -0.1386 -1.4370
 1911SOL    HW217367   1.841   1.354   2.736  1.0623 -0.5450 -2.1509
 1912SOL     OW17368   2.769   0.173   9.182 -0.5334  0.2982 -0.1844
 1912SOL    HW117369   2.837   0.108   9.161  0.5187  0.3293  3.0571
 1912SOL    HW217370   2.769   0.153   9.276  1.6916  0.4508 -0.1472
 1913SOL     OW17371   3.150   3.085   0.817 -0.0846  0.2482 -0.0698
 1913SOL    HW117372   3.123   3.048   0.901 -1.0444  2.0638  0.4146
 1913SOL    HW217373   3.241   3.054   0.815  0.0276  0.6098 -0.5053
 1914SOL     OW17374   0.307   3.904   3.427 -0.8095  0.0979  0.3736
 1914SOL    HW117375   0.268   3.828   3.386 -0.2130 -0.0991  0.1706
 1914SOL    HW217376   0.265   3.917   3.512  0.4705 -1.1857  1.2097
 1915SOL     OW17377   0.356   4.572   8.895  0.7107  0.2449  0.1041
 1915SOL    HW117378   0.261   4.576   8.897  0.8124  2.2433  1.1505
 1915SOL    HW217379   0.385   4.488   8.858 -1.7631 -0.4516 -0.2633
 1916SOL     OW17380   0.478   3.159   0.504 -0.0467 -0.1395  0.0460
 1916SOL    HW117381   0.476   3.068   0.535  0.0343  0.4938  1.9164
 1916SOL    HW217382   0.496   3.154   0.410  0.9705  0.3082  0.2194
 1917SOL     OW17383   3.477   0.360   1.415 -0.0738 -0.1013 -0.0334
 1917SOL    HW117384   3.454   0.378   1.506 -0.3267 -1.6294  0.2049
 1917SOL    HW217385   3.567   0.334   1.432 -0.3845  0.1205  1.9531
 1918SOL     OW17386   4.538   2.986   5.316  0.0293  0.2315 -0.1622
 1918SOL    HW117387   4.606   3.032   5.266  1.2419 -0.2625  1.0440
 1918SOL    HW217388   4.489   2.944   5.245 -1.2391  0.3274  0.6412
 1919SOL     OW17389   4.009   0.202  10.311  0.7490  0.6407 -0.2059
 1919SOL    HW117390   4.040   0.197  10.401 -1.2792  0.1933  0.4769
 1919SOL    HW217391   4.024   0.109  10.292  2.0042  0.4099  2.0100
 1920SOL     OW17392   1.214   2.283   7.132 -0.2084 -0.7907  0.2165
 1920SOL    HW117393   1.133   2.234   7.116 -1.5647  2.1817 -1.9941
 1920SOL    HW217394   1.276   2.226   7.087  0.3427  2.1233 -2.7139
 1921SOL     OW17395   0.203   1.248   0.347 -0.4043  0.0009  0.4809
 1921SOL    HW117396   0.206   1.246   0.252 -0.5387 -0.8849  0.5031
 1921SOL    HW217397   0.121   1.200   0.357 -0.9883  1.0002  0.5363
 1922SOL     OW17398   3.477   4.351   6.352  0.4783 -0.2023 -0.0125
 1922SOL    HW117399   3.430   4.319   6.275 -1.6538  0.5079  0.9689
 1922SOL    HW217400   3.410   4.376   6.416  1.1401  1.8871 -0.1286
 1923SOL     OW17401   4.225   2.626   4.374 -0.2360 -0.3259 -0.0924
 1923SOL    HW117402   4.165   2.583   4.313  0.7237  0.4394 -1.5843
 1923SOL    HW217403   4.305   2.576   4.357  0.2559  1.1791 -2.2874
 1924SOL     OW17404   0.686   2.291   2.339 -0.1836 -0.7103 -0.2548
 1924SOL    HW117405   0.627   2.362   2.314  0.9485  0.6927  1.1248
 1924SOL    HW217406   0.754   2.307   2.274  0.9927  0.8157  1.3896
 1925SOL     OW17407   1.518   3.618   9.126 -0.2409 -0.3424 -0.1381
 1925SOL    HW117408   1.581   3.678   9.087 -0.0153 -0.8675 -0.5905
 1925SOL    HW217409   1.453   3.611   9.055 -1.2049 -1.9307  0.9000
 1926SOL     OW17410   1.891   2.960   7.586  0.0452  0.3172  0.4304
 1926SOL    HW117411   1.798   2.979   7.598 -0.1446  0.5844 -1.4782
 1926SOL    HW217412   1.887   2.871   7.551  3.4410  1.1550 -2.1508
 1927SOL     OW17413   0.197   2.663   5.662  0.1854 -0.0267 -0.3272
 1927SOL    HW117414   0.178   2.588   5.718  2.9107  1.8449  3.1166
 1927SOL    HW217415   0.215   2.728   5.730  0.1218 -1.9003  1.4726
 1928SOL     OW17416   1.267   1.973   1.858  0.0274  0.1555 -0.0907
 1928SOL    HW117417   1.265   2.021   1.941  2.4156 -1.7732  1.0995
 1928SOL    HW217418   1.330   1.903   1.876  0.8056  0.2708 -2.4777
 1929SOL     OW17419   0.379   2.084   3.483 -0.4458  0.2846 -0.9662
 1929SOL    HW117420   0.387   2.120   3.571  0.2704  0.5945 -1.1591
 1929SOL    HW217421   0.440   2.149   3.448 -1.4104  1.7050  0.0277
 1930SOL     OW17422   3.487   2.303   7.163  0.6545 -0.4543 -0.5651
 1930SOL    HW117423   3.503   2.396   7.177  2.5203 -0.9799  0.7414
 1930SOL    HW217424   3.468   2.302   7.069  1.1762 -1.2262 -0.6592
 1931SOL     OW17425   0.696   3.277   6.621 -0.1068  0.0425  0.4674
 1931SOL    HW117426   0.664   3.188   6.605 -0.6522  0.4885 -0.9074
 1931SOL    HW217427   0.786   3.263   6.650 -0.1181 -3.0741 -0.9642
 1932SOL     OW17428   1.512   4.252   2.250  0.2548  0.0115  0.1352
 1932SOL    HW117429   1.526   4.320   2.316  0.0825 -0.3504  0.5408
 1932SOL    HW217430   1.427   4.217   2.275  1.4639 -2.6090  0.5240
 1933SOL     OW17431   0.682   3.139   8.535 -0.0801  0.3564 -0.1996
 1933SOL    HW117432   0.663   3.228   8.566  0.3055 -0.2906  1.9574
 1933SOL    HW217433   0.772   3.153   8.506 -0.5943  1.5819 -1.2112
 1934SOL     OW17434   2.703   2.037   5.884 -0.1851 -0.3148 -0.4275
 1934SOL    HW117435   2.661   2.103   5.939  0.5837 -0.1923  0.0098
 1934SOL    HW217436   2.791   2.069   5.866 -0.2707  0.1931  0.0560
 1935SOL     OW17437   1.900   1.501   2.202 -0.1017 -0.1725 -0.1572
 1935SOL    HW117438   1.856   1.425   2.241 -0.6297 -1.4762 -3.2347
 1935SOL    HW217439   1.839   1.564   2.239  0.2674  0.4933 -0.6803
 1936SOL     OW17440   2.961   4.255   8.440 -0.3673  0.2467 -0.3033
 1936SOL    HW117441   2.910   4.280   8.517 -1.3246 -2.0331 -0.2167
 1936SOL    HW217442   2.908   4.291   8.369 -1.5885  0.2456  0.6112
 1937SOL     OW17443   4.580   1.020  17.247 -0.1109 -0.4129  0.1066
 1937SOL    HW117444   4.508   1.040  17.307  0.9158 -0.7572  1.4525
 1937SOL    HW217445   4.544   1.054  17.165  2.8896 -0.9915 -1.4351
 1938SOL     OW17446   1.311   4.411   8.617 -0.1073 -0.0160 -0.2535
 1938SOL    HW117447   1.360   4.380   8.542 -0.3813 -0.6968 -0.1552
 1938SOL    HW217448   1.374   4.416   8.689 -1.2626  1.1447  0.6908
 1939SOL     OW17449   1.580   0.932   5.373 -0.6542  0.2632 -0.5684
 1939SOL    HW117450   1.494   0.892   5.385 -0.5091 -0.2632 -1.3272
 1939SOL    HW217451   1.614   0.950   5.461  0.0990  3.5571 -1.5306
 1940SOL     OW17452   4.465   1.750  11.739 -0.6704 -0.3863  0.3615
 1940SOL    HW117453   4.498   1.775  11.826 -0.2327  0.8678 -0.1582
 1940SOL    HW217454   4.501   1.662  11.730  0.0722  0.1225 -1.5981
 1941SOL     OW17455   1.887   0.871  16.879  0.7635  0.2393 -0.1219
 1941SOL    HW117456   1.861   0.902  16.792 -0.7644  0.7517  0.5169
 1941SOL    HW217457   1.813   0.891  16.937  0.7586  1.7206 -0.6312
 1942SOL     OW17458   3.553   4.712   8.066  0.0993  0.1070  0.2906
 1942SOL    HW117459   3.507   4.655   8.127 -1.1227  0.9411  0.1454
 1942SOL    HW217460   3.603   0.030   8.128  2.1036 -0.8552 -0.4701
 1943SOL     OW17461   0.461   4.003   7.078 -0.1415 -0.4476 -0.4869
 1943SOL    HW117462   0.505   4.014   7.163 -2.5960 -0.7733  0.8218
 1943SOL    HW217463   0.434   4.091   7.053  0.7128 -0.1130 -0.2467
 1944SOL     OW17464   3.911   3.091   9.134 -0.0014 -0.2278  0.3677
 1944SOL    HW117465   3.964   3.012   9.139  0.8106  0.0982 -3.1914
 1944SOL    HW217466   3.918   3.126   9.222  1.0648 -1.4447  0.7747
 1945SOL     OW17467   1.890   2.603   0.913 -0.2423  0.3673  0.6139
 1945SOL    HW117468   1.918   2.529   0.857 -3.6889  0.7809 -1.6372
 1945SOL    HW217469   1.862   2.560   0.994 -0.1632  0.0986  0.5007
 1946SOL     OW17470   4.322   1.066  13.815 -0.2070 -0.8750  0.2523
 1946SOL    HW117471   4.235   1.075  13.775  0.9066  0.6028 -1.7850
 1946SOL    HW217472   4.303   1.014  13.894  2.4732 -0.8545  0.8868
 1947SOL     OW17473   0.132   0.392   4.863  0.2341  0.1885 -0.8724
 1947SOL    HW117474   0.211   0.433   4.826  0.5823 -1.1622 -1.6284
 1947SOL    HW217475   0.147   0.382   4.957  0.6200  0.3484 -0.9159
 1948SOL     OW17476   2.110   3.444   5.046  0.3643  0.2193  0.2389
 1948SOL    HW117477   2.031   3.463   5.096  2.0122 -0.2253  3.0337
 1948SOL    HW217478   2.070   3.395   4.974 -2.8418  0.1739  2.0669
 1949SOL     OW17479   3.219   2.919  14.630 -0.1158 -0.1872  0.1748
 1949SOL    HW117480   3.285   2.960  14.685  0.3568 -0.1387 -0.4217
 1949SOL    HW217481   3.259   2.915  14.543  1.1300  0.7240  0.7087
 1950SOL     OW17482   1.780   3.298  14.950  0.0077 -0.0713 -0.0792
 1950SOL    HW117483   1.821   3.226  14.901  0.2163 -2.3060  3.3564
 1950SOL    HW217484   1.789   3.370  14.888 -0.8654 -0.8032 -1.0514
 1951SOL     OW17485   1.987   2.879   2.616 -0.3046 -0.0593  0.0154
 1951SOL    HW117486   1.896   2.890   2.589 -0.0439 -0.3765 -1.0162
 1951SOL    HW217487   1.995   2.901   2.709  0.4869 -0.6436  0.0935
 1952SOL     OW17488   2.898   1.304  16.747 -0.2221 -0.1433 -0.2985
 1952SOL    HW117489   2.868   1.362  16.677  0.5899  0.6757  0.0249
 1952SOL    HW217490   2.814   1.264  16.770 -1.6211  2.5944 -0.6507
 1953SOL     OW17491   1.965   0.173  17.733 -0.5520 -0.0191  0.4714
 1953SOL    HW117492   1.988   0.261  17.704 -0.6264 -0.1789 -0.0857
 1953SOL    HW217493   1.920   0.129  17.660 -0.5443  1.0474 -0.1753
 1954SOL     OW17494   2.673   2.811   8.615  0.0499 -0.3980  0.6167
 1954SOL    HW117495   2.715   2.762   8.685  0.4165  2.3804  2.3405
 1954SOL    HW217496   2.585   2.809   8.651 -1.3904 -0.4596 -2.9002
 1955SOL     OW17497   2.857   0.964   4.691  0.2297 -0.4990  0.0845
 1955SOL    HW117498   2.942   0.932   4.662  0.4813  0.5933 -0.3522
 1955SOL    HW217499   2.814   0.958   4.606  1.4903  0.5396 -0.6244
 1956SOL     OW17500   0.367   0.553   7.270 -0.2318  0.4147 -0.0951
 1956SOL    HW117501   0.306   0.624   7.248  0.6927  1.0220 -0.6412
 1956SOL    HW217502   0.304   0.494   7.313  0.3260 -2.5572 -3.4094
 1957SOL     OW17503   3.287   1.181   4.001  0.5740  0.3980 -0.3215
 1957SOL    HW117504   3.197   1.213   4.002  1.0830  1.8144  0.2676
 1957SOL    HW217505   3.263   1.088   4.002  0.1673  0.5286  1.2836
 1958SOL     OW17506   3.068   0.948   3.406  0.0143  0.8409  0.0394
 1958SOL    HW117507   3.049   0.892   3.331 -0.8368  0.7569  0.3120
 1958SOL    HW217508   2.999   1.015   3.400 -0.1405  0.8679  2.1490
 1959SOL     OW17509   2.115   1.880   9.527  0.5270 -0.5729  0.3739
 1959SOL    HW117510   2.064   1.948   9.571  0.4628  0.2258 -0.9097
 1959SOL    HW217511   2.063   1.877   9.446 -0.5433 -3.2953  1.1960
 1960SOL     OW17512   3.148   4.632   9.462  0.0881 -0.0034 -0.0406
 1960SOL    HW117513   3.171   4.627   9.555 -2.4197 -0.9525  0.5309
 1960SOL    HW217514   3.055   4.654   9.466  0.8858  3.3726  0.6181
 1961SOL     OW17515   2.564   1.020   7.657  0.2687 -0.1222  0.5811
 1961SOL    HW117516   2.643   0.978   7.691 -0.2746 -1.9916 -0.4843
 1961SOL    HW217517   2.537   1.087   7.720 -0.4325  1.2027 -1.1307
 1962SOL     OW17518   4.363   2.150  10.144 -0.3005 -0.2625  0.9827
 1962SOL    HW117519   4.449   2.156  10.103 -1.3257  0.5243 -1.0206
 1962SOL    HW217520   4.333   2.064  10.115  2.4133 -0.3128 -1.5368
 1963SOL     OW17521   1.044   0.395  12.337  0.3350 -0.4289 -0.2810
 1963SOL    HW117522   1.105   0.469  12.338  0.8826 -0.8799 -0.8229
 1963SOL    HW217523   1.013   0.396  12.246 -2.0397  0.8532  0.5252
 1964SOL     OW17524   4.154   1.665   7.893 -0.4777 -0.2308  0.5750
 1964SOL    HW117525   4.090   1.672   7.822  0.8372 -0.5434 -0.6281
 1964SOL    HW217526   4.131   1.581   7.933  0.9127  0.0388  1.9262
 1965SOL     OW17527   2.299   3.745   3.076  0.2678 -0.5500  0.5183
 1965SOL    HW117528   2.312   3.659   3.117 -0.8906 -1.2618 -0.5890
 1965SOL    HW217529   2.235   3.723   3.008 -0.0009 -1.7347  1.1484
 1966SOL     OW17530   3.590   0.054   3.442 -0.2497  0.0610  0.5870
 1966SOL    HW117531   3.571   4.721   3.380 -0.0195  1.2620 -0.8396
 1966SOL    HW217532   3.672   0.087   3.404 -1.2353  1.8414  0.0015
 1967SOL     OW17533   0.940   1.194   6.019 -0.4231  0.4374  0.2780
 1967SOL    HW117534   0.848   1.199   6.045 -0.6973 -3.7796  0.1411
 1967SOL    HW217535   0.922   1.189   5.925 -0.8616  0.6477  0.3523
 1968SOL     OW17536   4.673   2.313   8.369  0.1064 -0.3959  0.0150
 1968SOL    HW117537   4.617   2.258   8.423 -0.4717  0.1729  0.0014
 1968SOL    HW217538   4.712   2.247   8.313  0.6122  0.1152 -0.2361
 1969SOL     OW17539   1.410   1.531   1.628 -0.2688  0.1287  0.1297
 1969SOL    HW117540   1.342   1.543   1.561  0.9907  0.7392 -1.0355
 1969SOL    HW217541   1.468   1.602   1.600  2.4339 -2.3594 -0.5444
 1970SOL     OW17542   3.010   4.105   9.093 -0.0908 -0.4423  0.0090
 1970SOL    HW117543   3.004   4.114   9.188  0.1964  1.9449 -0.1912
 1970SOL    HW217544   2.970   4.187   9.065 -0.3861  0.5620  3.4445
 1971SOL     OW17545   1.566   0.047   0.653  0.0725 -0.6820 -0.0985
 1971SOL    HW117546   1.547   0.033   0.560 -0.2608  2.8000 -0.5469
 1971SOL    HW217547   1.587   4.693   0.679 -1.0098 -0.5656  1.2186
 1972SOL     OW17548   2.775   0.249   6.257  0.3970  0.0974  0.6756
 1972SOL    HW117549   2.849   0.194   6.281  1.5412 -0.1490 -3.3891
 1972SOL    HW217550   2.695   0.203   6.284  1.1936 -2.7626 -1.7899
 1973SOL     OW17551   2.669   2.915   1.930  0.1693  0.6509  0.8962
 1973SOL    HW117552   2.663   2.961   2.014  3.8186 -1.0914  2.1200
 1973SOL    HW217553   2.759   2.932   1.901  0.7804 -0.1367  2.3762
 1974SOL     OW17554   1.634   3.589   3.957 -0.3667  0.0015  0.2470
 1974SOL    HW117555   1.634   3.501   3.995  0.3212 -0.6863 -1.3199
 1974SOL    HW217556   1.556   3.574   3.903  0.3325  1.0400 -1.0553
 1975SOL     OW17557   3.855   2.463   6.770  0.2901 -0.1265  0.1464
 1975SOL    HW117558   3.852   2.378   6.815 -1.3746 -0.3971 -0.4875
 1975SOL    HW217559   3.799   2.443   6.695 -2.0203  1.3287  1.4657
 1976SOL     OW17560   2.459   4.281   4.105  0.7778 -0.6529  0.4514
 1976SOL    HW117561   2.496   4.352   4.158  2.4970 -1.0995 -0.1532
 1976SOL    HW217562   2.488   4.300   4.016  0.1581 -0.0504  0.3800
 1977SOL     OW17563   1.443   2.538   8.111  0.3494 -0.3184  0.3973
 1977SOL    HW117564   1.534   2.560   8.129  0.3815 -0.0929 -0.0493
 1977SOL    HW217565   1.443   2.509   8.019  0.1840  1.0372 -0.0235
 1978SOL     OW17566   0.731   1.270   2.185  0.7508  0.0272  0.4380
 1978SOL    HW117567   0.786   1.192   2.190  1.5752  0.6058  0.5867
 1978SOL    HW217568   0.735   1.277   2.090  1.1526  3.4356  0.6813
 1979SOL     OW17569   2.395   1.718   0.842 -0.4684 -0.0638  0.2485
 1979SOL    HW117570   2.367   1.626   0.844 -2.4658  0.6054  2.7842
 1979SOL    HW217571   2.394   1.733   0.747 -0.4142  0.4504  0.3293
 1980SOL     OW17572   3.813   1.867   5.642 -0.2264 -0.4736 -0.1595
 1980SOL    HW117573   3.806   1.773   5.657  2.2750 -0.5194  0.7821
 1980SOL    HW217574   3.746   1.885   5.576 -0.6060  1.2252  0.6866
 1981SOL     OW17575   3.388   4.525   8.891  0.1776  0.3079 -0.2019
 1981SOL    HW117576   3.328   4.469   8.941  0.3077  1.6812  1.4545
 1981SOL    HW217577   3.461   4.466   8.871 -1.0064 -0.7662 -1.3989
 1982SOL     OW17578   1.379   3.745   4.816  0.3090 -0.1791  0.4384
 1982SOL    HW117579   1.318   3.709   4.881  0.5213  1.2203  1.4179
 1982SOL    HW217580   1.314   3.783   4.757  0.0191  0.9114  1.4609
 1983SOL     OW17581   0.691   0.413   7.903  0.7249 -0.2628 -0.2334
 1983SOL    HW117582   0.702   0.494   7.953 -0.4083 -0.4092  0.2574
 1983SOL    HW217583   0.656   0.351   7.967  1.2247  0.4975  0.7663
 1984SOL     OW17584   2.592   1.521   3.962  0.2702  0.0983 -0.2870
 1984SOL    HW117585   2.672   1.570   3.945 -0.1626  0.4569 -1.2832
 1984SOL    HW217586   2.579   1.550   4.052 -0.3010 -0.0271 -0.3268
 1985SOL     OW17587   3.493   1.136   9.446  0.6117 -0.3184  0.6888
 1985SOL    HW117588   3.484   1.196   9.520  1.5939  1.6156 -0.7635
 1985SOL    HW217589   3.472   1.051   9.485  0.8355 -0.2222  1.0285
 1986SOL     OW17590   2.235   1.115  10.718 -0.4668 -0.1615 -0.0393
 1986SOL    HW117591   2.149   1.073  10.719 -0.1302 -0.7374  2.4361
 1986SOL    HW217592   2.260   1.115  10.625 -1.5189 -2.6947 -0.3217
 1987SOL     OW17593   0.276   2.916   8.273 -0.1571 -0.2065 -0.1933
 1987SOL    HW117594   0.301   2.826   8.294  2.9498  1.0232  1.5054
 1987SOL    HW217595   0.230   2.935   8.354 -1.6919  0.5140 -1.2395
 1988SOL     OW17596   1.637   2.323   2.020  0.1420 -0.1000  0.3010
 1988SOL    HW117597   1.650   2.279   1.936 -1.4397 -1.8355  0.9564
 1988SOL    HW217598   1.658   2.251   2.079  0.1565  1.4313  2.1434
 1989SOL     OW17599   1.891   2.827  16.250  0.1547  0.0630 -0.2360
 1989SOL    HW117600   1.935   2.778  16.319 -0.9328  1.5187  1.4858
 1989SOL    HW217601   1.894   2.768  16.174 -0.4950 -0.5763  0.2366
 1990SOL     OW17602   1.642   0.017   6.137  0.1495 -0.0881  0.0529
 1990SOL    HW117603   1.677   4.665   6.127 -0.3111 -0.4081  1.2392
 1990SOL    HW217604   1.575   0.004   6.203  0.9378  1.8129  1.2397
 1991SOL     OW17605   4.187   3.513  12.261  0.9283 -0.6990 -0.6502
 1991SOL    HW117606   4.145   3.427  12.250 -0.5490 -0.1386  0.5265
 1991SOL    HW217607   4.158   3.532  12.350 -0.3416  1.2863 -1.4636
 1992SOL     OW17608   0.603   0.378   7.626  0.2252  0.0594 -0.0659
 1992SOL    HW117609   0.654   0.380   7.707 -1.3385  0.2295  0.9002
 1992SOL    HW217610   0.527   0.425   7.658 -0.4196 -1.3299  0.4626
 1993SOL     OW17611   2.280   1.113   4.691 -0.0462  0.2928 -0.0593
 1993SOL    HW117612   2.327   1.156   4.762  0.7564  0.6835 -0.8197
 1993SOL    HW217613   2.341   1.136   4.620 -0.9939 -0.2708 -1.0579
 1994SOL     OW17614   2.891   3.554   4.552 -0.5101 -0.2303  0.4584
 1994SOL    HW117615   2.909   3.490   4.484  0.8102  1.7250 -1.0110
 1994SOL    HW217616   2.929   3.631   4.511 -0.1797 -0.6204  0.0355
 1995SOL     OW17617   2.242   2.730   6.148  0.4068  0.0032 -0.0276
 1995SOL    HW117618   2.245   2.826   6.154 -0.3471  0.3489 -5.0513
 1995SOL    HW217619   2.147   2.722   6.150  0.4325 -0.2049  0.4048
 1996SOL     OW17620   1.590   1.535   6.065  0.1822  0.2371  0.5426
 1996SOL    HW117621   1.682   1.522   6.088  0.9909  1.0084 -2.2633
 1996SOL    HW217622   1.587   1.507   5.974  0.3851 -0.5001  0.7676
 1997SOL     OW17623   4.088   0.065   4.212  0.3598  0.2621 -0.0876
 1997SOL    HW117624   4.035   0.141   4.236 -1.6706 -1.8076  1.9581
 1997SOL    HW217625   4.169   0.114   4.197 -1.0570  1.6106 -3.4207
 1998SOL     OW17626   3.195   2.029   1.173 -0.1333 -0.0105 -0.1345
 1998SOL    HW117627   3.147   1.971   1.232 -0.5473  0.9935  0.5189
 1998SOL    HW217628   3.284   1.994   1.172  0.3110  1.1038  0.6527
 1999SOL     OW17629   3.777   0.350  11.169  0.3079  0.1666 -0.1937
 1999SOL    HW117630   3.713   0.354  11.098 -0.4139 -3.0164  0.2861
 1999SOL    HW217631   3.741   0.407  11.237 -0.8426 -0.8506  0.0280
 2000SOL     OW17632   4.679   2.181  16.536  0.0983  0.0331 -0.5454
 2000SOL    HW117633   4.631   2.219  16.610 -0.9240  0.2960 -1.3582
 2000SOL    HW217634   4.630   2.205  16.458 -1.2919  1.9795  0.9177
 2001SOL     OW17635   1.662   0.744   4.890 -0.4787 -0.3392 -0.0834
 2001SOL    HW117636   1.705   0.829   4.892 -1.2528  0.0724 -1.0752
 2001SOL    HW217637   1.638   0.739   4.798 -1.1642 -1.4411  0.1536
 2002SOL     OW17638   1.532   2.393   4.792  0.1437  0.1356  0.4752
 2002SOL    HW117639   1.444   2.355   4.795  1.2867 -2.6766 -1.1671
 2002SOL    HW217640   1.580   2.310   4.787 -0.9841 -0.5256  0.6988
 2003SOL     OW17641   0.148   4.659   4.168  0.0730  0.0149  0.4265
 2003SOL    HW117642   0.228   4.708   4.183  0.5999 -0.8092  0.3428
 2003SOL    HW217643   0.099   4.670   4.249 -1.1830 -0.8442 -0.2143
 2004SOL     OW17644   4.158   2.867  16.199 -0.4501  0.0268  0.2847
 2004SOL    HW117645   4.157   2.905  16.112  1.0172 -2.7620 -0.9597
 2004SOL    HW217646   4.188   2.936  16.258  1.8941 -0.5412 -0.2533
 2005SOL     OW17647   4.485   2.037   3.686 -0.2872 -0.4661 -0.3800
 2005SOL    HW117648   4.402   2.018   3.731 -1.3465  1.8464 -1.3691
 2005SOL    HW217649   4.480   2.132   3.691  0.3844 -0.3897 -1.2685
 2006SOL     OW17650   0.027   2.785   4.432  0.5570 -0.7513 -0.1257
 2006SOL    HW117651   4.684   2.787   4.379  0.2095  2.5909  0.5359
 2006SOL    HW217652   4.731   2.802   4.520  2.2854  0.7469  0.2210
 2007SOL     OW17653   0.414   0.770   8.470  0.2699  0.3508  0.2067
 2007SOL    HW117654   0.415   0.859   8.436  1.3908  0.2133 -0.1204
 2007SOL    HW217655   0.433   0.802   8.558  1.5925  1.5237 -0.5005
 2008SOL     OW17656   4.441   1.630   4.181  0.7510 -0.0181  0.8800
 2008SOL    HW117657   4.520   1.637   4.127 -0.2699  2.2805 -0.3538
 2008SOL    HW217658   4.422   1.721   4.203  2.8183  0.0305  2.4383
 2009SOL     OW17659   3.931   0.802  11.201 -0.0712 -0.2116 -0.0919
 2009SOL    HW117660   3.853   0.846  11.233  1.0398  0.6447  1.4503
 2009SOL    HW217661   3.904   0.739  11.135  0.5384  1.4129 -1.8815
 2010SOL     OW17662   3.782   3.836   8.779 -0.4442 -0.0700 -0.0720
 2010SOL    HW117663   3.728   3.915   8.788 -0.2316  0.1504 -0.7172
 2010SOL    HW217664   3.767   3.814   8.688 -0.7342 -4.0891  0.9556
 2011SOL     OW17665   2.344   1.880   6.697 -0.2614 -0.0520 -0.0452
 2011SOL    HW117666   2.349   1.788   6.724 -1.8027  0.0106  0.4377
 2011SOL    HW217667   2.434   1.905   6.719 -1.2357  1.5739  2.0403
 2012SOL     OW17668   0.220   2.953   6.248 -0.9069  0.3878 -0.1403
 2012SOL    HW117669   0.289   2.991   6.194  1.0586  0.0949  2.1584
 2012SOL    HW217670   0.175   3.037   6.255 -0.4393  0.6816 -0.6224
 2013SOL     OW17671   1.387   4.005   5.277  0.4074  0.0836 -0.1913
 2013SOL    HW117672   1.303   3.966   5.300  0.1578  0.7439  0.0153
 2013SOL    HW217673   1.376   4.013   5.182 -0.2037  0.8686 -0.0521
 2014SOL     OW17674   1.563   4.524   9.064  0.0851  0.0167 -0.0310
 2014SOL    HW117675   1.588   4.616   9.074  1.3361 -0.2953 -0.2975
 2014SOL    HW217676   1.492   4.514   9.128 -0.1337  0.5587 -0.1908
 2015SOL     OW17677   2.597   0.848   0.877  0.5907 -0.3232 -0.1340
 2015SOL    HW117678   2.634   0.808   0.956  1.1620 -1.2074 -0.8345
 2015SOL    HW217679   2.532   0.910   0.909 -0.9822 -3.2870  2.3478
 2016SOL     OW17680   2.652   0.281  10.500 -0.6416  0.0712  0.1300
 2016SOL    HW117681   2.603   0.329  10.566 -0.1282  1.3635 -0.4281
 2016SOL    HW217682   2.705   0.351  10.462  0.2695 -0.3794  0.5615
 2017SOL     OW17683   4.286   0.221   0.818 -0.1069  0.3364 -0.2837
 2017SOL    HW117684   4.258   0.168   0.893 -1.3472 -0.1220 -1.0851
 2017SOL    HW217685   4.256   0.306   0.851 -1.7200 -0.1482 -0.4730
 2018SOL     OW17686   1.382   4.637  14.582 -0.4529 -0.1860  0.2383
 2018SOL    HW117687   1.328   4.682  14.518  0.5918  1.3964  0.4496
 2018SOL    HW217688   1.361   4.678  14.666 -0.7858  1.6004 -0.7161
 2019SOL     OW17689   2.620   1.693   8.975 -0.4622  0.2200 -0.1572
 2019SOL    HW117690   2.656   1.646   8.900 -2.8122 -1.2199 -0.3880
 2019SOL    HW217691   2.528   1.714   8.959 -0.2803  1.6342  0.6743
 2020SOL     OW17692   2.258   1.537   3.714 -0.2944  0.4672 -0.1074
 2020SOL    HW117693   2.186   1.476   3.728  0.2139 -0.2119 -0.4349
 2020SOL    HW217694   2.215   1.621   3.728 -0.8145  0.4912 -1.8082
 2021SOL     OW17695   4.502   3.479   3.492 -0.3718 -0.2344 -0.5876
 2021SOL    HW117696   4.520   3.518   3.407  0.2694 -2.0443 -1.2585
 2021SOL    HW217697   4.412   3.504   3.514  0.1474  0.9181  0.2529
 2022SOL     OW17698   0.356   2.910  13.824  0.2829 -0.1816 -0.0667
 2022SOL    HW117699   0.426   2.868  13.774  0.1734 -0.2201 -0.1896
 2022SOL    HW217700   0.369   2.870  13.910  1.0041 -0.5903 -0.3610
 2023SOL     OW17701   2.515   0.793   9.271  0.2924  0.1008  0.2028
 2023SOL    HW117702   2.582   0.836   9.217 -0.4946 -0.0434 -0.9087
 2023SOL    HW217703   2.539   0.700   9.279  1.1611  0.3182  0.0965
 2024SOL     OW17704   0.931   0.956  16.036 -0.6094  0.0210 -0.1003
 2024SOL    HW117705   1.017   0.997  16.046 -1.8136  2.4069  0.3861
 2024SOL    HW217706   0.955   0.885  15.976  1.7271  1.0826 -0.4213
 2025SOL     OW17707   3.562   4.668   4.073  0.2141  0.0860 -0.4277
 2025SOL    HW117708   3.613   4.660   3.992  0.9676  1.9974 -0.1512
 2025SOL    HW217709   3.484   4.626   4.035 -0.6781  1.7803 -0.4698
 2026SOL     OW17710   1.293   1.638   9.182 -0.0438  0.0354  0.1084
 2026SOL    HW117711   1.277   1.550   9.218 -0.4270  0.3272  0.6467
 2026SOL    HW217712   1.246   1.689   9.248 -0.4601 -0.0481 -0.1220
 2027SOL     OW17713   1.455   3.986  15.755 -0.2686  0.3206  0.2509
 2027SOL    HW117714   1.479   3.918  15.817 -1.1011 -0.0838  0.1362
 2027SOL    HW217715   1.416   4.051  15.815 -0.9766 -0.1081  0.2613
 2028SOL     OW17716   3.373   3.767  10.290 -0.1649  0.7510 -0.3562
 2028SOL    HW117717   3.333   3.767  10.377  0.9859 -2.3924  0.1664
 2028SOL    HW217718   3.467   3.782  10.297  0.0342  0.6997 -2.8388
 2029SOL     OW17719   2.873   1.296   7.610  0.3173  0.5621  0.2089
 2029SOL    HW117720   2.951   1.348   7.589 -0.3771  2.0515  1.3516
 2029SOL    HW217721   2.926   1.217   7.609 -1.9161 -0.9511  0.7274
 2030SOL     OW17722   2.579   3.368  16.095 -0.0444 -0.6934  0.3070
 2030SOL    HW117723   2.500   3.315  16.096 -0.2576 -0.3867 -1.3407
 2030SOL    HW217724   2.637   3.335  16.026  0.5911 -0.5526  0.7654
 2031SOL     OW17725   1.142   3.399   2.235  0.9326 -0.1074  0.0787
 2031SOL    HW117726   1.098   3.373   2.155 -0.5168  0.9388  0.5439
 2031SOL    HW217727   1.199   3.322   2.245  0.7064 -0.5499 -2.1875
 2032SOL     OW17728   2.648   0.201   8.409  0.4539  0.6405 -0.0873
 2032SOL    HW117729   2.628   0.286   8.450  1.9512  0.4636  1.0083
 2032SOL    HW217730   2.700   0.166   8.481  0.6670 -0.5815 -0.8525
 2033SOL     OW17731   3.201   1.332   1.383  0.8094 -0.7175 -0.2892
 2033SOL    HW117732   3.142   1.407   1.389  0.2019 -1.3061  1.3936
 2033SOL    HW217733   3.253   1.361   1.309 -0.0636  0.0856 -0.5779
 2034SOL     OW17734   1.481   3.549  13.369 -0.5494 -0.5477  0.2261
 2034SOL    HW117735   1.404   3.525  13.318 -1.4738 -2.3230  2.4439
 2034SOL    HW217736   1.503   3.469  13.417 -0.7149  0.2292  1.5833
 2035SOL     OW17737   2.745   0.719   6.883  0.0496  0.1120 -0.0100
 2035SOL    HW117738   2.813   0.655   6.906  0.1787  0.6937  1.2657
 2035SOL    HW217739   2.756   0.781   6.956  0.1678 -0.4444  0.4484
 2036SOL     OW17740   3.433   0.903   9.582 -0.3583 -0.4423 -0.7596
 2036SOL    HW117741   3.366   0.860   9.529 -1.5660 -0.5698  0.8674
 2036SOL    HW217742   3.422   0.850   9.661 -3.2714  1.2811 -0.0252
 2037SOL     OW17743   3.898   1.876   1.276 -0.1357 -0.0457 -0.5294
 2037SOL    HW117744   3.826   1.938   1.264 -0.9559 -0.1592  3.6971
 2037SOL    HW217745   3.905   1.823   1.197 -2.1768  0.9123 -1.3205
 2038SOL     OW17746   3.903   3.141   8.332  0.0582 -0.0593  0.1978
 2038SOL    HW117747   3.874   3.229   8.308  1.1152  0.0420 -0.6929
 2038SOL    HW217748   3.889   3.153   8.426  0.3042 -1.0976  0.3635
 2039SOL     OW17749   1.817   1.997   9.249 -0.1544  0.3821  0.0596
 2039SOL    HW117750   1.793   1.913   9.288 -0.9660 -0.3989 -2.1216
 2039SOL    HW217751   1.775   2.058   9.310  0.5635 -0.3994  1.3494
 2040SOL     OW17752   3.082   0.536   7.462  0.1320 -0.3907  0.0883
 2040SOL    HW117753   3.174   0.541   7.436 -0.2342  0.6348 -1.0150
 2040SOL    HW217754   3.046   0.450   7.443  1.7552 -1.1522  0.4562
 2041SOL     OW17755   2.423   0.769  16.861  0.0840 -0.0000  0.7728
 2041SOL    HW117756   2.440   0.798  16.771 -2.7344  2.1473  0.9285
 2041SOL    HW217757   2.328   0.783  16.862  0.0104 -0.6936  3.4791
 2042SOL     OW17758   3.042   0.542   7.750 -0.0483  0.1311 -0.5206
 2042SOL    HW117759   2.970   0.501   7.703 -0.4210  0.5578 -0.3163
 2042SOL    HW217760   3.104   0.548   7.677 -0.8091 -0.1606 -1.1785
 2043SOL     OW17761   2.591   4.324   7.306  0.5462  0.3129 -0.4979
 2043SOL    HW117762   2.545   4.256   7.354  0.9333  0.0233 -0.5383
 2043SOL    HW217763   2.520   4.389   7.302 -0.5532 -0.8332  0.3785
 2044SOL     OW17764   4.639   2.052   6.856 -0.2852  0.6623 -0.7022
 2044SOL    HW117765   4.642   2.126   6.917 -2.2634  1.2117 -1.2681
 2044SOL    HW217766   4.640   1.977   6.916 -1.8487  1.5072  0.3796
 2045SOL     OW17767   1.643   0.131   3.135  0.2432  0.3649 -0.7343
 2045SOL    HW117768   1.629   0.037   3.132 -0.7089  0.4829  0.1130
 2045SOL    HW217769   1.585   0.149   3.209  2.6641 -1.1078  1.5609
 2046SOL     OW17770   1.624   3.873   5.257  0.2844 -0.1806  0.4371
 2046SOL    HW117771   1.549   3.918   5.297  1.0873  0.4235  1.2392
 2046SOL    HW217772   1.598   3.865   5.165  3.2770 -0.9296 -0.3346
 2047SOL     OW17773   4.646   4.402   7.988 -0.2908 -0.7978 -0.3914
 2047SOL    HW117774   4.711   4.381   7.920 -0.1404  2.1025 -1.1315
 2047SOL    HW217775   4.599   4.473   7.946 -0.0179 -0.4470 -0.1030
 2048SOL     OW17776   1.514   3.177   9.893 -0.0250  0.3954 -0.1225
 2048SOL    HW117777   1.535   3.150   9.982  1.8983  2.0479 -0.0944
 2048SOL    HW217778   1.482   3.096   9.853  1.1454 -0.8807  1.5167
 2049SOL     OW17779   3.877   0.210   0.530  0.6224  0.1592 -0.1728
 2049SOL    HW117780   3.858   0.277   0.596  1.4915 -0.1754  0.4225
 2049SOL    HW217781   3.794   0.194   0.485  0.7442 -0.1068 -0.3007
 2050SOL     OW17782   1.210   3.813   8.214  0.7843 -0.1850 -0.4612
 2050SOL    HW117783   1.179   3.769   8.135 -0.6360  0.1682 -0.1027
 2050SOL    HW217784   1.214   3.739   8.274 -1.3277 -0.0628 -0.1762
 2051SOL     OW17785   2.752   1.495   1.875  0.9024 -0.0916  0.3570
 2051SOL    HW117786   2.689   1.426   1.895 -0.3770  1.7946  2.6990
 2051SOL    HW217787   2.749   1.552   1.951 -0.5384  0.1220  0.1324
 2052SOL     OW17788   0.875   4.477   2.960 -0.4030 -0.0290  0.2263
 2052SOL    HW117789   0.783   4.490   2.981 -0.5588 -1.4242  0.4172
 2052SOL    HW217790   0.891   4.534   2.885 -0.4187  2.6697  2.3041
 2053SOL     OW17791   1.131   4.690  13.792 -0.1135  0.1587 -0.1552
 2053SOL    HW117792   1.143   4.635  13.715 -1.3179 -1.0110  0.4969
 2053SOL    HW217793   1.121   0.039  13.748 -3.3149 -0.5615 -0.8519
 2054SOL     OW17794   1.967   4.703   5.289  0.1473 -0.2261 -0.1996
 2054SOL    HW117795   1.958   4.624   5.236  0.2940 -1.0930  1.0751
 2054SOL    HW217796   1.979   4.656   5.372 -0.2161  1.7130  0.9697
 2055SOL     OW17797   0.792   2.691  10.644 -0.0571  0.4684 -0.2975
 2055SOL    HW117798   0.792   2.725  10.734 -2.3489 -0.3557  0.0163
 2055SOL    HW217799   0.735   2.755  10.602 -1.7755 -1.2443 -0.5498
 2056SOL     OW17800   1.468   2.660   6.768 -0.3618  0.1824  0.4707
 2056SOL    HW117801   1.470   2.595   6.838 -3.6699  1.5883  1.8747
 2056SOL    HW217802   1.561   2.672   6.749 -0.0351 -2.2057  0.6071
 2057SOL     OW17803   3.240   1.576  13.427  0.1605 -0.5640  0.4680
 2057SOL    HW117804   3.243   1.556  13.520 -2.2250 -0.1310  0.6397
 2057SOL    HW217805   3.251   1.670  13.416  2.5882 -0.8970  0.0143
 2058SOL     OW17806   1.506   0.970   8.394 -0.2148  0.2367 -0.0480
 2058SOL    HW117807   1.580   0.975   8.455  0.3637  1.1616 -0.8293
 2058SOL    HW217808   1.507   0.875   8.380 -0.5643  0.1680  0.3920
 2059SOL     OW17809   3.089   2.232   7.161  0.0081  0.1861  0.2861
 2059SOL    HW117810   3.121   2.187   7.239  1.5081 -1.9744 -1.5975
 2059SOL    HW217811   3.155   2.302   7.160  0.0518  0.1327 -0.3576
 2060SOL     OW17812   1.342   2.722   6.519 -0.2184 -0.2288  0.4058
 2060SOL    HW117813   1.349   2.817   6.531 -0.1934 -0.3670  1.4612
 2060SOL    HW217814   1.401   2.688   6.586  0.5491 -0.5498 -0.4404
 2061SOL     OW17815   4.249   0.621   8.397 -0.6334  0.2978  0.0850
 2061SOL    HW117816   4.216   0.612   8.486  0.3815 -1.5512  0.2891
 2061SOL    HW217817   4.167   0.599   8.353 -0.2218 -0.8272 -0.1322
 2062SOL     OW17818   4.438   0.894   3.454  0.3399 -0.0384 -0.3483
 2062SOL    HW117819   4.524   0.935   3.465 -0.5353  1.9447 -0.8231
 2062SOL    HW217820   4.383   0.969   3.479  0.7748 -0.2912  1.3591
 2063SOL     OW17821   4.606   2.172  10.060 -0.1453  0.4132 -0.9745
 2063SOL    HW117822   4.625   2.256  10.101  1.3799 -0.2046 -0.4322
 2063SOL    HW217823   4.677   2.126  10.105 -0.9644 -0.1543 -0.2619
 2064SOL     OW17824   1.537   3.391   8.902 -0.0789 -0.2690 -0.0621
 2064SOL    HW117825   1.497   3.352   8.824 -0.4330 -1.7557  0.8832
 2064SOL    HW217826   1.469   3.447   8.938 -0.9110 -1.4418  0.1821
 2065SOL     OW17827   4.120   0.724   6.071 -0.1085 -0.3891 -0.3537
 2065SOL    HW117828   4.030   0.728   6.038  0.3097  2.5046 -1.1403
 2065SOL    HW217829   4.124   0.639   6.114  0.6437 -0.3198 -0.2875
 2066SOL     OW17830   3.555   2.792   7.863  0.2454  0.5793 -0.3903
 2066SOL    HW117831   3.491   2.739   7.815 -0.4682 -0.2497  1.5035
 2066SOL    HW217832   3.632   2.790   7.806 -0.0992  1.7424 -0.9016
 2067SOL     OW17833   0.633   4.407   7.400 -0.5506  0.2783  0.1317
 2067SOL    HW117834   0.550   4.391   7.354 -0.6654 -1.1314  0.8178
 2067SOL    HW217835   0.650   4.495   7.367 -0.5632  0.0772 -0.4179
 2068SOL     OW17836   2.277   1.498   1.101  0.1885  0.0082  0.2099
 2068SOL    HW117837   2.250   1.588   1.120  1.2512  0.5680 -0.9163
 2068SOL    HW217838   2.235   1.475   1.017  0.0005 -0.5821  0.4650
 2069SOL     OW17839   4.681   1.195   2.562  0.2193 -0.1513  0.3867
 2069SOL    HW117840   4.619   1.157   2.625  1.6745 -1.3490  1.0726
 2069SOL    HW217841   0.019   1.143   2.592  1.6124  0.9407 -1.1824
 2070SOL     OW17842   1.096   1.286   2.713 -0.3562  0.0663  0.0027
 2070SOL    HW117843   1.062   1.198   2.696  0.6621 -0.3487  0.0628
 2070SOL    HW217844   1.085   1.327   2.628  0.2631 -2.5839 -1.3555
 2071SOL     OW17845   2.721   0.542  10.414 -0.3079 -0.4193 -0.4641
 2071SOL    HW117846   2.799   0.508  10.371  0.2752 -2.4679  2.2232
 2071SOL    HW217847   2.747   0.632  10.435 -0.8761 -0.3280 -0.1418
 2072SOL     OW17848   1.875   0.396   8.122  0.0211  0.6606  0.0688
 2072SOL    HW117849   1.837   0.343   8.191 -0.3873  0.0575 -0.6218
 2072SOL    HW217850   1.953   0.430   8.166  0.3684  0.3604 -0.3189
 2073SOL     OW17851   3.814   3.310  10.711  0.1083  0.1962 -0.1123
 2073SOL    HW117852   3.870   3.265  10.647  0.5664 -1.5093  1.5200
 2073SOL    HW217853   3.726   3.288  10.679  0.7565 -2.1019 -0.2945
 2074SOL     OW17854   3.076   0.358  13.609 -0.2257 -0.5566 -0.6183
 2074SOL    HW117855   3.063   0.428  13.545  1.5152 -0.1867 -0.5680
 2074SOL    HW217856   3.035   0.377  13.693  0.0865  0.0230 -0.5952
 2075SOL     OW17857   2.842   3.132   0.906 -0.0034 -0.3353  0.6390
 2075SOL    HW117858   2.757   3.108   0.867  0.1516 -1.3446  0.9436
 2075SOL    HW217859   2.904   3.073   0.864  1.5249  1.6345  0.1613
 2076SOL     OW17860   3.397   2.700  15.827  0.2010  0.1807 -0.0100
 2076SOL    HW117861   3.329   2.723  15.764  1.4187 -2.1490 -2.1781
 2076SOL    HW217862   3.360   2.617  15.855  1.5313 -0.0027  1.2288
 2077SOL     OW17863   0.393   4.227   6.674  0.4109  0.0488 -0.5276
 2077SOL    HW117864   0.312   4.277   6.666  0.2479  0.0036  0.9228
 2077SOL    HW217865   0.367   4.151   6.622  2.1218  0.5617 -2.1691
 2078SOL     OW17866   3.043   2.173  13.461  0.1610  0.1409 -0.6623
 2078SOL    HW117867   3.071   2.264  13.462  1.2046 -0.1950  0.6353
 2078SOL    HW217868   3.105   2.135  13.399 -0.0617 -0.6848 -0.3790
 2079SOL     OW17869   0.148   4.029   6.203  0.3937 -0.0285 -0.1720
 2079SOL    HW117870   0.138   3.934   6.196 -2.2316  0.0705  2.3245
 2079SOL    HW217871   0.194   4.042   6.120 -0.6433 -0.5181 -0.8297
 2080SOL     OW17872   4.101   4.066   9.463  0.4452  0.5991 -0.1823
 2080SOL    HW117873   4.013   4.064   9.502  0.5600 -1.3862 -0.0162
 2080SOL    HW217874   4.106   3.972   9.447  1.4824  0.6189  0.0217
 2081SOL     OW17875   4.241   0.063   3.086  0.1205 -0.2027  0.0635
 2081SOL    HW117876   4.208   4.713   3.059 -0.7618 -0.4178  1.8142
 2081SOL    HW217877   4.202   0.126   3.025  0.9013 -0.0691 -0.2962
 2082SOL     OW17878   4.681   1.353   7.204 -0.2909 -0.5187  0.3376
 2082SOL    HW117879   4.619   1.287   7.237 -1.7196  0.2144 -0.8949
 2082SOL    HW217880   4.671   1.425   7.266  0.6893 -0.8476  0.8702
 2083SOL     OW17881   1.040   2.199   2.224 -0.4007  0.2208  0.5431
 2083SOL    HW117882   1.081   2.248   2.295  1.0479  0.3155 -0.3615
 2083SOL    HW217883   1.005   2.275   2.177  1.4310  0.2105 -0.8563
 2084SOL     OW17884   4.409   0.927   7.435  0.0488  0.1675  0.2974
 2084SOL    HW117885   4.481   0.901   7.492 -0.5263 -0.2235  0.8429
 2084SOL    HW217886   4.346   0.856   7.450  2.1313 -1.6978  0.2626
 2085SOL     OW17887   4.515   4.236  10.618  0.1355  0.0032  0.2051
 2085SOL    HW117888   4.543   4.201  10.702 -0.2812  0.7355  0.6514
 2085SOL    HW217889   4.578   4.208  10.551 -0.3306  3.4435 -1.6930
 2086SOL     OW17890   0.468   4.597   9.187  0.2735 -0.2729 -0.1632
 2086SOL    HW117891   0.469   4.670   9.125 -0.5162 -0.2685 -0.1683
 2086SOL    HW217892   0.464   4.521   9.128 -1.3842 -0.3942  0.0996
 2087SOL     OW17893   2.843   0.127   6.621 -0.5940 -0.7095  0.1770
 2087SOL    HW117894   2.873   0.214   6.592  0.2718 -0.2756  2.3996
 2087SOL    HW217895   2.768   0.110   6.564  0.0937  2.1346 -1.6161
 2088SOL     OW17896   1.056   0.434   3.004  0.4806 -0.3200  0.1069
 2088SOL    HW117897   1.082   0.515   2.962  1.9315 -1.2624 -0.7950
 2088SOL    HW217898   1.133   0.392   2.967 -0.1336 -0.8467 -0.5739
 2089SOL     OW17899   4.524   1.175   7.387  0.0726 -0.5211  0.5798
 2089SOL    HW117900   4.450   1.233   7.407 -1.2994 -1.2882 -2.2558
 2089SOL    HW217901   4.476   1.093   7.378  0.5130 -0.9023  1.7622
 2090SOL     OW17902   0.453   2.064   4.350 -0.3961  0.1471  0.4744
 2090SOL    HW117903   0.483   1.974   4.336  0.1501  0.6869 -1.6642
 2090SOL    HW217904   0.361   2.056   4.325  0.1164 -0.6324 -1.1273
 2091SOL     OW17905   4.534   3.676   6.599  0.0724  0.1100 -0.1455
 2091SOL    HW117906   4.462   3.732   6.570  0.2644 -0.0167 -0.8815
 2091SOL    HW217907   4.483   3.641   6.672  0.1964 -0.6580 -0.4219
 2092SOL     OW17908   2.776   1.517   4.736 -0.0829 -0.1230  0.4942
 2092SOL    HW117909   2.848   1.455   4.726 -0.2502 -0.0249 -1.3675
 2092SOL    HW217910   2.775   1.540   4.829  2.0509 -0.6264  0.6392
 2093SOL     OW17911   3.415   1.159   7.247  0.8561  0.2629 -0.4730
 2093SOL    HW117912   3.421   1.116   7.162  1.2011 -0.6860  0.0386
 2093SOL    HW217913   3.327   1.196   7.240  0.4117 -1.1471 -2.0994
 2094SOL     OW17914   1.908   0.913   5.994 -0.1032 -0.1198 -0.4798
 2094SOL    HW117915   1.910   0.971   5.918 -0.9807 -1.2302 -1.3546
 2094SOL    HW217916   1.856   0.962   6.058  0.1306  1.0742 -1.2035
 2095SOL     OW17917   1.436   2.603   3.150  0.0842 -0.5064  0.3130
 2095SOL    HW117918   1.370   2.653   3.197  0.5529  0.8628 -0.5048
 2095SOL    HW217919   1.473   2.540   3.213 -2.3198 -0.8777  1.3412
 2096SOL     OW17920   2.442   2.437   8.583 -0.5686 -0.2318 -0.2070
 2096SOL    HW117921   2.517   2.387   8.617 -0.4363 -0.2339 -0.4970
 2096SOL    HW217922   2.487   2.493   8.519  0.2124  1.1118  1.5085
 2097SOL     OW17923   1.076   4.394   5.771  0.0431  0.5167  0.0167
 2097SOL    HW117924   0.992   4.348   5.770 -0.0838  0.8006 -1.6473
 2097SOL    HW217925   1.106   4.368   5.858 -0.4987 -1.3982 -0.3831
 2098SOL     OW17926   3.336   4.495   5.891 -0.1314  0.0131 -0.1380
 2098SOL    HW117927   3.342   4.403   5.917  0.2973  0.3144  0.8052
 2098SOL    HW217928   3.242   4.493   5.871  0.4232 -1.9724 -2.4432
 2099SOL     OW17929   1.905   0.780   5.647  0.2753 -0.0922  0.5246
 2099SOL    HW117930   1.915   0.697   5.694 -1.4410  0.7783  2.4683
 2099SOL    HW217931   1.998   0.802   5.639  1.2027 -3.1342  2.9338
 2100SOL     OW17932   1.520   4.176   6.722 -0.0795 -0.2812 -0.5907
 2100SOL    HW117933   1.465   4.098   6.718  0.7387 -0.9381  0.6797
 2100SOL    HW217934   1.461   4.234   6.770 -0.4805  0.0631 -1.5022
 2101SOL     OW17935   1.279   2.620   2.843 -0.6925  0.3282  0.6388
 2101SOL    HW117936   1.208   2.587   2.899 -1.7280 -1.8773 -1.9880
 2101SOL    HW217937   1.293   2.711   2.871 -1.1689  1.1059 -1.6025
 2102SOL     OW17938   2.109   3.211  15.417 -0.1326  0.1359  0.0547
 2102SOL    HW117939   2.082   3.299  15.444  0.0141  0.5143 -1.0187
 2102SOL    HW217940   2.204   3.220  15.416 -0.1572  0.4148  0.2411
 2103SOL     OW17941   2.016   2.430   5.055 -0.3592 -0.7372 -0.1118
 2103SOL    HW117942   2.028   2.338   5.075  0.2522 -0.4925  0.6180
 2103SOL    HW217943   1.964   2.412   4.976 -0.9207 -1.5734  0.4468
 2104SOL     OW17944   0.561   1.642  10.592 -0.2816  0.3979 -0.0610
 2104SOL    HW117945   0.596   1.699  10.523 -2.0294 -0.1913 -1.4201
 2104SOL    HW217946   0.473   1.674  10.613  0.8492  2.6179  1.3365
 2105SOL     OW17947   0.800   0.914  13.863  0.1340 -0.0573  0.0893
 2105SOL    HW117948   0.763   0.919  13.775 -1.4840  0.1576  0.7696
 2105SOL    HW217949   0.895   0.913  13.863  0.1350  0.1450 -0.2243
 2106SOL     OW17950   3.888   0.055   1.250  0.6285 -0.1486  0.2676
 2106SOL    HW117951   3.849   0.143   1.251 -3.6570 -2.0188 -0.7549
 2106SOL    HW217952   3.873   0.029   1.159 -2.9725 -0.3371  0.9092
 2107SOL     OW17953   2.403   2.739   7.650 -0.3282 -0.2290  0.4402
 2107SOL    HW117954   2.484   2.699   7.620 -1.7133 -2.1776 -0.6738
 2107SOL    HW217955   2.443   2.811   7.700  0.6170 -0.5829  0.1764
 2108SOL     OW17956   4.533   0.956   8.706 -0.3476 -0.2719 -0.6653
 2108SOL    HW117957   4.546   0.866   8.734 -0.1038  0.0750  0.3386
 2108SOL    HW217958   4.614   0.970   8.658 -1.4588  0.4848 -2.3447
 2109SOL     OW17959   3.486   2.128  13.409 -0.4001 -0.5598  0.0319
 2109SOL    HW117960   3.531   2.156  13.329  0.9767  0.6396  1.2177
 2109SOL    HW217961   3.433   2.052  13.384  0.6716 -0.9888 -0.8876
 2110SOL     OW17962   3.311   1.770  10.143 -0.0851 -0.2410 -0.0928
 2110SOL    HW117963   3.253   1.763  10.066 -1.3323 -0.8239  0.8882
 2110SOL    HW217964   3.397   1.786  10.105 -0.4929  1.2581 -0.3931
 2111SOL     OW17965   4.168   0.303   8.082  0.9892  0.5936  0.8994
 2111SOL    HW117966   4.184   0.291   7.988  0.5166  1.8133  0.6496
 2111SOL    HW217967   4.086   0.353   8.077  0.6505 -0.2091 -1.4753
 2112SOL     OW17968   2.833   3.452   7.489  0.1482 -0.2698  0.1996
 2112SOL    HW117969   2.870   3.390   7.425  1.2947 -1.0085  1.5792
 2112SOL    HW217970   2.894   3.523   7.505  0.7657 -0.4013 -1.5158
 2113SOL     OW17971   1.864   1.751  11.568  0.2618  0.3062 -0.4233
 2113SOL    HW117972   1.958   1.757  11.550  0.4160  1.5763  0.7879
 2113SOL    HW217973   1.835   1.828  11.520  0.8902  0.5790 -0.3718
 2114SOL     OW17974   4.050   0.842  17.649 -0.1048 -0.3781  0.1505
 2114SOL    HW117975   3.997   0.782  17.701 -2.2603  0.4173 -1.1144
 2114SOL    HW217976   4.028   0.922  17.696  1.1227 -0.5240  0.9893
 2115SOL     OW17977   0.381   3.258   2.818  0.6942 -0.4195  0.3165
 2115SOL    HW117978   0.416   3.201   2.751 -0.3586  0.6858 -1.1755
 2115SOL    HW217979   0.464   3.284   2.857  1.2746  1.0834 -1.9355
 2116SOL     OW17980   3.026   1.134   8.885 -0.5660  0.0089 -0.1911
 2116SOL    HW117981   3.032   1.057   8.941  1.2299 -0.1394 -0.5917
 2116SOL    HW217982   3.040   1.095   8.799 -1.4902  1.0813 -0.8257
 2117SOL     OW17983   2.162   2.445   2.683 -0.0853  0.3050 -0.3742
 2117SOL    HW117984   2.153   2.529   2.727 -0.2640 -0.7810  1.6648
 2117SOL    HW217985   2.090   2.393   2.720  0.9032 -0.3805  0.5731
 2118SOL     OW17986   0.593   1.440   2.336  0.3188 -0.0784  0.2780
 2118SOL    HW117987   0.641   1.522   2.350  0.5311 -0.1725  0.1037
 2118SOL    HW217988   0.664   1.393   2.292  0.0006  1.2003 -1.5791
 2119SOL     OW17989   3.405   2.490   1.692 -0.7795  0.0564 -0.5725
 2119SOL    HW117990   3.491   2.481   1.731 -0.8647  0.5172 -0.2781
 2119SOL    HW217991   3.364   2.543   1.761 -2.5058 -0.5788 -1.1158
 2120SOL     OW17992   4.323   1.059   1.432  0.3271  0.1652  0.4889
 2120SOL    HW117993   4.351   1.070   1.341  0.5419 -2.3632  0.2474
 2120SOL    HW217994   4.377   0.983   1.456 -0.4057 -0.2681  0.7602
 2121SOL     OW17995   3.210   0.281   7.988 -0.0019 -0.1656  0.3998
 2121SOL    HW117996   3.221   0.375   7.980 -0.7969 -0.2091 -1.1618
 2121SOL    HW217997   3.121   0.255   7.962  0.9989 -3.3808  0.1651
 2122SOL     OW17998   0.044   2.534  17.521 -0.4458 -0.1364 -0.3085
 2122SOL    HW117999   0.060   2.501  17.433 -2.2938  0.8827 -1.0383
 2122SOL    HW218000   4.721   2.609  17.507 -0.4220  0.0502  0.5962
 2123SOL     OW18001   2.682   1.014   7.932 -0.2397  0.1636  0.0801
 2123SOL    HW118002   2.735   0.963   7.871  0.4982  1.4458 -0.3587
 2123SOL    HW218003   2.741   1.089   7.936  0.7332 -0.5346 -1.1025
 2124SOL     OW18004   1.612   1.960   2.338  0.2755  0.4417 -0.4596
 2124SOL    HW118005   1.539   1.916   2.294 -0.4694 -0.2794  1.5059
 2124SOL    HW218006   1.610   1.920   2.425 -1.4580 -0.3098 -0.8405
 2125SOL     OW18007   0.071   1.263   8.834  0.1333 -0.5467 -0.4315
 2125SOL    HW118008   0.115   1.235   8.914 -2.2145  1.7148  1.6290
 2125SOL    HW218009   4.735   1.313   8.873  0.0527  0.8726 -2.4060
 2126SOL     OW18010   3.465   3.585  16.551  0.6444 -0.2284  0.4697
 2126SOL    HW118011   3.426   3.658  16.503  0.8100  0.4478  1.3726
 2126SOL    HW218012   3.406   3.565  16.623  0.2910 -0.4386  0.1251
 2127SOL     OW18013   3.959   3.692   2.024  0.5094 -0.4699 -0.5154
 2127SOL    HW118014   3.890   3.737   1.975  1.0694  1.2591  0.2702
 2127SOL    HW218015   4.016   3.768   2.037 -1.0438  0.2616  2.0112
 2128SOL     OW18016   4.156   0.333   3.805  0.1655 -0.1956 -0.1241
 2128SOL    HW118017   4.103   0.349   3.883 -0.3010 -2.5863  0.0599
 2128SOL    HW218018   4.088   0.318   3.740  0.6341  0.4478 -0.7541
 2129SOL     OW18019   4.451   0.661   5.564 -0.0050 -0.5454  0.1170
 2129SOL    HW118020   4.452   0.693   5.474 -0.5759  0.0739  0.3229
 2129SOL    HW218021   4.459   0.745   5.611  0.9487  0.1769 -1.3430
 2130SOL     OW18022   0.997   4.278  13.606 -0.0802 -0.3209 -0.1815
 2130SOL    HW118023   1.053   4.265  13.683  0.1104  0.2154 -0.2305
 2130SOL    HW218024   0.966   4.190  13.585 -2.1293  0.0834  1.1083
 2131SOL     OW18025   3.428   0.044  12.347  0.7146  0.2370  0.2533
 2131SOL    HW118026   3.463   0.004  12.268 -0.6327 -2.0017  0.7914
 2131SOL    HW218027   3.441   4.710  12.410 -2.5359  0.1787  0.8437
 2132SOL     OW18028   3.829   1.228  12.775  0.0523  0.0889 -0.0639
 2132SOL    HW118029   3.923   1.242  12.790  0.2612 -1.3945 -0.0328
 2132SOL    HW218030   3.823   1.138  12.807  2.1775 -0.4126 -1.0740
 2133SOL     OW18031   2.059   3.396  14.735  0.4825  0.0856  0.3935
 2133SOL    HW118032   2.124   3.464  14.719 -2.0892  1.8540 -2.3385
 2133SOL    HW218033   1.990   3.460  14.750  1.0155  0.7047  0.1793
 2134SOL     OW18034   2.057   0.155   6.889  0.1714 -0.0331 -0.3225
 2134SOL    HW118035   2.095   0.068   6.906 -0.8190 -0.6108 -1.0185
 2134SOL    HW218036   1.985   0.125   6.833 -2.2822 -0.4856  3.1229
 2135SOL     OW18037   4.668   0.930  11.660  0.4020  0.2516  0.1122
 2135SOL    HW118038   4.584   0.910  11.702 -0.2284 -2.2159 -2.3216
 2135SOL    HW218039   4.687   0.863  11.594  3.3669  2.5761 -1.3485
 2136SOL     OW18040   2.666   0.051   3.741 -0.3290 -0.0238  0.0289
 2136SOL    HW118041   2.727   0.009   3.681 -1.8160 -1.1088 -0.7453
 2136SOL    HW218042   2.585   0.003   3.723 -0.2754 -0.1685  0.1785
 2137SOL     OW18043   2.433   3.406   4.900 -0.1547  0.6230  0.2220
 2137SOL    HW118044   2.424   3.370   4.988  0.6524  0.3199  0.1799
 2137SOL    HW218045   2.374   3.352   4.847  2.0461 -1.0706 -0.4728
 2138SOL     OW18046   0.567   2.173   3.284 -0.0444 -0.7503 -0.3981
 2138SOL    HW118047   0.557   2.079   3.268 -1.0931 -0.3704 -1.9002
 2138SOL    HW218048   0.531   2.216   3.207  0.9292  0.8625  0.0470
 2139SOL     OW18049   4.123   2.310  10.214  0.4293 -0.0344  0.0123
 2139SOL    HW118050   4.180   2.241  10.181  1.2749  0.9343 -0.5500
 2139SOL    HW218051   4.119   2.290  10.308  0.3472 -0.0583  0.0040
 2140SOL     OW18052   3.273   3.606  11.011 -0.3284 -0.0211  0.2469
 2140SOL    HW118053   3.221   3.682  11.034  3.1185  1.7413  2.2654
 2140SOL    HW218054   3.217   3.573  10.941  2.0520 -1.5438 -0.9487
 2141SOL     OW18055   2.882   3.242   5.033  0.1317  0.2297 -0.1189
 2141SOL    HW118056   2.941   3.257   4.959  1.7683 -0.0869  1.1126
 2141SOL    HW218057   2.800   3.265   4.990 -0.3501 -1.2538  0.0169
 2142SOL     OW18058   3.191   2.052   7.617 -0.1280  0.3169 -0.1101
 2142SOL    HW118059   3.123   1.985   7.616  0.0395  0.1489 -0.2717
 2142SOL    HW218060   3.140   2.133   7.624 -2.0213 -0.8894  0.1831
 2143SOL     OW18061   0.056   4.504  12.826 -0.2558 -0.1223  0.5085
 2143SOL    HW118062   0.151   4.505  12.834 -0.2084  2.2200 -0.3397
 2143SOL    HW218063   0.051   4.558  12.904 -4.2042  0.1095  0.0668
 2144SOL     OW18064   0.591   0.875   5.437  0.0360  0.3084 -0.3946
 2144SOL    HW118065   0.568   0.852   5.527 -0.2730  2.3369  0.0477
 2144SOL    HW218066   0.662   0.811   5.432 -0.7340 -0.6681  1.1421
 2145SOL     OW18067   4.667   3.040   6.430  0.2603 -0.1493 -0.3282
 2145SOL    HW118068   0.009   3.090   6.452 -0.4091 -0.2484  2.2927
 2145SOL    HW218069   4.615   3.043   6.510  2.0214  1.6294  0.7641
 2146SOL     OW18070   1.753   3.055   3.919 -0.4454  0.1596 -0.6397
 2146SOL    HW118071   1.803   3.064   4.000 -1.1978 -1.1445 -0.0175
 2146SOL    HW218072   1.824   3.033   3.859  0.7954 -0.2065  0.9467
 2147SOL     OW18073   2.085   3.179   3.384  0.0745 -0.0177  0.4974
 2147SOL    HW118074   2.166   3.199   3.429  1.6959 -2.3384 -1.3585
 2147SOL    HW218075   2.042   3.128   3.452 -2.4825  1.4005 -0.0335
 2148SOL     OW18076   2.850   3.614   3.608 -0.0697 -0.5929 -0.0633
 2148SOL    HW118077   2.868   3.617   3.514 -1.8401  2.1062 -0.3133
 2148SOL    HW218078   2.822   3.704   3.624 -0.1789 -0.7198  0.4425
 2149SOL     OW18079   2.275   2.868   8.816  0.4325 -0.5261 -0.0359
 2149SOL    HW118080   2.222   2.948   8.816 -0.4243 -1.1036  0.2313
 2149SOL    HW218081   2.272   2.851   8.722  0.2391  1.6013 -0.4201
 2150SOL     OW18082   2.407   2.110   9.578 -1.0098 -0.1128 -0.3890
 2150SOL    HW118083   2.374   2.193   9.542 -4.1337 -0.9956  0.3928
 2150SOL    HW218084   2.354   2.104   9.658  1.5186  1.9721  1.4744
 2151SOL     OW18085   3.058   0.251   5.392 -0.2300 -0.4486 -0.5853
 2151SOL    HW118086   3.027   0.266   5.481  0.2871 -0.1689 -0.4534
 2151SOL    HW218087   3.152   0.267   5.400 -0.3067 -0.1267 -0.3100
 2152SOL     OW18088   3.542   3.253   5.086  0.5703  1.0872  0.4522
 2152SOL    HW118089   3.637   3.260   5.092  0.9515 -2.2753 -2.0167
 2152SOL    HW218090   3.521   3.270   4.994  0.1853 -2.9320 -0.1998
 2153SOL     OW18091   1.562   1.544   3.847 -0.0479  0.1616  0.0022
 2153SOL    HW118092   1.479   1.548   3.895  0.0346 -0.6492  0.2046
 2153SOL    HW218093   1.551   1.595   3.767 -0.0262  0.1177 -0.0287
 2154SOL     OW18094   4.145   2.305  17.561 -0.3471  0.6827 -0.5899
 2154SOL    HW118095   4.051   2.292  17.577 -0.0956 -0.3804  0.0829
 2154SOL    HW218096   4.169   2.231  17.506  0.7455  0.0851  0.6944
 2155SOL     OW18097   3.286   4.732   6.158 -0.0717 -0.2085 -0.3356
 2155SOL    HW118098   3.293   0.009   6.253 -0.3970 -0.5132 -0.2678
 2155SOL    HW218099   3.371   0.020   6.122  0.9619 -0.0993  2.1343
 2156SOL     OW18100   0.024   0.740   3.807  0.0796  0.2853 -0.4548
 2156SOL    HW118101   4.721   0.752   3.893 -2.8520 -1.3615 -1.5541
 2156SOL    HW218102   4.728   0.650   3.800  1.5574 -0.3958  1.4726
 2157SOL     OW18103   2.778   3.332   3.333  0.0946 -0.2388 -0.2877
 2157SOL    HW118104   2.699   3.385   3.345 -0.3320 -0.1862 -3.2237
 2157SOL    HW218105   2.801   3.354   3.242 -0.0107  2.0200  0.2366
 2158SOL     OW18106   0.942   1.467   3.139 -0.4205  0.3581  0.5386
 2158SOL    HW118107   0.961   1.389   3.087 -1.4281 -0.6666  1.7112
 2158SOL    HW218108   1.014   1.464   3.202 -0.2092 -2.2006  0.1868
 2159SOL     OW18109   2.518   4.296   1.594  0.3729  0.3832 -0.0868
 2159SOL    HW118110   2.510   4.201   1.585  3.8479  0.1917 -0.9009
 2159SOL    HW218111   2.497   4.312   1.686 -1.2223 -2.7099  0.0803
 2160SOL     OW18112   0.473   1.285   2.525  0.6464  0.6188 -0.6562
 2160SOL    HW118113   0.525   1.326   2.456  0.6486  0.6144 -0.6572
 2160SOL    HW218114   0.386   1.304   2.488 -0.8346  0.3758  2.7511
 2161SOL     OW18115   2.093   1.405  10.172  0.1456 -0.2391  0.5683
 2161SOL    HW118116   2.137   1.344  10.232 -1.0929 -1.7995 -0.1107
 2161SOL    HW218117   2.009   1.429  10.211  0.1894  2.2223 -0.8643
 2162SOL     OW18118   4.364   3.337  17.363  0.1713  0.3428  0.1817
 2162SOL    HW118119   4.431   3.325  17.430 -0.3361  0.4668  0.7137
 2162SOL    HW218120   4.283   3.323  17.411  0.0743 -2.7883 -0.8570
 2163SOL     OW18121   4.368   1.933   6.031 -0.4906  0.0519 -0.2025
 2163SOL    HW118122   4.382   1.883   5.951 -1.4456 -0.7183  0.1174
 2163SOL    HW218123   4.458   1.932   6.062 -1.0642 -0.7650  1.4232
 2164SOL     OW18124   2.258   0.995  15.554  0.3233 -0.0043 -0.0089
 2164SOL    HW118125   2.206   0.916  15.570  0.2022  0.2460  0.8274
 2164SOL    HW218126   2.222   1.060  15.614  4.2414  1.6522  0.5483
 2165SOL     OW18127   2.500   3.723   7.673 -0.5592 -0.1428  0.1933
 2165SOL    HW118128   2.530   3.657   7.735 -0.8044  1.8538  2.4817
 2165SOL    HW218129   2.420   3.746   7.721 -0.7453 -0.4171  0.0116
 2166SOL     OW18130   0.552   0.522   7.087 -0.0244 -0.2658 -0.0809
 2166SOL    HW118131   0.519   0.565   7.166  1.7316  0.2591  0.3788
 2166SOL    HW218132   0.492   0.447   7.083 -0.2132 -0.2645  2.5858
 2167SOL     OW18133   4.461   0.996   9.617 -0.3948 -0.1261 -0.0688
 2167SOL    HW118134   4.386   0.943   9.645 -0.7710  1.0312  1.0854
 2167SOL    HW218135   4.423   1.080   9.591 -2.5979 -1.5726 -1.5637
 2168SOL     OW18136   3.565   0.474   0.791 -0.0847  0.4466  0.2188
 2168SOL    HW118137   3.563   0.539   0.861 -1.5325 -0.1007  0.6880
 2168SOL    HW218138   3.561   0.535   0.718 -1.6792  0.2833  0.1814
 2169SOL     OW18139   1.237   0.962   3.388  0.0458  0.0338 -0.3905
 2169SOL    HW118140   1.293   1.039   3.388 -1.5339  1.1845  0.2342
 2169SOL    HW218141   1.163   1.015   3.359  0.0769  0.3799  0.1580
 2170SOL     OW18142   0.855   3.305   4.128 -0.3833  0.3308  0.3154
 2170SOL    HW118143   0.856   3.212   4.104  0.7538  0.1303  1.1552
 2170SOL    HW218144   0.922   3.341   4.071 -2.0756  1.9426 -0.6658
 2171SOL     OW18145   2.890   0.438   8.487 -0.0811  0.2115 -0.1399
 2171SOL    HW118146   2.963   0.499   8.476 -1.6348  1.5801 -2.8496
 2171SOL    HW218147   2.834   0.489   8.545 -0.4941 -1.0204  0.5352
 2172SOL     OW18148   2.840   3.327   2.771  0.0693 -0.0037  0.1231
 2172SOL    HW118149   2.842   3.337   2.675 -1.6445  0.8084  0.1695
 2172SOL    HW218150   2.781   3.253   2.783 -1.1797  1.0095  0.1776
 2173SOL     OW18151   1.238   2.443   2.025  0.4373  0.4230 -0.0488
 2173SOL    HW118152   1.264   2.488   2.105  1.7150 -0.7679  0.1993
 2173SOL    HW218153   1.318   2.407   1.986  1.1067  0.6777  1.1016
 2174SOL     OW18154   3.898   1.465   0.137  0.0578  0.3020  0.3574
 2174SOL    HW118155   3.873   1.516   0.059  0.1811  3.0020  2.0943
 2174SOL    HW218156   3.814   1.443   0.177 -0.4337  1.7649  0.1427
 2175SOL     OW18157   0.072   3.946  10.926 -0.1595  0.3077  0.7934
 2175SOL    HW118158   0.056   3.894  11.005  1.7057  2.4628  2.5897
 2175SOL    HW218159   0.066   3.879  10.858 -0.2826  0.0137  1.0920
 2176SOL     OW18160   3.348   2.007   2.572  0.2965  0.1024  0.0115
 2176SOL    HW118161   3.291   1.936   2.602  1.6001 -1.1316 -0.4423
 2176SOL    HW218162   3.306   2.027   2.488  0.9337 -0.5019 -0.4452
 2177SOL     OW18163   3.046   1.311   3.722 -0.0093 -0.1478  0.2643
 2177SOL    HW118164   3.094   1.260   3.657 -1.2722 -0.2386 -0.6148
 2177SOL    HW218165   2.963   1.329   3.677  0.1894 -2.0249 -0.8506
 2178SOL     OW18166   4.528   1.770  14.673  0.5926  0.5453 -0.3855
 2178SOL    HW118167   4.618   1.793  14.649  0.9530 -0.7820 -0.3088
 2178SOL    HW218168   4.492   1.790  14.587 -0.9997 -2.6778 -0.4981
 2179SOL     OW18169   4.350   3.570   2.615  0.0782  0.3788  0.0478
 2179SOL    HW118170   4.401   3.596   2.539  1.0973  0.5334  0.7808
 2179SOL    HW218171   4.290   3.645   2.624 -1.0862 -0.6168  0.7049
 2180SOL     OW18172   4.488   4.130   4.587  0.2032 -0.1432 -0.2347
 2180SOL    HW118173   4.520   4.072   4.518 -0.7982 -0.9038 -0.0616
 2180SOL    HW218174   4.567   4.176   4.616  0.3116  0.1193 -0.9304
 2181SOL     OW18175   3.515   0.478   6.104  0.2651  0.4985  0.2442
 2181SOL    HW118176   3.470   0.541   6.048 -1.1100 -0.5067  0.2261
 2181SOL    HW218177   3.468   0.397   6.084  0.6911  0.7885 -1.8455
 2182SOL     OW18178   0.652   1.929   3.236 -0.1952 -0.3875  0.1556
 2182SOL    HW118179   0.706   1.982   3.295 -1.7033  1.8183 -0.4293
 2182SOL    HW218180   0.714   1.857   3.228 -1.6392 -1.5422 -0.5711
 2183SOL     OW18181   2.287   1.935  12.546 -0.1672 -0.4305 -0.4162
 2183SOL    HW118182   2.253   1.894  12.625 -1.5432 -0.6652 -1.1428
 2183SOL    HW218183   2.208   1.944  12.494  0.1914  2.0804 -0.5325
 2184SOL     OW18184   0.190   3.975   4.657  0.3692 -0.6383 -0.1988
 2184SOL    HW118185   0.133   4.052   4.660  0.0296 -0.7987 -2.2684
 2184SOL    HW218186   0.219   3.962   4.747  1.2709  2.6894 -0.0228
 2185SOL     OW18187   3.329   4.356   1.191 -0.2255 -0.0240  0.2256
 2185SOL    HW118188   3.296   4.440   1.222  1.0819  1.4209 -2.2862
 2185SOL    HW218189   3.412   4.344   1.238  0.5909 -0.7306 -1.3648
 2186SOL     OW18190   1.624   4.659  13.023 -0.4645  0.0004 -0.1180
 2186SOL    HW118191   1.683   4.589  12.997 -0.0266 -0.4402  2.0625
 2186SOL    HW218192   1.615   4.708  12.941 -0.5022 -0.1759 -0.2191
 2187SOL     OW18193   1.453   0.712   2.783  0.0279  0.9141 -0.9156
 2187SOL    HW118194   1.508   0.669   2.718  0.9936  0.4408  0.2047
 2187SOL    HW218195   1.381   0.650   2.793  1.2968 -0.2642  0.8209
 2188SOL     OW18196   0.147   1.366  11.851  0.5042  0.2193  0.0754
 2188SOL    HW118197   0.118   1.384  11.762  0.1645  1.3103  0.4055
 2188SOL    HW218198   0.110   1.280  11.873 -0.4360  0.7552  0.5610
 2189SOL     OW18199   0.849   1.024   2.318  0.3076  0.1665  1.1109
 2189SOL    HW118200   0.943   1.043   2.313  0.4514 -1.0364 -0.6850
 2189SOL    HW218201   0.840   0.929   2.313 -0.5054  0.2870  0.2620
 2190SOL     OW18202   0.921   1.652   7.122  0.1680  0.4228 -0.3900
 2190SOL    HW118203   0.914   1.716   7.193 -1.1291 -1.7668  1.4904
 2190SOL    HW218204   0.887   1.698   7.045  0.7885  2.0518  0.3200
 2191SOL     OW18205   1.065   4.341   8.791  0.1120 -0.3552  0.0860
 2191SOL    HW118206   1.143   4.322   8.739  2.8432  1.9261  3.3527
 2191SOL    HW218207   1.077   4.275   8.858 -0.2056  1.4960  1.9661
 2192SOL     OW18208   2.481   2.404   4.210 -0.1907  0.0812  0.3064
 2192SOL    HW118209   2.467   2.417   4.116  0.4155  4.1430  0.8093
 2192SOL    HW218210   2.482   2.308   4.207  3.4755  0.0386  2.7817
 2193SOL     OW18211   1.777   4.135   4.013  0.0257  0.2643 -0.1683
 2193SOL    HW118212   1.823   4.112   4.093 -2.0206 -1.7317  0.4364
 2193SOL    HW218213   1.715   4.063   4.001 -0.7302  0.6793  1.3448
 2194SOL     OW18214   2.955   4.632   8.680  0.3437  0.9020  0.5157
 2194SOL    HW118215   2.881   4.619   8.739 -1.0832  2.6858 -0.8627
 2194SOL    HW218216   2.911   4.668   8.603  0.1080 -3.4465 -1.3673
 2195SOL     OW18217   3.621   0.594   5.708 -0.2192  0.3960 -0.3718
 2195SOL    HW118218   3.629   0.689   5.702 -0.0078  0.4229  0.3175
 2195SOL    HW218219   3.714   0.583   5.727 -0.1335  0.0380 -1.0099
 2196SOL     OW18220   0.778   4.559   8.342  0.3862 -0.4334 -0.0369
 2196SOL    HW118221   0.720   4.631   8.318  2.0981  1.4093  1.4187
 2196SOL    HW218222   0.837   4.594   8.409 -1.7720  0.4269  1.3843
 2197SOL     OW18223   4.310   4.663   7.078  0.1651 -0.1691  0.3100
 2197SOL    HW118224   4.236   4.642   7.021 -0.3833 -2.2947  1.8064
 2197SOL    HW218225   4.383   4.671   7.017 -0.7066  3.3658 -0.2743
 2198SOL     OW18226   4.551   0.712   3.280 -0.7626  0.0410  0.7395
 2198SOL    HW118227   4.506   0.767   3.344 -2.8568  0.4581 -1.0526
 2198SOL    HW218228   4.640   0.746   3.286 -0.4350 -1.0032  1.6593
 2199SOL     OW18229   2.022   0.090   4.995 -0.1035  0.0823 -0.1682
 2199SOL    HW118230   2.061   0.175   4.976 -1.7806  1.4011  2.3090
 2199SOL    HW218231   2.068   0.071   5.076 -1.1102 -1.5770  0.0150
 2200SOL     OW18232   0.308   0.826   7.144 -0.5238  0.4263  0.4210
 2200SOL    HW118233   0.306   0.853   7.236 -0.4071  1.9226 -0.0111
 2200SOL    HW218234   0.354   0.902   7.106  2.1025 -2.5398 -2.3125
 2201SOL     OW18235   3.825   2.902   6.404 -0.1307  0.2482  0.3154
 2201SOL    HW118236   3.824   2.905   6.309  0.4310  1.3042  0.3458
 2201SOL    HW218237   3.761   2.835   6.425 -0.7297  0.8419  0.3862
 2202SOL     OW18238   3.109   3.602   3.913  0.3607 -0.4031 -0.1850
 2202SOL    HW118239   3.069   3.600   4.000 -1.9454 -0.2196 -1.2230
 2202SOL    HW218240   3.194   3.642   3.929  0.0836 -0.0130  0.3138
 2203SOL     OW18241   1.382   4.583  11.862  0.0598  0.6957 -0.0710
 2203SOL    HW118242   1.305   4.636  11.843 -1.5136 -1.1972  1.0247
 2203SOL    HW218243   1.410   4.615  11.948  0.6110  0.5893 -0.2121
 2204SOL     OW18244   3.614   1.227   0.789 -0.1190 -0.4011 -0.1955
 2204SOL    HW118245   3.579   1.138   0.791  0.1269 -0.5014 -0.3632
 2204SOL    HW218246   3.600   1.261   0.878  0.1479 -0.9745  0.0685
 2205SOL     OW18247   2.901   4.724   9.561 -0.1302 -0.1824 -0.4472
 2205SOL    HW118248   2.835   0.028   9.505 -1.1653  0.8534  1.4962
 2205SOL    HW218249   2.849   4.656   9.603 -1.1074  1.5283  1.1548
 2206SOL     OW18250   0.753   4.461  12.097 -0.5447  0.1063  0.7331
 2206SOL    HW118251   0.681   4.502  12.145  0.6667 -0.4381  3.0588
 2206SOL    HW218252   0.804   4.426  12.171  1.8566  1.7917 -0.1186
 2207SOL     OW18253   1.784   1.274  16.453  0.1895 -0.1325  0.6296
 2207SOL    HW118254   1.717   1.275  16.521  0.7630 -0.3904  1.1967
 2207SOL    HW218255   1.849   1.206  16.474  0.4979  0.9844  3.2758
 2208SOL     OW18256   2.733   2.633   9.292  0.2552 -0.3985 -0.1410
 2208SOL    HW118257   2.716   2.717   9.335 -0.5564  0.5456 -2.2978
 2208SOL    HW218258   2.665   2.575   9.325 -0.0290 -0.9248 -1.6803
 2209SOL     OW18259   2.114   2.081   7.624 -0.8379 -0.0897 -0.0617
 2209SOL    HW118260   2.184   2.068   7.560 -1.7028 -1.3843 -0.7519
 2209SOL    HW218261   2.043   2.119   7.572 -1.6238 -3.2776 -1.3419
 2210SOL     OW18262   3.747   3.759   9.020  0.2555 -0.1511 -0.3068
 2210SOL    HW118263   3.689   3.683   9.023  1.0399 -0.5839  4.1124
 2210SOL    HW218264   3.758   3.769   8.926 -0.0029 -1.3483 -0.4569
 2211SOL     OW18265   1.953   2.657   4.659 -0.1849 -0.1987  0.2454
 2211SOL    HW118266   1.903   2.647   4.740  1.6574  1.0804  1.5437
 2211SOL    HW218267   2.037   2.626   4.692  0.5531 -3.5767 -4.7527
 2212SOL     OW18268   4.578   1.087   4.453  0.0080 -0.0356 -0.0518
 2212SOL    HW118269   4.664   1.076   4.493  0.3516  2.2536 -0.1501
 2212SOL    HW218270   4.588   1.148   4.380  1.0622 -0.0535  0.0792
 2213SOL     OW18271   0.837   1.030   3.051  0.3489 -0.2059  0.3322
 2213SOL    HW118272   0.782   0.963   3.092  2.4620 -1.3984  1.2110
 2213SOL    HW218273   0.803   1.042   2.962  1.2443  1.6332  0.2344
 2214SOL     OW18274   2.352   2.947   5.763  0.3072 -0.2923 -0.1497
 2214SOL    HW118275   2.350   2.926   5.670 -0.3841 -0.3663 -0.1185
 2214SOL    HW218276   2.400   2.870   5.793 -1.1459 -0.8905  0.6210
 2215SOL     OW18277   2.814   3.428   0.096 -0.1387  0.2780  0.2169
 2215SOL    HW118278   2.909   3.441   0.092 -0.1723  0.6069  0.4539
 2215SOL    HW218279   2.802   3.376   0.175  0.2823 -0.9969 -0.5723
 2216SOL     OW18280   0.018   2.208  13.414 -0.1811  1.0950 -0.0284
 2216SOL    HW118281   4.697   2.284  13.425 -1.4217 -0.3028  3.1984
 2216SOL    HW218282   0.027   2.200  13.319 -1.8716 -0.6771 -0.0269
 2217SOL     OW18283   1.667   2.327  12.092  0.0848 -0.3617  0.3317
 2217SOL    HW118284   1.714   2.249  12.121  1.0321 -0.2398 -0.8955
 2217SOL    HW218285   1.575   2.301  12.100 -0.2986  1.5431  2.1331
 2218SOL     OW18286   2.301   4.041  16.636  0.1213  0.5110  0.5216
 2218SOL    HW118287   2.360   3.975  16.672 -0.4189 -0.7245 -0.8695
 2218SOL    HW218288   2.223   4.048  16.690 -2.2433  0.0197 -2.8597
 2219SOL     OW18289   1.252   4.166   2.335  0.0837  0.1476  0.2481
 2219SOL    HW118290   1.178   4.106   2.336  2.1521 -2.4172  0.3795
 2219SOL    HW218291   1.213   4.222   2.402  0.6036  1.4802 -0.5482
 2220SOL     OW18292   4.451   1.679   7.649 -0.6759 -0.5102  0.9712
 2220SOL    HW118293   4.481   1.727   7.727  0.1792  3.0523 -1.5408
 2220SOL    HW218294   4.357   1.695   7.656 -1.1901 -2.8100 -0.9937
 2221SOL     OW18295   2.900   2.262   2.782 -0.2809  0.1915  0.0474
 2221SOL    HW118296   2.831   2.251   2.848 -0.3453  1.8289  0.2642
 2221SOL    HW218297   2.953   2.317   2.840  3.0486 -0.3106 -2.5462
 2222SOL     OW18298   4.267   3.713   7.587  0.2801  0.1356 -0.2735
 2222SOL    HW118299   4.219   3.642   7.630  1.4297 -1.1606 -1.0833
 2222SOL    HW218300   4.296   3.665   7.509 -3.8629 -1.7559 -0.6566
 2223SOL     OW18301   2.969   3.817   5.680  0.0424 -0.5658 -0.2345
 2223SOL    HW118302   3.022   3.807   5.601  0.2398 -3.3672  0.2625
 2223SOL    HW218303   2.998   3.741   5.732  0.5949  0.5935  1.1569
 2224SOL     OW18304   3.929   2.126   9.582 -0.4319 -0.1652  0.3122
 2224SOL    HW118305   4.020   2.099   9.597 -0.8031 -1.8731 -0.6005
 2224SOL    HW218306   3.880   2.048   9.608  1.0258 -1.5751 -1.2226
 2225SOL     OW18307   1.777   4.436  12.898  0.2333 -0.0730 -0.1288
 2225SOL    HW118308   1.776   4.404  12.988 -1.8835 -1.0062 -0.4905
 2225SOL    HW218309   1.868   4.419  12.875  0.5477  0.6482  0.6022
 2226SOL     OW18310   0.520   2.458  14.226  0.1041 -0.2938  0.3236
 2226SOL    HW118311   0.492   2.393  14.291  0.7660  1.0734  1.9681
 2226SOL    HW218312   0.499   2.418  14.142  1.6058 -0.8793  0.2350
 2227SOL     OW18313   1.214   3.150   8.070  0.0710 -0.1540 -0.1255
 2227SOL    HW118314   1.190   3.231   8.025 -1.4537 -1.1848 -1.1664
 2227SOL    HW218315   1.309   3.148   8.081 -0.0845  1.8851  1.4123
 2228SOL     OW18316   2.639   1.733  10.559  0.0392  0.2829  0.3775
 2228SOL    HW118317   2.635   1.744  10.464 -2.4528  0.3145  0.4613
 2228SOL    HW218318   2.601   1.645  10.568 -0.1736  0.3639  0.2748
 2229SOL     OW18319   1.203   2.051   5.426 -0.0923 -0.0069 -0.2204
 2229SOL    HW118320   1.298   2.043   5.419 -0.4673 -2.6252 -2.2306
 2229SOL    HW218321   1.188   2.085   5.338 -0.6366 -0.9731 -0.4994
 2230SOL     OW18322   2.805   3.309   5.978  0.4057  0.0687 -0.1549
 2230SOL    HW118323   2.754   3.359   6.041  3.1292  2.1211  0.4576
 2230SOL    HW218324   2.753   3.315   5.898 -0.6803  1.0453  0.6234
 2231SOL     OW18325   3.483   1.052   6.738 -0.4057  0.4024 -0.3938
 2231SOL    HW118326   3.549   1.122   6.741 -2.3840  2.2285  0.7481
 2231SOL    HW218327   3.545   0.980   6.747  0.4059  0.8425 -2.2877
 2232SOL     OW18328   0.160   1.102   2.090 -0.3255 -0.7642  0.3513
 2232SOL    HW118329   0.255   1.099   2.100 -0.1616 -0.5740 -1.1062
 2232SOL    HW218330   0.127   1.117   2.179  0.5665 -1.2268  0.7564
 2233SOL     OW18331   2.031   4.430   8.418  0.0181  0.5203 -0.9578
 2233SOL    HW118332   2.117   4.390   8.406  0.0940  0.2119  0.6507
 2233SOL    HW218333   1.980   4.351   8.406  0.1384  0.5775 -1.8733
 2234SOL     OW18334   1.594   2.492   4.416  0.0193 -0.0892  0.1682
 2234SOL    HW118335   1.516   2.499   4.470 -0.5277  1.1308 -0.7810
 2234SOL    HW218336   1.628   2.581   4.409 -0.1085  0.0509  1.3729
 2235SOL     OW18337   3.943   0.792   1.808 -0.3223 -0.0410  0.2929
 2235SOL    HW118338   3.991   0.758   1.732  0.3293  4.7893 -1.4521
 2235SOL    HW218339   4.009   0.839   1.858  1.1908 -1.5803 -0.2476
 2236SOL     OW18340   1.936   1.718   6.634  0.4495  0.2239 -0.2573
 2236SOL    HW118341   1.967   1.757   6.716  1.7680 -0.0170 -0.6536
 2236SOL    HW218342   2.002   1.761   6.580  2.3233 -1.7533  0.4925
 2237SOL     OW18343   0.770   4.493   4.958 -0.3007 -0.2039  0.0191
 2237SOL    HW118344   0.790   4.522   4.869  0.1448  0.9242  0.4810
 2237SOL    HW218345   0.692   4.440   4.942 -0.3261 -0.4291  0.8636
 2238SOL     OW18346   3.851   2.218   3.944  0.4287 -0.0132  0.5528
 2238SOL    HW118347   3.927   2.264   3.909 -0.7964  0.4202 -1.4989
 2238SOL    HW218348   3.809   2.293   3.986 -0.9995  0.2739 -1.3889
 2239SOL     OW18349   1.020   4.600   1.941  0.1672  0.3984  0.4420
 2239SOL    HW118350   0.927   4.620   1.932  0.2650  0.6000 -0.1211
 2239SOL    HW218351   1.071   4.680   1.943  0.5853  0.1000  1.7174
 2240SOL     OW18352   0.293   3.743   7.047  0.7921  0.1456 -0.0480
 2240SOL    HW118353   0.361   3.683   7.017  0.6092 -0.8464  1.5590
 2240SOL    HW218354   0.335   3.806   7.105  1.3141  0.4170 -0.7269
 2241SOL     OW18355   0.616   2.777   4.373  0.0382  0.5318 -0.0298
 2241SOL    HW118356   0.556   2.703   4.384 -1.5797  1.8041 -0.2183
 2241SOL    HW218357   0.671   2.740   4.442  0.3783 -0.1523 -0.6767
 2242SOL     OW18358   3.121   2.299   1.235  0.0476 -0.2530  0.1181
 2242SOL    HW118359   3.202   2.302   1.286  0.5763  1.6841 -0.8435
 2242SOL    HW218360   3.145   2.245   1.160  3.3731  1.9989 -0.4326
 2243SOL     OW18361   2.858   1.827   4.997  0.0166 -0.2807 -0.3168
 2243SOL    HW118362   2.836   1.839   5.089  2.3349 -0.5015  0.2491
 2243SOL    HW218363   2.779   1.855   4.949 -1.2172 -1.0918  1.2652
 2244SOL     OW18364   3.453   1.992   2.156  0.3004 -0.6645  0.3442
 2244SOL    HW118365   3.468   2.029   2.069 -2.1407  1.5045  0.8579
 2244SOL    HW218366   3.362   2.014   2.176  0.1397  0.2405 -1.3531
 2245SOL     OW18367   1.220   0.960   6.709 -0.3852  0.1102 -0.0590
 2245SOL    HW118368   1.205   1.004   6.626 -1.4340 -0.4984 -0.1964
 2245SOL    HW218369   1.205   0.870   6.681 -0.6891  0.0168  0.3862
 2246SOL     OW18370   3.343   3.397   3.144 -0.0536 -0.3471  0.0068
 2246SOL    HW118371   3.313   3.471   3.198 -2.9460 -1.4624 -0.0342
 2246SOL    HW218372   3.358   3.447   3.064  1.9099 -1.7513 -0.4825
 2247SOL     OW18373   3.697   0.166   4.361  0.3406 -0.4061  0.1656
 2247SOL    HW118374   3.696   0.070   4.369 -1.1977 -0.4198 -0.2226
 2247SOL    HW218375   3.789   0.185   4.383  1.1195  0.2932 -3.6728
 2248SOL     OW18376   1.465   2.670  16.852  0.2865 -0.4603  0.4445
 2248SOL    HW118377   1.438   2.588  16.810  2.5071 -0.1158 -1.6080
 2248SOL    HW218378   1.435   2.739  16.792 -0.4717 -0.5085  0.7601
 2249SOL     OW18379   4.559   3.314   8.580 -0.0061  0.4718  0.1623
 2249SOL    HW118380   4.601   3.390   8.620  1.7955 -0.5382  0.1842
 2249SOL    HW218381   4.610   3.308   8.499  0.0590  1.5746  0.1159
 2250SOL     OW18382   2.073   0.139   1.100 -0.0514  0.0556 -0.3772
 2250SOL    HW118383   2.062   0.234   1.094 -1.7100 -0.2905 -2.7135
 2250SOL    HW218384   1.986   0.105   1.120 -0.0915  0.1858 -0.3361
 2251SOL     OW18385   0.142   3.770   7.854 -0.3443  0.7966  0.1574
 2251SOL    HW118386   0.083   3.694   7.862 -1.7178  2.2535  4.2555
 2251SOL    HW218387   0.223   3.731   7.820 -0.1800  0.9905  0.3297
 2252SOL     OW18388   1.888   2.522   6.353 -0.3992 -0.0820  0.4279
 2252SOL    HW118389   1.920   2.569   6.276  0.1904 -3.0478 -1.1525
 2252SOL    HW218390   1.879   2.428   6.333 -0.6300 -0.5586  2.8384
 2253SOL     OW18391   0.595   2.811   1.888  0.3432 -0.1079  0.4746
 2253SOL    HW118392   0.566   2.827   1.978 -1.3431  2.7207 -0.5571
 2253SOL    HW218393   0.543   2.869   1.833  1.7363  0.8643  0.1978
 2254SOL     OW18394   0.933   0.171   2.882 -0.4490 -1.0811 -0.5634
 2254SOL    HW118395   1.006   0.230   2.865 -0.8687  0.0550  1.4757
 2254SOL    HW218396   0.856   0.216   2.846  0.3648  0.4863 -0.3316
 2255SOL     OW18397   4.462   3.941   1.279  0.0968  0.3683  0.5919
 2255SOL    HW118398   4.380   3.929   1.232  0.1939 -0.5671  0.6607
 2255SOL    HW218399   4.420   3.973   1.359 -0.8732  0.4950  0.0338
 2256SOL     OW18400   1.665   1.305   7.660  0.6262 -0.1556  0.1490
 2256SOL    HW118401   1.757   1.327   7.680  0.3626  0.8116  0.2952
 2256SOL    HW218402   1.639   1.259   7.739 -0.3056 -1.4888 -0.9488
 2257SOL     OW18403   4.540   0.901   7.122  0.1897  1.0293 -0.3714
 2257SOL    HW118404   4.489   0.891   7.203 -1.4043 -0.9330 -1.6371
 2257SOL    HW218405   4.476   0.953   7.073  0.7695 -1.6341 -3.9261
 2258SOL     OW18406   3.276   1.507   9.936 -0.3983 -0.0575  0.3298
 2258SOL    HW118407   3.213   1.440   9.908 -0.3099  1.0938 -2.5319
 2258SOL    HW218408   3.288   1.563   9.860  1.3866  2.2622  2.3150
 2259SOL     OW18409   2.069   0.335   7.358 -0.0488  0.0048 -0.0733
 2259SOL    HW118410   1.992   0.340   7.302 -1.3714  0.9948  1.8278
 2259SOL    HW218411   2.137   0.366   7.300 -0.0646 -2.2086 -1.2842
 2260SOL     OW18412   0.477   4.007   2.694  0.1578  0.0493 -0.2447
 2260SOL    HW118413   0.541   4.021   2.764 -3.5461 -1.1955  3.3338
 2260SOL    HW218414   0.536   4.044   2.628  3.4998 -1.3302  1.9528
 2261SOL     OW18415   0.227   0.825   1.725 -0.1597 -0.2701 -0.6445
 2261SOL    HW118416   0.192   0.912   1.745 -2.6479 -1.4486  0.0957
 2261SOL    HW218417   0.148   0.780   1.754 -0.3543  0.0003 -0.7491
 2262SOL     OW18418   0.752   2.292   7.930  0.2402  0.9330  0.1053
 2262SOL    HW118419   0.685   2.304   7.864  0.1152 -1.6355 -0.2246
 2262SOL    HW218420   0.782   2.383   7.934 -1.1462  1.2779  2.4257
 2263SOL     OW18421   1.431   1.540   0.158  0.0760  0.5006  0.1323
 2263SOL    HW118422   1.400   1.627   0.134 -0.6170  0.2766  0.2027
 2263SOL    HW218423   1.523   1.526   0.136  0.3317  2.8364 -0.2824
 2264SOL     OW18424   3.653   0.964   1.704  0.2133 -0.2265  0.2296
 2264SOL    HW118425   3.654   0.888   1.762 -0.1115  0.6641  1.4054
 2264SOL    HW218426   3.727   0.943   1.648 -0.2010 -0.4071 -0.2543
 2265SOL     OW18427   1.253   2.667   8.959 -0.6897  0.4715 -0.4121
 2265SOL    HW118428   1.321   2.607   8.927  1.9351  2.0059  2.2509
 2265SOL    HW218429   1.265   2.673   9.053 -2.6977 -0.9962 -0.0788
 2266SOL     OW18430   0.637   3.701  14.314 -0.2406  0.1013 -0.5493
 2266SOL    HW118431   0.623   3.684  14.221 -1.5424  0.2298 -0.3760
 2266SOL    HW218432   0.558   3.669  14.358  0.4876 -0.4209  0.3886
 2267SOL     OW18433   0.158   0.851  17.218  0.0286 -0.2475 -0.7418
 2267SOL    HW118434   0.140   0.766  17.178  2.3474 -0.2165 -1.8768
 2267SOL    HW218435   0.118   0.909  17.153 -2.7527 -1.1330  0.2095
 2268SOL     OW18436   1.639   1.006  16.656 -0.0033  0.8941  0.9757
 2268SOL    HW118437   1.625   1.051  16.740  0.2406  1.6015  0.6375
 2268SOL    HW218438   1.554   0.969  16.634 -0.4551  1.7265  1.3142
 2269SOL     OW18439   3.197   1.903   8.588  0.1725 -0.1735 -0.8477
 2269SOL    HW118440   3.110   1.869   8.610  1.7976 -3.1474  1.0129
 2269SOL    HW218441   3.215   1.863   8.503  1.9832 -1.2314  0.0225
 2270SOL     OW18442   1.762   3.519   8.942 -0.2691  0.2428  0.5020
 2270SOL    HW118443   1.687   3.459   8.935 -1.1011  0.9194  3.4235
 2270SOL    HW218444   1.710   3.598   8.957  2.6699  1.8747  2.0007
 2271SOL     OW18445   3.289   0.309   4.359  0.2491  0.4391  0.6434
 2271SOL    HW118446   3.307   0.338   4.448 -0.9414  0.1319  0.9899
 2271SOL    HW218447   3.358   0.362   4.320  0.7455 -1.5483 -1.1925
 2272SOL     OW18448   4.535   3.008  14.378  0.3021 -0.8463  0.3394
 2272SOL    HW118449   4.551   2.917  14.351 -0.8630 -0.8674 -0.2810
 2272SOL    HW218450   4.442   3.027  14.363  0.7971  1.5945  0.4689
 2273SOL     OW18451   3.768   3.539   1.556  0.4959 -0.3458  0.0538
 2273SOL    HW118452   3.797   3.629   1.547  1.6537 -0.5730  1.5609
 2273SOL    HW218453   3.830   3.511   1.488  0.0628 -1.6291  0.1882
 2274SOL     OW18454   1.862   0.897   7.712 -0.7374 -0.1895 -0.3110
 2274SOL    HW118455   1.941   0.847   7.690  0.0594  0.0107  1.9716
 2274SOL    HW218456   1.807   0.883   7.635 -1.4843 -0.7529  0.3285
 2275SOL     OW18457   4.727   2.461   4.233  0.7134  0.6670 -0.3132
 2275SOL    HW118458   0.074   2.500   4.205  1.2057  0.1943  0.5016
 2275SOL    HW218459   0.021   2.396   4.296 -1.4029  0.3212  0.3143
 2276SOL     OW18460   1.111   3.977   0.542  0.4505  0.1568  0.5931
 2276SOL    HW118461   1.128   4.054   0.595 -1.6772  0.7483  0.4228
 2276SOL    HW218462   1.017   3.957   0.548  0.8306 -1.6631  0.5010
 2277SOL     OW18463   0.274   0.454   4.437  0.2557 -0.1528  0.7307
 2277SOL    HW118464   0.244   0.545   4.444  0.8540  0.0883  0.2172
 2277SOL    HW218465   0.196   0.406   4.462 -0.8394  0.6839 -1.1219
 2278SOL     OW18466   0.795   3.016   2.588  0.0484 -0.3416 -0.0059
 2278SOL    HW118467   0.807   2.980   2.500 -0.0761  0.3688 -0.3083
 2278SOL    HW218468   0.819   2.939   2.639 -1.3257  0.0570  1.2259
 2279SOL     OW18469   2.084   0.173   4.210  0.0071 -0.3701  0.4145
 2279SOL    HW118470   2.030   0.101   4.178 -1.6764  1.4388 -0.8119
 2279SOL    HW218471   2.122   0.136   4.289 -1.2788 -2.0896  0.2157
 2280SOL     OW18472   2.799   3.238   3.893 -0.4314 -0.0100 -0.4893
 2280SOL    HW118473   2.726   3.206   3.840 -1.4281  0.2210  0.7526
 2280SOL    HW218474   2.842   3.289   3.824 -2.4217 -2.6221 -3.6764
 2281SOL     OW18475   4.178   2.581   2.377 -0.1692  0.4011  0.2657
 2281SOL    HW118476   4.193   2.579   2.282  2.3326  1.2509  0.6404
 2281SOL    HW218477   4.127   2.503   2.396  0.2855 -0.1504 -0.7797
 2282SOL     OW18478   1.951   1.903   8.210 -0.0791 -0.3587  0.1865
 2282SOL    HW118479   2.037   1.921   8.171 -0.5290  0.2672 -0.4978
 2282SOL    HW218480   1.985   1.876   8.296 -0.4541  1.3713  0.8648
 2283SOL     OW18481   3.942   3.935   0.849  0.1967 -0.4359 -0.1613
 2283SOL    HW118482   4.020   3.975   0.809  0.2585 -0.3226  0.0710
 2283SOL    HW218483   3.886   3.955   0.774 -0.1710  0.2847  0.3084
 2284SOL     OW18484   3.617   0.553   6.546  0.2191  0.0220  0.5827
 2284SOL    HW118485   3.609   0.529   6.454  3.9684  1.7349 -0.1629
 2284SOL    HW218486   3.686   0.497   6.581 -0.9048 -1.7909 -0.0811
 2285SOL     OW18487   0.796   4.240  13.223  0.2759 -0.3514 -0.0187
 2285SOL    HW118488   0.808   4.314  13.163  1.0466 -0.4663 -0.0051
 2285SOL    HW218489   0.767   4.291  13.299  0.6785  1.6410 -1.1861
 2286SOL     OW18490   0.078   3.130  16.169  0.5293  0.1115 -0.0194
 2286SOL    HW118491   0.027   3.052  16.143 -1.4213  0.9680  1.2387
 2286SOL    HW218492   0.015   3.200  16.154  1.1695  0.5354 -0.7177
 2287SOL     OW18493   0.652   2.224   9.104 -0.0087 -0.6327  0.2762
 2287SOL    HW118494   0.690   2.235   9.191 -2.4802 -0.5546  1.3494
 2287SOL    HW218495   0.714   2.281   9.057 -0.6027 -1.0471 -1.0050
 2288SOL     OW18496   1.004   4.618   8.780  0.0359 -0.0900  0.0915
 2288SOL    HW118497   1.017   4.524   8.768  2.2442  0.1466  0.6549
 2288SOL    HW218498   1.069   4.637   8.848 -1.3089 -0.4949  1.4950
 2289SOL     OW18499   1.557   2.913   1.226 -0.7962 -0.0139  0.0755
 2289SOL    HW118500   1.641   2.866   1.225 -0.6825  0.2314 -1.6495
 2289SOL    HW218501   1.500   2.854   1.176 -2.8129  2.4360 -0.5052
 2290SOL     OW18502   1.498   0.763   1.500 -0.0178 -0.5196 -0.3060
 2290SOL    HW118503   1.486   0.669   1.484 -0.4380 -0.3507 -1.0136
 2290SOL    HW218504   1.542   0.783   1.417 -0.3002  0.0767 -0.3102
 2291SOL     OW18505   0.658   4.443  15.473  0.2467 -0.3060 -1.0456
 2291SOL    HW118506   0.718   4.435  15.547 -0.6946  0.0753 -0.2530
 2291SOL    HW218507   0.711   4.415  15.398  3.2880 -2.6824  1.9667
 2292SOL     OW18508   4.275   1.338   8.125 -0.0002 -0.5357  0.0980
 2292SOL    HW118509   4.210   1.362   8.059  0.8251 -1.3997 -1.0263
 2292SOL    HW218510   4.303   1.259   8.080 -0.8074  0.3180 -1.9131
 2293SOL     OW18511   1.334   4.678   3.778  0.0059  0.0987 -0.3231
 2293SOL    HW118512   1.328   4.683   3.873 -3.0442  1.2630 -0.6073
 2293SOL    HW218513   1.282   4.600   3.758  1.5208 -1.2945  1.1661
 2294SOL     OW18514   0.121   1.173   5.986 -0.3078  0.5041 -0.4690
 2294SOL    HW118515   0.103   1.252   5.935 -0.2563 -0.8989 -2.6799
 2294SOL    HW218516   0.034   1.132   5.993  0.8155 -1.7320  0.1979
 2295SOL     OW18517   3.559   0.822  16.123 -0.4886  0.0942 -0.3366
 2295SOL    HW118518   3.619   0.821  16.048 -0.5259  2.1267 -0.3743
 2295SOL    HW218519   3.490   0.757  16.109 -0.8874  0.5571 -0.5114
 2296SOL     OW18520   2.431   0.471  15.532  0.5967  0.0389 -0.3362
 2296SOL    HW118521   2.526   0.483  15.532  0.8062 -1.5971 -0.2546
 2296SOL    HW218522   2.417   0.461  15.438  0.0376 -0.9116 -0.1547
 2297SOL     OW18523   4.553   1.386  13.452 -0.1901 -0.1394  0.0235
 2297SOL    HW118524   4.556   1.342  13.537  0.8868  1.0449  0.5924
 2297SOL    HW218525   4.516   1.472  13.470 -0.9032 -0.3404 -0.4693
 2298SOL     OW18526   0.595   3.820   9.450  0.0692  0.6286 -0.1210
 2298SOL    HW118527   0.582   3.875   9.527  0.6455 -1.5129  1.5305
 2298SOL    HW218528   0.541   3.845   9.375  1.1675  0.1417 -1.0773
 2299SOL     OW18529   0.664   3.451   5.145 -0.1501  0.7797  0.6677
 2299SOL    HW118530   0.723   3.520   5.177  0.4714  0.6222 -0.1484
 2299SOL    HW218531   0.649   3.392   5.219  1.6330 -2.2753 -1.4210
 2300SOL     OW18532   2.038   1.085  17.107  0.3551 -0.7617  0.2931
 2300SOL    HW118533   1.959   1.125  17.144  0.0967  0.8241 -1.9545
 2300SOL    HW218534   2.023   0.993  17.130  0.3750 -0.8902 -0.2112
 2301SOL     OW18535   2.015   3.808   1.200  0.2372  0.4716  0.0789
 2301SOL    HW118536   1.931   3.848   1.224 -1.0984 -0.4393 -3.1063
 2301SOL    HW218537   2.038   3.870   1.131  1.6758 -1.1513 -0.8743
 2302SOL     OW18538   1.998   3.848   5.785 -0.0817  0.2690 -0.1107
 2302SOL    HW118539   2.075   3.891   5.821  1.6085 -0.1773 -3.1750
 2302SOL    HW218540   2.033   3.792   5.716 -1.9308  1.4975 -2.0742
 2303SOL     OW18541   0.692   1.917   8.499 -0.2304 -0.0282  0.0882
 2303SOL    HW118542   0.617   1.970   8.525 -0.7186  0.1544 -1.6517
 2303SOL    HW218543   0.692   1.943   8.406 -1.9217 -0.4050 -0.0157
 2304SOL     OW18544   2.942   2.609   6.906 -0.3860 -0.0292 -0.3422
 2304SOL    HW118545   2.892   2.688   6.885 -0.2056  1.1440  3.6735
 2304SOL    HW218546   2.870   2.547   6.893  1.5513 -2.5106  0.8756
 2305SOL     OW18547   2.084   1.133   3.126  0.0662  0.6565 -0.0476
 2305SOL    HW118548   2.124   1.154   3.211  0.3378 -1.3133  0.2951
 2305SOL    HW218549   2.042   1.216   3.102  2.3890  1.6769 -0.6592
 2306SOL     OW18550   2.226   4.528   6.643  0.4884 -0.1926 -0.3783
 2306SOL    HW118551   2.144   4.506   6.599  0.1971  2.8184 -1.3124
 2306SOL    HW218552   2.247   4.445   6.687  1.1553 -0.7420 -1.7499
 2307SOL     OW18553   2.400   2.648   5.838  0.1751  0.3416  0.1942
 2307SOL    HW118554   2.405   2.567   5.888  0.8790  1.0618  1.3048
 2307SOL    HW218555   2.354   2.623   5.758  1.0731 -0.5555 -0.0448
 2308SOL     OW18556   3.698   0.089   5.284 -0.3920 -0.4251 -0.4378
 2308SOL    HW118557   3.749   0.016   5.248 -1.5460 -0.7299 -1.4282
 2308SOL    HW218558   3.749   0.160   5.245 -0.5811 -0.9196 -1.5816
 2309SOL     OW18559   0.401   3.116   8.491  0.1355 -0.0274 -0.0630
 2309SOL    HW118560   0.395   3.021   8.483  1.8307  0.0896 -2.5356
 2309SOL    HW218561   0.494   3.130   8.505 -0.0577  1.7287 -0.5771
 2310SOL     OW18562   2.146   2.591  10.175 -0.0426  0.2925 -0.3417
 2310SOL    HW118563   2.158   2.507  10.219  1.1626  0.3211 -0.6122
 2310SOL    HW218564   2.183   2.649  10.242  0.2141  0.8088 -0.9343
 2311SOL     OW18565   3.869   1.197  17.072  0.2795 -0.0842  0.2256
 2311SOL    HW118566   3.783   1.216  17.109 -0.1655  0.7805 -1.2689
 2311SOL    HW218567   3.904   1.285  17.059 -0.4865 -0.0184 -1.3636
 2312SOL     OW18568   1.530   2.148   8.443  0.2240 -0.4395 -0.4188
 2312SOL    HW118569   1.614   2.128   8.402  0.1894  0.6586 -1.0208
 2312SOL    HW218570   1.533   2.121   8.535  1.9158 -0.0130 -0.3541
 2313SOL     OW18571   1.014   4.362   6.815 -0.5476 -0.3551  0.1001
 2313SOL    HW118572   1.037   4.362   6.722 -2.9036 -2.0194 -0.4855
 2313SOL    HW218573   0.938   4.418   6.805  0.5760  1.2687  0.6933
 2314SOL     OW18574   0.364   0.313   7.079  0.0296  0.1274 -0.0853
 2314SOL    HW118575   0.321   0.243   7.031  2.0330 -2.1048  1.3657
 2314SOL    HW218576   0.292   0.337   7.137  1.4039 -0.7389  2.0086
 2315SOL     OW18577   2.336   3.654  10.599 -0.2621  0.2204 -0.0558
 2315SOL    HW118578   2.352   3.586  10.533 -0.3254  0.3690 -0.2242
 2315SOL    HW218579   2.260   3.608  10.635  1.9929 -1.4872  2.4758
 2316SOL     OW18580   1.337   1.910   9.873  0.8469  0.1270 -0.3393
 2316SOL    HW118581   1.318   1.819   9.847 -3.7481  0.4671  1.7386
 2316SOL    HW218582   1.262   1.958   9.837  0.3253  0.9231  1.8055
 2317SOL     OW18583   3.233   4.587  11.176  0.2552 -0.0541  0.1980
 2317SOL    HW118584   3.171   4.647  11.135 -1.4522 -0.4222  2.2725
 2317SOL    HW218585   3.298   4.633  11.231  1.8400 -0.0065 -1.6986
 2318SOL     OW18586   4.557   2.299  14.235 -0.0639  0.5961  0.4430
 2318SOL    HW118587   4.608   2.322  14.157 -2.8111 -1.4480 -1.9624
 2318SOL    HW218588   4.476   2.349  14.236  0.5301  1.5467  0.3763
 2319SOL     OW18589   2.957   4.428   4.684  0.5683  0.4754  0.7956
 2319SOL    HW118590   2.863   4.435   4.704  0.7214  0.2095  1.6331
 2319SOL    HW218591   2.980   4.500   4.743  2.3040  0.1714  0.4683
 2320SOL     OW18592   3.453   0.390   0.143 -0.5250  0.3114  0.2100
 2320SOL    HW118593   3.446   0.361   0.234 -1.7651 -0.2187 -0.0522
 2320SOL    HW218594   3.437   0.484   0.151 -0.6555  0.1398  1.9903
 2321SOL     OW18595   3.817   3.249   8.568  0.1088 -0.2702  0.1272
 2321SOL    HW118596   3.844   3.239   8.659 -1.1378 -0.4618  0.4716
 2321SOL    HW218597   3.786   3.339   8.573 -1.1743 -0.5789 -2.2993
 2322SOL     OW18598   1.550   3.196   5.133  0.4300 -0.3504 -0.0671
 2322SOL    HW118599   1.599   3.118   5.157  0.8007  0.3088  1.2917
 2322SOL    HW218600   1.518   3.174   5.046  1.0178 -0.9174 -0.1388
 2323SOL     OW18601   0.402   0.313   8.704 -0.6819  0.5343  0.2352
 2323SOL    HW118602   0.434   0.399   8.677  1.5881 -0.3743  0.0561
 2323SOL    HW218603   0.467   0.249   8.674 -0.1236  1.5032 -0.5985
 2324SOL     OW18604   3.637   0.480   2.363  0.4761 -0.2987  0.6168
 2324SOL    HW118605   3.652   0.540   2.436 -3.4813 -0.9957  1.9629
 2324SOL    HW218606   3.611   0.395   2.396 -1.8857 -0.5730 -1.9573
 2325SOL     OW18607   1.120   4.528   9.892 -0.0898  0.1536 -0.5599
 2325SOL    HW118608   1.204   4.484   9.905 -0.0287  0.4856  0.1549
 2325SOL    HW218609   1.083   4.543   9.979 -0.1452  1.3586 -0.7808
 2326SOL     OW18610   2.112   4.230   4.257  0.0970 -0.0578  0.2401
 2326SOL    HW118611   2.175   4.175   4.302  0.5328  0.3840  0.1633
 2326SOL    HW218612   2.036   4.193   4.304  1.4557 -3.0551  0.0538
 2327SOL     OW18613   0.600   2.622   3.999  0.3987 -0.0177  0.2589
 2327SOL    HW118614   0.588   2.717   4.001  1.1904  0.1005 -1.6348
 2327SOL    HW218615   0.573   2.610   3.908  0.9840  0.4672  0.0280
 2328SOL     OW18616   1.705   2.038   8.913 -0.4193  0.2562 -0.1397
 2328SOL    HW118617   1.638   2.075   8.970 -1.8109 -1.3529 -0.7376
 2328SOL    HW218618   1.779   2.093   8.939 -0.3457  0.7690 -1.4325
 2329SOL     OW18619   1.065   0.952   0.773 -0.5524  0.6138 -0.3499
 2329SOL    HW118620   1.116   0.874   0.749 -1.4624 -0.1593  0.2112
 2329SOL    HW218621   1.022   0.969   0.689 -0.3196  2.2174 -0.1363
 2330SOL     OW18622   3.194   1.685   6.838 -0.5697  0.3082 -0.5643
 2330SOL    HW118623   3.221   1.662   6.749  3.0227 -0.0513  0.6353
 2330SOL    HW218624   3.182   1.597   6.872  0.4426  0.7450  0.9288
 2331SOL     OW18625   1.899   4.610   8.241  0.3831 -0.1410 -0.1894
 2331SOL    HW118626   1.866   4.678   8.300 -0.4080  1.3580 -2.3742
 2331SOL    HW218627   1.933   4.549   8.307  1.1167 -1.8114 -2.1040
 2332SOL     OW18628   2.856   0.432   9.172  0.3690 -0.0459 -0.2924
 2332SOL    HW118629   2.893   0.465   9.090  0.7383 -0.1550 -0.1716
 2332SOL    HW218630   2.816   0.354   9.134 -0.1501 -0.7275  1.6861
 2333SOL     OW18631   0.799   3.716  12.298 -0.1601 -0.3113 -0.2664
 2333SOL    HW118632   0.871   3.731  12.359  0.0739  0.4543 -0.7238
 2333SOL    HW218633   0.755   3.640  12.336  2.3324 -1.4640  0.3049
 2334SOL     OW18634   2.234   1.145   3.779  0.1840  0.3969  0.0735
 2334SOL    HW118635   2.225   1.061   3.824 -0.4471  1.7527  2.4834
 2334SOL    HW218636   2.237   1.104   3.693 -1.0475 -2.9462  1.6362
 2335SOL     OW18637   0.705   1.890   2.566  0.4928 -0.0368 -0.4979
 2335SOL    HW118638   0.789   1.849   2.584  0.3679  0.4050  1.0542
 2335SOL    HW218639   0.683   1.921   2.653 -2.0225 -1.8648 -0.5080
 2336SOL     OW18640   3.632   2.642   7.526 -0.6736  0.0666 -0.2416
 2336SOL    HW118641   3.543   2.630   7.493 -0.8655 -0.5496  0.4889
 2336SOL    HW218642   3.626   2.584   7.602  0.4440  1.9963  1.3177
 2337SOL     OW18643   3.728   3.199   0.861 -0.2566  0.7072  0.3526
 2337SOL    HW118644   3.815   3.228   0.834 -0.4151  1.0691  0.2276
 2337SOL    HW218645   3.736   3.104   0.856  0.3095  0.7911 -0.2751
 2338SOL     OW18646   3.833   1.259   1.442  0.3600 -0.1459 -0.0502
 2338SOL    HW118647   3.810   1.168   1.463 -0.0890  0.1098  0.5796
 2338SOL    HW218648   3.926   1.237   1.434  0.2144 -1.0688  0.7037
 2339SOL     OW18649   4.384   0.928   6.337 -0.5697 -0.3396  0.3562
 2339SOL    HW118650   4.452   0.914   6.403 -2.6066 -0.4475  2.3955
 2339SOL    HW218651   4.348   1.012   6.365 -0.7675 -0.8133  1.5145
 2340SOL     OW18652   1.603   3.084   8.904 -0.4142 -0.9290 -0.4528
 2340SOL    HW118653   1.656   3.009   8.875  0.5165  0.5521 -2.5488
 2340SOL    HW218654   1.662   3.146   8.862  1.3299 -1.2022  1.5844
 2341SOL     OW18655   2.022   1.198   6.263  0.3066 -0.0652 -0.2076
 2341SOL    HW118656   1.984   1.110   6.269 -0.4624  0.2523 -0.4608
 2341SOL    HW218657   1.947   1.239   6.305  0.4422 -0.5562  0.5202
 2342SOL     OW18658   1.377   2.278   1.774 -0.0285 -0.4436  0.0174
 2342SOL    HW118659   1.463   2.240   1.789 -0.0439 -0.5571 -0.1839
 2342SOL    HW218660   1.391   2.364   1.735  1.6760 -0.9070 -0.3931
 2343SOL     OW18661   3.232   3.675  17.078  0.1923 -0.4671  0.0827
 2343SOL    HW118662   3.242   3.762  17.116 -2.2976 -0.5964  0.9789
 2343SOL    HW218663   3.141   3.676  17.050 -0.1556 -1.1500  1.1965
 2344SOL     OW18664   3.172   0.885   2.494  0.1350 -0.4291 -0.3989
 2344SOL    HW118665   3.226   0.954   2.533 -0.5366  1.7451 -3.3113
 2344SOL    HW218666   3.117   0.870   2.571  1.3116 -2.6068  0.0150
 2345SOL     OW18667   1.974   1.137   3.553  0.5096 -0.0711 -0.1422
 2345SOL    HW118668   2.059   1.117   3.591  1.4335 -1.2069 -2.8306
 2345SOL    HW218669   1.909   1.107   3.617  0.0294 -0.4746 -0.8196
 2346SOL     OW18670   3.456   1.112   5.813  0.1110 -0.0782  0.4126
 2346SOL    HW118671   3.386   1.121   5.749 -0.5678  1.7390  1.4212
 2346SOL    HW218672   3.504   1.036   5.777 -1.3588 -0.9088  0.2128
 2347SOL     OW18673   2.340   4.505   3.463 -0.4084 -0.3263  0.0268
 2347SOL    HW118674   2.248   4.505   3.491 -1.3728  0.8380 -3.1052
 2347SOL    HW218675   2.325   4.556   3.383 -3.1728 -2.3642 -0.7636
 2348SOL     OW18676   3.033   4.347   8.768  0.0472  0.6837 -0.3083
 2348SOL    HW118677   2.992   4.306   8.844  1.4495  1.5324  0.9040
 2348SOL    HW218678   3.010   4.440   8.776  2.3665  1.0924  1.5838
 2349SOL     OW18679   1.699   2.164   8.177  0.0469 -0.1026 -0.1316
 2349SOL    HW118680   1.759   2.216   8.124  0.2987 -1.1766 -0.8923
 2349SOL    HW218681   1.757   2.173   8.253 -0.9124  1.8138  0.3792
 2350SOL     OW18682   1.404   0.238   8.838  0.4067 -0.2496  0.3743
 2350SOL    HW118683   1.395   0.152   8.798 -1.3282  0.5078 -0.8523
 2350SOL    HW218684   1.398   0.294   8.760 -1.0382 -0.5625  0.2723
 2351SOL     OW18685   1.827   4.423  17.184 -0.1552  0.2239  0.0653
 2351SOL    HW118686   1.906   4.420  17.130  0.4959 -1.3471  1.1009
 2351SOL    HW218687   1.767   4.358  17.148  0.3444  1.2357 -2.5892
 2352SOL     OW18688   0.149   1.517   6.042 -0.0841  0.2963  0.4636
 2352SOL    HW118689   0.060   1.486   6.061 -0.0310  1.0352  1.8454
 2352SOL    HW218690   0.129   1.570   5.965 -0.8170 -2.5297 -1.3054
 2353SOL     OW18691   2.997   3.854   6.915  0.3170 -0.3714  0.5492
 2353SOL    HW118692   2.916   3.823   6.955 -0.0313 -0.3259 -0.1183
 2353SOL    HW218693   3.048   3.849   6.995  1.0828  1.1189  0.1486
 2354SOL     OW18694   1.534   3.259   6.531  0.8585 -0.6231 -0.2306
 2354SOL    HW118695   1.465   3.280   6.468 -1.6145 -0.6673  2.4747
 2354SOL    HW218696   1.536   3.338   6.585 -1.7029  0.0941 -1.1838
 2355SOL     OW18697   1.708   4.110   7.618 -0.3382 -0.5352  0.3295
 2355SOL    HW118698   1.681   4.162   7.543  1.4019  0.5377  0.4469
 2355SOL    HW218699   1.712   4.020   7.585  0.1471 -0.6869  0.7979
 2356SOL     OW18700   2.053   2.714   4.345 -0.5504 -0.2818 -0.2949
 2356SOL    HW118701   2.073   2.707   4.252 -0.2800 -2.9448 -0.0294
 2356SOL    HW218702   2.102   2.792   4.372 -2.8195  1.0190  0.0847
 2357SOL     OW18703   0.195   3.973   7.578 -0.2403  0.0767 -0.2330
 2357SOL    HW118704   0.190   4.010   7.666  1.4796  0.4332 -0.2918
 2357SOL    HW218705   0.235   4.049   7.536  0.6492 -0.8931 -1.1430
 2358SOL     OW18706   0.645   1.252   7.987  0.0944 -0.1284  0.2019
 2358SOL    HW118707   0.666   1.174   8.038  1.3871  1.1710  1.6789
 2358SOL    HW218708   0.733   1.274   7.956 -0.2909  1.7194  0.4127
 2359SOL     OW18709   3.324   2.285   1.929 -0.0685 -0.5408  0.2045
 2359SOL    HW118710   3.335   2.295   1.835 -1.6973 -1.0899 -0.0418
 2359SOL    HW218711   3.384   2.213   1.947  1.7843  0.3568 -2.4594
 2360SOL     OW18712   3.152   3.556   0.688  0.1274 -0.2835 -0.0083
 2360SOL    HW118713   3.084   3.536   0.624  0.1175 -2.4238  0.6926
 2360SOL    HW218714   3.174   3.467   0.714  1.1964  0.2493  0.9401
 2361SOL     OW18715   1.590   0.786  11.517 -0.3477  0.0299 -0.0140
 2361SOL    HW118716   1.524   0.721  11.494  0.9130 -0.1700 -2.9676
 2361SOL    HW218717   1.674   0.743  11.503 -0.6535 -0.5113 -0.1570
 2362SOL     OW18718   2.796   3.973  12.882 -0.0805 -0.7207 -0.6382
 2362SOL    HW118719   2.883   3.960  12.845  0.3226  0.0417  0.0433
 2362SOL    HW218720   2.774   4.065  12.869 -2.8643 -1.4826 -1.3128
 2363SOL     OW18721   1.673   0.600   8.858 -0.4045 -0.1354 -0.5488
 2363SOL    HW118722   1.616   0.642   8.794 -1.3722 -0.9040 -0.1977
 2363SOL    HW218723   1.702   0.526   8.805  0.4642 -2.3219  2.9715
 2364SOL     OW18724   0.746   3.095  13.461  0.1986 -0.2448 -0.4054
 2364SOL    HW118725   0.719   3.040  13.535  1.3162 -1.0862 -0.6272
 2364SOL    HW218726   0.807   3.037  13.415  1.2635  0.8736 -0.4118
 2365SOL     OW18727   3.735   1.160   4.885 -0.2025  0.0717  0.2847
 2365SOL    HW118728   3.696   1.078   4.854 -0.1162 -0.4931  1.6922
 2365SOL    HW218729   3.825   1.154   4.855 -0.0104  0.3455  0.8067
 2366SOL     OW18730   1.466   2.928  10.365  0.4248  0.2553 -0.2957
 2366SOL    HW118731   1.503   3.008  10.403  1.7659 -0.7965  0.6078
 2366SOL    HW218732   1.545   2.888  10.331  0.2688  0.5401 -0.9964
 2367SOL     OW18733   0.727   1.450  17.023  0.3682  0.2494  0.4163
 2367SOL    HW118734   0.666   1.523  17.007  0.1973 -0.2964 -1.4503
 2367SOL    HW218735   0.660   1.387  17.050 -0.8173 -0.0763 -3.2871
 2368SOL     OW18736   2.166   3.466  10.746 -0.6068  0.7121 -0.3747
 2368SOL    HW118737   2.180   3.372  10.755  0.6603  0.7842 -1.6068
 2368SOL    HW218738   2.074   3.469  10.723 -0.3953  0.1066 -1.2647
 2369SOL     OW18739   3.279   4.115  16.928 -0.1611 -0.6449 -0.0862
 2369SOL    HW118740   3.269   4.062  17.007  0.5507 -1.9600 -0.8674
 2369SOL    HW218741   3.191   4.151  16.928 -0.9623 -2.5909 -0.3203
 2370SOL     OW18742   2.999   3.709  16.709  0.0483  0.4383 -0.3801
 2370SOL    HW118743   3.018   3.801  16.691  2.8380  0.0936  0.8271
 2370SOL    HW218744   2.904   3.715  16.696  0.0755  0.4787 -0.5710
 2371SOL     OW18745   1.155   4.090   6.550 -0.8091  0.0441 -0.0319
 2371SOL    HW118746   1.162   4.093   6.645 -1.3035 -1.2176  0.0532
 2371SOL    HW218747   1.064   4.120   6.548 -0.7442  0.2229 -0.2920
 2372SOL     OW18748   3.177   4.379   7.107  0.0531  0.8810  0.0437
 2372SOL    HW118749   3.254   4.388   7.163  0.0079 -0.0654  0.2675
 2372SOL    HW218750   3.124   4.451   7.142  0.1965  1.4091 -0.8379
 2373SOL     OW18751   1.981   1.603  12.595  0.0580  0.8712 -0.0710
 2373SOL    HW118752   2.018   1.685  12.628  0.2824  0.9100 -0.4146
 2373SOL    HW218753   1.890   1.623  12.573 -0.4118 -0.6084  0.4922
 2374SOL     OW18754   0.788   2.654   8.348  0.3580  0.4446 -0.2752
 2374SOL    HW118755   0.717   2.649   8.284 -1.0851 -1.2910  1.4278
 2374SOL    HW218756   0.755   2.721   8.408 -0.5726  1.5245 -2.0042
 2375SOL     OW18757   1.929   4.478   6.861  0.3932 -0.0133 -0.6309
 2375SOL    HW118758   1.934   4.470   6.765 -2.5770  1.3699 -0.8986
 2375SOL    HW218759   2.012   4.517   6.887 -0.7945  1.5588  0.7857
 2376SOL     OW18760   0.853   2.969   3.794  0.2870  0.8149  0.5210
 2376SOL    HW118761   0.896   3.011   3.868  0.1503 -0.9766  1.6139
 2376SOL    HW218762   0.872   3.029   3.722 -0.6702  0.9826  0.4039
 2377SOL     OW18763   2.100   1.343  12.611 -0.5460  0.4695 -0.0577
 2377SOL    HW118764   2.193   1.363  12.622 -0.8236  0.3413  2.6674
 2377SOL    HW218765   2.067   1.432  12.606  0.8703  0.9448 -0.5843
 2378SOL     OW18766   0.849   3.894  10.946  0.1625  0.0586  0.0975
 2378SOL    HW118767   0.830   3.816  10.999 -0.6143  1.6009  2.0919
 2378SOL    HW218768   0.943   3.878  10.948 -0.0336 -1.0832  0.3588
 2379SOL     OW18769   2.962   4.190   1.233 -0.5671  0.0968 -0.0741
 2379SOL    HW118770   2.988   4.265   1.286 -0.5609  0.1445 -0.1442
 2379SOL    HW218771   2.876   4.184   1.275 -1.2896  0.9193 -1.4088
 2380SOL     OW18772   2.611   2.519   0.591 -0.0890 -0.0388 -0.0455
 2380SOL    HW118773   2.693   2.497   0.637  0.1649  2.6650  0.8148
 2380SOL    HW218774   2.552   2.516   0.666 -0.0305  1.9926  0.0975
 2381SOL     OW18775   3.585   3.278   2.920 -0.3651  0.6083 -0.8843
 2381SOL    HW118776   3.526   3.347   2.889 -0.4365  1.3022  0.7993
 2381SOL    HW218777   3.633   3.261   2.839  0.2004 -0.6903 -0.2664
 2382SOL     OW18778   4.111   0.218  11.400 -0.3031 -0.3261  0.6383
 2382SOL    HW118779   4.147   0.192  11.315  0.9425  1.5794  0.5970
 2382SOL    HW218780   4.042   0.278  11.371 -0.7061 -1.4921 -0.8347
 2383SOL     OW18781   0.029   4.182  13.521 -0.1257  0.1930  0.3784
 2383SOL    HW118782   4.679   4.178  13.480  0.6337 -3.3912 -0.9739
 2383SOL    HW218783   0.084   4.224  13.455 -0.9895  0.9382  0.1427
 2384SOL     OW18784   3.429   0.196   5.223 -0.2624  0.2926  0.0086
 2384SOL    HW118785   3.516   0.162   5.201 -0.6263  0.1340 -1.1686
 2384SOL    HW218786   3.366   0.134   5.187 -1.1868  1.1227  0.2004
 2385SOL     OW18787   3.111   4.723   0.130 -0.6003 -0.1325 -0.1486
 2385SOL    HW118788   3.021   0.014   0.145  0.2308  0.1219  4.1849
 2385SOL    HW218789   3.157   0.071   0.129  0.6508 -0.8136 -0.5572
 2386SOL     OW18790   3.121   0.381   2.302  0.1957 -0.2470  0.1927
 2386SOL    HW118791   3.136   0.406   2.210  1.4187 -1.8884 -0.0521
 2386SOL    HW218792   3.037   0.336   2.296  0.3471 -0.3586 -1.1083
 2387SOL     OW18793   3.587   2.100   3.860 -0.7454 -0.3825  0.5583
 2387SOL    HW118794   3.601   2.027   3.800 -2.2877 -1.4856  1.5306
 2387SOL    HW218795   3.675   2.124   3.890 -0.5051  1.5808 -1.7404
 2388SOL     OW18796   1.469   1.262  11.539 -0.6670 -0.1703 -0.2943
 2388SOL    HW118797   1.521   1.262  11.459  0.4862  0.7882  0.4677
 2388SOL    HW218798   1.449   1.169  11.552  1.9044 -0.8171 -1.1074
 2389SOL     OW18799   1.051   3.284   2.015  0.3561  0.0661  0.3252
 2389SOL    HW118800   0.991   3.311   1.946 -1.8321 -2.1182  1.3654
 2389SOL    HW218801   1.044   3.189   2.018  2.8935 -0.1176  0.5881
 2390SOL     OW18802   3.403   4.480   7.861 -0.3215  0.4528 -0.0860
 2390SOL    HW118803   3.385   4.449   7.949 -0.7167  2.1542  0.4220
 2390SOL    HW218804   3.316   4.472   7.822 -1.4823  1.6341  2.3291
 2391SOL     OW18805   4.153   2.980   7.986 -0.1958  0.7043  0.3364
 2391SOL    HW118806   4.138   2.948   8.075 -1.8584 -0.5479 -0.3861
 2391SOL    HW218807   4.131   2.901   7.937  0.1175  0.9508 -0.2154
 2392SOL     OW18808   4.172   2.455   3.240 -0.2640  0.1573  0.7407
 2392SOL    HW118809   4.263   2.464   3.269 -0.5325 -1.0827  1.9437
 2392SOL    HW218810   4.163   2.372   3.193  1.8336  0.8347 -0.8549
 2393SOL     OW18811   2.280   0.024   1.006 -0.3030 -0.7790 -0.6217
 2393SOL    HW118812   2.326   0.040   1.089  0.3646  0.9389 -1.3210
 2393SOL    HW218813   2.203   0.078   1.026 -1.8542 -2.2968 -2.4316
 2394SOL     OW18814   2.740   3.647   6.651 -0.0172  0.0467 -0.1789
 2394SOL    HW118815   2.739   3.610   6.562  1.2351 -1.5495  0.4623
 2394SOL    HW218816   2.648   3.641   6.677 -0.2800  1.2184 -0.8540
 2395SOL     OW18817   3.856   1.348   6.982 -0.1081 -0.0078  0.1076
 2395SOL    HW118818   3.769   1.385   6.966 -0.3162  0.2325  1.7142
 2395SOL    HW218819   3.913   1.413   6.941  1.3807 -0.5487  1.3061
 2396SOL     OW18820   0.491   1.050   6.079  0.0326  0.1888  0.2062
 2396SOL    HW118821   0.439   1.120   6.118  1.0668 -0.5751  2.9326
 2396SOL    HW218822   0.525   1.011   6.159 -2.2093  0.0578  1.0797
 2397SOL     OW18823   0.470   4.096   5.873 -0.9151  0.3945 -0.0197
 2397SOL    HW118824   0.465   4.027   5.940 -1.4458  1.3233  0.8938
 2397SOL    HW218825   0.542   4.147   5.910 -0.5852  0.6771 -1.0477
 2398SOL     OW18826   3.200   3.065  16.235  0.4499  0.0094 -0.0498
 2398SOL    HW118827   3.206   3.151  16.277 -1.1606  0.2742 -0.3892
 2398SOL    HW218828   3.249   3.086  16.155 -1.1862 -0.5508 -1.1948
 2399SOL     OW18829   1.713   2.728   9.316 -0.4110 -0.4525  0.3123
 2399SOL    HW118830   1.786   2.730   9.255  1.1442  0.5559  2.1896
 2399SOL    HW218831   1.740   2.665   9.384 -3.6664 -0.6637  1.4366
 2400SOL     OW18832   4.458   1.880  15.343  0.0770 -0.4161 -0.0024
 2400SOL    HW118833   4.542   1.849  15.308  0.5284  0.9540 -0.1764
 2400SOL    HW218834   4.481   1.973  15.355  0.6519 -0.5075 -0.3993
 2401SOL     OW18835   4.296   3.623   4.043 -0.2030 -0.3375  0.0978
 2401SOL    HW118836   4.276   3.566   4.117 -0.9688  0.0316  0.1800
 2401SOL    HW218837   4.229   3.595   3.980 -2.1090 -0.7529  2.3174
 2402SOL     OW18838   2.334   2.764   4.962 -0.0075 -0.1126 -0.1458
 2402SOL    HW118839   2.408   2.777   5.022 -2.0435 -2.7915  2.9059
 2402SOL    HW218840   2.330   2.669   4.956  1.3283 -0.2449  1.0425
 2403SOL     OW18841   3.858   2.836   5.291  0.2090 -0.1804  0.4343
 2403SOL    HW118842   3.941   2.830   5.339 -0.0610  1.0438  1.0536
 2403SOL    HW218843   3.804   2.900   5.337 -0.1858 -1.2031  1.3801
 2404SOL     OW18844   1.122   0.643   0.180 -0.8391  0.6348 -0.2770
 2404SOL    HW118845   1.199   0.655   0.124 -0.6575  2.3600  0.3390
 2404SOL    HW218846   1.144   0.564   0.229  0.3762  3.0598  3.0898
 2405SOL     OW18847   3.393   3.763   8.757 -0.0302  0.1348 -0.3216
 2405SOL    HW118848   3.381   3.772   8.852 -1.2395  0.8245 -0.5355
 2405SOL    HW218849   3.410   3.854   8.733 -1.2275  0.1936 -0.9719
 2406SOL     OW18850   1.251   0.821   4.926 -0.2818 -0.3721  0.4698
 2406SOL    HW118851   1.234   0.772   5.006  0.1507 -0.2927  0.6108
 2406SOL    HW218852   1.160   0.844   4.911 -0.4125 -1.7900 -0.8721
 2407SOL     OW18853   2.647   3.355   6.772  0.0447 -0.0759 -0.0695
 2407SOL    HW118854   2.629   3.339   6.864 -0.0449  0.0122 -0.0724
 2407SOL    HW218855   2.579   3.420   6.753  0.1769 -0.2961 -1.3417
 2408SOL     OW18856   1.070   0.043  10.561  0.3899 -0.2184  0.1449
 2408SOL    HW118857   1.019   0.114  10.521  1.2343  0.5775  0.4826
 2408SOL    HW218858   1.091   4.729  10.482 -1.4943  0.1641 -0.6069
 2409SOL     OW18859   0.236   0.513   6.930 -0.2026  0.3256  0.5569
 2409SOL    HW118860   0.169   0.451   6.958  1.7377 -1.0348  2.1876
 2409SOL    HW218861   0.311   0.468   6.968 -0.2511  1.6263  2.1997
 2410SOL     OW18862   3.200   4.095   1.583 -0.3935 -0.2284 -0.1719
 2410SOL    HW118863   3.116   4.069   1.622  1.0765 -1.4203  2.1883
 2410SOL    HW218864   3.209   4.044   1.503 -0.0412 -0.0422 -0.2539
 2411SOL     OW18865   4.486   2.404   6.406  0.2183  0.0416  0.1718
 2411SOL    HW118866   4.570   2.360   6.421  1.0482  1.4787 -0.2147
 2411SOL    HW218867   4.515   2.474   6.346 -0.7220 -0.6282 -1.0628
 2412SOL     OW18868   4.147   1.285   3.539  0.6057  0.1899  0.4671
 2412SOL    HW118869   4.079   1.325   3.593  0.4847  1.3981 -0.5764
 2412SOL    HW218870   4.226   1.311   3.585  0.0612  0.0457  1.4825
 2413SOL     OW18871   0.446   1.122  14.672 -0.2721  0.1252 -0.2733
 2413SOL    HW118872   0.456   1.152  14.582  1.3937  2.1547  0.6029
 2413SOL    HW218873   0.454   1.026  14.667 -2.4981 -0.0487 -0.6059
 2414SOL     OW18874   1.591   2.148  11.800  0.1390 -0.1077  0.8623
 2414SOL    HW118875   1.617   2.107  11.883  1.6431  1.3875  1.1311
 2414SOL    HW218876   1.669   2.122  11.751 -1.6529 -2.1649 -0.8805
 2415SOL     OW18877   2.754   1.620   5.297 -1.1122 -0.0837 -0.8065
 2415SOL    HW118878   2.737   1.707   5.260  0.4222  0.6361  0.1560
 2415SOL    HW218879   2.681   1.608   5.357 -0.2905  2.3582  0.7211
 2416SOL     OW18880   3.539   0.032   6.052 -0.0666  0.3000  0.7036
 2416SOL    HW118881   3.597   0.065   6.121  1.3104  0.9378 -0.7715
 2416SOL    HW218882   3.585   0.045   5.969 -0.9253 -0.6863  0.0768
 2417SOL     OW18883   3.822   4.359   9.767  0.6537  0.1020 -0.5456
 2417SOL    HW118884   3.897   4.393   9.815  0.6484  0.3835 -0.7373
 2417SOL    HW218885   3.763   4.346   9.841 -2.9790 -0.6876 -3.5325
 2418SOL     OW18886   0.511   0.947  13.810 -0.4417  0.1056  0.2273
 2418SOL    HW118887   0.531   0.921  13.900 -0.2220  0.4282  0.2692
 2418SOL    HW218888   0.560   0.881  13.760 -1.6543 -0.1707 -0.6007
 2419SOL     OW18889   0.067   1.729  16.794  0.0604 -0.4029 -0.1512
 2419SOL    HW118890   0.052   1.677  16.874  0.0569  0.5458  0.4625
 2419SOL    HW218891   0.058   1.817  16.830  1.3348 -1.0135  1.7023
 2420SOL     OW18892   2.246   3.817   8.076 -0.1387  0.1707  0.0115
 2420SOL    HW118893   2.294   3.747   8.120 -0.5370 -0.8984 -1.2443
 2420SOL    HW218894   2.231   3.787   7.986  1.0313  1.3969 -0.5925
 2421SOL     OW18895   1.441   4.634   7.372 -0.2827  0.2409 -0.1014
 2421SOL    HW118896   1.501   4.596   7.309 -1.1737  1.4564 -1.6849
 2421SOL    HW218897   1.489   4.619   7.454 -1.4777 -2.4264  0.1154
 2422SOL     OW18898   2.308   3.689   8.818  0.1017  0.5333 -0.0376
 2422SOL    HW118899   2.222   3.708   8.854 -0.9447 -1.6340 -1.4090
 2422SOL    HW218900   2.354   3.772   8.804  2.1112 -0.9437 -2.1367
 2423SOL     OW18901   1.662   3.492  15.178  0.2072  0.3321  0.1288
 2423SOL    HW118902   1.750   3.455  15.170 -0.6519 -1.5981 -0.2994
 2423SOL    HW218903   1.672   3.586  15.163 -0.3263  0.6556  1.7404
 2424SOL     OW18904   2.732   1.002   3.136 -0.4053 -0.4494 -0.5659
 2424SOL    HW118905   2.668   0.978   3.069  0.8531  0.6767 -2.1685
 2424SOL    HW218906   2.736   0.930   3.199  0.3917 -1.7395 -2.0856
 2425SOL     OW18907   1.020   3.822  10.623  0.6994 -0.1313  0.3089
 2425SOL    HW118908   0.935   3.787  10.650  0.0507  1.3724  0.2503
 2425SOL    HW218909   1.044   3.863  10.707 -0.5983  0.6303  0.3070
 2426SOL     OW18910   1.855   2.751  16.001 -0.2296  0.1522  0.2947
 2426SOL    HW118911   1.809   2.833  15.986  0.6528  0.5890 -0.0194
 2426SOL    HW218912   1.779   2.694  16.013  0.3668 -0.5765  0.6214
 2427SOL     OW18913   3.036   4.607   7.211  0.6620  0.3229  0.6768
 2427SOL    HW118914   3.082   4.599   7.294  0.1135 -1.4635  0.8085
 2427SOL    HW218915   2.990   4.690   7.224 -1.2819 -0.5578 -0.5745
 2428SOL     OW18916   2.643   4.527   8.460 -0.0359  0.2149  0.6502
 2428SOL    HW118917   2.693   4.605   8.483  0.9065 -0.5236  1.1038
 2428SOL    HW218918   2.685   4.462   8.516 -2.0282 -0.6425  1.1547
 2429SOL     OW18919   0.439   1.493   5.154  0.4425 -0.0222  0.8997
 2429SOL    HW118920   0.450   1.587   5.169 -0.3703  0.2289 -0.1216
 2429SOL    HW218921   0.364   1.466   5.206  0.3778 -1.1173  0.2474
 2430SOL     OW18922   1.842   2.603   8.667  0.2626  0.6514  0.1590
 2430SOL    HW118923   1.774   2.618   8.602  0.5026 -1.8484 -0.6526
 2430SOL    HW218924   1.899   2.677   8.645 -2.4064  2.3379 -0.9504
 2431SOL     OW18925   0.708   0.104   6.991 -0.4833  0.0910 -0.1197
 2431SOL    HW118926   0.675   0.111   7.081  2.2021  2.1889  0.7242
 2431SOL    HW218927   0.792   0.068   7.020 -0.5741 -1.1335 -1.3745
 2432SOL     OW18928   3.884   4.478  15.949  0.8298 -0.1372 -0.3148
 2432SOL    HW118929   3.826   4.408  15.919  2.1487 -1.9227  1.3142
 2432SOL    HW218930   3.867   4.543  15.881  1.0799 -1.4522 -1.6327
 2433SOL     OW18931   4.128   3.835   8.546  0.2126  0.2988 -0.5120
 2433SOL    HW118932   4.124   3.923   8.509  1.2559  1.1809  1.4934
 2433SOL    HW218933   4.199   3.802   8.490 -1.6447 -2.6264 -1.1786
 2434SOL     OW18934   0.886   1.746   7.856  0.1598 -0.3394 -0.7093
 2434SOL    HW118935   0.792   1.730   7.849 -0.0848  1.3754 -1.4719
 2434SOL    HW218936   0.895   1.840   7.868  2.5020 -0.8355  1.4936
 2435SOL     OW18937   1.964   2.371  11.201 -0.1811  0.3341 -0.2129
 2435SOL    HW118938   2.042   2.335  11.243  0.3333  0.0382 -1.4112
 2435SOL    HW218939   1.897   2.305  11.219  0.6668 -0.2900  0.6690
 2436SOL     OW18940   4.545   1.474   4.397 -0.5354 -0.1991  0.0241
 2436SOL    HW118941   4.527   1.513   4.311  0.2057 -1.8024 -0.8717
 2436SOL    HW218942   4.553   1.385   4.362 -1.2280  0.0284 -0.7282
 2437SOL     OW18943   2.253   2.423   6.389  0.6594 -0.4092 -0.1196
 2437SOL    HW118944   2.173   2.404   6.438  0.3223 -2.6326 -1.5201
 2437SOL    HW218945   2.268   2.341   6.342  2.7201  0.4950 -1.0317
 2438SOL     OW18946   1.356   3.321   8.677  0.0280  0.1450 -0.3806
 2438SOL    HW118947   1.401   3.260   8.618 -0.9137 -1.3569  0.4521
 2438SOL    HW218948   1.307   3.364   8.606  0.1641 -1.0001 -1.1706
 2439SOL     OW18949   1.840   0.971   9.041 -0.0547 -0.0710  0.1678
 2439SOL    HW118950   1.852   1.005   9.130  2.7739  0.9385 -0.6198
 2439SOL    HW218951   1.802   1.050   9.003 -1.3407 -1.1469 -0.7762
 2440SOL     OW18952   0.559   0.181   3.293  0.3381  0.3172  0.3717
 2440SOL    HW118953   0.479   0.204   3.340  0.2880  1.6430 -0.3611
 2440SOL    HW218954   0.630   0.189   3.357  0.5570 -0.1881  0.1946
 2441SOL     OW18955   0.010   3.305   8.404  0.5878 -0.0017  0.0116
 2441SOL    HW118956   0.042   3.239   8.342 -0.4269  1.5689 -2.1717
 2441SOL    HW218957   0.090   3.356   8.417  1.3436 -1.2322  0.2096
 2442SOL     OW18958   4.026   2.349   6.492  0.6817 -0.0273  0.1571
 2442SOL    HW118959   4.100   2.337   6.551 -0.4891 -0.6672  1.4942
 2442SOL    HW218960   3.996   2.258   6.492 -1.8905  0.8197 -0.6932
 2443SOL     OW18961   3.944   1.475   3.355  0.2816  0.2645 -0.4922
 2443SOL    HW118962   4.038   1.494   3.346  0.0323  1.2837 -1.0030
 2443SOL    HW218963   3.929   1.409   3.422 -1.2493 -0.7241 -1.7986
 2444SOL     OW18964   2.087   4.356   5.386  0.0122  0.0307 -0.9150
 2444SOL    HW118965   2.053   4.266   5.388  1.3931 -0.4280  1.8402
 2444SOL    HW218966   2.166   4.333   5.435 -0.6090 -1.0145 -0.3895
 2445SOL     OW18967   3.294   1.842   9.083  0.1885  0.3880 -0.9315
 2445SOL    HW118968   3.301   1.869   8.992 -0.1385  0.8420 -0.8168
 2445SOL    HW218969   3.212   1.792   9.082  2.3568 -3.2106 -0.2803
 2446SOL     OW18970   4.331   1.051   2.047  0.6649  0.6152 -0.2556
 2446SOL    HW118971   4.343   1.117   2.116 -1.6601 -0.3474  1.0644
 2446SOL    HW218972   4.421   1.032   2.019  0.5005  1.0788 -1.0965
 2447SOL     OW18973   2.691   0.758   1.221  0.6850  0.2194  0.0196
 2447SOL    HW118974   2.640   0.826   1.266 -2.6146 -3.3680  1.7799
 2447SOL    HW218975   2.772   0.806   1.206  1.5146 -1.3637 -0.6182
 2448SOL     OW18976   2.857   4.305   4.081  0.5933  0.8037 -0.4201
 2448SOL    HW118977   2.778   4.349   4.114 -0.5235  0.2499 -2.3518
 2448SOL    HW218978   2.833   4.301   3.988  1.2506  2.4309 -0.6518
 2449SOL     OW18979   2.464   2.988   6.793  0.4299 -0.1842  0.5327
 2449SOL    HW118980   2.444   3.081   6.786 -1.3795 -0.5793  0.5965
 2449SOL    HW218981   2.528   2.973   6.723  0.8320 -0.5261  0.9727
 2450SOL     OW18982   3.370   3.664  17.625 -0.1456  0.3156 -0.0164
 2450SOL    HW118983   3.341   3.576  17.649  0.4145 -0.2818 -1.5622
 2450SOL    HW218984   3.370   3.707  17.711  0.9210 -0.3625  0.3235
 2451SOL     OW18985   1.160   3.375   7.953  0.7341  0.1996 -0.3472
 2451SOL    HW118986   1.174   3.470   7.960  2.2098 -0.0909  0.6961
 2451SOL    HW218987   1.155   3.377   7.857  0.8924  0.3950 -0.3509
 2452SOL     OW18988   4.733   1.516   7.476  0.3475  0.7224 -0.5396
 2452SOL    HW118989   0.076   1.550   7.436 -0.0479  1.7435 -0.4693
 2452SOL    HW218990   0.016   1.511   7.570  0.9806  0.2286 -0.7016
 2453SOL     OW18991   2.881   4.152   4.731  0.2752 -0.2472  0.1962
 2453SOL    HW118992   2.907   4.113   4.814 -0.6190 -0.1373  0.5311
 2453SOL    HW218993   2.890   4.246   4.743  0.0703 -0.0894 -0.8199
 2454SOL     OW18994   1.030   1.462   7.494  0.4686 -0.8646 -0.0434
 2454SOL    HW118995   1.053   1.550   7.466 -1.0428 -0.4341  0.0834
 2454SOL    HW218996   0.993   1.474   7.581  0.0774 -1.2432 -0.1528
 2455SOL     OW18997   3.365   3.464  15.289 -0.2933  0.0620  0.0076
 2455SOL    HW118998   3.280   3.503  15.309 -0.2791  0.6861 -1.1364
 2455SOL    HW218999   3.397   3.524  15.222  0.5244 -1.5675 -1.0312
 2456SOL     OW19000   3.347   0.397   4.619 -0.0806 -0.2208 -0.1229
 2456SOL    HW119001   3.323   0.488   4.638 -0.5184 -0.4698  0.4946
 2456SOL    HW219002   3.442   0.398   4.627 -0.2650 -1.2655  2.1619
 2457SOL     OW19003   1.686   3.971   0.723  0.0253 -0.1173  0.4889
 2457SOL    HW119004   1.665   3.918   0.646  0.1425 -0.8744  0.9676
 2457SOL    HW219005   1.689   3.904   0.792 -1.3485  0.5794  1.2217
 2458SOL     OW19006   0.226   3.253   8.644  0.4818 -0.5370  0.3020
 2458SOL    HW119007   0.210   3.342   8.615 -2.5280 -0.7640  1.3035
 2458SOL    HW219008   0.300   3.228   8.587  1.6290 -0.1873  1.6367
 2459SOL     OW19009   2.773   3.087  15.021  0.0000  0.2207  0.3174
 2459SOL    HW119010   2.829   3.116  15.093 -0.2864  1.8116 -0.0830
 2459SOL    HW219011   2.758   2.993  15.023  1.3058  0.0739  2.2957
 2460SOL     OW19012   3.578   3.034   9.338 -0.3574  0.0961  0.3636
 2460SOL    HW119013   3.550   3.123   9.313 -0.3028  0.1129  0.3635
 2460SOL    HW219014   3.614   3.053   9.424 -2.8481  0.2416  1.3929
 2461SOL     OW19015   2.245   0.388   4.643  0.0797 -0.5521  0.1332
 2461SOL    HW119016   2.199   0.386   4.559 -0.1518  0.7884  0.2320
 2461SOL    HW219017   2.194   0.454   4.689 -0.2997 -0.4686 -0.4122
 2462SOL     OW19018   1.190   0.799   9.698  0.2025 -0.4684 -0.5162
 2462SOL    HW119019   1.279   0.803   9.662 -0.1616 -0.3784 -1.4146
 2462SOL    HW219020   1.174   0.705   9.711  1.9396 -0.5445  1.0612
 2463SOL     OW19021   2.967   1.815   8.224 -0.1240  0.7397 -0.7079
 2463SOL    HW119022   2.935   1.899   8.192 -2.2002  0.4217  0.5090
 2463SOL    HW219023   2.887   1.763   8.215  0.1486  0.0743  0.7474
 2464SOL     OW19024   3.728   1.893   4.162 -0.0992  0.2167  0.0318
 2464SOL    HW119025   3.810   1.855   4.193  0.4252  0.1181 -1.4747
 2464SOL    HW219026   3.735   1.876   4.068 -0.0276  0.7928 -0.0673
 2465SOL     OW19027   2.700   3.751  12.292 -0.0396 -0.2174 -0.4107
 2465SOL    HW119028   2.643   3.784  12.362  1.1204  0.4777  0.2036
 2465SOL    HW219029   2.702   3.659  12.317 -1.6644 -0.1730 -0.1267
 2466SOL     OW19030   1.614   0.698   5.607  0.0204 -0.1397 -0.2418
 2466SOL    HW119031   1.656   0.668   5.688  0.9348  0.2885 -0.5541
 2466SOL    HW219032   1.602   0.791   5.626 -0.3225 -0.4750  1.1362
 2467SOL     OW19033   2.200   4.348   9.028 -0.5538 -0.2372  0.6162
 2467SOL    HW119034   2.149   4.332   9.108  0.2512 -0.4225  1.0956
 2467SOL    HW219035   2.232   4.435   9.051 -1.6868 -0.1403  1.8407
 2468SOL     OW19036   4.024   1.001   2.122  0.7525  0.0606  0.5846
 2468SOL    HW119037   4.021   1.085   2.167  0.4108 -0.3020  1.2347
 2468SOL    HW219038   4.118   0.997   2.107  0.6874  1.2039 -0.0968
 2469SOL     OW19039   4.531   1.898   2.149  0.1878 -0.0403 -0.0995
 2469SOL    HW119040   4.457   1.873   2.094  0.9369 -0.7410 -0.7895
 2469SOL    HW219041   4.601   1.885   2.085 -0.9060 -0.3158 -1.2252
 2470SOL     OW19042   3.012   3.300   6.166  0.4344 -0.3736 -0.2882
 2470SOL    HW119043   2.958   3.309   6.087 -1.4828  1.9693  1.2891
 2470SOL    HW219044   2.978   3.216   6.199  0.1067 -0.6718 -1.3784
 2471SOL     OW19045   3.884   3.321   1.142  0.0284 -0.5057 -0.2633
 2471SOL    HW119046   3.840   3.291   1.062 -2.8293 -1.5605  1.6906
 2471SOL    HW219047   3.975   3.303   1.119  0.5670 -0.7093  2.0423
 2472SOL     OW19048   1.624   0.541  12.051 -0.7612  0.1780 -0.2209
 2472SOL    HW119049   1.658   0.467  12.000 -0.1649 -0.3531  0.9301
 2472SOL    HW219050   1.695   0.554  12.114  0.1677 -0.9099 -1.0414
 2473SOL     OW19051   4.346   1.909   4.161  0.6296 -0.0368  0.3424
 2473SOL    HW119052   4.273   1.873   4.211  0.1327 -2.1608 -1.8919
 2473SOL    HW219053   4.414   1.920   4.228 -0.4115  1.7085  1.1221
 2474SOL     OW19054   4.231   3.988   7.580 -0.6643  0.1032 -0.0004
 2474SOL    HW119055   4.242   3.893   7.580  1.2435  0.3265  0.7965
 2474SOL    HW219056   4.264   4.011   7.667  0.9183  0.8041 -0.8054
 2475SOL     OW19057   4.080   4.659  17.057  0.0528 -0.3618 -0.3955
 2475SOL    HW119058   4.007   4.684  17.001  0.4386  1.1363 -0.2296
 2475SOL    HW219059   4.126   4.604  16.994  1.1530 -0.4650  0.4934
 2476SOL     OW19060   3.019   2.824   6.234 -0.4157  0.0587 -0.3593
 2476SOL    HW119061   3.114   2.822   6.243 -0.3685  0.1019 -0.8823
 2476SOL    HW219062   3.015   2.763   6.160  0.4404 -0.2136 -0.1821
 2477SOL     OW19063   4.260   1.503  15.869 -0.4784 -0.1471  0.1491
 2477SOL    HW119064   4.347   1.490  15.832  0.7869  0.7881  2.8423
 2477SOL    HW219065   4.286   1.496  15.961 -0.2112  1.3606  0.1882
 2478SOL     OW19066   4.097   0.393   0.939 -0.7116 -0.2787 -0.3937
 2478SOL    HW119067   4.004   0.374   0.924 -0.9390  1.5717 -1.3461
 2478SOL    HW219068   4.099   0.489   0.944  0.8642 -0.3867  0.7239
 2479SOL     OW19069   3.605   1.852  16.734 -0.0582 -0.2927 -0.2929
 2479SOL    HW119070   3.655   1.929  16.708  0.5272 -0.2836  0.8151
 2479SOL    HW219071   3.655   1.791  16.679  0.5501 -0.1571  0.1078
 2480SOL     OW19072   0.409   3.345   1.338 -0.3552  0.1425 -0.0807
 2480SOL    HW119073   0.482   3.361   1.398 -1.2899  0.6555  0.9198
 2480SOL    HW219074   0.338   3.401   1.370 -0.5168 -0.1110  0.0016
 2481SOL     OW19075   2.381   1.137   3.024  0.4728 -0.2214 -0.2323
 2481SOL    HW119076   2.399   1.084   2.946 -2.7914  0.9364 -1.8175
 2481SOL    HW219077   2.286   1.150   3.020  0.9084  3.7452  1.9222
 2482SOL     OW19078   2.911   0.063   2.547  0.0401 -0.1188 -0.0431
 2482SOL    HW119079   2.825   0.072   2.506  0.4147 -1.9657 -1.2243
 2482SOL    HW219080   2.921   0.149   2.588 -0.3384 -0.6006  1.0552
 2483SOL     OW19081   1.235   3.281   5.850  0.1428 -0.2783 -0.1513
 2483SOL    HW119082   1.265   3.267   5.760 -0.4694 -1.0830 -0.2318
 2483SOL    HW219083   1.245   3.198   5.896  0.1199  0.9692  2.0691
 2484SOL     OW19084   3.404   0.781   2.376 -0.1518  0.6244  0.3306
 2484SOL    HW119085   3.317   0.804   2.407  0.3891  1.7651  0.9929
 2484SOL    HW219086   3.448   0.789   2.461 -0.1123  0.9086  0.2831
 2485SOL     OW19087   0.376   3.906   8.874 -0.4698  0.5335 -0.0132
 2485SOL    HW119088   0.441   3.869   8.934 -1.3467  2.0352  1.8682
 2485SOL    HW219089   0.391   4.000   8.866 -1.4947  0.9089  2.1935
 2486SOL     OW19090   2.617   1.167  13.763  0.4445  0.3350 -0.0289
 2486SOL    HW119091   2.603   1.153  13.856  1.1799 -1.4403 -0.1924
 2486SOL    HW219092   2.531   1.153  13.724 -0.6324  0.0653  2.4471
 2487SOL     OW19093   2.121   0.940  13.262  0.6293  0.4133 -0.0317
 2487SOL    HW119094   2.097   0.876  13.195  2.0566  1.0085 -1.1324
 2487SOL    HW219095   2.138   1.017  13.208 -1.9628 -0.8347 -2.5865
 2488SOL     OW19096   1.314   4.631  16.903 -0.0099  0.9681  0.0060
 2488SOL    HW119097   1.231   4.593  16.873  0.9756 -2.5396  1.7089
 2488SOL    HW219098   1.303   4.627  16.998 -1.1467 -1.4783 -0.2217
 2489SOL     OW19099   3.142   0.141  14.028  0.0175 -0.0027 -0.0115
 2489SOL    HW119100   3.181   0.209  13.973  0.0284  0.1535  0.1888
 2489SOL    HW219101   3.211   0.109  14.086  1.1756 -0.4894 -1.6408
 2490SOL     OW19102   3.399   0.102   7.855  0.3171 -0.3266  0.6471
 2490SOL    HW119103   3.451   0.051   7.916  0.1459 -1.1928  0.0670
 2490SOL    HW219104   3.342   0.149   7.915 -0.1132  1.0285 -0.7976
 2491SOL     OW19105   4.322   4.065  10.519 -0.0147  0.0426  0.5391
 2491SOL    HW119106   4.389   4.121  10.558 -0.4930 -0.8050  2.5717
 2491SOL    HW219107   4.379   3.991  10.499 -0.9384 -0.2913 -0.8993
 2492SOL     OW19108   0.749   0.590   3.019  0.4207  0.1257  0.2161
 2492SOL    HW119109   0.660   0.571   3.046  0.2380  0.7467  0.0439
 2492SOL    HW219110   0.795   0.592   3.104  1.7601  0.0625 -0.4993
 2493SOL     OW19111   1.504   1.971   9.563 -0.4809  0.0575 -0.0252
 2493SOL    HW119112   1.499   1.920   9.482  2.9249 -1.1619  0.5171
 2493SOL    HW219113   1.414   2.003   9.572 -0.1096  1.2843 -0.6186
 2494SOL     OW19114   2.056   1.650   5.214 -0.7196  0.0096  0.6992
 2494SOL    HW119115   2.082   1.624   5.303  1.6978  0.9707  0.2595
 2494SOL    HW219116   2.142   1.648   5.172  0.0292  0.5654  2.2019
 2495SOL     OW19117   1.467   4.310  14.636 -0.6070 -0.3261 -0.2488
 2495SOL    HW119118   1.402   4.271  14.695 -0.1785  0.5320  0.7971
 2495SOL    HW219119   1.547   4.270  14.669 -0.5575  0.8938  1.1125
 2496SOL     OW19120   4.219   1.299   2.622 -0.0790  0.1835 -0.8722
 2496SOL    HW119121   4.125   1.278   2.625  0.5587 -2.1109  2.5814
 2496SOL    HW219122   4.208   1.389   2.651  1.6980  0.2547 -0.4508
 2497SOL     OW19123   0.451   1.408   5.988 -0.2660  0.2333 -0.0503
 2497SOL    HW119124   0.389   1.394   5.917 -0.7603  1.2498  0.1793
 2497SOL    HW219125   0.391   1.429   6.059 -2.4711  3.8511 -2.9742
 2498SOL     OW19126   3.733   1.273   6.724 -0.0464  0.2422  0.9415
 2498SOL    HW119127   3.798   1.241   6.661  0.0061 -0.9998  1.6124
 2498SOL    HW219128   3.767   1.356   6.756 -2.9427  1.4093  1.0205
 2499SOL     OW19129   4.283   0.519   6.737 -0.3561 -0.0757  0.0989
 2499SOL    HW119130   4.233   0.600   6.725  0.8642  0.4839 -1.2157
 2499SOL    HW219131   4.352   0.545   6.797 -0.2416  0.4304 -0.2508
 2500SOL     OW19132   0.646   3.026   0.881 -0.5823 -0.0926  0.0531
 2500SOL    HW119133   0.583   3.004   0.812 -1.5967  0.5083  0.7877
 2500SOL    HW219134   0.726   3.014   0.829 -0.5415 -0.7849  0.2869
 2501SOL     OW19135   3.019   3.300   4.616  0.0538  0.0418  0.3076
 2501SOL    HW119136   3.043   3.273   4.528  2.0057 -0.6348  1.0454
 2501SOL    HW219137   3.021   3.396   4.611  1.0187 -0.0249 -0.4858
 2502SOL     OW19138   1.598   0.479   0.399  0.3070  0.2967  0.0586
 2502SOL    HW119139   1.531   0.537   0.436 -2.3003 -2.5027 -0.2540
 2502SOL    HW219140   1.543   0.437   0.333  1.8237  0.2218 -1.1506
 2503SOL     OW19141   1.418   0.081   4.376 -0.0261 -0.0295 -0.3078
 2503SOL    HW119142   1.409   0.085   4.472 -0.5179 -0.2906 -0.3461
 2503SOL    HW219143   1.343   0.137   4.355 -0.3532 -0.2396  0.3160
 2504SOL     OW19144   1.359   4.425   3.488 -0.1512  0.2341  0.2490
 2504SOL    HW119145   1.435   4.427   3.547 -2.2316  0.8535  2.9036
 2504SOL    HW219146   1.396   4.375   3.415  1.3430  0.2503  0.9895
 2505SOL     OW19147   1.076   1.118  16.977  0.3328 -0.5920  0.3116
 2505SOL    HW119148   0.994   1.144  16.934  0.3349 -0.4779  0.3776
 2505SOL    HW219149   1.092   1.188  17.040  0.7402  0.7318 -1.2483
 2506SOL     OW19150   1.415   4.026   4.561  0.1138  0.1621 -0.5311
 2506SOL    HW119151   1.456   4.108   4.535  2.4838 -1.6586 -2.4954
 2506SOL    HW219152   1.416   4.053   4.653 -0.5068 -0.2336 -0.4063
 2507SOL     OW19153   1.536   3.432   7.125  0.2891 -0.1919  0.1022
 2507SOL    HW119154   1.482   3.385   7.188 -0.2700 -0.9674 -0.9474
 2507SOL    HW219155   1.532   3.526   7.142  0.1858 -0.3538  0.9477
 2508SOL     OW19156   3.242   1.204   2.282 -0.4670 -0.0329 -0.7176
 2508SOL    HW119157   3.320   1.151   2.269 -1.4439 -1.2810 -1.3919
 2508SOL    HW219158   3.248   1.239   2.371  1.2618 -2.7366  0.2415
 2509SOL     OW19159   0.494   3.236   0.964 -0.2824  0.2960 -0.2627
 2509SOL    HW119160   0.558   3.167   0.946  1.8007  2.5613 -1.5290
 2509SOL    HW219161   0.470   3.277   0.881 -1.0905  2.1395  0.8882
 2510SOL     OW19162   3.081   1.084  14.964 -0.2251 -0.3157  0.3085
 2510SOL    HW119163   3.145   1.086  15.035  1.5770  0.7472 -1.3203
 2510SOL    HW219164   3.035   1.006  14.994  0.3885 -1.0074 -0.5278
 2511SOL     OW19165   2.127   3.629   2.489 -0.3544 -0.0194  0.0771
 2511SOL    HW119166   2.046   3.579   2.476 -0.9708  1.3800 -1.4326
 2511SOL    HW219167   2.185   3.580   2.431 -1.3281 -1.4057  0.2754
 2512SOL     OW19168   4.712   1.388  14.637 -0.1969 -0.5942  0.5995
 2512SOL    HW119169   4.695   1.299  14.607  1.5972 -0.7882  0.1491
 2512SOL    HW219170   0.059   1.406  14.593 -0.7002 -0.6889 -0.3855
 2513SOL     OW19171   3.176   1.807   2.623 -0.1662 -0.2745  0.0106
 2513SOL    HW119172   3.100   1.773   2.671 -0.1823 -0.6776 -0.3038
 2513SOL    HW219173   3.138   1.827   2.538 -0.7029 -1.2237  0.0239
 2514SOL     OW19174   1.136   1.284   0.487  0.3919  0.4744 -0.7394
 2514SOL    HW119175   1.076   1.358   0.493 -0.3414 -0.0824 -1.1354
 2514SOL    HW219176   1.074   1.218   0.456  0.9907  0.4814 -1.9787
 2515SOL     OW19177   1.960   3.638   8.259  0.0493 -0.5816  0.3360
 2515SOL    HW119178   1.866   3.635   8.273  0.0681 -1.9299  0.1499
 2515SOL    HW219179   2.004   3.634   8.344  0.2702 -2.5243  0.1320
 2516SOL     OW19180   1.811   3.741   5.403 -0.6184  0.1954 -0.4176
 2516SOL    HW119181   1.763   3.790   5.337  1.7185  1.0246 -1.5136
 2516SOL    HW219182   1.815   3.808   5.472  1.0722  0.8269 -1.1345
 2517SOL     OW19183   3.423   3.005   9.094  0.1562 -0.1994  0.0897
 2517SOL    HW119184   3.447   2.929   9.042  0.6625  0.2532 -0.3342
 2517SOL    HW219185   3.509   3.035   9.124 -0.0837  0.0141  0.5699
 2518SOL     OW19186   3.291   2.817   2.579 -0.3021 -0.3081 -0.7451
 2518SOL    HW119187   3.279   2.738   2.632  1.0207 -0.3195 -0.4549
 2518SOL    HW219188   3.383   2.838   2.596 -0.4037 -0.2778 -0.2571
 2519SOL     OW19189   2.792   3.255   8.887  0.4266  0.8225 -0.5287
 2519SOL    HW119190   2.844   3.188   8.844 -1.3773 -0.4971 -0.6210
 2519SOL    HW219191   2.799   3.317   8.814  0.6214  1.4863  0.0471
 2520SOL     OW19192   4.254   1.630   9.364  0.0627  0.7388  0.2992
 2520SOL    HW119193   4.214   1.717   9.366  0.5588  1.0068 -1.3774
 2520SOL    HW219194   4.211   1.588   9.438  0.2394  0.6653  0.3593
 2521SOL     OW19195   3.652   0.504   9.813 -0.2234  0.3837  0.3418
 2521SOL    HW119196   3.734   0.524   9.857  0.1822  1.9173 -1.1251
 2521SOL    HW219197   3.683   0.432   9.758  1.3457 -0.4853  2.3527
 2522SOL     OW19198   4.022   1.500   9.288  0.9258  0.3410 -0.5222
 2522SOL    HW119199   3.979   1.584   9.271  0.4331 -0.1180 -1.5608
 2522SOL    HW219200   4.112   1.531   9.285  0.7544  1.0765  1.6391
 2523SOL     OW19201   1.520   4.110  11.943 -0.4063  0.6278  0.4371
 2523SOL    HW119202   1.607   4.091  11.908 -0.5151  1.0418 -0.0667
 2523SOL    HW219203   1.498   4.024  11.979  2.7046  0.0517  0.9659
 2524SOL     OW19204   0.283   1.403   8.258  0.2680  0.2564 -0.6048
 2524SOL    HW119205   0.340   1.328   8.245 -0.5069 -0.5140  0.4585
 2524SOL    HW219206   0.335   1.453   8.321 -0.4004 -0.3071  0.3885
 2525SOL     OW19207   4.217   3.732  13.287 -0.6544  0.3375  0.4348
 2525SOL    HW119208   4.197   3.665  13.221 -0.9236  1.3210 -0.4706
 2525SOL    HW219209   4.249   3.680  13.361  2.5751  1.0983 -0.4384
 2526SOL     OW19210   3.066   3.934  15.308 -0.0501  0.3492  0.2576
 2526SOL    HW119211   2.986   3.884  15.325  0.3958 -0.7263 -0.8245
 2526SOL    HW219212   3.052   3.974  15.222 -1.5815 -0.3988  0.1640
 2527SOL     OW19213   3.699   1.826  16.361  0.5820 -0.4020 -0.4127
 2527SOL    HW119214   3.623   1.772  16.379  1.8943 -2.2921 -0.5603
 2527SOL    HW219215   3.754   1.768  16.309  1.4989  0.2793 -0.1980
 2528SOL     OW19216   4.405   0.204   7.266  0.3115 -0.6405 -0.0081
 2528SOL    HW119217   4.364   0.265   7.205 -1.8638 -0.2704  1.8023
 2528SOL    HW219218   4.378   0.121   7.226  3.0064 -1.1128 -0.8469
 2529SOL     OW19219   1.237   3.658   6.278 -0.2178 -0.4951  0.1979
 2529SOL    HW119220   1.230   3.683   6.370  0.8604 -4.4381  1.3273
 2529SOL    HW219221   1.150   3.617   6.274  0.7196 -2.4703  0.3423
 2530SOL     OW19222   2.877   1.243  15.943 -0.0352  0.0617  0.6896
 2530SOL    HW119223   2.971   1.228  15.952 -0.3286 -2.0166  0.1659
 2530SOL    HW219224   2.837   1.173  15.993 -0.5934 -0.5712 -0.6422
 2531SOL     OW19225   4.671   1.747  15.237  0.3497 -0.3718 -0.6785
 2531SOL    HW119226   4.724   1.815  15.279  0.3362  0.9180 -2.7279
 2531SOL    HW219227   4.721   1.672  15.268 -0.0158  0.0749  0.9502
 2532SOL     OW19228   1.041   2.287   8.553  0.4992 -0.0432 -0.2707
 2532SOL    HW119229   1.120   2.332   8.524 -0.8813  2.3085 -0.3839
 2532SOL    HW219230   0.977   2.324   8.491  1.2933 -1.0328 -1.6754
 2533SOL     OW19231   1.751   4.365   2.571 -0.3299 -0.3242  0.0820
 2533SOL    HW119232   1.807   4.405   2.505 -0.1605  0.5188  0.7360
 2533SOL    HW219233   1.776   4.273   2.560 -0.3229 -0.2579 -0.4426
 2534SOL     OW19234   4.079   0.911   9.426  0.1210  0.2542  0.0534
 2534SOL    HW119235   4.002   0.865   9.458  0.2708 -0.5761 -0.7746
 2534SOL    HW219236   4.129   0.914   9.508  1.0519  0.5840 -0.5216
 2535SOL     OW19237   2.034   3.261   7.963 -0.3713 -0.3172  0.1855
 2535SOL    HW119238   2.037   3.223   8.050  2.3299 -0.7673 -0.1162
 2535SOL    HW219239   2.068   3.186   7.913  1.5555  0.6705  0.0223
 2536SOL     OW19240   2.149   2.863   9.087 -0.5381 -0.0288 -0.3710
 2536SOL    HW119241   2.125   2.955   9.081  0.2336  0.2723  1.3619
 2536SOL    HW219242   2.216   2.861   9.019 -1.7605  0.3619 -1.5796
 2537SOL     OW19243   3.846   0.412   6.671 -0.3716  0.1080  0.0541
 2537SOL    HW119244   3.929   0.412   6.720  1.7260 -0.1363 -3.5007
 2537SOL    HW219245   3.879   0.362   6.595 -0.4598  1.0938 -0.6260
 2538SOL     OW19246   2.389   4.537   5.821  0.0561 -0.1671  0.1018
 2538SOL    HW119247   2.432   4.452   5.829  0.3322 -0.1228 -0.8556
 2538SOL    HW219248   2.442   4.589   5.881 -0.6372 -0.3233  0.8449
 2539SOL     OW19249   4.252   0.737  12.155  0.1309  0.0925 -0.0618
 2539SOL    HW119250   4.334   0.698  12.124 -0.6510 -1.5378 -0.0813
 2539SOL    HW219251   4.271   0.720  12.248  1.8871 -0.0953 -0.4603
 2540SOL     OW19252   2.881   2.659   0.996 -0.4829  0.4684  0.2886
 2540SOL    HW119253   2.972   2.642   0.972 -0.0806  1.8784  0.8308
 2540SOL    HW219254   2.848   2.569   1.005 -0.4691  0.4954  0.6089
 2541SOL     OW19255   4.680   2.575   7.520 -0.4051  0.5171 -0.1113
 2541SOL    HW119256   4.732   2.595   7.598  0.8379 -2.0301 -0.2782
 2541SOL    HW219257   4.602   2.631   7.522  0.7520  2.0050  2.5360
 2542SOL     OW19258   1.869   3.250   2.995  0.2278  0.1672 -0.0330
 2542SOL    HW119259   1.820   3.190   3.051 -0.3903  0.6057 -0.0959
 2542SOL    HW219260   1.934   3.281   3.057  0.1339 -0.5245  0.4131
 2543SOL     OW19261   4.568   2.126  11.777 -0.5778 -0.8604 -1.1165
 2543SOL    HW119262   4.496   2.090  11.725 -0.1011 -1.8380 -1.0964
 2543SOL    HW219263   4.525   2.194  11.828  1.6469 -0.5452  0.3013
 2544SOL     OW19264   0.392   1.918   7.002 -0.3489  0.0672 -0.3740
 2544SOL    HW119265   0.414   1.954   6.916  3.7029  0.9913  1.0690
 2544SOL    HW219266   0.391   1.823   6.989 -0.6280 -0.3128  2.3823
 2545SOL     OW19267   1.754   2.317   5.552  0.0885  0.2256  0.3781
 2545SOL    HW119268   1.815   2.364   5.608  2.6642 -2.5240 -0.1003
 2545SOL    HW219269   1.680   2.359   5.595 -0.9637  0.4252 -1.6355
 2546SOL     OW19270   2.814   2.484  14.766 -0.3943 -0.0695 -0.0555
 2546SOL    HW119271   2.772   2.425  14.703 -0.9476 -0.3594  0.5785
 2546SOL    HW219272   2.901   2.483  14.727  0.1052  2.2563  0.9601
 2547SOL     OW19273   2.446   3.655   1.202  0.3753 -0.2583 -0.7329
 2547SOL    HW119274   2.431   3.605   1.282  0.8827 -1.1421 -1.1901
 2547SOL    HW219275   2.495   3.590   1.152 -0.3691 -1.0853 -0.3825
 2548SOL     OW19276   2.183   2.736   3.360  0.6066  0.1756  0.3504
 2548SOL    HW119277   2.149   2.721   3.448 -1.3767  0.8103 -0.3170
 2548SOL    HW219278   2.224   2.653   3.334  0.1009  0.0794 -0.1185
 2549SOL     OW19279   2.092   1.713   5.858 -0.1273  0.3132 -0.4397
 2549SOL    HW119280   2.071   1.636   5.912  0.6107  0.2595 -0.2361
 2549SOL    HW219281   2.177   1.738   5.893 -1.2019  1.4918  1.3314
 2550SOL     OW19282   0.869   0.912   6.486  0.2149 -0.6077 -0.3425
 2550SOL    HW119283   0.814   0.990   6.483  0.2380 -0.6339 -1.3580
 2550SOL    HW219284   0.856   0.881   6.575  1.4833 -1.9316 -0.6134
 2551SOL     OW19285   4.277   2.475   8.257 -0.0383 -0.3069  0.4264
 2551SOL    HW119286   4.203   2.529   8.228 -0.2023 -0.2458  0.9530
 2551SOL    HW219287   4.257   2.465   8.351  0.2952  1.2143  0.6586
 2552SOL     OW19288   1.607   0.455   2.369  0.2484 -0.2695 -0.2251
 2552SOL    HW119289   1.584   0.397   2.442  1.6137 -0.2497  0.2122
 2552SOL    HW219290   1.626   0.535   2.418  2.5313  0.6094 -2.5184
 2553SOL     OW19291   3.781   0.470   1.976  0.5392  0.1407  0.5634
 2553SOL    HW119292   3.739   0.389   1.947 -0.3444  1.1259 -0.8931
 2553SOL    HW219293   3.873   0.447   1.962 -0.4366 -1.9644 -2.3918
 2554SOL     OW19294   2.580   0.861   2.946 -0.5336  0.2326 -0.5597
 2554SOL    HW119295   2.555   0.837   2.857 -0.2676  1.0625 -0.8642
 2554SOL    HW219296   2.527   0.806   3.002 -3.0225  1.9942 -1.1702
 2555SOL     OW19297   3.237   4.658  17.083 -0.5492 -0.2013 -0.7142
 2555SOL    HW119298   3.259   4.568  17.059 -2.5313 -0.0765 -2.9371
 2555SOL    HW219299   3.168   4.641  17.147 -0.8161  1.8374 -0.4703
 2556SOL     OW19300   1.127   4.072   8.223  0.7137  0.2417  0.1529
 2556SOL    HW119301   1.189   4.118   8.166 -0.3432  3.0239  1.2631
 2556SOL    HW219302   1.154   3.983   8.200 -2.0989  0.3712 -3.7619
 2557SOL     OW19303   4.078   3.115  16.485  1.1758  0.1998 -0.0591
 2557SOL    HW119304   4.131   3.047  16.528  0.6760  0.3349  0.7683
 2557SOL    HW219305   4.138   3.188  16.497  1.5557  0.1164 -1.5386
 2558SOL     OW19306   2.683   1.236   8.939 -0.7111  0.0466 -0.1766
 2558SOL    HW119307   2.596   1.274   8.929 -2.1024 -3.2999 -0.7914
 2558SOL    HW219308   2.696   1.255   9.032  2.4622  0.5531 -0.7003
 2559SOL     OW19309   4.031   2.793   7.847 -0.1314  0.1195 -0.3291
 2559SOL    HW119310   3.968   2.801   7.918  0.4245 -1.7208  0.3783
 2559SOL    HW219311   3.970   2.747   7.789  0.3689 -1.4186  0.3576
 2560SOL     OW19312   2.115   1.187  12.818  0.0616 -0.0323  0.3363
 2560SOL    HW119313   2.163   1.237  12.884 -1.8247  1.9733  0.2091
 2560SOL    HW219314   2.114   1.250  12.746  3.1115 -0.0293  0.2910
 2561SOL     OW19315   2.077   0.820  14.083  0.5553  0.0411 -0.7255
 2561SOL    HW119316   2.077   0.728  14.111 -1.4363  0.2139 -0.1567
 2561SOL    HW219317   2.000   0.849  14.132  0.8926 -0.6471  0.2216
 2562SOL     OW19318   3.876   2.854  10.885  0.0400 -0.7481  0.1209
 2562SOL    HW119319   3.898   2.911  10.811  1.2661  1.1540  1.9628
 2562SOL    HW219320   3.950   2.794  10.886  1.0673  0.5066 -0.7826
 2563SOL     OW19321   2.291   0.142   9.577 -0.0338 -0.0066  0.0311
 2563SOL    HW119322   2.357   0.182   9.634 -1.2313  3.4761 -1.0231
 2563SOL    HW219323   2.275   0.063   9.629 -2.0958  1.2016  1.2514
 2564SOL     OW19324   1.905   2.499  15.131  0.4675 -0.7576 -0.1866
 2564SOL    HW119325   1.911   2.414  15.175 -2.6116 -0.1207  1.4949
 2564SOL    HW219326   1.811   2.503  15.110  0.7178  1.4045 -0.8421
 2565SOL     OW19327   4.320   2.385   8.571  0.4066 -0.5481 -0.0935
 2565SOL    HW119328   4.279   2.301   8.593 -0.9059  0.2158  0.3647
 2565SOL    HW219329   4.351   2.410   8.658 -0.4640 -0.3162  0.1421
 2566SOL     OW19330   0.694   3.716   4.751  0.3430 -0.1013  0.1099
 2566SOL    HW119331   0.652   3.759   4.677 -2.5855 -1.8874  0.7328
 2566SOL    HW219332   0.659   3.627   4.738  0.3150  0.0742 -1.0634
 2567SOL     OW19333   3.371   2.858  12.489 -0.4230  0.2264 -0.3032
 2567SOL    HW119334   3.339   2.825  12.405  2.1273  0.4169 -1.3684
 2567SOL    HW219335   3.433   2.787  12.506  1.3313  1.9003  0.2155
 2568SOL     OW19336   1.260   4.219   7.061  0.3389 -0.5269 -0.9437
 2568SOL    HW119337   1.301   4.133   7.071 -0.8786 -0.9621  0.4745
 2568SOL    HW219338   1.228   4.216   7.152 -0.6500 -0.3300 -1.2842
 2569SOL     OW19339   4.256   2.324   0.516  0.3901  0.0286 -0.1210
 2569SOL    HW119340   4.278   2.301   0.426 -1.1853 -0.9363 -0.2702
 2569SOL    HW219341   4.167   2.357   0.502  0.4064 -0.0572 -0.4180
 2570SOL     OW19342   0.167   3.128   6.961  0.2436  0.0799  0.3333
 2570SOL    HW119343   0.090   3.108   7.013  0.6597 -2.4134 -0.0407
 2570SOL    HW219344   0.211   3.179   7.030 -0.5821 -0.1937  1.0665
 2571SOL     OW19345   1.252   1.544   2.645  0.0121 -0.0634  0.0939
 2571SOL    HW119346   1.232   1.525   2.736  1.2826 -1.5570  0.0577
 2571SOL    HW219347   1.327   1.602   2.660 -0.9027  1.6159 -1.8719
 2572SOL     OW19348   3.127   1.806   4.971  0.2853  0.3633  0.0758
 2572SOL    HW119349   3.031   1.812   4.971  0.2516 -0.1715  0.2327
 2572SOL    HW219350   3.140   1.751   4.894  0.8220  1.5340 -0.6712
 2573SOL     OW19351   2.076   1.894   3.442  0.3989  0.2051  0.0638
 2573SOL    HW119352   2.083   1.976   3.393 -0.7097 -0.0660 -0.5426
 2573SOL    HW219353   2.157   1.905   3.492  1.6043  0.3806 -1.9031
 2574SOL     OW19354   3.227   3.146   6.490  0.2404  0.0015 -0.1198
 2574SOL    HW119355   3.223   3.050   6.490  0.2513  0.0079 -1.3562
 2574SOL    HW219356   3.316   3.155   6.456  0.0466 -1.2946 -0.9953
 2575SOL     OW19357   1.573   2.405   8.542  0.0243  0.1986  0.1695
 2575SOL    HW119358   1.632   2.441   8.477 -0.0891  0.3041  0.1248
 2575SOL    HW219359   1.572   2.315   8.507 -4.0313  0.7791 -1.2755
 2576SOL     OW19360   3.678   3.701  16.448  0.0060  0.1486 -0.6694
 2576SOL    HW119361   3.686   3.788  16.489  0.2644  1.5950 -3.8002
 2576SOL    HW219362   3.664   3.649  16.527 -0.6433 -0.4314 -1.1661
 2577SOL     OW19363   2.582   2.738   2.387  0.1520 -0.1218 -0.0950
 2577SOL    HW119364   2.501   2.697   2.419  1.1358 -2.2705 -0.3273
 2577SOL    HW219365   2.551   2.800   2.321 -0.7094  0.5060  0.9100
 2578SOL     OW19366   2.525   3.705  17.205  0.5159  0.9619 -0.6487
 2578SOL    HW119367   2.524   3.743  17.293  0.9096 -2.3330  0.7835
 2578SOL    HW219368   2.457   3.640  17.224  0.1196  0.9697 -2.0436
 2579SOL     OW19369   3.997   3.555   8.360 -0.0178  0.4359 -0.3304
 2579SOL    HW119370   4.010   3.485   8.424 -0.4048  1.1264  0.5113
 2579SOL    HW219371   3.949   3.617   8.416 -1.0450  0.0620 -0.7992
 2580SOL     OW19372   3.540   3.156   4.825 -0.6779 -0.2662 -0.5507
 2580SOL    HW119373   3.472   3.105   4.782 -1.7329  0.6593  0.0383
 2580SOL    HW219374   3.575   3.201   4.748 -1.5674  0.2259 -0.6616
 2581SOL     OW19375   1.637   2.467  11.840  0.0451  0.5094 -0.0112
 2581SOL    HW119376   1.659   2.416  11.918 -2.8639  1.8305  1.6785
 2581SOL    HW219377   1.603   2.404  11.777  0.7809 -2.7766  2.8871
 2582SOL     OW19378   0.841   4.623   6.113  0.1806 -0.3766  0.5618
 2582SOL    HW119379   0.888   4.692   6.067 -2.4481 -1.0500 -3.1825
 2582SOL    HW219380   0.848   4.657   6.202 -1.3886 -0.1932  0.6291
 2583SOL     OW19381   2.477   3.851   1.537  0.3413  0.3289  0.3367
 2583SOL    HW119382   2.545   3.797   1.496 -0.3668 -1.1212  1.0773
 2583SOL    HW219383   2.463   3.917   1.469  1.0871 -1.1265 -1.2535
 2584SOL     OW19384   0.987   4.318  17.588  0.2280  0.5440  0.0076
 2584SOL    HW119385   0.952   4.389  17.642 -0.6059  0.2705 -0.1703
 2584SOL    HW219386   1.058   4.279  17.639  1.1311 -0.5840 -2.1321
 2585SOL     OW19387   0.519   1.396   1.966 -0.2058  0.3678 -0.1571
 2585SOL    HW119388   0.492   1.376   1.877 -1.5459 -0.1854  0.3611
 2585SOL    HW219389   0.465   1.470   1.993 -0.6350 -0.1306  0.3575
 2586SOL     OW19390   1.699   0.558   2.115  0.2232  0.3555 -0.6217
 2586SOL    HW119391   1.630   0.624   2.114 -0.0113  0.1104 -1.7353
 2586SOL    HW219392   1.672   0.500   2.186  1.1393  0.3178 -0.3152
 2587SOL     OW19393   1.333   0.942   7.690 -0.4745  0.5328 -0.0291
 2587SOL    HW119394   1.294   0.982   7.768  0.1239 -0.3614  0.7283
 2587SOL    HW219395   1.263   0.897   7.643  0.0155 -0.5406  0.2542
 2588SOL     OW19396   4.080   1.840   9.362  0.1847 -0.0634 -0.5709
 2588SOL    HW119397   3.998   1.795   9.344 -0.6412  1.2904 -0.2353
 2588SOL    HW219398   4.081   1.912   9.299  2.2752  1.5128  1.2501
 2589SOL     OW19399   0.274   2.314   4.576 -0.1809  0.4293 -0.0925
 2589SOL    HW119400   0.216   2.388   4.564  0.6473  0.9891 -0.6153
 2589SOL    HW219401   0.290   2.329   4.669  1.3114  0.7021 -0.4010
 2590SOL     OW19402   1.711   4.570   4.634 -0.1839  0.1092  0.4362
 2590SOL    HW119403   1.617   4.565   4.619 -0.1629 -0.4319  0.4815
 2590SOL    HW219404   1.711   4.570   4.729 -1.6668 -0.2482  0.4369
 2591SOL     OW19405   0.224   4.138   2.591  0.1828 -0.0590 -0.1157
 2591SOL    HW119406   0.304   4.103   2.630  1.1328  0.5488 -1.5155
 2591SOL    HW219407   0.175   4.150   2.673 -0.9295  2.7165 -1.1821
 2592SOL     OW19408   1.785   3.303   7.407  0.3248 -0.3622 -0.2785
 2592SOL    HW119409   1.852   3.303   7.476 -0.0870  1.6885  0.1143
 2592SOL    HW219410   1.782   3.213   7.375  2.1390 -0.7583  0.6328
 2593SOL     OW19411   0.718   1.611   3.675  0.1545  0.0251 -0.0791
 2593SOL    HW119412   0.697   1.518   3.684  1.0273 -0.4600 -3.0873
 2593SOL    HW219413   0.650   1.633   3.611  0.7674  0.5162 -0.5593
 2594SOL     OW19414   0.647   1.401   8.392  0.3238 -0.2914  0.0747
 2594SOL    HW119415   0.727   1.348   8.396  1.1647  0.7171 -3.5103
 2594SOL    HW219416   0.667   1.494   8.403 -0.3207 -0.1987  0.4479
 2595SOL     OW19417   2.323   4.522   7.274  0.3323 -0.5256  0.2390
 2595SOL    HW119418   2.387   4.581   7.316  1.1802 -0.7102 -0.7874
 2595SOL    HW219419   2.239   4.532   7.319 -0.8286  2.7501 -2.6645
 2596SOL     OW19420   1.405   0.981  11.195 -0.0089 -0.5542 -0.5063
 2596SOL    HW119421   1.499   0.982  11.178  0.1766 -1.5514  0.4278
 2596SOL    HW219422   1.358   0.930  11.129 -0.7448 -0.7073  0.1321
 2597SOL     OW19423   0.030   1.604   2.267  0.3630  0.4829  0.0001
 2597SOL    HW119424   0.116   1.563   2.270 -1.1656 -2.7324  0.7001
 2597SOL    HW219425   0.040   1.668   2.337 -3.2432  1.7498 -0.6448
 2598SOL     OW19426   1.617   1.046  16.107  0.1029 -0.4147  0.5047
 2598SOL    HW119427   1.586   1.033  16.017  1.9381  3.7496 -0.6948
 2598SOL    HW219428   1.636   0.956  16.134  2.3209 -0.5890 -1.6608
 2599SOL     OW19429   0.898   3.009   5.405  0.4416 -0.1490 -0.2470
 2599SOL    HW119430   0.857   3.032   5.489  0.6281  0.3991 -0.3072
 2599SOL    HW219431   0.946   2.934   5.439 -0.4868 -1.2686 -1.4186
 2600SOL     OW19432   3.513   2.421   9.398 -0.3870  0.1072 -0.0132
 2600SOL    HW119433   3.528   2.454   9.487 -3.5278  0.9524  0.2065
 2600SOL    HW219434   3.422   2.393   9.407 -1.3940  3.1932 -0.4955
 2601SOL     OW19435   1.422   3.364   2.826  0.3870  0.2906  0.6516
 2601SOL    HW119436   1.507   3.385   2.865 -0.9010  2.9881  2.0454
 2601SOL    HW219437   1.427   3.413   2.744 -0.9947  0.0052  0.3963
 2602SOL     OW19438   2.678   1.858   5.208 -0.3352  0.0216 -0.4489
 2602SOL    HW119439   2.715   1.927   5.262  0.6920  0.0541 -1.1926
 2602SOL    HW219440   2.595   1.901   5.187 -1.6282 -1.2357  2.1479
 2603SOL     OW19441   3.081   3.757  11.107  0.3242 -0.0949  0.6139
 2603SOL    HW119442   3.082   3.842  11.150  0.8264  0.5283 -0.6271
 2603SOL    HW219443   2.990   3.729  11.119  0.1092  0.2963 -0.1404
 2604SOL     OW19444   0.485   1.376   4.910  0.9784  0.0518  0.3365
 2604SOL    HW119445   0.445   1.442   4.854  1.8933 -0.6874 -1.1789
 2604SOL    HW219446   0.477   1.412   4.999  0.2618  0.8482 -0.0511
 2605SOL     OW19447   4.458   3.151   5.562  0.1785 -0.2483  0.1841
 2605SOL    HW119448   4.503   3.155   5.478 -0.0155 -3.7085 -0.0881
 2605SOL    HW219449   4.518   3.098   5.615  0.6866 -0.5874 -0.7370
 2606SOL     OW19450   3.259   1.739  15.657 -0.0596 -0.3964  0.2395
 2606SOL    HW119451   3.328   1.701  15.602 -0.2676  0.4439 -0.6117
 2606SOL    HW219452   3.218   1.801  15.597  1.2894 -0.8716 -1.1950
 2607SOL     OW19453   4.046   3.563   9.236 -0.1577 -0.5164  0.3391
 2607SOL    HW119454   4.114   3.576   9.170  0.2780 -0.5378  0.7846
 2607SOL    HW219455   3.991   3.495   9.197 -0.4658 -0.3442  0.4797
 2608SOL     OW19456   2.284   2.638  12.814 -0.0632  0.5879  0.1585
 2608SOL    HW119457   2.243   2.678  12.890  0.0264 -1.9544  1.5603
 2608SOL    HW219458   2.275   2.709  12.751  1.1619  0.5511 -0.0591
 2609SOL     OW19459   1.762   1.119   6.508 -0.5408  0.4064  0.1458
 2609SOL    HW119460   1.677   1.159   6.527 -1.6527 -1.0105 -1.7637
 2609SOL    HW219461   1.746   1.041   6.455 -0.4412 -1.8904  3.5264
 2610SOL     OW19462   0.947   2.577   8.574  0.4468  0.1275  0.0496
 2610SOL    HW119463   0.861   2.574   8.616 -0.1359 -4.0745 -1.3629
 2610SOL    HW219464   0.916   2.584   8.483  3.7767 -1.4608 -1.2283
 2611SOL     OW19465   1.215   3.736   2.443 -0.1348 -0.0019 -0.3855
 2611SOL    HW119466   1.125   3.711   2.425 -0.2158 -0.3439  0.4704
 2611SOL    HW219467   1.208   3.768   2.533 -2.2820 -2.4760  0.3136
 2612SOL     OW19468   4.607   0.744   2.563 -0.2152 -0.1627  0.7932
 2612SOL    HW119469   4.526   0.787   2.590  1.4524  2.0623  2.2419
 2612SOL    HW219470   4.642   0.719   2.648  0.5766  1.5480  0.9702
 2613SOL     OW19471   1.298   2.698   5.060  0.8042  0.6848  0.2938
 2613SOL    HW119472   1.289   2.637   4.986 -0.3409  0.3126  0.7410
 2613SOL    HW219473   1.365   2.755   5.023  0.1612  1.3837  0.2201
 2614SOL     OW19474   0.168   2.955   7.296  0.1428  0.3945 -0.5450
 2614SOL    HW119475   0.245   2.930   7.347  1.1039 -0.2232 -2.3001
 2614SOL    HW219476   0.103   2.941   7.365  2.4088 -1.6457  1.1932
 2615SOL     OW19477   0.639   3.505   6.764 -0.6131  0.2341 -0.5137
 2615SOL    HW119478   0.728   3.483   6.793 -0.5282  0.3170 -0.7076
 2615SOL    HW219479   0.634   3.435   6.699 -0.2634 -1.9573  1.7913
 2616SOL     OW19480   2.471   2.490  10.039  0.1634  0.0029  0.1862
 2616SOL    HW119481   2.479   2.426   9.968 -0.5096 -1.8050  1.7204
 2616SOL    HW219482   2.564   2.500  10.059 -0.4545  2.7241  1.6170
 2617SOL     OW19483   3.417   0.958   4.294 -0.0234  0.1040 -0.1797
 2617SOL    HW119484   3.493   0.920   4.250  0.1283 -0.8512  0.8924
 2617SOL    HW219485   3.459   1.012   4.360  1.3243  0.7465 -1.5688
 2618SOL     OW19486   2.595   3.461   9.547  0.5207 -0.1413  0.1916
 2618SOL    HW119487   2.642   3.458   9.631 -0.6300 -1.5504  0.7772
 2618SOL    HW219488   2.633   3.381   9.511  1.4384  0.8913 -1.1359
 2619SOL     OW19489   4.223   0.878  13.086 -0.7316  0.2949  0.6051
 2619SOL    HW119490   4.259   0.919  13.165 -1.9000  0.8645  0.8574
 2619SOL    HW219491   4.141   0.929  13.087 -1.5758 -1.0585  0.2342
 2620SOL     OW19492   4.645   1.231  17.706 -0.6974 -0.4952  0.1738
 2620SOL    HW119493   4.706   1.207  17.636  1.0822 -0.9341  1.9009
 2620SOL    HW219494   4.703   1.293   0.008 -0.1285 -0.5450 -0.4731
 2621SOL     OW19495   1.242   4.495   5.571  0.1497 -0.2430  0.0731
 2621SOL    HW119496   1.205   4.420   5.524  0.9488  0.0352 -1.0099
 2621SOL    HW219497   1.184   4.499   5.647 -1.7256  2.5519 -1.5035
 2622SOL     OW19498   3.697   0.626   8.619  0.1098  0.4015  0.0883
 2622SOL    HW119499   3.736   0.687   8.682  0.2541 -0.3617  0.7415
 2622SOL    HW219500   3.634   0.574   8.668 -0.6327  1.4234  0.2004
 2623SOL     OW19501   2.205   2.280   4.138 -0.4504  0.4464 -0.0114
 2623SOL    HW119502   2.198   2.365   4.093 -0.4627 -0.2085 -1.2517
 2623SOL    HW219503   2.114   2.250   4.147 -0.1507 -0.1481  0.9903
 2624SOL     OW19504   4.165   2.127   8.508  0.0866  0.0640 -0.3144
 2624SOL    HW119505   4.145   2.061   8.575 -1.1370 -0.6823 -1.4048
 2624SOL    HW219506   4.089   2.185   8.516 -0.0265 -0.0876 -0.2825
 2625SOL     OW19507   1.390   0.970   2.772 -0.5174  0.1164 -0.3626
 2625SOL    HW119508   1.400   1.012   2.858  0.3029 -2.9655  1.0462
 2625SOL    HW219509   1.391   0.876   2.791 -0.4092  0.3746  0.9657
 2626SOL     OW19510   2.519   4.019   6.160  0.3663 -0.4861 -0.5494
 2626SOL    HW119511   2.495   4.034   6.068 -0.5490 -0.9028 -0.3750
 2626SOL    HW219512   2.544   3.927   6.162  0.3814 -0.5005 -1.1945
 2627SOL     OW19513   2.357   0.303   2.112 -0.2291  0.0823 -0.1804
 2627SOL    HW119514   2.401   0.275   2.032  1.8343 -0.2413  1.0794
 2627SOL    HW219515   2.330   0.391   2.086 -1.7996 -0.3774 -0.1053
 2628SOL     OW19516   3.478   4.472   5.130  0.4347 -0.1263  0.4130
 2628SOL    HW119517   3.427   4.519   5.197  2.4250 -0.1864  1.9635
 2628SOL    HW219518   3.443   4.384   5.145 -0.3044 -0.1582 -1.5233
 2629SOL     OW19519   4.422   2.123   6.713 -0.0085  0.5262  0.4514
 2629SOL    HW119520   4.362   2.117   6.787 -1.5723  2.2773 -0.6886
 2629SOL    HW219521   4.504   2.097   6.756 -0.2005  2.9368  2.3069
 2630SOL     OW19522   4.365   3.991   5.858  0.3663  0.4656 -0.5966
 2630SOL    HW119523   4.381   3.992   5.953  2.9046  0.1338 -1.0336
 2630SOL    HW219524   4.280   3.947   5.853  0.6315 -0.0420 -0.6083
 2631SOL     OW19525   0.890   3.031  11.190  0.3242 -0.2701 -0.0403
 2631SOL    HW119526   0.854   2.956  11.237 -0.6206  0.4712  0.4443
 2631SOL    HW219527   0.965   2.991  11.147 -0.9162  0.6615 -3.1631
 2632SOL     OW19528   3.588   2.357  12.438 -0.8621  0.3029  0.4972
 2632SOL    HW119529   3.534   2.335  12.362 -0.5388  0.4522  0.2260
 2632SOL    HW219530   3.672   2.374  12.395 -0.7886  3.6190  1.9862
 2633SOL     OW19531   3.883   1.962   3.510  0.2986  0.1028 -0.0704
 2633SOL    HW119532   3.971   1.993   3.530 -0.9751  1.5312  3.3061
 2633SOL    HW219533   3.887   1.909   3.430 -1.5618 -1.5253  0.9138
 2634SOL     OW19534   2.451   0.083  17.596  0.6940  0.4142 -0.0251
 2634SOL    HW119535   2.404   0.001  17.613  0.1033  1.0482  1.3883
 2634SOL    HW219536   2.528   0.049  17.551  0.1258 -0.2472 -0.5058
 2635SOL     OW19537   4.269   2.260   3.021  0.8561  0.1706 -0.0026
 2635SOL    HW119538   4.260   2.344   2.976 -1.1887 -0.2059 -0.2932
 2635SOL    HW219539   4.202   2.205   2.981  1.3997 -0.0074 -0.6670
 2636SOL     OW19540   2.934   2.280   3.255 -0.4101  0.3576 -0.2385
 2636SOL    HW119541   2.850   2.323   3.239 -0.5181  1.0018  2.0037
 2636SOL    HW219542   2.987   2.344   3.302  1.6647 -0.8433 -0.9081
 2637SOL     OW19543   2.678   1.021  12.954  0.6806  0.4463 -0.1214
 2637SOL    HW119544   2.680   0.980  12.868  1.7964 -0.8876  0.5404
 2637SOL    HW219545   2.664   1.114  12.935  1.9504  0.9858  1.5523
 2638SOL     OW19546   1.811   3.021   4.923 -0.3167 -1.0294  0.3856
 2638SOL    HW119547   1.755   3.012   4.846 -0.4434  0.0215  0.3606
 2638SOL    HW219548   1.885   2.967   4.897 -1.9124 -1.8425 -2.4879
 2639SOL     OW19549   0.674   0.939  16.615  0.3890 -0.1186  0.0682
 2639SOL    HW119550   0.726   0.924  16.536 -1.0552 -0.3849 -0.8471
 2639SOL    HW219551   0.705   1.027  16.634  0.0131 -0.3692  1.8525
 2640SOL     OW19552   0.915   1.946   6.767 -0.4204 -0.2564 -0.4195
 2640SOL    HW119553   0.867   2.028   6.760  0.8343  0.3580 -1.9345
 2640SOL    HW219554   0.967   1.948   6.686  0.8000 -2.7632  0.3077
 2641SOL     OW19555   0.943   3.989   8.054 -0.2551 -0.0068 -0.4306
 2641SOL    HW119556   0.988   4.043   8.118  0.6548 -2.6117  1.1339
 2641SOL    HW219557   0.888   3.939   8.114  0.4315  1.2873  1.2690
 2642SOL     OW19558   4.313   2.114   1.391 -0.6527  0.2386  0.2500
 2642SOL    HW119559   4.358   2.169   1.327 -1.4164 -1.1805 -1.5240
 2642SOL    HW219560   4.285   2.182   1.452  0.8372  1.6857 -0.6745
 2643SOL     OW19561   3.956   2.042   7.063  0.4334 -0.1639  0.9319
 2643SOL    HW119562   4.022   2.109   7.083 -0.1227  1.5178 -2.8904
 2643SOL    HW219563   3.880   2.077   7.110 -0.0088  0.1772 -0.0331
 2644SOL     OW19564   2.935   3.995   7.343 -0.7677  0.5799  0.2905
 2644SOL    HW119565   2.887   4.036   7.271 -0.6791 -1.2560 -0.8200
 2644SOL    HW219566   3.024   4.029   7.342 -0.1521 -1.1016 -1.5085
 2645SOL     OW19567   4.693   2.596   9.835 -0.6885 -0.9893 -0.2425
 2645SOL    HW119568   0.032   2.541   9.859  0.4472  1.1749  1.1167
 2645SOL    HW219569   4.635   2.577   9.909 -1.1296 -0.1105 -0.3562
 2646SOL     OW19570   0.420   0.984  16.735 -0.3246  0.3774 -0.4475
 2646SOL    HW119571   0.377   0.904  16.704  0.4688 -0.4647  0.6500
 2646SOL    HW219572   0.511   0.968  16.709  0.2240  1.3377  0.8623
 2647SOL     OW19573   4.092   1.677   6.707 -0.7855 -0.3191 -0.3324
 2647SOL    HW119574   4.107   1.765   6.742  0.9520 -0.5575 -0.5165
 2647SOL    HW219575   4.163   1.660   6.645 -1.2838 -1.1946 -0.6694
 2648SOL     OW19576   3.726   4.694  14.653 -0.6723  0.4207  0.0926
 2648SOL    HW119577   3.756   0.036  14.607  1.1426 -0.7674 -0.7647
 2648SOL    HW219578   3.773   4.719  14.733 -0.9790 -0.6975  0.6287
 2649SOL     OW19579   4.192   1.524  14.576 -0.0850 -0.0726 -0.0280
 2649SOL    HW119580   4.144   1.500  14.656  1.5455  3.2078  1.9478
 2649SOL    HW219581   4.279   1.486  14.582 -0.5144 -1.1627 -0.8277
 2650SOL     OW19582   3.750   0.428   5.989 -0.2675  0.5207 -0.3568
 2650SOL    HW119583   3.681   0.451   6.051 -2.0361 -1.5521 -1.5488
 2650SOL    HW219584   3.798   0.363   6.040  2.8869  3.0217 -0.0946
 2651SOL     OW19585   3.099   4.330   6.860  0.9805  0.3815  0.2598
 2651SOL    HW119586   3.126   4.343   6.951 -0.4045 -0.2993  0.7780
 2651SOL    HW219587   3.151   4.405   6.832 -2.9162  2.8479 -0.4545
 2652SOL     OW19588   0.818   3.453   3.565  0.0326  0.0486 -0.2258
 2652SOL    HW119589   0.792   3.481   3.653  0.8960  1.0501 -0.3000
 2652SOL    HW219590   0.727   3.449   3.535  0.0833 -0.8169 -0.2484
 2653SOL     OW19591   1.494   1.909   7.239  0.3350  0.5759 -0.2751
 2653SOL    HW119592   1.539   1.920   7.155 -0.8048  1.2846 -0.7895
 2653SOL    HW219593   1.546   1.839   7.278  1.8319  2.2097  0.7221
 2654SOL     OW19594   2.316   2.238   3.537  0.0425 -0.2454 -0.5674
 2654SOL    HW119595   2.303   2.144   3.531  3.3147 -0.6799 -0.8392
 2654SOL    HW219596   2.368   2.245   3.618 -0.8336 -2.5391  0.1837
 2655SOL     OW19597   4.349   2.196   8.154  0.2860 -0.2205  0.6024
 2655SOL    HW119598   4.433   2.219   8.113  0.6366 -0.9767  0.8928
 2655SOL    HW219599   4.342   2.243   8.237  1.2010 -0.4792  0.8266
 2656SOL     OW19600   3.004   4.148   2.944  0.3773 -0.2893 -0.4016
 2656SOL    HW119601   3.000   4.143   2.849 -3.4373  2.2622 -0.3711
 2656SOL    HW219602   3.085   4.199   2.952  0.4791 -0.9807  2.9364
 2657SOL     OW19603   3.608   1.695   2.506  0.1627  0.4598  0.7042
 2657SOL    HW119604   3.654   1.778   2.515  0.1979  0.6447 -1.3564
 2657SOL    HW219605   3.605   1.650   2.591  1.5183  0.4017  0.7115
 2658SOL     OW19606   2.350   0.274   7.597 -0.0319 -0.1226  0.8827
 2658SOL    HW119607   2.408   0.295   7.524 -0.8827 -0.3065  0.1500
 2658SOL    HW219608   2.408   0.282   7.672  0.8751 -0.2962  0.2009
 2659SOL     OW19609   4.240   0.337   5.930  0.2802  0.6115 -0.5692
 2659SOL    HW119610   4.237   0.393   6.007 -1.9136  0.9437 -0.9009
 2659SOL    HW219611   4.307   0.376   5.873 -0.6848  2.1544 -0.6476
 2660SOL     OW19612   0.227   3.545   8.873 -0.1310 -0.1204 -0.1138
 2660SOL    HW119613   0.151   3.488   8.862 -0.7486 -0.1257  4.1189
 2660SOL    HW219614   0.189   3.606   8.937  3.7861  1.1544  1.0123
 2661SOL     OW19615   1.416   3.399   3.795  0.4627 -0.3163 -0.5246
 2661SOL    HW119616   1.336   3.395   3.848  0.7896  1.5780  0.0941
 2661SOL    HW219617   1.395   3.426   3.706  0.7002  0.6960 -0.2768
 2662SOL     OW19618   2.047   4.485   3.808  0.8701 -0.1084 -0.3913
 2662SOL    HW119619   2.073   4.409   3.859 -1.1033  0.8413  2.0626
 2662SOL    HW219620   2.068   4.442   3.725  2.8679 -2.7410  1.5251
 2663SOL     OW19621   3.882   2.449   5.758  0.5748  0.1889 -0.5352
 2663SOL    HW119622   3.859   2.542   5.768  4.6543  1.2643 -0.9679
 2663SOL    HW219623   3.966   2.443   5.804  0.3356  0.2178 -0.1046
 2664SOL     OW19624   2.272   2.750  10.380  0.3261  0.4134 -0.1495
 2664SOL    HW119625   2.229   2.833  10.400  0.9994  0.1146  2.5790
 2664SOL    HW219626   2.316   2.739  10.465 -2.2403  0.7390  1.2333
 2665SOL     OW19627   3.174   3.515  10.229 -0.5402 -0.2110 -0.2833
 2665SOL    HW119628   3.093   3.553  10.261  0.6654  0.2066  2.2482
 2665SOL    HW219629   3.172   3.538  10.136 -1.0563 -0.6518 -0.3851
 2666SOL     OW19630   0.415   1.546   4.424  0.1643 -0.0287  0.7764
 2666SOL    HW119631   0.388   1.492   4.350  0.7569 -0.7300  1.0672
 2666SOL    HW219632   0.411   1.484   4.496 -2.1682 -1.3236 -0.4759
 2667SOL     OW19633   4.625   0.483   5.265  0.7248  0.6131 -0.2321
 2667SOL    HW119634   4.553   0.434   5.226  0.1236  1.4971 -0.2389
 2667SOL    HW219635   4.704   0.447   5.224  0.4505 -1.4260  1.0652
 2668SOL     OW19636   4.474   3.406   9.473 -0.4783 -0.9268  0.5724
 2668SOL    HW119637   4.468   3.364   9.558  1.8510 -1.1583  0.6257
 2668SOL    HW219638   4.532   3.344   9.429 -1.4750 -0.0266 -2.0609
 2669SOL     OW19639   1.578   4.297   1.590 -0.2874 -0.1998 -0.5654
 2669SOL    HW119640   1.489   4.262   1.601 -0.5791  1.5142  2.5389
 2669SOL    HW219641   1.553   4.388   1.575  1.9524  0.5659  0.4382
 2670SOL     OW19642   1.365   2.234   0.514  0.0714 -0.0476  0.2029
 2670SOL    HW119643   1.406   2.193   0.590 -1.3385  0.6722  1.3537
 2670SOL    HW219644   1.399   2.178   0.444  0.1112  1.0216 -0.6329
 2671SOL     OW19645   1.662   0.579   8.132  0.6023 -0.1711 -0.2317
 2671SOL    HW119646   1.672   0.629   8.051 -0.8409 -1.2846 -1.1107
 2671SOL    HW219647   1.738   0.522   8.124  1.4588  0.8364  0.7888
 2672SOL     OW19648   0.775   1.489   1.983  0.5025  0.1718 -0.4376
 2672SOL    HW119649   0.684   1.472   2.008 -0.2689  2.6552 -1.5422
 2672SOL    HW219650   0.756   1.547   1.909  1.1203  0.9169  0.0027
 2673SOL     OW19651   1.279   2.848  12.907 -0.6042 -0.1449  0.1210
 2673SOL    HW119652   1.229   2.788  12.962 -2.1567 -0.4186 -1.6246
 2673SOL    HW219653   1.218   2.921  12.915  1.6288  1.6836  0.3557
 2674SOL     OW19654   2.835   2.478  13.293  0.4094 -0.5705 -0.1049
 2674SOL    HW119655   2.784   2.558  13.279  0.1592 -0.7451 -0.1826
 2674SOL    HW219656   2.785   2.411  13.246  1.2828 -1.9443  0.9265
 2675SOL     OW19657   4.203   4.458   0.752  0.3888 -0.1118 -0.0012
 2675SOL    HW119658   4.143   4.420   0.817 -0.3363 -1.1988 -1.2973
 2675SOL    HW219659   4.165   4.545   0.739 -1.5964 -0.8156  1.0657
 2676SOL     OW19660   4.618   1.917   4.578  0.5047  0.1967 -0.1603
 2676SOL    HW119661   4.540   1.883   4.622  0.3998 -0.6639 -1.0284
 2676SOL    HW219662   4.682   1.847   4.583 -0.4003 -0.5023  1.6277
 2677SOL     OW19663   0.465   0.721   8.984  0.3892 -0.2258  0.0048
 2677SOL    HW119664   0.412   0.642   8.997  0.4503 -0.1963  0.4302
 2677SOL    HW219665   0.463   0.727   8.888  0.7351  0.4968  0.0450
 2678SOL     OW19666   1.979   0.110  12.385 -0.3513 -0.0856 -0.1740
 2678SOL    HW119667   1.950   0.075  12.301 -1.9267 -2.1496  1.2361
 2678SOL    HW219668   1.948   0.041  12.444  1.4790 -0.0550  0.8087
 2679SOL     OW19669   1.416   4.305   9.444 -0.5036 -0.0905 -0.6455
 2679SOL    HW119670   1.512   4.299   9.451 -0.3752  1.4880 -0.9542
 2679SOL    HW219671   1.389   4.330   9.532  2.0061 -1.3927  0.5054
 2680SOL     OW19672   4.479   3.509  11.844  0.0676 -0.2647 -0.1579
 2680SOL    HW119673   4.548   3.450  11.814 -0.1810 -2.3438  3.4172
 2680SOL    HW219674   4.510   3.553  11.923 -1.6251  0.8068 -0.0918
 2681SOL     OW19675   2.332   0.902   7.569 -0.4622 -0.0745  1.0735
 2681SOL    HW119676   2.414   0.943   7.598 -1.4886  2.5603  0.2224
 2681SOL    HW219677   2.341   0.920   7.475 -1.1810 -3.3448  0.3732
 2682SOL     OW19678   3.999   2.466   0.451  0.4575  0.4160 -1.1271
 2682SOL    HW119679   3.993   2.556   0.421  0.3740  0.2968 -1.4730
 2682SOL    HW219680   3.985   2.456   0.545  1.4772 -0.5080 -1.0739
 2683SOL     OW19681   1.765   4.192  15.123 -0.1102  0.5419 -0.2494
 2683SOL    HW119682   1.710   4.180  15.201  0.0614 -0.0776 -0.2263
 2683SOL    HW219683   1.828   4.258  15.152 -1.9855  1.5394  1.6241
 2684SOL     OW19684   3.203   1.676   5.676  0.2913  0.0334 -0.3389
 2684SOL    HW119685   3.126   1.642   5.630 -0.5011 -0.3592  1.2594
 2684SOL    HW219686   3.215   1.586   5.706 -0.9105  0.1467  0.4618
 2685SOL     OW19687   2.273   0.067   6.699 -0.6187  0.3011  0.5510
 2685SOL    HW119688   2.272   0.112   6.783 -0.9510  0.1777  0.6100
 2685SOL    HW219689   2.265   4.710   6.716 -2.5278 -0.1144 -2.6902
 2686SOL     OW19690   3.944   1.697   2.688  0.3540 -0.1140 -0.2579
 2686SOL    HW119691   3.900   1.721   2.769 -0.6056 -0.0481 -0.8001
 2686SOL    HW219692   3.914   1.776   2.643 -1.3250  0.4593  1.8759
 2687SOL     OW19693   0.464   1.002   8.181  0.2278  0.6238 -0.2210
 2687SOL    HW119694   0.461   1.058   8.258 -1.7059 -0.7531  0.6886
 2687SOL    HW219695   0.378   1.022   8.144  0.7511  3.3436  0.0065
 2688SOL     OW19696   0.838   0.894   9.506  0.2989  0.0802  0.4551
 2688SOL    HW119697   0.818   0.975   9.458 -0.9830 -0.4775  0.0300
 2688SOL    HW219698   0.879   0.936   9.581  1.0001 -1.8550  1.1611
 2689SOL     OW19699   3.015   4.080   8.117 -0.7592  0.3186 -0.1238
 2689SOL    HW119700   2.976   4.138   8.051  0.2950 -1.4182 -2.2843
 2689SOL    HW219701   3.083   4.144   8.138 -1.2863  1.8466 -2.9936
 2690SOL     OW19702   4.213   3.967   3.082  0.2229 -0.1365  0.4419
 2690SOL    HW119703   4.176   3.944   3.168  1.2173  1.9961  1.4484
 2690SOL    HW219704   4.132   3.964   3.031  0.3664  1.8822  0.0814
 2691SOL     OW19705   1.237   4.423  14.711 -0.7642  0.6753  1.1305
 2691SOL    HW119706   1.311   4.419  14.650 -1.1007  0.0391  0.7677
 2691SOL    HW219707   1.247   4.517  14.726 -2.4534  0.7058  2.0058
 2692SOL     OW19708   0.160   0.959  15.622  0.5966  0.7282 -0.0554
 2692SOL    HW119709   0.194   0.869  15.618 -0.7392  0.2136 -0.0977
 2692SOL    HW219710   0.139   0.973  15.530 -0.2992  0.4234  0.0973
 2693SOL     OW19711   3.581   2.210   3.485  0.2850 -0.1853  0.3310
 2693SOL    HW119712   3.518   2.150   3.525  1.4143 -0.0676  2.2633
 2693SOL    HW219713   3.557   2.204   3.392 -1.6679  0.5290  0.7983
 2694SOL     OW19714   1.224   2.679   8.525  0.0898  0.1955 -0.0685
 2694SOL    HW119715   1.139   2.695   8.567  0.2571 -2.1046  1.1908
 2694SOL    HW219716   1.214   2.585   8.507 -0.3762  0.1456  0.4314
 2695SOL     OW19717   0.906   0.668   1.365  0.0221  0.3102  0.1613
 2695SOL    HW119718   0.901   0.572   1.359 -0.8091  0.4111 -0.8207
 2695SOL    HW219719   0.995   0.668   1.399  0.2241  0.8702 -0.3662
 2696SOL     OW19720   1.746   0.170   4.328 -0.0837 -0.3920 -0.0361
 2696SOL    HW119721   1.782   0.096   4.377 -0.9399 -1.5231 -1.1041
 2696SOL    HW219722   1.792   0.241   4.374 -0.7544  0.0207 -0.0075
 2697SOL     OW19723   2.635   2.124  13.413  0.3263 -0.0229 -0.0119
 2697SOL    HW119724   2.685   2.106  13.493  4.4920  0.3235 -2.5616
 2697SOL    HW219725   2.555   2.168  13.442  0.7012  1.2216 -0.8834
 2698SOL     OW19726   0.127   2.115  13.836 -0.3471  0.2495 -0.1470
 2698SOL    HW119727   0.154   2.023  13.833  1.8086  0.9161 -1.2698
 2698SOL    HW219728   0.124   2.133  13.930  0.7952 -1.0497  0.1450
 2699SOL     OW19729   0.960   0.131  11.721 -0.2737 -0.1751 -0.2439
 2699SOL    HW119730   0.917   0.207  11.682  0.5743  0.5905  0.3322
 2699SOL    HW219731   0.930   0.148  11.810  1.6188  0.2838  0.3019
 2700SOL     OW19732   0.537   3.218   7.002 -0.1224  0.0523 -0.2372
 2700SOL    HW119733   0.473   3.211   7.072  0.2114 -0.5898  0.0090
 2700SOL    HW219734   0.565   3.308   7.016 -1.7406  0.7848 -1.8028
 2701SOL     OW19735   2.697   3.410   7.706  0.0334 -0.3599  0.3472
 2701SOL    HW119736   2.770   3.429   7.766 -0.1787  0.6640  0.2772
 2701SOL    HW219737   2.741   3.441   7.627 -1.6111 -0.2620 -0.5213
 2702SOL     OW19738   2.108   0.239  14.787 -0.1313 -0.0021  0.6039
 2702SOL    HW119739   2.023   0.253  14.828 -0.4019 -0.5676  0.2348
 2702SOL    HW219740   2.095   0.154  14.745  0.1625  1.0099 -1.5605
 2703SOL     OW19741   0.982   2.885   4.822  0.5903  0.2668  0.1300
 2703SOL    HW119742   1.018   2.894   4.733 -0.8452  2.1212 -0.2654
 2703SOL    HW219743   1.028   2.939   4.886  2.3533  0.7039 -1.4930
 2704SOL     OW19744   2.179   1.108   5.219 -0.6008 -0.9222 -0.1659
 2704SOL    HW119745   2.120   1.035   5.198 -1.2069 -0.4033 -0.2505
 2704SOL    HW219746   2.247   1.072   5.276 -0.4293  1.0367  0.8497
 2705SOL     OW19747   1.212   1.906  13.907 -0.2682  0.4404  0.4080
 2705SOL    HW119748   1.251   1.832  13.861 -0.7612  0.0300  0.6552
 2705SOL    HW219749   1.231   1.878  13.997  0.8843  1.1062  0.3745
 2706SOL     OW19750   4.299   0.868  13.991  0.2693  0.1340 -0.1044
 2706SOL    HW119751   4.376   0.869  14.047 -0.9030 -0.1358  1.5193
 2706SOL    HW219752   4.258   0.786  14.020 -1.2680  0.7849 -0.4295
 2707SOL     OW19753   0.157   0.338   1.509  0.1073  0.0028 -0.0477
 2707SOL    HW119754   0.107   0.418   1.490  1.3128  0.8108  0.1293
 2707SOL    HW219755   0.209   0.329   1.429  1.1078 -0.0635  0.6008
 2708SOL     OW19756   0.652   3.383   1.464 -0.4097 -0.2975  0.0954
 2708SOL    HW119757   0.719   3.381   1.532 -0.1486 -0.2316 -0.1610
 2708SOL    HW219758   0.710   3.373   1.388  2.1398  2.9730  1.6697
 2709SOL     OW19759   4.242   2.316  13.774  0.5120  0.0668 -0.0561
 2709SOL    HW119760   4.223   2.366  13.854 -0.5018  0.2304 -0.3912
 2709SOL    HW219761   4.165   2.258  13.776  0.3725  0.1769 -2.4786
 2710SOL     OW19762   0.670   3.371   2.464  0.3085  0.2190  0.1817
 2710SOL    HW119763   0.701   3.461   2.471  2.8068 -0.8305  2.4087
 2710SOL    HW219764   0.742   3.329   2.416  2.4168  1.8447  1.9267
 2711SOL     OW19765   0.643   1.465   7.496 -0.2551 -0.1405  0.1628
 2711SOL    HW119766   0.685   1.397   7.548 -1.6201  0.8267  2.5193
 2711SOL    HW219767   0.585   1.416   7.437 -1.4574  0.1735  1.0713
 2712SOL     OW19768   1.167   2.437   6.142  0.4449 -0.0326 -0.4530
 2712SOL    HW119769   1.179   2.530   6.165  1.0062 -0.3363  0.4953
 2712SOL    HW219770   1.258   2.412   6.157  0.7598  0.9511 -0.7172
 2713SOL     OW19771   3.825   1.568   8.227  0.5832  0.3762 -0.4161
 2713SOL    HW119772   3.826   1.584   8.322 -0.8668  1.7753 -0.6336
 2713SOL    HW219773   3.844   1.474   8.226 -0.2049  0.1991  0.9895
 2714SOL     OW19774   3.875   4.097   6.171 -0.6631 -0.0072 -0.4686
 2714SOL    HW119775   3.807   4.146   6.125 -1.6414 -0.2841  0.6692
 2714SOL    HW219776   3.834   4.083   6.257  1.3112 -0.1213  0.4691
 2715SOL     OW19777   3.870   1.367   5.853 -0.1650  0.3833  0.1731
 2715SOL    HW119778   3.853   1.444   5.906  1.3976 -0.2709  1.6116
 2715SOL    HW219779   3.811   1.305   5.897 -3.1637  3.4098  0.4414
 2716SOL     OW19780   1.025   1.389   1.929  0.3671  0.3814  0.9631
 2716SOL    HW119781   0.934   1.402   1.955 -0.7067 -0.8824 -2.1969
 2716SOL    HW219782   1.037   1.296   1.912 -1.1418  0.2893  0.4005
 2717SOL     OW19783   1.910   4.178   1.821 -0.4162 -0.3659 -0.3469
 2717SOL    HW119784   1.876   4.262   1.789  2.0707  0.8420  0.2264
 2717SOL    HW219785   1.988   4.175   1.765  0.7630 -0.7408  1.3136
 2718SOL     OW19786   1.593   1.481   3.039  0.0060 -0.1335 -0.1050
 2718SOL    HW119787   1.508   1.480   3.084 -1.0116 -0.1649 -2.0137
 2718SOL    HW219788   1.647   1.532   3.100  0.4588 -0.8511  0.1027
 2719SOL     OW19789   3.688   2.352   1.191 -0.6839 -0.3180 -1.1070
 2719SOL    HW119790   3.604   2.397   1.182  0.1759  0.8746 -3.2319
 2719SOL    HW219791   3.699   2.371   1.284  1.5440  2.8703 -1.9992
 2720SOL     OW19792   1.879   1.586   4.704  0.1507 -0.1720 -0.4534
 2720SOL    HW119793   1.828   1.622   4.777  0.4778  1.3413 -0.9582
 2720SOL    HW219794   1.816   1.604   4.634 -0.3540  1.0938  0.3142
 2721SOL     OW19795   3.285   3.664   5.241  0.0463 -0.3797 -0.1733
 2721SOL    HW119796   3.379   3.677   5.231  0.2105 -1.0829  0.4357
 2721SOL    HW219797   3.284   3.570   5.222  1.8762 -0.5176  0.4316
 2722SOL     OW19798   3.109   4.350   1.483 -0.1563 -0.1038  0.2801
 2722SOL    HW119799   3.129   4.263   1.517 -0.2017  0.3892  1.5555
 2722SOL    HW219800   3.203   4.370   1.480 -0.3992  1.0663  0.3567
 2723SOL     OW19801   2.589   2.489   7.233 -0.9238  0.2864 -0.6737
 2723SOL    HW119802   2.611   2.579   7.258  1.1252  0.1954 -2.1577
 2723SOL    HW219803   2.672   2.446   7.215 -0.6804  0.3791  0.2325
 2724SOL     OW19804   3.461   4.129   1.724 -0.1743 -0.6407  0.0024
 2724SOL    HW119805   3.443   4.205   1.780  1.3328  0.5427 -1.1166
 2724SOL    HW219806   3.370   4.121   1.696 -0.1447  0.2523 -0.3461
 2725SOL     OW19807   0.534   2.397   1.368 -0.5818  0.1212  0.4626
 2725SOL    HW119808   0.615   2.356   1.399 -0.4139 -1.7112 -2.4189
 2725SOL    HW219809   0.544   2.411   1.274  2.6386 -2.3733  0.4259
 2726SOL     OW19810   2.307   2.261   3.060 -0.8426  0.7726 -1.6744
 2726SOL    HW119811   2.282   2.352   3.047 -2.8526  0.4714  0.2672
 2726SOL    HW219812   2.378   2.253   2.996 -0.6809 -0.6452 -1.3130
 2727SOL     OW19813   2.272   0.544   8.847 -0.5592  0.2454 -0.3054
 2727SOL    HW119814   2.190   0.517   8.888  0.4082  1.4698  2.4176
 2727SOL    HW219815   2.336   0.514   8.911 -2.0764 -3.5453 -0.5728
 2728SOL     OW19816   3.352   2.394  15.706 -0.2819  0.2429  0.1038
 2728SOL    HW119817   3.319   2.425  15.622 -1.1016  0.4579  0.4981
 2728SOL    HW219818   3.271   2.405  15.757 -0.8800 -1.5383 -0.4874
 2729SOL     OW19819   2.841   4.204   7.875  0.7274 -0.5613 -0.2403
 2729SOL    HW119820   2.756   4.170   7.847  0.5604 -0.4599  0.1405
 2729SOL    HW219821   2.900   4.166   7.811  1.7777  1.8799 -0.7212
 2730SOL     OW19822   4.338   1.719   8.079 -0.5133 -0.2227 -0.1245
 2730SOL    HW119823   4.285   1.753   8.150  1.2278 -1.1224  1.5926
 2730SOL    HW219824   4.272   1.691   8.015  0.8989  0.1000 -1.7354
 2731SOL     OW19825   3.410   0.029   8.996  0.5731 -0.3939 -0.6161
 2731SOL    HW119826   3.422   0.013   9.089 -1.7025 -1.8237 -0.5601
 2731SOL    HW219827   3.388   4.680   8.959 -0.5614 -0.2360 -0.3239
 2732SOL     OW19828   1.360   0.727   4.693  0.3021  0.1045  0.2134
 2732SOL    HW119829   1.320   0.738   4.779  0.4579 -1.7009  0.5227
 2732SOL    HW219830   1.342   0.637   4.664  0.4577  0.3671 -0.7107
 2733SOL     OW19831   3.353   4.490   4.129 -0.4624 -0.3036 -0.1207
 2733SOL    HW119832   3.369   4.559   4.192  0.1812 -0.1363 -0.4720
 2733SOL    HW219833   3.258   4.488   4.115 -0.7479  1.0399  1.7637
 2734SOL     OW19834   1.143   0.558   8.573 -0.3533 -0.0547 -0.0107
 2734SOL    HW119835   1.075   0.516   8.521 -0.2558 -1.8360  1.2946
 2734SOL    HW219836   1.112   0.548   8.663 -0.7046 -1.2588 -0.2608
 2735SOL     OW19837   0.974   1.959   3.510  0.2494 -0.5012 -0.0917
 2735SOL    HW119838   1.061   1.977   3.547  1.5777 -2.2122 -2.3452
 2735SOL    HW219839   0.923   2.008   3.574 -0.5947 -2.4984  0.7815
 2736SOL     OW19840   1.551   2.463   8.817 -0.3825  0.0675  0.2442
 2736SOL    HW119841   1.457   2.441   8.817 -0.4027  0.1602  0.4736
 2736SOL    HW219842   1.580   2.428   8.733 -0.3401  0.1695  0.2169
 2737SOL     OW19843   4.306   2.722   2.806  0.0540 -0.2591 -0.0837
 2737SOL    HW119844   4.361   2.800   2.800 -0.2069 -0.2139 -1.9802
 2737SOL    HW219845   4.218   2.754   2.784 -1.1384 -2.0992  2.0310
 2738SOL     OW19846   3.524   0.062   2.869  0.1248  0.0838  0.2808
 2738SOL    HW119847   3.581   0.069   2.945  2.8456  0.2949 -1.7816
 2738SOL    HW219848   3.525   0.148   2.827 -2.0146  0.2109  0.5138
 2739SOL     OW19849   0.085   1.536  15.344 -0.0259 -0.4386 -0.2924
 2739SOL    HW119850   0.173   1.513  15.313 -0.2473 -1.0430 -0.4646
 2739SOL    HW219851   0.103   1.577  15.429  1.5363  0.4703 -1.0489
 2740SOL     OW19852   0.547   4.496   6.902 -0.0059  0.0796  0.5149
 2740SOL    HW119853   0.495   4.417   6.887  0.0631  0.6807 -3.0858
 2740SOL    HW219854   0.501   4.556   6.842 -1.5054 -0.4694  1.1339
 2741SOL     OW19855   0.255   4.155   8.755 -0.4083  0.6223  0.0015
 2741SOL    HW119856   0.215   4.188   8.835 -0.8769  0.3555 -0.1154
 2741SOL    HW219857   0.185   4.090   8.740 -2.3169  2.5111  0.7932
 2742SOL     OW19858   0.442   0.688  11.986  0.0948 -0.2229 -0.1532
 2742SOL    HW119859   0.369   0.738  12.021  1.4000  0.3398  1.7123
 2742SOL    HW219860   0.436   0.608  12.038  0.0530 -0.7277 -0.9310
 2743SOL     OW19861   2.891   2.114   2.546 -0.1689  0.7377  0.0795
 2743SOL    HW119862   2.848   2.032   2.569  1.7187 -0.4429 -0.5799
 2743SOL    HW219863   2.884   2.154   2.633  1.2504  1.4679 -0.1312
 2744SOL     OW19864   1.764   0.596   5.187  0.1440  0.3152 -0.1330
 2744SOL    HW119865   1.764   0.647   5.268 -0.1204  1.2075 -0.6981
 2744SOL    HW219866   1.809   0.520   5.225  0.5690  1.4127  1.5898
 2745SOL     OW19867   2.195   1.410   4.255 -0.5661 -0.0918 -0.0180
 2745SOL    HW119868   2.285   1.424   4.226 -1.0855  0.6841 -1.2544
 2745SOL    HW219869   2.180   1.357   4.176 -4.0965  3.0587 -1.4663
 2746SOL     OW19870   0.725   1.145   2.560 -0.2541  0.3673 -0.4270
 2746SOL    HW119871   0.650   1.198   2.534 -0.5783  0.6526  1.1314
 2746SOL    HW219872   0.764   1.145   2.472  0.0027 -2.8331 -0.2972
 2747SOL     OW19873   3.549   0.222   2.518 -0.7670 -0.2182  0.0477
 2747SOL    HW119874   3.458   0.225   2.488 -0.7989 -1.2156  0.0557
 2747SOL    HW219875   3.551   0.250   2.609 -0.5833 -0.0771  0.0014
 2748SOL     OW19876   4.079   4.206   2.900  0.1507 -0.2503 -0.3444
 2748SOL    HW119877   4.040   4.120   2.915  1.7433 -1.2588 -1.8920
 2748SOL    HW219878   4.016   4.263   2.943  0.9943  0.9518 -0.6949
 2749SOL     OW19879   3.525   2.016  11.514 -0.9305 -0.1414  0.1738
 2749SOL    HW119880   3.517   1.976  11.427 -0.8683  0.5148 -0.1419
 2749SOL    HW219881   3.596   1.963  11.549  0.7229  0.8889 -1.5932
 2750SOL     OW19882   2.435   1.518   4.219  0.6147 -0.8311 -0.0071
 2750SOL    HW119883   2.485   1.443   4.252  0.9609 -0.0787  1.1578
 2750SOL    HW219884   2.497   1.581   4.254 -0.3231 -0.3402  0.7642
 2751SOL     OW19885   4.342   0.666   6.965  1.0206  0.3322 -0.0344
 2751SOL    HW119886   4.318   0.685   7.055  0.5624  3.3904 -0.8024
 2751SOL    HW219887   4.435   0.690   6.968  0.8283  1.0695  0.0835
 2752SOL     OW19888   1.232   1.907   7.852  0.0218  0.5012 -0.5532
 2752SOL    HW119889   1.323   1.898   7.881  0.8628 -0.9215 -3.5508
 2752SOL    HW219890   1.180   1.890   7.930 -0.9980  1.8358 -0.9467
 2753SOL     OW19891   2.946   4.126   6.021  0.4476  0.7636  0.1399
 2753SOL    HW119892   2.927   4.173   6.103 -0.3321 -1.9349  1.5031
 2753SOL    HW219893   2.952   4.038   6.059  0.4279  0.0268 -1.5805
 2754SOL     OW19894   1.346   3.708   6.972  0.2501 -0.1112  0.2536
 2754SOL    HW119895   1.343   3.703   7.068  0.6290 -1.6212  0.1773
 2754SOL    HW219896   1.438   3.715   6.947 -0.0325  1.9464 -0.2366
 2755SOL     OW19897   3.227   0.137   8.504  0.1336 -0.2801  0.0982
 2755SOL    HW119898   3.295   0.092   8.556  0.0795  1.5725  1.7682
 2755SOL    HW219899   3.188   0.196   8.569 -0.9602 -1.5555  0.6035
 2756SOL     OW19900   0.751   0.614  15.553 -0.0468  0.4095  0.2148
 2756SOL    HW119901   0.700   0.690  15.523 -1.1171 -0.5237 -0.3213
 2756SOL    HW219902   0.712   0.594  15.638  0.2867  1.8823  0.7300
 2757SOL     OW19903   3.655   0.879   5.755  0.3975 -0.1013 -0.7113
 2757SOL    HW119904   3.728   0.919   5.707 -0.9652  1.3753 -1.5181
 2757SOL    HW219905   3.701   0.862   5.838  1.0684 -0.0495 -1.0690
 2758SOL     OW19906   2.079   2.080  12.803  0.5383  0.8751 -0.0847
 2758SOL    HW119907   2.043   2.033  12.877 -0.8415 -0.8886 -1.8635
 2758SOL    HW219908   2.166   2.107  12.832  0.6605  0.3051  0.0829
 2759SOL     OW19909   1.451   0.240  11.953  0.3395 -0.4158 -0.1641
 2759SOL    HW119910   1.546   0.255  11.955  0.6530 -2.5964  2.2486
 2759SOL    HW219911   1.436   0.189  11.873  2.1971  1.0520 -1.4424
 2760SOL     OW19912   3.035   0.586   3.122  0.6887  0.2726 -0.5840
 2760SOL    HW119913   2.994   0.532   3.055 -1.2501  2.0680 -0.8186
 2760SOL    HW219914   2.959   0.622   3.168 -0.5329 -1.7193 -1.0584
 2761SOL     OW19915   0.923   2.461   2.704 -0.0228 -0.2005 -0.2982
 2761SOL    HW119916   0.978   2.462   2.782 -0.2702 -1.0633 -0.1096
 2761SOL    HW219917   0.868   2.391   2.738 -2.0160 -0.2184 -3.5635
 2762SOL     OW19918   4.003   0.901   7.190  0.4822  0.3776 -0.3687
 2762SOL    HW119919   3.959   0.905   7.105 -0.1598 -1.0277 -0.0899
 2762SOL    HW219920   4.072   0.966   7.176  2.8389 -1.8331  0.9229
 2763SOL     OW19921   3.593   2.874  15.952  0.5370  0.4864  1.3221
 2763SOL    HW119922   3.624   2.901  15.865  0.5431  2.3239  1.8953
 2763SOL    HW219923   3.504   2.844  15.935  0.4871  0.4073  1.7375
 2764SOL     OW19924   0.756   1.988   7.106  0.1818 -0.5532 -0.9321
 2764SOL    HW119925   0.749   1.937   7.187 -0.6138  0.3730 -0.4206
 2764SOL    HW219926   0.759   1.912   7.047  1.7404  0.5101 -2.2047
 2765SOL     OW19927   3.652   3.682  10.716  0.0689 -0.3742  0.3037
 2765SOL    HW119928   3.732   3.702  10.668  1.0992 -0.2341  2.1030
 2765SOL    HW219929   3.673   3.595  10.750  0.2972  1.1518  4.1055
 2766SOL     OW19930   3.365   3.860   8.995 -0.5521  0.5969 -0.6222
 2766SOL    HW119931   3.453   3.849   9.033  0.2265 -0.7011 -2.8348
 2766SOL    HW219932   3.362   3.955   8.981 -1.1158  0.5276 -0.9598
 2767SOL     OW19933   1.577   4.348   3.132 -0.1573 -0.1370  0.3653
 2767SOL    HW119934   1.503   4.296   3.163  0.0835  0.0726  1.2749
 2767SOL    HW219935   1.635   4.352   3.208  2.0487 -0.9020 -1.2716
 2768SOL     OW19936   3.864   1.712   9.242 -0.2453  0.2224  0.0153
 2768SOL    HW119937   3.777   1.673   9.249  0.0770 -0.5684 -0.4384
 2768SOL    HW219938   3.836   1.804   9.243 -2.4114 -0.4198 -0.5917
 2769SOL     OW19939   2.135   3.882   6.833  0.3477 -0.2884 -0.1650
 2769SOL    HW119940   2.214   3.932   6.817 -0.5160  1.5483  1.2504
 2769SOL    HW219941   2.114   3.909   6.923 -0.9677 -2.1722  0.1053
 2770SOL     OW19942   4.591   4.162   9.641  0.0649  0.2098 -0.5276
 2770SOL    HW119943   4.579   4.067   9.640 -3.4267  0.6291  0.7962
 2770SOL    HW219944   4.514   4.197   9.596 -0.6371 -1.8006 -0.8564
 2771SOL     OW19945   3.501   3.474  16.286 -0.0705 -0.0162  0.4252
 2771SOL    HW119946   3.462   3.495  16.370  0.3389 -0.0715  0.6266
 2771SOL    HW219947   3.541   3.558  16.264 -1.0141  0.6942  1.4510
 2772SOL     OW19948   2.893   3.522   5.098 -0.3871  0.2064  0.4023
 2772SOL    HW119949   2.882   3.428   5.084 -0.3249  0.4673 -1.4210
 2772SOL    HW219950   2.815   3.541   5.150 -1.8349 -3.1615 -0.5270
 2773SOL     OW19951   3.831   3.619   2.289 -0.1614 -0.3361  0.0881
 2773SOL    HW119952   3.837   3.707   2.252 -0.6133 -1.6300 -3.0875
 2773SOL    HW219953   3.871   3.569   2.218  0.9832  0.3327  0.2702
 2774SOL     OW19954   1.101   2.120  13.827 -0.0849 -0.7751  0.6034
 2774SOL    HW119955   1.090   2.097  13.735  0.3120 -1.8996  0.8313
 2774SOL    HW219956   1.160   2.048  13.850  2.9182  1.5966  0.3588
 2775SOL     OW19957   2.594   2.852  15.001 -0.5714 -1.2111 -0.5780
 2775SOL    HW119958   2.669   2.835  14.945 -0.0151  0.8173 -0.4550
 2775SOL    HW219959   2.535   2.896  14.940  1.2869  2.6906  0.4242
 2776SOL     OW19960   3.154   0.125   5.923  0.3094  0.3880 -0.2780
 2776SOL    HW119961   3.086   0.178   5.965 -1.1806  0.2908 -2.5698
 2776SOL    HW219962   3.163   0.068   6.000 -1.0560  0.4437 -0.0866
 2777SOL     OW19963   2.159   0.754   5.593 -0.3415 -0.6228  0.2588
 2777SOL    HW119964   2.207   0.691   5.648  0.9649 -1.3336 -1.7123
 2777SOL    HW219965   2.191   0.740   5.504  1.3883 -0.1255  0.8210
 2778SOL     OW19966   0.467   2.253   0.856 -0.5676  0.1767  0.4814
 2778SOL    HW119967   0.459   2.298   0.940 -0.0195 -0.1528  0.7128
 2778SOL    HW219968   0.390   2.197   0.844 -1.1768  1.0632  0.3076
 2779SOL     OW19969   2.103   2.381   2.061 -0.1741 -0.3921  0.2825
 2779SOL    HW119970   2.194   2.353   2.072  0.1792  0.6145 -0.0724
 2779SOL    HW219971   2.118   2.459   2.008  2.0394 -2.2602 -1.8780
 2780SOL     OW19972   0.835   3.292   2.260 -0.5895  0.1017 -0.1163
 2780SOL    HW119973   0.847   3.363   2.196 -1.7770 -0.4096 -0.9027
 2780SOL    HW219974   0.922   3.253   2.261 -0.6245  0.0257 -0.0929
 2781SOL     OW19975   4.253   0.692   3.241  0.4092  0.5767 -0.2834
 2781SOL    HW119976   4.335   0.715   3.197  0.6680 -1.3071 -0.8016
 2781SOL    HW219977   4.196   0.748   3.189 -1.2585  0.8475  1.8142
 2782SOL     OW19978   2.778   2.810   6.391 -0.2314 -0.2926 -0.2359
 2782SOL    HW119979   2.861   2.811   6.342 -0.4940 -2.6041 -0.7643
 2782SOL    HW219980   2.724   2.756   6.333 -0.2431  1.2971 -1.7182
 2783SOL     OW19981   0.000   2.131   6.605 -0.2749  0.7436  0.8745
 2783SOL    HW119982   0.032   2.042   6.591 -3.2817 -0.2115  0.2617
 2783SOL    HW219983   4.705   2.127   6.696  0.6787 -0.7053  1.1504
 2784SOL     OW19984   0.455   4.524  11.715  0.2776  0.2178 -0.4138
 2784SOL    HW119985   0.549   4.514  11.705  0.4140 -1.1182  2.0741
 2784SOL    HW219986   0.439   4.436  11.750 -0.4540  0.7676  0.6767
 2785SOL     OW19987   1.293   1.851   8.508  0.4295  0.0699  0.6782
 2785SOL    HW119988   1.321   1.926   8.455 -1.3477 -0.5301 -1.0935
 2785SOL    HW219989   1.285   1.889   8.596 -1.8294 -0.4027  0.6857
 2786SOL     OW19990   0.681   0.271   5.092  0.4183  0.4522 -0.0224
 2786SOL    HW119991   0.609   0.292   5.032 -2.2239 -1.2200  2.6002
 2786SOL    HW219992   0.672   0.176   5.088 -0.3787  0.4920  0.8142
 2787SOL     OW19993   1.526   2.822  14.737 -0.1438  0.2030 -0.1686
 2787SOL    HW119994   1.523   2.915  14.761 -1.6922  0.4878 -1.4500
 2787SOL    HW219995   1.609   2.800  14.779 -0.7607 -0.2219  0.8071
 2788SOL     OW19996   0.258   1.344  12.999  0.1265 -0.2931 -0.2612
 2788SOL    HW119997   0.343   1.333  13.042 -0.1037  0.0781  0.2868
 2788SOL    HW219998   0.201   1.277  13.037  1.5506 -1.2869  0.1173
 2789SOL     OW19999   4.623   3.861   4.662 -0.1717 -0.3025  0.2006
 2789SOL    HW120000   4.684   3.793   4.635 -1.8846 -1.3507 -0.9916
 2789SOL    HW220001   4.607   3.905   4.579  1.7590  0.5769  0.3149
 2790SOL     OW20002   2.741   3.410   1.228  0.2634  0.4097  0.0501
 2790SOL    HW120003   2.826   3.387   1.189  0.2690 -0.0605  0.3402
 2790SOL    HW220004   2.696   3.451   1.154 -2.9307  0.0634  1.8128
 2791SOL     OW20005   4.727   0.632   1.751 -0.1052  0.1490  0.3041
 2791SOL    HW120006   4.725   0.704   1.814  3.2099  2.3835 -2.1216
 2791SOL    HW220007   4.688   0.560   1.800  0.9174  0.5840  1.7345
 2792SOL     OW20008   0.543   4.263   7.598 -0.0879 -0.3448 -0.1243
 2792SOL    HW120009   0.516   4.338   7.649 -2.1614 -0.0927 -1.5747
 2792SOL    HW220010   0.574   4.296   7.513  1.5061 -0.0307  0.5816
 2793SOL     OW20011   4.549   2.369   2.353 -0.3282 -0.7245  0.3911
 2793SOL    HW120012   4.471   2.355   2.406 -1.0429 -1.5497 -0.8990
 2793SOL    HW220013   4.517   2.374   2.263  1.2357  0.6883 -0.0966
 2794SOL     OW20014   0.941   4.157   0.111  0.0749  0.1135 -0.1386
 2794SOL    HW120015   0.853   4.174   0.147 -0.0337 -2.3841  0.7633
 2794SOL    HW220016   0.915   4.170   0.020  0.6770  1.6365 -0.0955
 2795SOL     OW20017   4.123   3.230   9.670  0.0374  0.7095  0.3130
 2795SOL    HW120018   4.064   3.287   9.718 -1.1541 -0.6723  0.4942
 2795SOL    HW220019   4.144   3.296   9.604 -0.9567  1.0569  0.3500
 2796SOL     OW20020   2.831   0.633   4.932  0.2957  0.3599  0.0154
 2796SOL    HW120021   2.815   0.592   4.847  1.1483  2.0143 -0.9411
 2796SOL    HW220022   2.901   0.579   4.969  1.4155 -1.4438 -4.7379
 2797SOL     OW20023   0.976   1.549   3.539 -0.0442 -0.1483  0.0228
 2797SOL    HW120024   0.892   1.507   3.523 -1.0858  1.5789  0.9952
 2797SOL    HW220025   0.970   1.566   3.633 -0.3413 -0.2741  0.0250
 2798SOL     OW20026   0.515   3.916   5.493  0.5953 -0.7557 -0.0726
 2798SOL    HW120027   0.550   3.981   5.431  0.8632 -1.8777 -1.1080
 2798SOL    HW220028   0.441   3.880   5.445  0.6677 -0.9185 -0.0639
 2799SOL     OW20029   4.580   4.672  10.922  0.1541 -0.0360  0.5016
 2799SOL    HW120030   4.524   4.601  10.891 -0.4701 -0.1607  1.8943
 2799SOL    HW220031   4.516   4.730  10.963  0.2734  0.3457  0.1436
 2800SOL     OW20032   0.109   2.144   3.522 -0.3487 -0.0698  0.1563
 2800SOL    HW120033   0.055   2.096   3.585  0.2878 -1.9999 -0.7668
 2800SOL    HW220034   0.194   2.100   3.512  0.1304  0.6859  0.9020
 2801SOL     OW20035   4.150   2.498   6.301 -0.7299 -0.7909  0.1791
 2801SOL    HW120036   4.103   2.433   6.353 -3.1250  0.8744  0.1314
 2801SOL    HW220037   4.235   2.487   6.344 -0.8923 -0.8385  0.4899
 2802SOL     OW20038   3.149   1.935   3.748  0.7450  0.4210 -0.0650
 2802SOL    HW120039   3.064   1.976   3.768  1.1644  0.5447  1.4932
 2802SOL    HW220040   3.140   1.941   3.653 -1.3910  1.4952  0.2004
 2803SOL     OW20041   0.568   0.884  12.448 -0.5458 -0.2323 -0.6782
 2803SOL    HW120042   0.499   0.894  12.383 -0.0483  1.7317 -0.9087
 2803SOL    HW220043   0.559   0.960  12.506 -1.4133 -1.2646  0.5316
 2804SOL     OW20044   2.832   2.487   0.739  0.2907 -0.3192  0.2117
 2804SOL    HW120045   2.906   2.426   0.739  0.1913 -0.4412  0.5738
 2804SOL    HW220046   2.877   2.572   0.736 -0.1310 -0.1830 -2.0754
 2805SOL     OW20047   2.157   4.364  10.013  0.0783  0.1961 -0.1836
 2805SOL    HW120048   2.139   4.355   9.919  0.2226 -0.9679 -0.0978
 2805SOL    HW220049   2.087   4.308  10.047  0.6589  0.4050  1.3367
 2806SOL     OW20050   0.483   1.623   7.676 -0.5430 -0.2379  0.5553
 2806SOL    HW120051   0.553   1.584   7.622 -1.0396  0.6354 -0.7287
 2806SOL    HW220052   0.507   1.586   7.761 -3.3438 -0.6331  1.1535
 2807SOL     OW20053   1.379   1.298   1.741  0.3019 -0.3448  0.4489
 2807SOL    HW120054   1.437   1.257   1.676 -0.4089 -1.2652  0.3995
 2807SOL    HW220055   1.384   1.390   1.714  0.8452 -0.7896 -1.0097
 2808SOL     OW20056   1.627   2.428   9.526  0.5797 -0.1762  0.0278
 2808SOL    HW120057   1.702   2.487   9.538  0.4073 -0.4495  2.4741
 2808SOL    HW220058   1.595   2.439   9.616  1.8296  0.4002  0.3967
 2809SOL     OW20059   3.864   0.630   3.399 -0.0272  0.2853 -0.4526
 2809SOL    HW120060   3.943   0.602   3.445  1.2020  1.1817 -2.0227
 2809SOL    HW220061   3.795   0.611   3.462 -1.2741 -1.1580 -2.2458
 2810SOL     OW20062   2.572   0.498  16.073  0.0514  0.5588  0.2297
 2810SOL    HW120063   2.577   0.544  16.157 -2.3666  1.9052 -0.3755
 2810SOL    HW220064   2.603   0.559  16.006  1.9679  2.4493  2.8176
 2811SOL     OW20065   2.528   1.755   8.096 -0.2286 -0.4995 -0.2950
 2811SOL    HW120066   2.503   1.842   8.129  0.2402  0.4937 -2.5829
 2811SOL    HW220067   2.444   1.710   8.097  0.4337 -1.7349 -0.5880
 2812SOL     OW20068   0.755   2.835   5.993 -0.0106  0.1592  0.2382
 2812SOL    HW120069   0.835   2.784   5.980  1.5398  1.9999  2.6057
 2812SOL    HW220070   0.779   2.898   5.926  2.8547 -1.7007 -0.5250
 2813SOL     OW20071   2.884   4.054  12.433  0.1344  0.2983  0.1591
 2813SOL    HW120072   2.838   4.121  12.484 -2.7499 -1.0625 -0.7025
 2813SOL    HW220073   2.970   4.096  12.423  0.6886 -0.4807  1.6481
 2814SOL     OW20074   2.044   4.089   2.717 -0.7859 -0.5696 -0.5166
 2814SOL    HW120075   1.949   4.101   2.713 -0.8343 -1.4618 -1.7794
 2814SOL    HW220076   2.049   3.994   2.710  0.8890 -0.3728 -1.7833
 2815SOL     OW20077   0.850   0.380   2.404 -0.4092  0.6445  0.3143
 2815SOL    HW120078   0.899   0.300   2.387 -0.9896  0.7538 -1.8904
 2815SOL    HW220079   0.899   0.433   2.342 -1.8474  0.0397 -1.3227
 2816SOL     OW20080   2.884   1.171   3.307 -0.1110  0.0089 -0.4312
 2816SOL    HW120081   2.820   1.227   3.351 -0.3781 -0.0082 -0.7921
 2816SOL    HW220082   2.830   1.115   3.250 -2.0814  0.1152  1.3490
 2817SOL     OW20083   3.727   0.484   8.156 -0.6954 -0.4052 -0.0414
 2817SOL    HW120084   3.726   0.532   8.238  2.4225  1.1647 -0.9352
 2817SOL    HW220085   3.634   0.475   8.135 -0.8685 -1.7130  1.2631
 2818SOL     OW20086   2.928   4.487   9.027 -0.6446  0.4191 -0.6299
 2818SOL    HW120087   2.890   4.407   8.990 -0.9985  0.0033  0.6269
 2818SOL    HW220088   2.872   4.550   8.982 -0.5170  0.7395 -0.3435
 2819SOL     OW20089   0.268   0.706  15.560 -0.3356 -0.3586 -0.2187
 2819SOL    HW120090   0.302   0.619  15.582 -0.3011 -0.5058 -0.8412
 2819SOL    HW220091   0.344   0.756  15.528  0.3596 -0.6401  0.9865
 2820SOL     OW20092   3.407   3.970  11.349 -0.0340 -0.0108 -0.3442
 2820SOL    HW120093   3.425   3.906  11.280 -1.5309  0.1653 -0.8965
 2820SOL    HW220094   3.317   3.994  11.325 -0.0175  1.1251  0.7358
 2821SOL     OW20095   0.244   2.546  15.538 -0.8858  0.1616 -0.4182
 2821SOL    HW120096   0.268   2.466  15.584 -1.1755 -0.2534 -0.9853
 2821SOL    HW220097   0.332   2.584  15.536 -0.5641 -0.5949 -0.3382
 2822SOL     OW20098   0.508   1.615  16.947  0.1825 -0.4581  0.2779
 2822SOL    HW120099   0.555   1.692  16.980  0.5474 -0.1270 -1.0187
 2822SOL    HW220100   0.438   1.669  16.910  0.6267 -1.5757 -2.1974
 2823SOL     OW20101   4.286   4.623   2.895  0.6677  0.2198 -0.1934
 2823SOL    HW120102   4.357   4.675   2.858  0.6292 -0.2187 -0.8941
 2823SOL    HW220103   4.223   4.630   2.823 -0.7928 -0.9703  0.9789
 2824SOL     OW20104   0.866   3.447   1.893  0.0923 -0.2295  0.2982
 2824SOL    HW120105   0.877   3.497   1.974 -1.4246 -0.9454  0.9270
 2824SOL    HW220106   0.799   3.505   1.858  1.4133 -0.1173 -2.0949
 2825SOL     OW20107   1.248   2.602   9.926  0.1653  0.0518  0.0232
 2825SOL    HW120108   1.334   2.572   9.895  1.5398  2.3338  1.6634
 2825SOL    HW220109   1.217   2.524   9.973 -0.9303 -0.6759 -1.8822
 2826SOL     OW20110   0.633   0.524   2.512 -0.1125 -0.1482  0.0584
 2826SOL    HW120111   0.698   0.496   2.448 -0.7035 -0.7530 -0.2688
 2826SOL    HW220112   0.639   0.454   2.577 -0.4224  0.7262  1.0315
 2827SOL     OW20113   4.513   3.600   2.857  0.4339 -0.6181  0.2792
 2827SOL    HW120114   4.419   3.616   2.867  0.1713 -1.1143 -1.3743
 2827SOL    HW220115   4.525   3.634   2.768 -1.8166 -1.4390 -0.3385
 2828SOL     OW20116   1.548   1.219   2.611  0.2352 -0.2750  0.0455
 2828SOL    HW120117   1.507   1.202   2.696  0.4134  0.6400  0.3119
 2828SOL    HW220118   1.639   1.238   2.635 -1.1538  2.8885  2.9543
 2829SOL     OW20119   3.884   2.710   7.221  0.2106  0.3710  0.4152
 2829SOL    HW120120   3.842   2.777   7.275 -0.0881  2.2715 -2.1486
 2829SOL    HW220121   3.827   2.705   7.144  1.3969  1.1719 -0.5270
 2830SOL     OW20122   1.552   3.977   3.730 -0.2474 -0.5041 -0.3973
 2830SOL    HW120123   1.554   3.901   3.671  1.8766  0.9730 -2.2163
 2830SOL    HW220124   1.562   3.940   3.818 -1.0882 -2.3422 -1.0663
 2831SOL     OW20125   1.250   2.793  11.258 -0.2469 -0.2226 -0.0704
 2831SOL    HW120126   1.286   2.852  11.325 -4.7662  1.2427  1.1111
 2831SOL    HW220127   1.197   2.731  11.308 -1.7340  1.8241  0.8854
 2832SOL     OW20128   0.509   1.597  15.495 -0.4764  0.3607 -0.6515
 2832SOL    HW120129   0.507   1.516  15.547  0.9653  2.2334  2.3285
 2832SOL    HW220130   0.603   1.617  15.500 -0.3736 -0.5705  1.2817
 2833SOL     OW20131   2.269   0.295   6.557  0.1999  0.1215  0.3340
 2833SOL    HW120132   2.224   0.273   6.475  0.1823 -1.2036  0.7107
 2833SOL    HW220133   2.269   0.208   6.597 -1.8065 -0.1708 -0.2927
 2834SOL     OW20134   0.209   0.133   5.544  0.7148 -0.1668  0.3184
 2834SOL    HW120135   0.263   0.197   5.592  0.0684 -0.7976  1.8794
 2834SOL    HW220136   0.134   0.140   5.603  1.1191 -2.1607  1.0418
 2835SOL     OW20137   0.901   4.379   0.781 -0.0015 -0.0647 -0.2033
 2835SOL    HW120138   0.807   4.375   0.801 -0.2762 -0.2498 -1.5389
 2835SOL    HW220139   0.935   4.418   0.862  0.6782  0.5648 -0.7942
 2836SOL     OW20140   0.279   3.626   9.722  0.3544 -0.7719  0.5613
 2836SOL    HW120141   0.276   3.697   9.787  2.2354 -0.3422  0.1599
 2836SOL    HW220142   0.191   3.589   9.712  0.5684 -1.4579  1.2351
 2837SOL     OW20143   3.945   2.504   3.943  0.2517  0.0915  0.2831
 2837SOL    HW120144   3.886   2.568   3.983  1.2733  0.6281  0.9404
 2837SOL    HW220145   3.930   2.538   3.855  0.9056 -1.5071 -0.4431
 2838SOL     OW20146   1.779   3.338   7.127  0.5720 -0.1895 -0.2155
 2838SOL    HW120147   1.689   3.347   7.096  0.1601  0.7053  1.2628
 2838SOL    HW220148   1.756   3.326   7.219  0.7451 -0.3467 -0.1919
 2839SOL     OW20149   3.393   1.023   7.002 -0.3821 -0.4548  0.3073
 2839SOL    HW120150   3.425   1.000   6.915 -1.2686  0.7010 -0.3333
 2839SOL    HW220151   3.303   1.037   6.972  0.2630  2.2482 -0.4330
 2840SOL     OW20152   3.092   3.201  10.535 -0.0614  0.1325 -0.4609
 2840SOL    HW120153   3.151   3.276  10.523  0.0466  0.3357  1.3379
 2840SOL    HW220154   3.116   3.149  10.458  1.4799  1.0523 -0.5832
 2841SOL     OW20155   3.417   3.812   9.482 -0.6608  0.4837  0.3224
 2841SOL    HW120156   3.509   3.791   9.469 -1.3184 -1.8536 -0.7737
 2841SOL    HW220157   3.395   3.814   9.389 -2.2805 -1.6932  0.6568
 2842SOL     OW20158   0.004   3.117   3.851 -1.0365  0.4106  0.0457
 2842SOL    HW120159   4.700   3.128   3.936 -1.2410  3.9825 -0.5294
 2842SOL    HW220160   0.014   3.208   3.825  1.9725  0.3727  1.0381
 2843SOL     OW20161   1.626   1.334  11.083 -0.5089 -0.4645 -0.0839
 2843SOL    HW120162   1.651   1.359  11.173 -0.3875  0.6054 -0.4154
 2843SOL    HW220163   1.618   1.240  11.092 -2.0692 -0.4278 -1.2023
 2844SOL     OW20164   3.615   2.863  13.950  0.1597 -0.0936 -0.3667
 2844SOL    HW120165   3.628   2.802  13.878  0.4133 -0.2340 -0.2004
 2844SOL    HW220166   3.657   2.801  14.009 -0.8102 -0.5566 -0.1577
 2845SOL     OW20167   2.138   0.232  12.769  0.1839  0.1308 -0.1773
 2845SOL    HW120168   2.163   0.213  12.679  1.1217  0.4889  0.0102
 2845SOL    HW220169   2.218   0.219  12.820  0.6771  1.2019 -0.6746
 2846SOL     OW20170   3.921   2.685   3.409 -0.4013  0.0684 -1.0299
 2846SOL    HW120171   3.857   2.653   3.473  0.0592  2.3488  0.5603
 2846SOL    HW220172   3.957   2.599   3.387 -0.1135 -0.3364  1.0243
 2847SOL     OW20173   1.846   1.370   7.972  0.2119  0.4762  0.1883
 2847SOL    HW120174   1.851   1.279   7.943 -1.0623  0.5253 -0.1569
 2847SOL    HW220175   1.853   1.364   8.067  0.3292 -0.2661  0.1364
 2848SOL     OW20176   2.024   4.071   2.238 -0.4793  0.2551  0.0225
 2848SOL    HW120177   2.047   3.991   2.287 -1.8254 -2.4846 -3.8374
 2848SOL    HW220178   2.087   4.135   2.270  0.7167 -1.2851  0.7401
 2849SOL     OW20179   4.207   4.101  14.711  0.2371 -0.3184  0.3638
 2849SOL    HW120180   4.257   4.082  14.631  0.7600  1.5803  0.2335
 2849SOL    HW220181   4.207   4.017  14.758 -0.4813  0.0938  1.0989
 2850SOL     OW20182   1.790   4.642   7.998 -0.3525 -0.2897  0.0807
 2850SOL    HW120183   1.820   4.623   8.087 -2.3580  1.5577  1.1577
 2850SOL    HW220184   1.804   4.736   7.992  0.9516 -0.7876 -4.0514
 2851SOL     OW20185   2.411   1.932   5.342  0.3183 -0.0867  0.0468
 2851SOL    HW120186   2.315   1.931   5.344  0.3021 -1.2827 -1.1387
 2851SOL    HW220187   2.428   2.025   5.357 -0.5543  0.0028  0.4843
 2852SOL     OW20188   0.064   0.428   7.583  0.3403  0.2241 -0.3586
 2852SOL    HW120189   0.013   0.485   7.640  1.3659 -0.2213  1.0106
 2852SOL    HW220190   4.735   0.361   7.562  0.0048  0.7221 -0.9110
 2853SOL     OW20191   0.592   4.203   6.318 -0.0797  0.1543 -0.4495
 2853SOL    HW120192   0.509   4.165   6.347  0.4509 -0.9841 -0.4312
 2853SOL    HW220193   0.612   4.240   6.404  0.2493  0.2729 -0.5758
 2854SOL     OW20194   2.316   3.416   9.545  0.2856  0.2806 -0.1285
 2854SOL    HW120195   2.408   3.436   9.527  0.8742 -0.9405  1.4424
 2854SOL    HW220196   2.319   3.321   9.558  1.1614  0.4382  0.7887
 2855SOL     OW20197   3.450   0.307   1.045  0.3590  0.4874 -0.2767
 2855SOL    HW120198   3.486   0.287   0.959 -1.5837 -0.6320 -0.8139
 2855SOL    HW220199   3.358   0.310   1.018 -0.0531 -2.1027  0.8858
 2856SOL     OW20200   1.440   2.544   5.915  0.0266  0.3142 -0.3463
 2856SOL    HW120201   1.348   2.520   5.902 -0.4407  1.3524  1.1269
 2856SOL    HW220202   1.477   2.479   5.975 -1.8285  0.0158  0.4796
 2857SOL     OW20203   0.174   1.960   8.100 -0.1254  0.9096 -0.2093
 2857SOL    HW120204   0.250   1.970   8.042  1.1710  3.0612  1.8659
 2857SOL    HW220205   0.179   1.865   8.111 -0.4757  0.9472  0.2607
 2858SOL     OW20206   3.608   2.144   2.492 -0.8677 -0.8466  0.0684
 2858SOL    HW120207   3.534   2.097   2.531  0.1044 -1.9507  0.6050
 2858SOL    HW220208   3.664   2.145   2.570  1.4098 -1.3076 -1.5548
 2859SOL     OW20209   4.525   4.572   5.677  0.3214  0.0678  0.4172
 2859SOL    HW120210   4.498   4.481   5.677  2.6829 -0.6299 -1.3073
 2859SOL    HW220211   4.484   4.601   5.595  0.1305 -1.6117 -0.0838
 2860SOL     OW20212   0.382   1.027  17.192 -0.5274 -0.0735 -0.7099
 2860SOL    HW120213   0.308   0.968  17.206 -0.5062 -0.4894 -2.3012
 2860SOL    HW220214   0.454   0.972  17.223  1.4123  2.1196 -1.3643
 2861SOL     OW20215   3.572   2.651  12.514 -0.3299 -0.2225  0.0902
 2861SOL    HW120216   3.646   2.675  12.571  0.7559 -0.9748 -0.9921
 2861SOL    HW220217   3.585   2.558  12.500 -1.3611 -0.4012  0.3506
 2862SOL     OW20218   1.459   3.373   6.130  0.3129  0.3659  0.1772
 2862SOL    HW120219   1.480   3.433   6.058 -2.5711 -1.8781 -2.5468
 2862SOL    HW220220   1.497   3.287   6.110 -0.4579  0.3364 -1.1411
 2863SOL     OW20221   1.533   0.362   4.332  0.4318  0.1368  0.3516
 2863SOL    HW120222   1.583   0.296   4.284  1.0646  0.1464  0.9919
 2863SOL    HW220223   1.460   0.308   4.363 -0.9779  1.5802 -0.4808
 2864SOL     OW20224   3.287   3.699   4.872  0.0700 -0.2394 -0.8229
 2864SOL    HW120225   3.348   3.626   4.881  1.2904  1.4978  4.9341
 2864SOL    HW220226   3.205   3.652   4.853 -2.0104  2.5233  1.3941
 2865SOL     OW20227   3.296   1.736   0.769 -0.3360  0.3110 -0.2581
 2865SOL    HW120228   3.291   1.697   0.682  0.1383  1.8149 -0.9718
 2865SOL    HW220229   3.206   1.713   0.793 -0.2715  3.2282  2.7737
 2866SOL     OW20230   3.033   0.645  11.881 -0.1293 -0.0616  0.6539
 2866SOL    HW120231   3.004   0.672  11.794  0.3157 -1.5429  0.0363
 2866SOL    HW220232   3.101   0.712  11.883 -2.8728  2.7240 -0.7216
 2867SOL     OW20233   0.879   0.481  12.837 -0.1682 -0.3847  0.0657
 2867SOL    HW120234   0.825   0.458  12.762 -0.3330  2.2739 -0.6098
 2867SOL    HW220235   0.815   0.527  12.892 -2.9537 -2.2592 -1.6270
 2868SOL     OW20236   2.642   3.017   4.687  0.7940  0.5413 -0.3982
 2868SOL    HW120237   2.644   2.927   4.654 -0.5101 -0.0598  1.1909
 2868SOL    HW220238   2.653   3.000   4.781  1.7676  1.0495 -0.4249
 2869SOL     OW20239   3.317   0.918  12.258  0.3678 -0.8661 -0.9859
 2869SOL    HW120240   3.238   0.930  12.205 -1.0661  0.7990  1.5224
 2869SOL    HW220241   3.357   1.004  12.255  0.6564 -0.9961 -0.9072
 2870SOL     OW20242   2.171   3.401   4.643  0.3719 -1.0176 -0.2148
 2870SOL    HW120243   2.216   3.354   4.573 -2.3096 -0.4732 -2.2701
 2870SOL    HW220244   2.201   3.349   4.718 -0.1457  0.9602  1.3638
 2871SOL     OW20245   2.794   3.206   7.984 -0.2669  0.8857 -0.3086
 2871SOL    HW120246   2.786   3.150   7.908 -1.0218  0.9245 -0.2531
 2871SOL    HW220247   2.872   3.256   7.958 -0.2341  0.2893 -1.3167
 2872SOL     OW20248   1.411   3.005  12.727  0.3800 -0.0415  0.1975
 2872SOL    HW120249   1.348   2.966  12.787 -1.6490  0.2803 -1.6973
 2872SOL    HW220250   1.480   3.017  12.792 -0.6548  0.8268  1.1310
 2873SOL     OW20251   1.087   3.396   9.925 -0.1702  0.5447 -0.3021
 2873SOL    HW120252   1.122   3.415  10.012  0.3324 -0.6749 -0.2489
 2873SOL    HW220253   1.166   3.374   9.876  0.0379 -0.0191  0.2903
 2874SOL     OW20254   0.581   0.892  10.107  0.0376  0.4006  0.1846
 2874SOL    HW120255   0.521   0.960  10.139 -2.1152 -0.9976 -0.8734
 2874SOL    HW220256   0.626   0.873  10.190 -0.8273  0.9825  0.7916
 2875SOL     OW20257   1.472   1.460   2.481  1.0421 -0.0858  0.3371
 2875SOL    HW120258   1.496   1.385   2.536 -1.5589 -0.3712  1.0579
 2875SOL    HW220259   1.388   1.486   2.519  0.6564  0.2951 -0.7716
 2876SOL     OW20260   1.099   0.186   0.893  0.4504 -0.1271  0.7015
 2876SOL    HW120261   1.028   0.139   0.849  1.9260 -2.5306  0.9150
 2876SOL    HW220262   1.145   0.228   0.820 -1.3759  2.7029  1.1531
 2877SOL     OW20263   0.729   4.036   6.794 -0.1532  0.1218  0.0867
 2877SOL    HW120264   0.823   4.051   6.780  0.8528 -4.3170  2.0531
 2877SOL    HW220265   0.720   4.064   6.885 -0.2991  3.3659 -0.9565
 2878SOL     OW20266   1.403   1.989   2.561 -0.5967 -0.1054  0.0915
 2878SOL    HW120267   1.398   2.057   2.494  0.5569  1.7084  1.8496
 2878SOL    HW220268   1.394   1.909   2.509  0.6546  1.6045 -2.7490
 2879SOL     OW20269   2.060   2.964   2.863 -0.0648 -0.3065 -0.3879
 2879SOL    HW120270   2.070   3.028   2.933 -0.4037  0.1671 -0.7680
 2879SOL    HW220271   1.964   2.964   2.858  0.0027  0.9807 -1.9956
 2880SOL     OW20272   2.018   1.648   8.369  0.2679  0.4359 -0.2708
 2880SOL    HW120273   1.959   1.658   8.444  1.0917  0.0552  0.4297
 2880SOL    HW220274   1.962   1.600   8.308  1.3181  0.2339 -1.0689
 2881SOL     OW20275   4.498   2.123   2.676  0.0191 -0.1002  0.1773
 2881SOL    HW120276   4.562   2.182   2.716 -0.1797  0.4663 -0.3343
 2881SOL    HW220277   4.537   2.091   2.595  0.5518 -3.3456  1.7162
 2882SOL     OW20278   2.347   4.008   7.847 -0.9634  0.2083  0.2122
 2882SOL    HW120279   2.270   4.060   7.872  0.2985  1.8951  0.5316
 2882SOL    HW220280   2.312   3.919   7.841  1.3147 -0.6347 -0.4388
 2883SOL     OW20281   2.071   4.702  11.188  0.0510  0.2348 -0.3026
 2883SOL    HW120282   1.978   4.707  11.209  0.0297 -1.4570 -0.0352
 2883SOL    HW220283   2.087   0.060  11.184  0.2553  0.1637 -1.1762
 2884SOL     OW20284   0.654   3.345   2.935 -0.2029 -0.0679 -0.1671
 2884SOL    HW120285   0.673   3.439   2.938 -3.8785  0.6708 -0.3178
 2884SOL    HW220286   0.679   3.321   2.846 -0.0234 -1.6765  0.3134
 2885SOL     OW20287   4.048   4.322   2.106 -0.0420 -0.1894 -0.0477
 2885SOL    HW120288   3.985   4.266   2.151  1.0106  0.0308  1.7071
 2885SOL    HW220289   4.097   4.367   2.174  1.7786  0.5416 -1.8315
 2886SOL     OW20290   4.637   1.812  13.550  0.0383 -0.0318  0.1174
 2886SOL    HW120291   4.719   1.861  13.540  0.5897 -0.5784  1.8597
 2886SOL    HW220292   4.578   1.880  13.519  0.4966  0.1092 -0.4546
 2887SOL     OW20293   0.348   3.593   2.658 -0.4553  0.0891  0.3745
 2887SOL    HW120294   0.284   3.662   2.676  2.8809  2.7633  1.7785
 2887SOL    HW220295   0.294   3.514   2.653  1.0990 -0.8726 -1.1513
 2888SOL     OW20296   3.392   1.486  17.144 -0.4930  0.2607 -0.6929
 2888SOL    HW120297   3.419   1.503  17.053  1.2662 -1.9360 -0.5986
 2888SOL    HW220298   3.346   1.569  17.158 -0.4617  0.2246 -0.3838
 2889SOL     OW20299   3.140   2.386   9.637 -0.5869 -0.4274 -0.0489
 2889SOL    HW120300   3.154   2.315   9.700 -0.4795  0.8632  1.3684
 2889SOL    HW220301   3.126   2.460   9.696 -0.9181 -0.3845 -0.1833
 2890SOL     OW20302   3.493   0.795   2.631  0.1784  1.1951  0.5471
 2890SOL    HW120303   3.427   0.772   2.696 -1.0961  0.9639 -0.8356
 2890SOL    HW220304   3.517   0.884   2.657 -0.2045  1.3486  0.3771
 2891SOL     OW20305   2.740   0.514  12.546  0.5550 -0.8288 -0.0826
 2891SOL    HW120306   2.789   0.543  12.469  0.0567  0.6857  0.1614
 2891SOL    HW220307   2.768   0.580  12.609 -0.9666  0.8207 -1.1101
 2892SOL     OW20308   1.291   0.988   4.074  0.2604 -0.2086  0.1248
 2892SOL    HW120309   1.229   0.989   4.000  1.0821  0.3613 -0.5657
 2892SOL    HW220310   1.348   1.056   4.037  0.3692  0.3025  1.2288
 2893SOL     OW20311   0.240   0.197   7.880  0.1050 -0.4819  0.4493
 2893SOL    HW120312   0.157   0.235   7.909  0.3130 -0.1793  0.6319
 2893SOL    HW220313   0.301   0.248   7.933  0.7044 -0.8194  0.0862
 2894SOL     OW20314   1.370   4.228   3.253  0.4830 -0.6669  0.5498
 2894SOL    HW120315   1.365   4.141   3.213 -3.1888  0.5297 -1.6365
 2894SOL    HW220316   1.281   4.260   3.236  1.6693  1.2677 -2.0362
 2895SOL     OW20317   2.497   0.408   6.131 -0.7935 -0.3549 -0.2306
 2895SOL    HW120318   2.451   0.466   6.071  0.0926 -0.5787 -1.1190
 2895SOL    HW220319   2.453   0.442   6.209  0.5270 -2.4850  1.4406
 2896SOL     OW20320   2.854   2.133   3.527  0.3515  0.4380  0.3069
 2896SOL    HW120321   2.836   2.085   3.446 -0.8065 -0.8814  1.3473
 2896SOL    HW220322   2.795   2.207   3.515 -0.2974 -0.3804 -1.3981
 2897SOL     OW20323   2.209   2.175  10.629 -0.0105  0.0211  0.7572
 2897SOL    HW120324   2.297   2.206  10.649  0.8093 -1.0507 -1.2414
 2897SOL    HW220325   2.203   2.107  10.695  0.1440  1.1109  1.9067
 2898SOL     OW20326   4.038   2.839   5.641  0.2482 -0.3052  0.0074
 2898SOL    HW120327   4.085   2.916   5.609 -1.2438 -0.0363 -1.5372
 2898SOL    HW220328   4.078   2.777   5.579 -0.1485  0.3055 -0.8568
 2899SOL     OW20329   4.095   1.966   6.095 -0.1097  0.0581  0.4146
 2899SOL    HW120330   4.068   2.050   6.055  1.1164 -0.4892 -1.5808
 2899SOL    HW220331   4.185   1.956   6.063 -0.4227 -0.0935 -0.4313
 2900SOL     OW20332   4.217   3.068   5.648  0.5249 -0.4171 -0.2206
 2900SOL    HW120333   4.296   3.097   5.603 -0.0508  3.2735  1.1452
 2900SOL    HW220334   4.263   3.036   5.725 -1.7528 -1.0509  0.8817
 2901SOL     OW20335   1.097   2.066   7.623 -0.2726 -0.2588 -0.3995
 2901SOL    HW120336   1.012   2.025   7.613 -0.8793  1.1567 -1.0874
 2901SOL    HW220337   1.129   2.021   7.701  1.7945 -1.1111 -1.7392
 2902SOL     OW20338   0.028   0.966   3.029  0.0011  0.3828  0.1127
 2902SOL    HW120339   0.075   0.917   3.096  1.9111 -0.9225 -2.1680
 2902SOL    HW220340   4.718   1.032   3.080 -2.6019 -1.1188 -0.3387
 2903SOL     OW20341   3.113   3.696   2.964  0.2741 -0.3503  0.4513
 2903SOL    HW120342   3.025   3.696   2.926 -0.1587 -0.9217  1.4301
 2903SOL    HW220343   3.158   3.628   2.915  0.9000  0.6479 -0.3450
 2904SOL     OW20344   3.273   3.169  15.964  0.2403  0.1859 -0.3574
 2904SOL    HW120345   3.353   3.127  15.931  1.0964 -0.2519  2.2035
 2904SOL    HW220346   3.309   3.247  16.007  3.4968 -2.3596  1.6350
 2905SOL     OW20347   0.447   2.916   5.196  0.1300 -0.1649  0.1445
 2905SOL    HW120348   0.398   2.845   5.238  0.3920 -0.4144  0.0314
 2905SOL    HW220349   0.500   2.860   5.140  0.3262  0.4538 -0.2810
 2906SOL     OW20350   1.463   4.447   7.172  0.3709 -0.2026  0.5169
 2906SOL    HW120351   1.530   4.379   7.169  0.7010  0.1703 -0.4230
 2906SOL    HW220352   1.397   4.400   7.121 -1.7841  1.6272  1.6176
 2907SOL     OW20353   1.585   1.335  16.197 -0.2649 -0.5483 -0.0926
 2907SOL    HW120354   1.607   1.256  16.149  2.3592  0.9666 -1.3647
 2907SOL    HW220355   1.550   1.307  16.282  0.7300 -1.3151  0.0667
 2908SOL     OW20356   1.518   4.113   2.777 -0.7374  0.2904 -0.2019
 2908SOL    HW120357   1.454   4.077   2.716 -0.9958  1.0235 -0.3631
 2908SOL    HW220358   1.599   4.064   2.762 -0.5333  0.8898 -1.1030
 2909SOL     OW20359   1.441   2.763  10.593  0.5513  0.8050 -0.1558
 2909SOL    HW120360   1.459   2.677  10.554 -1.8663  0.3822 -0.3694
 2909SOL    HW220361   1.452   2.820  10.516  0.7206  0.8431 -0.1019
 2910SOL     OW20362   4.281   1.358   0.690 -0.4842 -0.3417  0.0435
 2910SOL    HW120363   4.267   1.276   0.643  1.3025 -0.9631  0.5600
 2910SOL    HW220364   4.251   1.413   0.619 -1.7997  0.6023  1.3293
 2911SOL     OW20365   1.633   2.146   4.788 -0.5807 -0.0248 -0.7542
 2911SOL    HW120366   1.592   2.107   4.865  1.5988  0.7822  0.8247
 2911SOL    HW220367   1.691   2.079   4.753 -0.9571 -1.8658  2.1169
 2912SOL     OW20368   0.228   2.265   6.680 -0.3225  0.0854  0.3571
 2912SOL    HW120369   0.157   2.205   6.659  0.6626 -0.4506 -1.4403
 2912SOL    HW220370   0.206   2.310   6.762 -0.6796 -2.2140  1.5120
 2913SOL     OW20371   3.026   0.666   7.178  0.4787  0.3627  0.0834
 2913SOL    HW120372   3.084   0.590   7.189 -0.4922 -0.5789 -1.3732
 2913SOL    HW220373   3.080   0.745   7.183 -0.7061  1.2947 -1.9584
 2914SOL     OW20374   1.457   3.092   8.555  0.5793 -0.2861 -0.0390
 2914SOL    HW120375   1.546   3.085   8.521  0.6302  0.3541 -0.0467
 2914SOL    HW220376   1.459   3.013   8.608  3.9091 -0.5642 -0.5828
 2915SOL     OW20377   0.505   0.811   5.937 -0.0036  0.1422 -0.1396
 2915SOL    HW120378   0.438   0.879   5.937  1.4496  1.5797 -0.1647
 2915SOL    HW220379   0.458   0.749   5.993 -1.9082  0.0892 -1.8106
 2916SOL     OW20380   2.233   1.138   6.754  0.0680  0.0867 -0.2388
 2916SOL    HW120381   2.152   1.158   6.708  0.2941  0.8432 -0.3219
 2916SOL    HW220382   2.275   1.224   6.761  0.9911 -0.2761 -1.1616
 2917SOL     OW20383   0.127   0.048  15.170 -0.5976  0.5517  0.4742
 2917SOL    HW120384   0.172   4.702  15.153  0.5879  2.1122 -4.1363
 2917SOL    HW220385   0.040   0.014  15.192 -1.1320  1.5214 -0.0950
 2918SOL     OW20386   2.089   0.753   3.304 -0.2848 -0.2290 -0.3571
 2918SOL    HW120387   2.024   0.714   3.246 -1.7073  1.3436  0.1576
 2918SOL    HW220388   2.162   0.734   3.246 -1.3323 -1.3227 -1.3169
 2919SOL     OW20389   3.533   0.379   4.932  0.1070  0.2982 -0.7340
 2919SOL    HW120390   3.491   0.400   5.016  0.4683 -0.0425 -0.4667
 2919SOL    HW220391   3.485   0.302   4.905  0.8604 -0.4120 -0.0468
 2920SOL     OW20392   3.919   0.235   6.125  0.2146 -0.1249 -0.3257
 2920SOL    HW120393   3.924   0.233   6.221  0.6338  0.2250 -0.3390
 2920SOL    HW220394   3.999   0.186   6.105  0.3913 -0.1572  0.4565
 2921SOL     OW20395   3.684   4.105   6.429 -0.6437 -0.7989  0.1107
 2921SOL    HW120396   3.610   4.102   6.368 -0.6181  0.1749  0.0299
 2921SOL    HW220397   3.723   4.187   6.398  1.6249 -1.6080  0.8314
 2922SOL     OW20398   0.795   4.210   3.584  0.2114  0.4771  0.4166
 2922SOL    HW120399   0.760   4.184   3.670  2.3260  2.2465  1.8311
 2922SOL    HW220400   0.711   4.220   3.540 -0.4334  1.3974  1.8539
 2923SOL     OW20401   1.954   0.633  13.387  0.0322  0.1153 -0.0066
 2923SOL    HW120402   2.046   0.617  13.410  0.1072  0.3741 -0.1327
 2923SOL    HW220403   1.908   0.562  13.431  4.3192 -1.3721  2.0616
 2924SOL     OW20404   4.509   3.754   5.081 -0.4052  0.0319 -0.5630
 2924SOL    HW120405   4.466   3.702   5.149  2.3771 -3.0395 -1.1604
 2924SOL    HW220406   4.600   3.723   5.083  0.5967  3.0646  2.1887
 2925SOL     OW20407   1.844   2.240  15.241  0.4626 -0.2310  0.3149
 2925SOL    HW120408   1.917   2.229  15.302 -0.3292 -0.4442  1.2283
 2925SOL    HW220409   1.774   2.213  15.300  0.8641 -3.3280 -0.5874
 2926SOL     OW20410   1.108   4.179   0.716  0.2366  0.4086  0.1518
 2926SOL    HW120411   1.066   4.230   0.785 -3.4128 -0.4106 -1.4444
 2926SOL    HW220412   1.169   4.151   0.784  0.5005 -0.3454 -0.3956
 2927SOL     OW20413   0.798   1.890  15.114 -0.0378  0.5181 -0.1940
 2927SOL    HW120414   0.836   1.841  15.041 -1.6589 -1.9164  0.6221
 2927SOL    HW220415   0.772   1.974  15.075  0.5072  0.2143 -1.2252
 2928SOL     OW20416   3.367   3.230  15.124  0.3205  0.1196 -0.0085
 2928SOL    HW120417   3.273   3.223  15.105  0.5782 -0.7072 -1.0054
 2928SOL    HW220418   3.368   3.317  15.163 -1.3896  0.1187  0.0652
 2929SOL     OW20419   4.583   2.587  14.610 -0.0047  0.4759  0.0906
 2929SOL    HW120420   4.490   2.579  14.632 -0.2571 -0.0514 -1.1874
 2929SOL    HW220421   4.585   2.674  14.571  1.0322  0.6139  0.4428
 2930SOL     OW20422   2.676   0.535  11.790  0.3180  0.0326  0.2506
 2930SOL    HW120423   2.735   0.574  11.726  0.1293  0.0379  0.0782
 2930SOL    HW220424   2.608   0.602  11.796  1.5138  1.1188  1.5572
 2931SOL     OW20425   3.835   0.881   2.352 -0.2397 -0.2729 -0.0244
 2931SOL    HW120426   3.815   0.801   2.304 -1.5430  0.2970 -0.4149
 2931SOL    HW220427   3.877   0.928   2.280 -0.6695  1.6274  0.9611
 2932SOL     OW20428   3.652   3.234   5.679 -0.1418 -0.2677 -0.1168
 2932SOL    HW120429   3.591   3.306   5.696  0.0019 -0.2069  0.1331
 2932SOL    HW220430   3.727   3.277   5.720 -1.9138  1.1022  1.6515
 2933SOL     OW20431   1.238   0.507   5.885 -0.1702  0.7240 -0.3606
 2933SOL    HW120432   1.270   0.452   5.813  1.9098  0.2829  0.9003
 2933SOL    HW220433   1.293   0.478   5.957 -0.2671  0.5314 -0.3618
 2934SOL     OW20434   4.061   2.824   4.448  0.1627 -0.3980 -0.9540
 2934SOL    HW120435   4.070   2.889   4.379  1.3950 -0.2455 -0.6447
 2934SOL    HW220436   4.140   2.771   4.440  1.1133  1.2717 -2.4393
 2935SOL     OW20437   0.124   3.476  10.661 -0.2980 -0.3458  0.1522
 2935SOL    HW120438   0.172   3.443  10.736 -0.3126 -1.3413 -0.2760
 2935SOL    HW220439   0.080   3.395  10.635  0.3814  0.3760 -3.3001
 2936SOL     OW20440   0.719   1.161   1.754 -0.1925 -0.2056  0.2650
 2936SOL    HW120441   0.710   1.256   1.748 -3.0663 -0.4377  0.8280
 2936SOL    HW220442   0.652   1.131   1.692  1.1728 -1.6968 -0.4816
 2937SOL     OW20443   0.337   2.335   6.447  0.4145 -0.6978 -0.6615
 2937SOL    HW120444   0.403   2.403   6.464 -1.6417  0.5334  2.4008
 2937SOL    HW220445   0.331   2.302   6.537  1.1964  1.5911  0.2428
 2938SOL     OW20446   1.647   4.569  12.328  0.0717 -0.1348  0.1763
 2938SOL    HW120447   1.711   4.585  12.259 -2.1239 -0.8179 -2.0160
 2938SOL    HW220448   1.699   4.508  12.380 -0.9977  0.3111  1.7782
 2939SOL     OW20449   2.245   3.215   4.829 -0.0889 -0.1158 -0.1894
 2939SOL    HW120450   2.282   3.163   4.758 -0.1108  1.4784 -1.3654
 2939SOL    HW220451   2.191   3.147   4.870 -2.8526  1.7398 -0.7612
 2940SOL     OW20452   2.414   2.879   7.075  0.1171 -0.0624  0.1439
 2940SOL    HW120453   2.355   2.806   7.090 -0.4579 -0.0142 -1.7768
 2940SOL    HW220454   2.403   2.897   6.981 -1.6786  1.5456  0.6494
 2941SOL     OW20455   0.903   1.361  14.535  0.0749  0.1979 -0.1616
 2941SOL    HW120456   0.940   1.310  14.463  2.3984 -1.0930  1.9278
 2941SOL    HW220457   0.837   1.417  14.494 -1.3703 -1.2658  0.1980
 2942SOL     OW20458   4.687   4.488   2.977  0.5411 -0.6069  0.6070
 2942SOL    HW120459   4.629   4.420   3.013  0.2662 -1.2430 -1.0674
 2942SOL    HW220460   0.035   4.443   2.979 -0.4141 -2.4613  0.0766
 2943SOL     OW20461   0.905   1.899   7.591  0.0228 -0.1191  0.2128
 2943SOL    HW120462   0.842   1.958   7.549  0.5325 -1.0526 -1.8531
 2943SOL    HW220463   0.849   1.862   7.659 -0.6405 -1.4042 -1.0184
 2944SOL     OW20464   0.645   1.897   5.720 -0.0984  0.2675  0.0170
 2944SOL    HW120465   0.598   1.835   5.775 -2.8061  0.8600 -1.6252
 2944SOL    HW220466   0.682   1.958   5.784  1.0430 -2.0606  1.5943
 2945SOL     OW20467   4.130   0.014   4.543 -0.0105  0.0795 -0.1119
 2945SOL    HW120468   4.193   4.709   4.602  2.6923  3.3610 -0.6768
 2945SOL    HW220469   4.199   0.068   4.505  0.2958  0.0814  0.4484
 2946SOL     OW20470   4.697   1.606   4.063 -0.2483 -0.5596  0.0391
 2946SOL    HW120471   4.726   1.531   4.012  1.6444  0.1167  0.1219
 2946SOL    HW220472   4.703   1.678   4.000 -2.4728  1.6730  2.3421
 2947SOL     OW20473   3.405   3.791  10.617  0.0037  0.1394  0.3328
 2947SOL    HW120474   3.491   3.773  10.654 -0.4089 -0.9636  0.7596
 2947SOL    HW220475   3.368   3.707  10.642  1.5349 -0.9307 -1.0047
 2948SOL     OW20476   0.194   1.974   4.261 -0.5315 -0.2088 -0.0152
 2948SOL    HW120477   0.225   1.963   4.172 -0.5936 -1.9208  0.1799
 2948SOL    HW220478   0.167   1.884   4.276  2.0934 -0.8020  1.2153
 2949SOL     OW20479   2.477   0.532   4.440  0.3497 -0.4276 -0.0201
 2949SOL    HW120480   2.388   0.501   4.460  1.0336 -1.6898  1.0530
 2949SOL    HW220481   2.487   0.615   4.487 -0.7511 -0.3543  0.0905
 2950SOL     OW20482   3.557   4.188   8.509  0.3991  0.4595  0.1947
 2950SOL    HW120483   3.575   4.141   8.427 -0.9978  1.4360 -0.6773
 2950SOL    HW220484   3.484   4.239   8.474 -0.4230 -0.3747  0.6852
 2951SOL     OW20485   1.658   4.166  11.655 -0.3301  0.0030 -0.3847
 2951SOL    HW120486   1.628   4.256  11.643  1.0538  0.6303  0.9477
 2951SOL    HW220487   1.577   4.125  11.685  0.8285 -1.0543  1.2479
 2952SOL     OW20488   2.645   0.775   3.896  0.1074  0.3841  0.3035
 2952SOL    HW120489   2.704   0.782   3.821  0.7555  1.8733  0.9461
 2952SOL    HW220490   2.561   0.803   3.861  0.1386  2.7069  2.1230
 2953SOL     OW20491   3.864   4.185   2.294  0.1745  0.8716 -0.5079
 2953SOL    HW120492   3.773   4.209   2.278  1.0748  1.8119 -4.2868
 2953SOL    HW220493   3.899   4.233   2.369 -0.9680  0.9281 -0.0170
 2954SOL     OW20494   4.302   2.662   5.617  0.8448  0.0349  0.2832
 2954SOL    HW120495   4.364   2.717   5.569 -1.2678  2.1704 -0.0159
 2954SOL    HW220496   4.280   2.588   5.559  2.1988 -0.8228  0.8645
 2955SOL     OW20497   4.442   0.423   5.765 -0.2681  0.4188 -0.1841
 2955SOL    HW120498   4.470   0.510   5.735 -4.0428  1.8504  0.4643
 2955SOL    HW220499   4.477   0.366   5.696 -0.8673 -1.3597  1.0086
 2956SOL     OW20500   1.599   4.615   3.069 -0.0696 -0.6689 -0.4564
 2956SOL    HW120501   1.595   4.537   3.124 -0.1946 -0.2388  0.1434
 2956SOL    HW220502   1.619   4.571   2.986 -3.7280 -1.8507 -0.7230
 2957SOL     OW20503   2.683   1.627   5.691 -0.6431 -0.2965  0.0255
 2957SOL    HW120504   2.605   1.584   5.654 -0.4396 -0.3654 -0.3216
 2957SOL    HW220505   2.644   1.713   5.706 -2.7044 -1.1957 -0.0727
 2958SOL     OW20506   1.625   3.774   8.928  0.1354  0.4754 -0.4716
 2958SOL    HW120507   1.674   3.827   8.866 -2.3217  0.7808 -2.1599
 2958SOL    HW220508   1.576   3.846   8.968  0.7175 -0.2005  1.4692
 2959SOL     OW20509   0.887   0.157   4.348  0.2609 -0.0067  0.6122
 2959SOL    HW120510   0.878   0.248   4.375  1.6529  0.0269  0.9893
 2959SOL    HW220511   0.917   0.120   4.431  2.7920 -1.1456 -0.7895
 2960SOL     OW20512   3.079   2.314  11.088  0.2986  0.0363 -0.0945
 2960SOL    HW120513   3.157   2.317  11.144  0.2855 -3.6064  0.0957
 2960SOL    HW220514   3.063   2.220  11.097  1.3065 -0.4309 -3.2334
 2961SOL     OW20515   4.669   4.071   2.473  0.3044 -0.0606  0.1583
 2961SOL    HW120516   4.606   4.086   2.543 -0.0153 -0.7877  0.0309
 2961SOL    HW220517   0.012   4.066   2.525  0.0587  0.7487  0.6110
 2962SOL     OW20518   2.140   2.785   6.980  0.1594 -0.0508  0.0483
 2962SOL    HW120519   2.103   2.805   6.894  2.0896  1.0100 -0.5433
 2962SOL    HW220520   2.187   2.704   6.957  1.7813 -0.0909  3.5406
 2963SOL     OW20521   3.566   0.429   7.642  0.1704  0.1433 -0.3049
 2963SOL    HW120522   3.568   0.333   7.636  0.0166  0.1847 -0.9426
 2963SOL    HW220523   3.482   0.448   7.683  1.7144 -0.6934  3.2671
 2964SOL     OW20524   4.035   1.433  14.794 -0.3801 -0.2459 -0.1903
 2964SOL    HW120525   4.068   1.477  14.872  0.4551  2.1415 -1.8941
 2964SOL    HW220526   3.965   1.494  14.772 -2.6645 -2.9144 -0.4456
 2965SOL     OW20527   1.431   1.903   2.839 -0.8902 -0.1351  0.3029
 2965SOL    HW120528   1.516   1.859   2.832 -0.9663 -0.2507  0.1006
 2965SOL    HW220529   1.424   1.943   2.753 -3.5254 -1.7939 -0.2574
 2966SOL     OW20530   0.799   1.924   8.207 -1.1061  0.0249 -0.1156
 2966SOL    HW120531   0.750   1.855   8.161  1.5492 -0.5092 -2.0771
 2966SOL    HW220532   0.736   1.995   8.192 -0.0504  1.0491  0.3413
 2967SOL     OW20533   1.084   4.353  11.440  0.0321 -0.1006 -0.1524
 2967SOL    HW120534   0.989   4.353  11.456  0.4380 -0.0598  2.3819
 2967SOL    HW220535   1.098   4.447  11.429 -1.0734  0.0713 -0.1124
 2968SOL     OW20536   3.496   2.718   0.601 -0.7682 -0.4298  0.1226
 2968SOL    HW120537   3.580   2.734   0.558 -0.2152 -1.0600  0.9651
 2968SOL    HW220538   3.487   2.797   0.654 -0.8473 -0.0813 -0.4075
 2969SOL     OW20539   3.378   0.345   5.434  0.7422 -0.6270 -0.4331
 2969SOL    HW120540   3.384   0.437   5.411 -1.0407 -0.0538  1.3742
 2969SOL    HW220541   3.406   0.299   5.354  0.6521 -1.2023 -0.1299
 2970SOL     OW20542   1.959   1.849   0.738 -0.1463 -0.3841  0.4084
 2970SOL    HW120543   2.021   1.922   0.741 -0.5522 -0.0538  0.8155
 2970SOL    HW220544   1.999   1.801   0.665 -0.1520  2.2249 -1.3046
 2971SOL     OW20545   1.738   2.016  12.042  0.2083 -0.0314 -0.1076
 2971SOL    HW120546   1.718   1.945  12.103  0.8657 -0.1292 -0.0083
 2971SOL    HW220547   1.778   1.959  11.977  1.6705  0.6790  0.1736
 2972SOL     OW20548   0.699   2.545   7.578  0.1835 -0.1297  0.2505
 2972SOL    HW120549   0.785   2.531   7.540  1.1867  2.0079  1.7519
 2972SOL    HW220550   0.670   2.610   7.514  0.2124  0.8528  1.2261
 2973SOL     OW20551   3.219   1.417   7.515 -0.5800 -0.5119 -0.1022
 2973SOL    HW120552   3.292   1.476   7.495 -0.6879  1.0308  3.9584
 2973SOL    HW220553   3.255   1.355   7.578  0.5596  0.4525  0.1882
 2974SOL     OW20554   1.331   0.288   1.837 -0.1173 -0.3734 -0.2597
 2974SOL    HW120555   1.340   0.194   1.821 -0.2365 -0.3949 -0.1973
 2974SOL    HW220556   1.418   0.312   1.870 -0.3889  3.7318 -2.5519
 2975SOL     OW20557   4.001   0.047   6.373  0.0663 -0.0089  0.2837
 2975SOL    HW120558   4.096   0.035   6.380 -0.0623 -0.0340  2.0875
 2975SOL    HW220559   3.968   0.019   6.458 -0.3901 -1.3996 -0.3518
 2976SOL     OW20560   1.354   2.870   2.882  0.2954  0.3309 -0.3193
 2976SOL    HW120561   1.392   2.920   2.811 -0.8449  2.4118  0.5515
 2976SOL    HW220562   1.294   2.930   2.927  2.9220  2.0996  0.8358
 2977SOL     OW20563   1.464   0.208  17.133  0.3614  0.6904 -0.4560
 2977SOL    HW120564   1.508   0.138  17.085 -0.5889 -1.3763  1.6964
 2977SOL    HW220565   1.522   0.280  17.108 -0.8932  2.0484  0.5510
 2978SOL     OW20566   1.566   4.491   2.411  0.0017 -0.2871 -0.3508
 2978SOL    HW120567   1.492   4.519   2.464 -0.1683  1.1567 -1.3230
 2978SOL    HW220568   1.629   4.470   2.480 -0.2992  0.1941  0.0732
 2979SOL     OW20569   0.627   0.781  16.235  0.0592 -0.2091 -0.3593
 2979SOL    HW120570   0.573   0.755  16.160 -2.5498  0.5184  1.2446
 2979SOL    HW220571   0.575   0.733  16.301 -0.7660 -0.8243 -1.4623
 2980SOL     OW20572   0.593   0.059   3.926 -0.3763 -0.2280 -0.1956
 2980SOL    HW120573   0.550   0.127   3.874  0.0430 -0.4581 -0.8447
 2980SOL    HW220574   0.628   0.097   4.007  0.7030 -2.1797  0.2412
 2981SOL     OW20575   3.668   0.945   3.476 -0.5912 -0.0767 -0.6486
 2981SOL    HW120576   3.596   0.892   3.512 -0.6450  1.3942  1.4177
 2981SOL    HW220577   3.716   0.961   3.558 -0.0920 -0.6763 -0.8252
 2982SOL     OW20578   3.610   3.974   9.120 -0.1795  0.0978  0.3107
 2982SOL    HW120579   3.667   3.914   9.072  0.0047  1.5350 -1.2625
 2982SOL    HW220580   3.629   4.058   9.079  1.4073 -0.9804 -1.1832
 2983SOL     OW20581   4.433   2.242   4.981 -0.0479  0.8563  0.1379
 2983SOL    HW120582   4.383   2.227   5.061 -0.8690 -3.3666 -1.1867
 2983SOL    HW220583   4.373   2.298   4.931  1.9650  0.8344 -2.3295
 2984SOL     OW20584   4.015   0.685   0.706 -0.5005 -0.2640  0.6574
 2984SOL    HW120585   4.069   0.763   0.721 -0.1165 -0.1993 -1.1716
 2984SOL    HW220586   4.075   0.614   0.728  3.5793  2.8550 -0.4277
 2985SOL     OW20587   2.185   1.623   3.428  0.1662  0.2498 -0.1795
 2985SOL    HW120588   2.225   1.588   3.508  2.1330 -1.5209 -1.9429
 2985SOL    HW220589   2.171   1.717   3.440 -2.1290 -0.2163  0.7639
 2986SOL     OW20590   0.747   2.149   6.687  0.4636  0.3829  0.3594
 2986SOL    HW120591   0.725   2.068   6.641  2.0563  0.7760 -1.0760
 2986SOL    HW220592   0.720   2.212   6.620  1.5666  0.1728 -0.2806
 2987SOL     OW20593   2.297   2.209   8.164 -0.5083  0.1538 -0.1765
 2987SOL    HW120594   2.281   2.197   8.258 -1.0458  1.8140 -0.0539
 2987SOL    HW220595   2.253   2.293   8.150 -0.2627  0.9326  3.8657
 2988SOL     OW20596   3.131   3.650   0.950  0.5460  0.2845  0.2828
 2988SOL    HW120597   3.211   3.598   0.947  0.9501  1.0385 -2.0698
 2988SOL    HW220598   3.121   3.682   0.861 -3.7775 -0.7994  0.3674
 2989SOL     OW20599   1.534   0.472   9.643 -0.2599 -0.5626 -0.8822
 2989SOL    HW120600   1.446   0.511   9.648 -0.1264 -0.4406  0.4915
 2989SOL    HW220601   1.577   0.485   9.727 -3.7534  3.6886  0.2383
 2990SOL     OW20602   1.805   2.269   7.093  0.0517 -0.7205  0.1132
 2990SOL    HW120603   1.862   2.347   7.099 -0.1811 -0.4906 -0.6417
 2990SOL    HW220604   1.855   2.213   7.034  1.1667 -0.0713  0.4286
 2991SOL     OW20605   3.347   1.426   1.566  0.1527 -0.2371  0.1306
 2991SOL    HW120606   3.291   1.363   1.520 -0.4566  0.1355  0.3636
 2991SOL    HW220607   3.420   1.372   1.596 -0.2772 -0.8616  0.0513
 2992SOL     OW20608   0.298   0.248   5.961  0.0259 -0.1545 -0.3361
 2992SOL    HW120609   0.330   0.227   5.873  0.1858  0.3495 -0.3999
 2992SOL    HW220610   0.262   0.335   5.944 -0.2981  0.0018  1.1825
 2993SOL     OW20611   4.220   0.649   0.947  0.1014  0.8307  0.3657
 2993SOL    HW120612   4.285   0.585   0.977 -1.1189  0.0398  1.3376
 2993SOL    HW220613   4.238   0.715   1.013  1.0746  1.4945 -0.5516
 2994SOL     OW20614   3.606   1.246   2.298  0.4628 -0.1524  0.1114
 2994SOL    HW120615   3.627   1.159   2.331  0.6133 -0.1206  0.0999
 2994SOL    HW220616   3.516   1.239   2.265  0.3895  1.1651  0.0116
 2995SOL     OW20617   4.703   2.462   3.773 -0.0761 -0.2347  0.8843
 2995SOL    HW120618   4.646   2.402   3.821  1.7119 -1.8856  0.9165
 2995SOL    HW220619   4.641   2.535   3.773 -1.4868 -1.4338  0.9701
 2996SOL     OW20620   4.208   1.686   3.097 -0.0882  0.0951  0.3104
 2996SOL    HW120621   4.278   1.703   3.034 -0.1580 -1.5345 -0.2023
 2996SOL    HW220622   4.172   1.775   3.091 -1.3738 -0.3825  0.7844
 2997SOL     OW20623   4.589   3.062   2.271  0.0906  0.6805 -0.0424
 2997SOL    HW120624   4.611   2.970   2.257  1.7272  1.3115 -1.5755
 2997SOL    HW220625   4.612   3.071   2.363 -1.1934 -1.6058  0.4948
 2998SOL     OW20626   3.907   0.050   2.748  0.0703  0.4595 -0.9328
 2998SOL    HW120627   3.906   0.143   2.770 -0.3788 -0.2087  1.8474
 2998SOL    HW220628   3.819   0.037   2.711 -0.6769 -1.3059  1.4334
 2999SOL     OW20629   0.128   1.076  10.163 -0.0339  0.0932 -0.4676
 2999SOL    HW120630   0.050   1.039  10.205  1.0461 -1.8643 -0.2100
 2999SOL    HW220631   0.132   1.046  10.072  1.8351 -1.1138  0.0158
 3000SOL     OW20632   0.572   1.602   2.633 -0.1113  0.4039 -0.0915
 3000SOL    HW120633   0.632   1.672   2.607 -0.0741  0.4676  0.1691
 3000SOL    HW220634   0.627   1.524   2.618 -0.8511 -0.0221 -0.6007
 3001SOL     OW20635   4.563   2.644  10.529 -0.6477  0.3243 -0.4237
 3001SOL    HW120636   4.486   2.596  10.498  0.1625 -1.9602  1.1091
 3001SOL    HW220637   4.612   2.586  10.588  0.4877  0.8116 -0.8905
 3002SOL     OW20638   1.275   2.116   5.744 -0.3265  0.1252 -0.0023
 3002SOL    HW120639   1.254   2.028   5.711 -1.1347  1.1207 -2.1609
 3002SOL    HW220640   1.213   2.127   5.816 -0.6984 -0.8082 -0.1730
 3003SOL     OW20641   2.460   2.906   4.157 -0.4755  0.7955 -0.3096
 3003SOL    HW120642   2.375   2.949   4.146 -1.4208 -1.0907 -0.2906
 3003SOL    HW220643   2.516   2.981   4.135 -0.1658  0.2488 -1.3508
 3004SOL     OW20644   1.028   2.767  11.418 -0.1990  0.0257  0.2729
 3004SOL    HW120645   1.067   2.853  11.434 -1.3480  0.2801  1.7181
 3004SOL    HW220646   0.942   2.798  11.388 -1.0836 -1.1821  1.5324
 3005SOL     OW20647   1.922   4.441   2.389 -0.2462  0.1323  0.4750
 3005SOL    HW120648   1.989   4.375   2.372 -0.8074 -0.0412 -1.0427
 3005SOL    HW220649   1.978   4.502   2.438  0.3098  0.1178 -0.1419
 3006SOL     OW20650   2.715   0.842   8.647  0.1517  0.0300  0.2287
 3006SOL    HW120651   2.620   0.848   8.637  0.0060 -0.8912  1.1203
 3006SOL    HW220652   2.737   0.933   8.666  0.6790  0.3794 -2.0070
 3007SOL     OW20653   2.673   2.590   3.551 -0.7830  0.4382  0.2717
 3007SOL    HW120654   2.707   2.611   3.638  0.3713 -0.3854  0.0256
 3007SOL    HW220655   2.733   2.633   3.490 -0.2521 -1.7965 -0.7682
 3008SOL     OW20656   2.376   4.655  15.396 -0.0820 -0.0652 -0.1900
 3008SOL    HW120657   2.361   4.591  15.327 -1.8327 -2.1593  2.0889
 3008SOL    HW220658   2.465   4.630  15.421 -0.9229 -2.3036  0.6445
 3009SOL     OW20659   2.208   0.794   8.989 -0.6116  0.2342  0.4260
 3009SOL    HW120660   2.122   0.824   8.959 -0.0313  0.4348 -1.0634
 3009SOL    HW220661   2.213   0.710   8.942  0.1001  0.2685  0.4491
 3010SOL     OW20662   2.295   1.646   8.427  0.0982 -0.0908 -0.4684
 3010SOL    HW120663   2.202   1.637   8.405  0.4141 -2.7847 -0.8197
 3010SOL    HW220664   2.313   1.564   8.473  0.0239  0.5886  0.7520
 3011SOL     OW20665   4.184   2.843  12.220  0.3477  0.2589 -0.5458
 3011SOL    HW120666   4.140   2.882  12.296  0.4430  0.9254 -0.8357
 3011SOL    HW220667   4.111   2.799  12.176  0.1754 -1.7305  1.6877
 3012SOL     OW20668   3.123   2.510   9.222  0.3346 -0.0298  0.7937
 3012SOL    HW120669   3.122   2.575   9.292  0.2958 -1.3002  1.9727
 3012SOL    HW220670   3.176   2.445   9.268 -0.9738 -0.3930  1.8053
 3013SOL     OW20671   0.634   2.973   6.716 -0.5671  0.9386 -0.3977
 3013SOL    HW120672   0.728   2.985   6.703 -0.0377 -1.3167  1.3270
 3013SOL    HW220673   0.638   2.887   6.757 -3.1804  0.4480 -1.1635
 3014SOL     OW20674   1.708   0.316   7.576  0.1976 -0.2061 -0.0949
 3014SOL    HW120675   1.735   0.286   7.489 -0.6597 -2.7947  0.5456
 3014SOL    HW220676   1.620   0.350   7.562  0.2749 -0.9074 -2.2448
 3015SOL     OW20677   2.223   0.357  11.122 -0.0666 -0.0050  0.4261
 3015SOL    HW120678   2.309   0.384  11.154 -0.3542  2.7534 -1.1444
 3015SOL    HW220679   2.195   0.294  11.189 -2.3180 -0.5624 -1.0358
 3016SOL     OW20680   4.610   0.343   7.088  0.4436  0.0110 -0.2158
 3016SOL    HW120681   4.526   0.318   7.126  0.0170 -1.0470 -1.8378
 3016SOL    HW220682   4.642   0.409   7.149 -0.8903  1.2165 -0.8338
 3017SOL     OW20683   0.868   3.408  17.407  0.3542 -0.3211  0.3329
 3017SOL    HW120684   0.877   3.389  17.313 -2.4576  0.0023 -0.0046
 3017SOL    HW220685   0.935   3.349  17.441  0.5761  1.0616  2.2480
 3018SOL     OW20686   2.328   3.329   9.168 -0.4218  0.5327 -0.1588
 3018SOL    HW120687   2.416   3.307   9.135 -0.5355  1.1658 -0.8771
 3018SOL    HW220688   2.333   3.425   9.165 -0.6662  0.5286 -0.6825
 3019SOL     OW20689   3.362   1.049   1.871 -0.3839 -0.2314  0.1398
 3019SOL    HW120690   3.412   0.968   1.868 -1.0137 -0.7024  2.4637
 3019SOL    HW220691   3.283   1.011   1.834 -0.2016 -0.4711  0.0038
 3020SOL     OW20692   2.060   1.160   2.081 -0.1892 -0.3078  0.5437
 3020SOL    HW120693   2.142   1.167   2.130 -0.3835 -2.1207  1.1329
 3020SOL    HW220694   2.061   1.242   2.032 -2.3626 -0.3063  0.4898
 3021SOL     OW20695   4.123   1.494   2.067  0.6328  0.6719 -0.0805
 3021SOL    HW120696   4.191   1.527   2.008  0.4987  1.8254  0.4196
 3021SOL    HW220697   4.045   1.488   2.013 -0.9075 -1.2502  2.3260
 3022SOL     OW20698   2.886   0.286   2.716 -0.1473  0.3001 -0.4712
 3022SOL    HW120699   2.874   0.364   2.662  3.7106  0.5166 -1.0225
 3022SOL    HW220700   2.796   0.254   2.712 -0.4275  0.9855  0.3518
 3023SOL     OW20701   3.852   3.380   6.053  1.4093 -0.6893 -0.2276
 3023SOL    HW120702   3.926   3.321   6.039  0.8216 -1.4460 -0.1932
 3023SOL    HW220703   3.825   3.351   6.140  0.0310  1.9766  0.2500
 3024SOL     OW20704   1.613   3.524   1.915 -0.3315 -0.4752  0.5199
 3024SOL    HW120705   1.663   3.446   1.889 -1.1676 -1.0382  0.5903
 3024SOL    HW220706   1.665   3.593   1.874 -0.3835 -0.7125  0.0511
 3025SOL     OW20707   4.203   2.006   0.628 -0.6359  0.1727 -0.4127
 3025SOL    HW120708   4.200   1.989   0.722 -1.0269  0.7399 -0.3233
 3025SOL    HW220709   4.250   1.927   0.600  0.1877  1.2976 -2.1539
 3026SOL     OW20710   4.021   3.334   6.863 -0.4469 -0.8676 -0.0416
 3026SOL    HW120711   3.959   3.274   6.903 -1.4349 -0.9810 -1.7220
 3026SOL    HW220712   4.045   3.286   6.784  0.0931  2.0024 -1.6363
 3027SOL     OW20713   2.714   2.623   7.913 -0.0741  0.3007  0.0619
 3027SOL    HW120714   2.706   2.589   8.002  0.8682 -0.8504 -0.3011
 3027SOL    HW220715   2.680   2.544   7.872  0.8008  0.0613 -0.1902
 3028SOL     OW20716   3.626   3.186  16.178  0.2253  0.2015  0.7439
 3028SOL    HW120717   3.578   3.119  16.129  0.0072  1.3114 -0.5320
 3028SOL    HW220718   3.667   3.131  16.244 -2.1423 -0.9879  1.2490
 3029SOL     OW20719   0.257   0.174  11.045  0.5281 -0.4124 -0.6498
 3029SOL    HW120720   0.214   0.089  11.039 -1.8635  0.8023 -0.8983
 3029SOL    HW220721   0.262   0.184  10.950  1.7531 -2.5003 -0.7956
 3030SOL     OW20722   4.156   1.187   7.457 -0.4253 -0.0040 -0.1032
 3030SOL    HW120723   4.060   1.189   7.460 -0.3138  3.1645  0.6771
 3030SOL    HW220724   4.181   1.276   7.482 -3.4240  0.3513  1.6605
 3031SOL     OW20725   2.124   4.257   5.802 -0.0559 -0.0416  0.1629
 3031SOL    HW120726   2.155   4.249   5.712 -0.2070  1.0641  0.0126
 3031SOL    HW220727   2.055   4.323   5.797  1.6746  1.7946  0.6124
 3032SOL     OW20728   3.978   3.626   4.496  0.0416 -0.6567  0.3294
 3032SOL    HW120729   4.049   3.687   4.518  0.8728 -1.2345 -0.7352
 3032SOL    HW220730   3.982   3.568   4.571 -1.5388 -1.7743 -0.4606
 3033SOL     OW20731   0.467   4.564   2.316 -0.5389 -0.0482  0.8738
 3033SOL    HW120732   0.465   4.564   2.412 -2.6226  0.7824  0.8429
 3033SOL    HW220733   0.556   4.531   2.305 -0.7900  0.2086 -1.8795
 3034SOL     OW20734   2.429   0.406  17.695  0.2355 -0.0115  0.2100
 3034SOL    HW120735   2.478   0.488  17.707 -1.3698  0.9710 -0.0652
 3034SOL    HW220736   2.464   0.345   0.016 -2.3457 -1.7428 -0.0735
 3035SOL     OW20737   1.354   1.400   8.255  0.3571 -0.3857  0.5063
 3035SOL    HW120738   1.269   1.357   8.267  1.0322 -1.9639 -0.4355
 3035SOL    HW220739   1.325   1.491   8.264  0.9232 -0.3618  2.1421
 3036SOL     OW20740   1.125   3.588  12.347 -0.2512 -0.1107 -0.8842
 3036SOL    HW120741   1.157   3.526  12.413 -1.3851 -0.4198 -0.6297
 3036SOL    HW220742   1.200   3.596  12.288  1.4829  1.4372  1.4896
 3037SOL     OW20743   4.700   3.490   2.179 -0.5199 -0.6049 -0.0312
 3037SOL    HW120744   0.017   3.493   2.099 -1.1010  0.4481 -0.3710
 3037SOL    HW220745   4.654   3.408   2.160 -1.5411  0.1094 -0.6277
 3038SOL     OW20746   3.106   0.583   3.892  0.2607 -0.5558 -0.3838
 3038SOL    HW120747   3.090   0.523   3.964  2.6134  0.7833  1.2694
 3038SOL    HW220748   3.087   0.524   3.819  1.1970  1.3891 -2.2270
 3039SOL     OW20749   3.308   1.080   2.613 -0.3142  0.1142  0.2331
 3039SOL    HW120750   3.274   1.159   2.655 -0.0142  0.4624 -0.1943
 3039SOL    HW220751   3.387   1.059   2.663 -0.6550 -0.2780  0.6165
 3040SOL     OW20752   4.560   2.662   4.029  0.5913  0.5552  0.2613
 3040SOL    HW120753   4.544   2.663   3.935 -0.6693 -1.7227  0.4622
 3040SOL    HW220754   4.587   2.571   4.042  1.6399  0.9903  1.1619
 3041SOL     OW20755   3.549   0.680   3.867 -0.1017 -0.1491 -1.1130
 3041SOL    HW120756   3.513   0.594   3.844 -0.9001 -0.7340  2.3147
 3041SOL    HW220757   3.642   0.672   3.846  0.2049  1.3510 -0.3195
 3042SOL     OW20758   2.475   0.283   1.869  0.5235  0.2012  0.3478
 3042SOL    HW120759   2.387   0.278   1.830  0.6507  1.7750 -0.1444
 3042SOL    HW220760   2.523   0.204   1.846 -0.0147  0.3086 -1.1607
 3043SOL     OW20761   3.048   1.306   4.008 -0.0542  0.3352 -0.0844
 3043SOL    HW120762   3.044   1.398   4.033  0.6876  0.0880  0.9133
 3043SOL    HW220763   3.061   1.314   3.913  1.7559 -1.5726  0.0113
 3044SOL     OW20764   3.648   2.855  10.705 -0.2684 -0.1696  0.5228
 3044SOL    HW120765   3.667   2.949  10.715  3.6801 -0.9424  0.4474
 3044SOL    HW220766   3.711   2.813  10.764 -1.9450 -1.0647  1.6954
 3045SOL     OW20767   2.560   2.458   9.373 -0.6313 -0.3057 -0.5739
 3045SOL    HW120768   2.478   2.422   9.338 -2.3858  2.0972  1.0684
 3045SOL    HW220769   2.540   2.463   9.467 -0.2211 -1.6897 -0.4199
 3046SOL     OW20770   0.697   1.932   9.520 -0.1220  0.4714  0.2902
 3046SOL    HW120771   0.612   1.895   9.497  0.8810 -0.9626 -1.0627
 3046SOL    HW220772   0.714   1.978   9.438  1.1971 -0.0882  0.2519
 3047SOL     OW20773   4.654   2.119   8.136  0.2025 -0.0681 -0.2186
 3047SOL    HW120774   4.601   2.043   8.158 -3.3184  2.2754 -0.6642
 3047SOL    HW220775   4.735   2.071   8.121  0.3243  1.5858 -4.8794
 3048SOL     OW20776   1.325   4.303  10.362  0.2740  0.3599 -0.1477
 3048SOL    HW120777   1.325   4.333  10.453 -0.8817  0.1838 -0.0868
 3048SOL    HW220778   1.405   4.333  10.319 -0.3938  1.9518 -0.2842
 3049SOL     OW20779   3.677   4.077   5.032  0.5323 -0.2871  0.4296
 3049SOL    HW120780   3.676   4.088   4.937 -0.6199  1.6479  0.6761
 3049SOL    HW220781   3.755   4.021   5.035  0.8141  0.2985  3.1442
 3050SOL     OW20782   3.883   2.200   9.909  0.6582 -0.1931  0.2869
 3050SOL    HW120783   3.932   2.263   9.857 -0.2651 -0.8077 -1.3205
 3050SOL    HW220784   3.897   2.117   9.863  0.8341  0.6346 -1.1367
 3051SOL     OW20785   1.286   2.264   7.717 -0.0728 -0.5972 -0.1296
 3051SOL    HW120786   1.246   2.248   7.803 -1.8753  2.1398 -0.4714
 3051SOL    HW220787   1.211   2.267   7.658 -0.0860  1.0940 -0.0121
 3052SOL     OW20788   4.377   2.728  16.943  0.5080 -0.1963  0.1181
 3052SOL    HW120789   4.468   2.758  16.947  0.5931 -0.6881  2.1280
 3052SOL    HW220790   4.327   2.808  16.958 -0.3266 -0.8267  0.7483
 3053SOL     OW20791   3.756   3.630   6.194 -0.6050  0.5890  0.1970
 3053SOL    HW120792   3.761   3.553   6.137 -2.7846  1.1264 -0.7253
 3053SOL    HW220793   3.780   3.702   6.136  1.3993 -0.8256 -0.7263
 3054SOL     OW20794   1.359   3.373   9.801  0.3860 -0.5721  0.1722
 3054SOL    HW120795   1.412   3.322   9.863  0.5886 -0.7716 -0.1685
 3054SOL    HW220796   1.391   3.349   9.714  0.1478  2.1112 -0.6706
 3055SOL     OW20797   2.176   2.594   9.195 -0.1603 -0.0052  0.2952
 3055SOL    HW120798   2.262   2.634   9.209  0.6983 -1.0999 -1.9530
 3055SOL    HW220799   2.118   2.665   9.166  0.9677  0.4251 -0.8947
 3056SOL     OW20800   4.385   2.767  13.488  0.4672 -0.4667 -0.6630
 3056SOL    HW120801   4.355   2.854  13.515 -5.3654 -1.8840 -2.6526
 3056SOL    HW220802   4.458   2.773  13.427  1.8613  1.8743  1.2091
 3057SOL     OW20803   2.695   1.334  15.746  0.3750 -0.0356  0.1644
 3057SOL    HW120804   2.620   1.313  15.801 -0.2337  0.7416 -0.3578
 3057SOL    HW220805   2.766   1.314  15.807  1.7193  2.0356 -0.7081
 3058SOL     OW20806   2.707   4.671  14.323 -0.1351 -0.0645 -0.7815
 3058SOL    HW120807   2.627   4.720  14.340 -0.4273 -1.0570  0.6608
 3058SOL    HW220808   2.763   4.715  14.387 -0.1645 -0.4586 -0.4859
 3059SOL     OW20809   1.293   1.159   7.867 -0.1161  1.0276  0.5988
 3059SOL    HW120810   1.387   1.147   7.873 -0.2735 -0.6641 -0.4075
 3059SOL    HW220811   1.272   1.162   7.961 -0.8610  1.5577  0.4222
 3060SOL     OW20812   4.201   4.384   2.680  0.4510  0.3872  0.4587
 3060SOL    HW120813   4.197   4.350   2.770  1.4439  0.2285  0.4408
 3060SOL    HW220814   4.154   4.467   2.686  1.5900  0.9951  0.9125
 3061SOL     OW20815   4.315   1.800   1.992  0.0334  0.5068  0.1544
 3061SOL    HW120816   4.283   1.866   1.932 -2.1166  0.6112  1.3996
 3061SOL    HW220817   4.374   1.745   1.941 -0.4129 -0.1520  0.3436
 3062SOL     OW20818   3.850   3.486   5.550 -0.4805 -0.6248  0.6051
 3062SOL    HW120819   3.879   3.395   5.546  0.7972 -0.2051  0.5575
 3062SOL    HW220820   3.845   3.500   5.644 -3.7754  1.7138  0.0963
 3063SOL     OW20821   1.823   2.146   8.441 -0.2735  0.1971  0.2215
 3063SOL    HW120822   1.901   2.203   8.439  0.0709 -0.2918 -0.1483
 3063SOL    HW220823   1.799   2.138   8.533 -0.5195  0.2582  0.1615
 3064SOL     OW20824   0.373   1.643   6.975  0.0957  0.6649 -0.1629
 3064SOL    HW120825   0.401   1.595   6.897 -1.2949  1.6881 -1.2995
 3064SOL    HW220826   0.430   1.612   7.045  0.9720  1.8615 -0.3341
 3065SOL     OW20827   2.834   2.408  15.239  0.1286  0.0525  0.3909
 3065SOL    HW120828   2.792   2.493  15.250 -0.9002 -0.2564 -1.1895
 3065SOL    HW220829   2.892   2.405  15.315 -0.0168 -1.0630  0.4586
 3066SOL     OW20830   2.462   3.941   2.530 -0.2487 -0.1069  0.1701
 3066SOL    HW120831   2.521   4.016   2.516 -0.7880  0.0349 -1.3843
 3066SOL    HW220832   2.404   3.976   2.597 -0.8669  0.0465 -0.4544
 3067SOL     OW20833   0.456   1.825  12.594 -0.4489  0.3600 -0.4108
 3067SOL    HW120834   0.396   1.770  12.644  0.2030 -2.1066 -2.3283
 3067SOL    HW220835   0.538   1.819  12.643 -0.1334  1.4891 -0.7955
 3068SOL     OW20836   1.151   1.572   8.726  0.3601  0.0405  0.2152
 3068SOL    HW120837   1.238   1.562   8.686 -1.0782 -1.1253 -2.6143
 3068SOL    HW220838   1.183   1.595   8.813 -0.3741 -0.6550  0.6629
 3069SOL     OW20839   3.653   0.855   6.725 -0.2471  0.5739  0.1272
 3069SOL    HW120840   3.743   0.823   6.720 -0.4287  0.0580  0.2122
 3069SOL    HW220841   3.614   0.791   6.785 -0.0207  0.5846  0.2856
 3070SOL     OW20842   1.629   1.327   6.605 -0.1580 -0.2237  0.2408
 3070SOL    HW120843   1.562   1.386   6.570  0.6428 -0.0218 -0.9397
 3070SOL    HW220844   1.705   1.375   6.637 -0.6492  0.1771  0.8067
 3071SOL     OW20845   4.269   0.996  16.620 -0.1314  0.3075 -0.0967
 3071SOL    HW120846   4.174   1.007  16.624 -0.3302 -1.7236  0.8495
 3071SOL    HW220847   4.306   1.060  16.681  1.8205 -2.0400  1.1955
 3072SOL     OW20848   4.360   2.873  15.625  0.3753  0.7311 -0.2229
 3072SOL    HW120849   4.406   2.954  15.646  1.9404 -0.0360 -0.6597
 3072SOL    HW220850   4.340   2.837  15.711  3.3342 -2.7333 -0.9861
 3073SOL     OW20851   1.512   1.722   2.527 -0.2935  0.9717 -0.3623
 3073SOL    HW120852   1.511   1.629   2.504 -0.7868  0.9433 -0.2245
 3073SOL    HW220853   1.524   1.715   2.622 -0.3316  0.0932 -0.4176
 3074SOL     OW20854   3.310   4.414  16.961  0.2559  0.0197  0.4897
 3074SOL    HW120855   3.241   4.394  16.898 -0.1909  0.1148  0.9600
 3074SOL    HW220856   3.300   4.337  17.017  1.0480  0.4894  1.2681
 3075SOL     OW20857   2.757   2.870   5.193  0.1288 -0.0838 -0.3506
 3075SOL    HW120858   2.832   2.860   5.135 -0.3585  1.0893 -1.1778
 3075SOL    HW220859   2.758   2.785   5.238 -0.9715 -0.2927 -0.7094
 3076SOL     OW20860   1.674   3.086   5.797  0.1040  0.0994  0.0072
 3076SOL    HW120861   1.705   3.051   5.715 -0.4013  0.6704 -0.4336
 3076SOL    HW220862   1.630   3.166   5.766  1.7148  0.8614 -0.2816
 3077SOL     OW20863   1.114   1.821   8.097  0.3786 -0.4500 -0.2093
 3077SOL    HW120864   1.122   1.896   8.156  1.0192  0.2717 -1.2301
 3077SOL    HW220865   1.023   1.834   8.069 -0.0089  0.9092  1.6895
 3078SOL     OW20866   1.711   4.411  10.394 -0.2659  0.0670  0.2368
 3078SOL    HW120867   1.792   4.449  10.429  0.7225 -1.7433 -0.0628
 3078SOL    HW220868   1.700   4.358  10.473  0.4886 -0.4574 -0.0066
 3079SOL     OW20869   0.376   0.135   6.206 -0.4721 -0.2737 -0.5432
 3079SOL    HW120870   0.309   0.167   6.145 -2.5503  0.1721  1.9873
 3079SOL    HW220871   0.322   0.111   6.281  1.5338 -1.6695  0.4751
 3080SOL     OW20872   2.692   2.180   4.401  0.2373  0.2227 -0.1026
 3080SOL    HW120873   2.618   2.145   4.351  0.8493 -1.6269  0.3225
 3080SOL    HW220874   2.766   2.132   4.365  0.4710  1.8005 -1.7345
 3081SOL     OW20875   3.784   3.115  12.418  0.0129 -0.1648 -0.3645
 3081SOL    HW120876   3.784   3.117  12.322  2.4939  0.7839 -0.3431
 3081SOL    HW220877   3.789   3.210  12.427 -1.7607  0.1055 -2.1424
 3082SOL     OW20878   2.664   2.666   9.643 -0.4079 -0.3337  0.0438
 3082SOL    HW120879   2.744   2.657   9.591 -0.5203  0.9604 -0.3603
 3082SOL    HW220880   2.642   2.574   9.628  2.6944 -0.8720 -1.3073
 3083SOL     OW20881   3.304   3.562  10.665  0.0940 -0.2694  0.1931
 3083SOL    HW120882   3.292   3.507  10.588 -1.3696 -0.7271  0.7437
 3083SOL    HW220883   3.236   3.532  10.725 -0.4205  0.7806  0.1368
 3084SOL     OW20884   2.158   3.504   7.788 -0.1969  0.6389 -0.3902
 3084SOL    HW120885   2.128   3.519   7.878  0.5009 -0.4811  0.0269
 3084SOL    HW220886   2.232   3.449   7.812  0.1265  0.1640 -2.4760
 3085SOL     OW20887   1.821   2.443   4.815  0.1773 -0.1158  0.5657
 3085SOL    HW120888   1.855   2.439   4.726  0.1122  0.5374  0.5144
 3085SOL    HW220889   1.727   2.445   4.795  0.2352  0.7540  0.3920
 3086SOL     OW20890   3.210   1.157   3.538 -0.4350  0.2999  0.2177
 3086SOL    HW120891   3.160   1.084   3.501  0.4320 -0.6049  0.8349
 3086SOL    HW220892   3.248   1.211   3.468  0.1343 -0.4025 -0.0141
 3087SOL     OW20893   2.736   4.329   9.934 -0.3183  0.8727 -0.0787
 3087SOL    HW120894   2.649   4.313   9.970 -0.3480  0.0746 -0.5246
 3087SOL    HW220895   2.795   4.281   9.992 -0.1568  0.7913 -0.3133
 3088SOL     OW20896   1.783   1.273   5.120  0.5783 -0.1578  0.1209
 3088SOL    HW120897   1.874   1.284   5.147  0.3455  0.5022  0.6477
 3088SOL    HW220898   1.792   1.298   5.028  1.4675  0.7739  0.4672
 3089SOL     OW20899   4.156   3.873   4.087  0.7259 -0.3778  0.6136
 3089SOL    HW120900   4.085   3.809   4.093  0.0665  0.2812 -0.0065
 3089SOL    HW220901   4.226   3.811   4.067  0.1544 -0.9035  0.2535
 3090SOL     OW20902   2.291   3.651   9.229 -0.3869  0.1045 -0.1922
 3090SOL    HW120903   2.366   3.649   9.289 -0.5536  2.0098  0.0826
 3090SOL    HW220904   2.222   3.681   9.288 -0.2777  2.0454 -1.0671
 3091SOL     OW20905   3.347   4.384   8.480 -0.2213  0.0570 -0.7347
 3091SOL    HW120906   3.309   4.342   8.557  1.7694 -0.4810 -0.0371
 3091SOL    HW220907   3.316   4.473   8.501 -2.7801 -0.8540 -0.5982
 3092SOL     OW20908   2.734   3.007   2.181 -0.3218  0.4248 -0.1715
 3092SOL    HW120909   2.723   3.087   2.231 -1.7916  0.4469 -0.5347
 3092SOL    HW220910   2.697   2.936   2.233 -1.5506  2.7567  2.1242
 3093SOL     OW20911   4.151   0.827   8.206  0.2499  0.1280  0.7179
 3093SOL    HW120912   4.212   0.846   8.278 -1.4438  0.4712  2.0807
 3093SOL    HW220913   4.064   0.843   8.244  0.0752 -1.3624  0.9380
 3094SOL     OW20914   1.902   2.331   8.011  0.1980 -0.8431 -0.0142
 3094SOL    HW120915   1.942   2.246   7.994  0.9109 -0.6088  0.4540
 3094SOL    HW220916   1.874   2.355   7.923 -0.0567 -0.7992  0.0795
 3095SOL     OW20917   2.716   4.502   6.064 -0.1662  0.6702  0.5497
 3095SOL    HW120918   2.654   4.432   6.042  1.3094  0.4171 -2.8512
 3095SOL    HW220919   2.669   4.581   6.037 -0.0957  0.7160  0.5589
 3096SOL     OW20920   1.149   2.837   9.776 -0.6469  0.0836 -0.0560
 3096SOL    HW120921   1.222   2.886   9.814 -1.2753 -0.5277  1.9659
 3096SOL    HW220922   1.173   2.748   9.802  2.3679  1.0588  0.4136
 3097SOL     OW20923   3.097   3.336   3.048  0.2242 -0.1456 -0.2728
 3097SOL    HW120924   3.083   3.241   3.052 -2.2764  0.2381  0.0832
 3097SOL    HW220925   3.164   3.349   3.116  1.1430 -0.5481 -1.0925
 3098SOL     OW20926   0.558   0.175   7.239  0.3344 -0.2959  0.1393
 3098SOL    HW120927   0.599   0.230   7.305  1.7284  0.5295 -1.4165
 3098SOL    HW220928   0.510   0.243   7.191 -1.0977 -1.1786  0.3201
 3099SOL     OW20929   2.996   2.104   5.924  0.2694  0.8131  0.4804
 3099SOL    HW120930   3.044   2.026   5.952  2.2128  1.5668 -0.6954
 3099SOL    HW220931   3.081   2.129   5.886 -0.4160 -1.0309 -2.2833
 3100SOL     OW20932   0.877   1.237   0.721 -0.5770  0.2899  0.5168
 3100SOL    HW120933   0.858   1.325   0.753 -1.8425  1.1719 -2.6704
 3100SOL    HW220934   0.834   1.186   0.789  1.1486  0.6341  1.8833
 3101SOL     OW20935   1.538   2.488  10.185  0.4303 -0.1136  0.0990
 3101SOL    HW120936   1.449   2.516  10.163  1.0941  2.2164  0.4374
 3101SOL    HW220937   1.535   2.394  10.169  2.5487 -0.3728  1.2582
 3102SOL     OW20938   0.606   1.858   7.788  0.4325 -0.0154  0.2801
 3102SOL    HW120939   0.566   1.943   7.771 -1.6337 -1.1882 -0.7401
 3102SOL    HW220940   0.543   1.802   7.741 -1.3828  0.8131  1.7521
 3103SOL     OW20941   2.061   4.544   7.426  0.3770  0.1104 -0.0743
 3103SOL    HW120942   2.065   4.538   7.521 -0.9617 -0.1550 -0.0352
 3103SOL    HW220943   1.969   4.555   7.405 -0.0256  0.7251  2.0431
 3104SOL     OW20944   3.648   1.576   4.205  0.5969 -0.0443 -0.0541
 3104SOL    HW120945   3.608   1.647   4.255  1.8011  0.6858 -0.1427
 3104SOL    HW220946   3.585   1.562   4.134 -0.6658  1.3766  0.7867
 3105SOL     OW20947   1.758   0.380   3.560  0.3431 -0.1424 -0.1221
 3105SOL    HW120948   1.706   0.417   3.631 -0.7555  0.7170 -1.3904
 3105SOL    HW220949   1.719   0.293   3.556 -0.4940  0.3160 -1.8192
 3106SOL     OW20950   3.050   3.563  12.021  0.5665  0.0377  0.4133
 3106SOL    HW120951   2.969   3.583  11.974  1.6996  0.8717 -1.1636
 3106SOL    HW220952   3.080   3.653  12.023  1.5612 -0.2178 -2.1172
 3107SOL     OW20953   4.537   2.815   4.268  0.1633 -0.3795  0.2542
 3107SOL    HW120954   4.549   2.777   4.182  0.6730 -0.1028  0.2080
 3107SOL    HW220955   4.457   2.866   4.254 -0.7526 -2.2600 -1.3847
 3108SOL     OW20956   4.022   2.351  17.125  0.3592  0.1017 -0.0973
 3108SOL    HW120957   4.039   2.444  17.135 -0.3444  0.1987  0.2614
 3108SOL    HW220958   3.934   2.359  17.089 -0.5142  0.1436  2.0136
 3109SOL     OW20959   2.657   2.457   2.438 -0.5944  0.1241 -0.2289
 3109SOL    HW120960   2.646   2.459   2.343  1.0439  0.9063 -0.4173
 3109SOL    HW220961   2.660   2.550   2.464  0.3280 -0.1461  0.6234
 3110SOL     OW20962   4.199   0.300  17.313 -0.0334  0.7917 -0.3411
 3110SOL    HW120963   4.165   0.342  17.392  1.2847  1.7869 -0.3022
 3110SOL    HW220964   4.151   0.218  17.314  0.1359  0.6978  0.0677
 3111SOL     OW20965   3.956   1.536   7.352 -0.0160  0.3420  0.1984
 3111SOL    HW120966   3.879   1.496   7.392  0.1411  1.0099  1.1790
 3111SOL    HW220967   3.948   1.631   7.353 -1.4469  0.2044  2.5123
 3112SOL     OW20968   3.562   3.551  17.150  0.2006 -0.5180 -0.5178
 3112SOL    HW120969   3.503   3.489  17.194 -0.3271  0.5565  0.2839
 3112SOL    HW220970   3.531   3.629  17.195  0.4818 -0.9206  0.3850
 3113SOL     OW20971   2.317   2.827  11.786  0.3366 -0.1243  0.4674
 3113SOL    HW120972   2.401   2.855  11.750 -0.0265  0.1059 -0.2019
 3113SOL    HW220973   2.276   2.912  11.804  1.3840  0.4094  0.3305
 3114SOL     OW20974   3.135   0.517   5.068  0.1285 -0.0529 -0.4558
 3114SOL    HW120975   3.151   0.587   5.132 -1.3620 -1.2427  1.1944
 3114SOL    HW220976   3.093   0.448   5.118  0.2747 -0.2810 -0.6463
 3115SOL     OW20977   3.917   3.597   7.960  0.4663 -0.1728 -0.2407
 3115SOL    HW120978   3.956   3.677   7.925  0.5002 -0.4269 -0.7756
 3115SOL    HW220979   3.843   3.590   7.901 -1.4274  1.1356  1.9828
 3116SOL     OW20980   4.186   0.031   2.260 -0.1215 -0.0750  0.1534
 3116SOL    HW120981   4.207   4.678   2.232  0.5682 -0.7407  2.7842
 3116SOL    HW220982   4.092   0.044   2.248 -0.1507  1.6460  2.3220
 3117SOL     OW20983   1.938   3.799   4.402 -0.5954 -0.2878  0.0652
 3117SOL    HW120984   2.030   3.824   4.395 -0.1655 -1.7382  0.5939
 3117SOL    HW220985   1.948   3.732   4.469  1.4195 -0.7604 -0.7288
 3118SOL     OW20986   2.429   1.463  16.180 -0.1888 -0.5525 -0.0103
 3118SOL    HW120987   2.357   1.414  16.221 -1.2435  0.2171 -0.9698
 3118SOL    HW220988   2.463   1.517  16.252 -2.5446  2.1885 -1.0010
 3119SOL     OW20989   0.652   2.140   8.115 -0.1479 -0.3280 -0.6559
 3119SOL    HW120990   0.667   2.202   8.044  0.9769 -1.8004 -1.6734
 3119SOL    HW220991   0.624   2.195   8.189 -0.4237 -1.6748  0.2306
 3120SOL     OW20992   3.397   3.042  14.801 -0.1504  0.1918  0.3905
 3120SOL    HW120993   3.488   3.044  14.831 -0.4803  0.7419  1.3487
 3120SOL    HW220994   3.372   3.130  14.771  0.3258  0.0483 -0.4166
 3121SOL     OW20995   3.270   0.787   6.767 -0.3282  0.3165  0.2635
 3121SOL    HW120996   3.182   0.749   6.760 -0.3358  0.5315 -0.8100
 3121SOL    HW220997   3.265   0.872   6.723  0.2642 -2.0250 -4.3062
 3122SOL     OW20998   1.514   1.269  14.698  0.0675  0.4085  0.6153
 3122SOL    HW120999   1.506   1.178  14.671  0.5401  0.1817  1.2316
 3122SOL    HW221000   1.587   1.259  14.759  0.8285 -0.6187 -0.4766
 3123SOL     OW21001   4.332   0.434  11.738  0.1367 -0.7812  0.2220
 3123SOL    HW121002   4.326   0.367  11.670  1.1613  1.1469 -1.8013
 3123SOL    HW221003   4.245   0.473  11.741  0.0148 -1.0245 -0.1423
 3124SOL     OW21004   0.394   3.150   6.767  0.3356  0.0328  0.5729
 3124SOL    HW121005   0.452   3.177   6.838  2.4943  0.0328 -1.1913
 3124SOL    HW221006   0.426   3.062   6.748  1.5579  0.6784 -0.2825
 3125SOL     OW21007   1.788   3.265   5.443 -0.1593  0.0851 -0.1561
 3125SOL    HW121008   1.841   3.192   5.475  2.1491  1.0896 -1.7502
 3125SOL    HW221009   1.818   3.270   5.353  0.8461 -0.1321  0.1613
 3126SOL     OW21010   1.833   1.347   9.458 -0.1673 -0.1134  0.2870
 3126SOL    HW121011   1.887   1.410   9.505 -0.1162 -0.2416  0.4013
 3126SOL    HW221012   1.815   1.281   9.525 -0.7406 -0.2606 -0.0135
 3127SOL     OW21013   4.062   0.009  10.840 -0.1043  0.0247 -0.0870
 3127SOL    HW121014   4.027   0.009  10.929  0.1323 -0.3536  0.0086
 3127SOL    HW221015   4.028   0.094  10.812 -2.4559 -0.6400  0.7476
 3128SOL     OW21016   1.199   4.699   8.947 -0.0418 -0.5055 -0.1222
 3128SOL    HW121017   1.178   0.056   8.956 -0.2755 -0.8107  2.5857
 3128SOL    HW221018   1.208   4.679   9.040 -2.7339  0.6646  0.4010
 3129SOL     OW21019   2.723   4.690   2.895 -0.1946  0.3468  0.1481
 3129SOL    HW121020   2.668   4.665   2.821  0.9494 -2.3854  0.2532
 3129SOL    HW221021   2.810   4.671   2.860 -0.0558  2.5514 -0.7515
 3130SOL     OW21022   3.223   3.802  15.496 -0.7079 -0.1695  0.4829
 3130SOL    HW121023   3.222   3.719  15.448 -1.5637  0.2258 -0.1904
 3130SOL    HW221024   3.177   3.860  15.436 -0.3096  1.6488  1.9626
 3131SOL     OW21025   3.449   3.225   0.346 -0.2407  0.5484  0.2127
 3131SOL    HW121026   3.505   3.156   0.384 -0.9438 -1.6117 -2.7207
 3131SOL    HW221027   3.489   3.231   0.259 -0.1341  0.1634  0.2333
 3132SOL     OW21028   4.410   0.359   5.145  0.0782  0.4021  0.4178
 3132SOL    HW121029   4.319   0.385   5.137 -0.8621 -2.5121  1.6042
 3132SOL    HW221030   4.402   0.279   5.197 -0.6991  0.0582 -0.2198
 3133SOL     OW21031   4.675   0.335  14.962 -0.5290 -0.4100  0.3084
 3133SOL    HW121032   0.002   0.328  15.033 -0.8718 -3.4235  0.3078
 3133SOL    HW221033   4.736   0.364  14.894 -1.1603 -0.9054 -0.4760
 3134SOL     OW21034   0.205   4.112   3.249 -0.3289  0.8234 -0.0901
 3134SOL    HW121035   0.214   4.138   3.341 -1.5247 -0.0819  0.2803
 3134SOL    HW221036   0.261   4.036   3.262 -3.3982 -1.4063  0.0290
 3135SOL     OW21037   2.677   0.950   9.067  0.4689 -0.2700  0.3824
 3135SOL    HW121038   2.680   1.031   9.017 -1.8415  0.8406  2.0410
 3135SOL    HW221039   2.617   0.895   9.017  1.6838 -1.3354  0.0926
 3136SOL     OW21040   1.325   1.336   2.827  0.8031 -0.4904 -0.5730
 3136SOL    HW121041   1.250   1.332   2.767  0.1447  0.5513  0.1972
 3136SOL    HW221042   1.293   1.392   2.897 -0.0963 -0.1423 -1.2521
 3137SOL     OW21043   2.803   4.001   8.303 -1.0240  0.1941 -0.0190
 3137SOL    HW121044   2.823   3.916   8.264  2.4413  1.1766 -0.3202
 3137SOL    HW221045   2.868   4.057   8.260 -0.9064 -0.6656 -0.9674
 3138SOL     OW21046   3.308   2.053  12.331  0.6956  0.8001  0.6794
 3138SOL    HW121047   3.373   2.042  12.400  1.0001 -0.3528  0.2116
 3138SOL    HW221048   3.274   1.963  12.326  0.0904  1.1545 -1.7351
 3139SOL     OW21049   3.396   3.056   7.392 -0.4508  0.0524  0.4110
 3139SOL    HW121050   3.378   3.130   7.335 -2.0438  0.5780  1.6376
 3139SOL    HW221051   3.456   3.099   7.453  0.0166  1.3395 -0.9627
 3140SOL     OW21052   2.262   2.899   2.580 -0.0075  0.1530 -0.2164
 3140SOL    HW121053   2.275   2.856   2.495 -1.0776 -0.2997 -0.1554
 3140SOL    HW221054   2.169   2.907   2.601  0.1838  0.0650  0.6388
 3141SOL     OW21055   2.815   2.935   9.570  0.1094 -0.2973  0.1317
 3141SOL    HW121056   2.839   2.842   9.575  1.0500 -0.1711 -1.9876
 3141SOL    HW221057   2.769   2.941   9.487 -0.0112  0.3323  0.2460
 3142SOL     OW21058   2.611   1.189   4.480 -0.1960 -0.0077  0.4803
 3142SOL    HW121059   2.640   1.278   4.461 -2.6781  0.5287 -0.6621
 3142SOL    HW221060   2.525   1.181   4.439 -0.7526  0.9710  1.4508
 3143SOL     OW21061   4.449   1.137   6.765  0.3200 -0.6032 -0.1307
 3143SOL    HW121062   4.389   1.101   6.831  0.8072  2.4463  1.9809
 3143SOL    HW221063   4.515   1.171   6.825  0.1880  0.2725 -0.4913
 3144SOL     OW21064   3.434   3.374   8.849  0.5007 -0.0003  0.0067
 3144SOL    HW121065   3.340   3.381   8.867  0.3470 -0.8261 -0.4565
 3144SOL    HW221066   3.453   3.280   8.849  0.1184 -0.0749  1.4357
 3145SOL     OW21067   0.593   1.042   4.435  0.3076  0.0788  0.6471
 3145SOL    HW121068   0.643   1.113   4.395  2.1748 -1.2244  0.6582
 3145SOL    HW221069   0.591   0.981   4.361 -2.5296  0.8716  0.0715
 3146SOL     OW21070   0.955   0.310   5.498 -0.2620  0.1243 -0.0146
 3146SOL    HW121071   0.917   0.364   5.429  0.0151  0.6741  0.2670
 3146SOL    HW221072   0.884   0.248   5.514 -0.1386 -0.1324 -0.4511
 3147SOL     OW21073   1.511   3.622   4.614  1.2583 -0.0240  0.2587
 3147SOL    HW121074   1.545   3.533   4.612  0.9251 -0.1549  0.4854
 3147SOL    HW221075   1.464   3.629   4.697 -0.3601  1.4260 -0.7724
 3148SOL     OW21076   2.737   4.102   7.155  0.4347  0.0825  0.0625
 3148SOL    HW121077   2.706   4.111   7.065  0.4622  1.4343  0.1961
 3148SOL    HW221078   2.725   4.191   7.187  0.7226  0.1070  0.1031
 3149SOL     OW21079   3.331   3.498   8.369 -0.0226 -0.1709  0.6922
 3149SOL    HW121080   3.361   3.509   8.460 -1.4012  0.7327  1.0276
 3149SOL    HW221081   3.253   3.551   8.383 -0.0650 -0.3419  1.1145
 3150SOL     OW21082   3.621   0.176   0.515 -0.7022  0.0792  0.2079
 3150SOL    HW121083   3.592   0.256   0.472 -0.3498  0.4125  0.5835
 3150SOL    HW221084   3.562   0.119   0.466 -0.1254 -1.1092  0.8977
 3151SOL     OW21085   2.981   1.772   3.199  0.0762 -0.3660 -0.0830
 3151SOL    HW121086   2.895   1.777   3.158 -0.0597 -1.8303  0.0289
 3151SOL    HW221087   3.017   1.861   3.196  1.2360 -0.7973  1.0532
 3152SOL     OW21088   2.617   3.967   7.590 -0.3183 -0.5647 -0.4560
 3152SOL    HW121089   2.575   3.891   7.629 -2.1126  0.4700 -0.3452
 3152SOL    HW221090   2.710   3.953   7.603  0.1071  0.5751 -2.2146
 3153SOL     OW21091   4.594   2.766   3.346 -0.6107  0.2922  0.0452
 3153SOL    HW121092   4.676   2.794   3.386 -0.6611 -0.2701  0.5498
 3153SOL    HW221093   4.533   2.807   3.407 -1.0083 -0.0028 -0.1538
 3154SOL     OW21094   2.048   1.731   8.849  0.3570 -0.1053  0.1639
 3154SOL    HW121095   1.978   1.739   8.914  1.1284  2.7432  0.6362
 3154SOL    HW221096   2.001   1.766   8.773  1.8148 -1.5794 -1.4188
 3155SOL     OW21097   0.109   0.411   8.646  0.8474 -0.8274  0.2780
 3155SOL    HW121098   0.101   0.366   8.562 -1.0784 -0.3051  0.2029
 3155SOL    HW221099   0.205   0.406   8.649  0.8286 -2.0547 -0.7104
 3156SOL     OW21100   0.335   4.627   6.059 -0.3226 -0.0417 -0.0792
 3156SOL    HW121101   0.344   4.720   6.080  1.2368  0.1183 -1.5014
 3156SOL    HW221102   0.430   4.616   6.060 -0.3913 -0.5127  2.5941
 3157SOL     OW21103   1.653   3.701  14.348 -0.0120 -0.3726  0.1118
 3157SOL    HW121104   1.672   3.794  14.344  2.6517 -0.9039  0.5107
 3157SOL    HW221105   1.559   3.717  14.338 -0.4618 -1.5115  2.5144
 3158SOL     OW21106   2.137   2.011   5.459 -0.2643 -0.0059  0.2191
 3158SOL    HW121107   2.114   1.926   5.497 -0.5192  0.3528  0.8540
 3158SOL    HW221108   2.059   2.059   5.486 -1.5082 -0.3087 -2.8826
 3159SOL     OW21109   4.110   1.966   0.892 -0.3061 -0.8016 -0.0829
 3159SOL    HW121110   4.112   2.042   0.951 -3.1219  0.2422 -1.3484
 3159SOL    HW221111   4.199   1.932   0.907  0.3822  0.6325 -1.0005
 3160SOL     OW21112   3.082   2.155   7.915 -0.7747  0.1648  0.3396
 3160SOL    HW121113   3.156   2.208   7.945  0.3041 -1.5038  0.5877
 3160SOL    HW221114   3.118   2.105   7.842 -1.4016  0.6716 -0.3149
 3161SOL     OW21115   4.119   4.070   6.294  0.4529 -0.3459  0.0359
 3161SOL    HW121116   4.120   3.977   6.314 -1.7332 -0.1833  0.9022
 3161SOL    HW221117   4.038   4.078   6.243  2.2551 -0.5944 -2.8925
 3162SOL     OW21118   1.020   3.759  15.282 -0.1174  0.2037  0.1767
 3162SOL    HW121119   1.021   3.804  15.197 -1.1931  1.1786  0.6831
 3162SOL    HW221120   1.095   3.797  15.326  3.1500 -1.5617 -3.8245
 3163SOL     OW21121   2.745   4.461   7.964 -0.3460 -0.4713  0.5118
 3163SOL    HW121122   2.666   4.435   8.011 -0.5456  0.3311  0.6198
 3163SOL    HW221123   2.796   4.381   7.954  2.3949  1.3400  0.1029
 3164SOL     OW21124   2.028   2.048   6.276  0.4272 -0.8340  0.0125
 3164SOL    HW121125   2.034   2.083   6.366  1.4195  2.4805 -1.3411
 3164SOL    HW221126   2.122   2.043   6.261 -0.0907  0.9229 -3.7317
 3165SOL     OW21127   2.558   3.415   3.141  0.4228  0.1116  0.1384
 3165SOL    HW121128   2.640   3.401   3.095  0.9114  0.7456  0.8087
 3165SOL    HW221129   2.522   3.326   3.142  0.8648 -0.0887 -2.9416
 3166SOL     OW21130   0.083   3.322  10.377 -0.1696  0.4866  0.0746
 3166SOL    HW121131   4.728   3.292  10.373  0.5676 -1.9151  1.5517
 3166SOL    HW221132   0.083   3.395  10.315 -0.4950  2.5614  2.5290
 3167SOL     OW21133   2.340   3.266   7.584 -0.3091  0.4027 -0.1482
 3167SOL    HW121134   2.268   3.211   7.553 -0.0336 -0.0925  0.0741
 3167SOL    HW221135   2.298   3.341   7.543 -1.4455  0.2132  0.6643
 3168SOL     OW21136   1.273   3.746   6.000 -0.3957  0.1021 -0.0206
 3168SOL    HW121137   1.212   3.683   5.960  0.4957 -0.0699 -1.1107
 3168SOL    HW221138   1.273   3.724   6.094 -3.3107 -0.9375 -0.2737
 3169SOL     OW21139   0.778   1.722   6.900  0.0818  0.0893  0.5325
 3169SOL    HW121140   0.736   1.674   6.828  1.5066 -0.4950  0.0958
 3169SOL    HW221141   0.829   1.785   6.849  1.0342 -1.8642 -0.9244
 3170SOL     OW21142   3.496   4.009   1.483 -0.2893 -0.2534  0.1470
 3170SOL    HW121143   3.485   4.051   1.568 -2.1487 -1.7225  0.6203
 3170SOL    HW221144   3.412   4.037   1.444 -0.1161 -1.5868 -1.1457
 3171SOL     OW21145   1.278   0.466   5.048  0.2685  0.7055 -0.0094
 3171SOL    HW121146   1.233   0.550   5.060  1.4162  1.0364  1.9048
 3171SOL    HW221147   1.364   0.505   5.062 -0.0418  1.0726  0.9097
 3172SOL     OW21148   2.307   1.391   8.239 -0.0028 -0.1772 -0.0361
 3172SOL    HW121149   2.366   1.423   8.307  0.0005 -1.8893  0.7699
 3172SOL    HW221150   2.335   1.300   8.229 -0.4435 -0.1341 -1.5731
 3173SOL     OW21151   2.783   0.521   4.312  0.0753  0.7654 -0.3324
 3173SOL    HW121152   2.695   0.492   4.287  0.1386  0.6584 -0.4315
 3173SOL    HW221153   2.783   0.584   4.240  1.3070  2.8300  1.4891
 3174SOL     OW21154   4.236   2.801   8.720 -0.0479  0.1469 -0.0515
 3174SOL    HW121155   4.275   2.771   8.638 -3.3093  0.9679 -1.9046
 3174SOL    HW221156   4.168   2.736   8.733 -0.6444  0.4220 -1.6951
 3175SOL     OW21157   2.350   1.817   7.178 -0.5103  0.2097 -0.5896
 3175SOL    HW121158   2.380   1.769   7.255 -0.0583  0.3317 -0.6904
 3175SOL    HW221159   2.426   1.821   7.120 -0.2676  1.9937 -0.1312
 3176SOL     OW21160   0.247   2.942  13.484  0.0568 -0.7248  0.4618
 3176SOL    HW121161   0.309   3.010  13.458  0.8620 -2.9197 -3.3607
 3176SOL    HW221162   0.302   2.864  13.496 -0.9452 -1.7321 -1.5796
 3177SOL     OW21163   2.965   3.216   6.495  0.4920 -0.3441 -0.1731
 3177SOL    HW121164   2.912   3.150   6.450 -0.1257  0.4081 -0.5565
 3177SOL    HW221165   3.055   3.188   6.481  0.3778 -0.0019 -1.5445
 3178SOL     OW21166   2.343   4.070   4.238 -0.3664  0.0080  0.4712
 3178SOL    HW121167   2.384   4.147   4.198 -0.3857 -0.2197  0.0097
 3178SOL    HW221168   2.352   4.090   4.331 -0.1285 -0.0082  0.4518
 3179SOL     OW21169   3.191   3.054  11.786 -0.0845  0.0113 -0.0711
 3179SOL    HW121170   3.144   3.129  11.824 -2.1970 -0.0869 -2.4967
 3179SOL    HW221171   3.146   3.053  11.701 -0.4482 -1.9607  0.1390
 3180SOL     OW21172   2.731   2.482  10.449  0.1427  0.2959 -0.2295
 3180SOL    HW121173   2.656   2.542  10.445  0.1155  0.3218  0.7332
 3180SOL    HW221174   2.740   2.468  10.354  0.7795  0.4779 -0.1973
 3181SOL     OW21175   4.297   3.269   7.726  0.1654 -0.6488 -0.3911
 3181SOL    HW121176   4.374   3.217   7.705  0.3729 -0.2544 -0.6196
 3181SOL    HW221177   4.237   3.227   7.664 -0.3456 -2.6940  1.5376
 3182SOL     OW21178   3.306   0.903   2.929  0.1987  0.1989 -0.1421
 3182SOL    HW121179   3.284   0.881   3.019 -1.5385 -1.4361 -0.9678
 3182SOL    HW221180   3.302   0.998   2.938 -1.0293  0.0823  0.5443
 3183SOL     OW21181   2.315   4.252   8.642 -0.2825 -0.6067  0.1690
 3183SOL    HW121182   2.297   4.279   8.552 -2.1353  0.3749  0.8258
 3183SOL    HW221183   2.238   4.202   8.671 -0.1268 -0.3876  0.9473
 3184SOL     OW21184   0.855   1.959   5.303 -0.7308 -0.1021 -0.0815
 3184SOL    HW121185   0.872   2.035   5.248 -0.0169  0.7362  1.2923
 3184SOL    HW221186   0.791   1.999   5.362 -2.2729 -1.5113 -0.8046
 3185SOL     OW21187   2.371   2.418   7.467  0.6867 -0.2311  0.1062
 3185SOL    HW121188   2.301   2.377   7.416 -1.8723 -0.1120  3.4933
 3185SOL    HW221189   2.452   2.381   7.431 -0.0093 -1.7185  0.0265
 3186SOL     OW21190   4.705   1.390  15.734  0.1086 -0.0849 -0.2855
 3186SOL    HW121191   4.623   1.435  15.714  0.6069  1.0024  0.0850
 3186SOL    HW221192   4.702   1.409  15.828 -0.1886 -2.1776  0.1307
 3187SOL     OW21193   0.482   3.069   2.619  0.0296  0.1426 -0.5320
 3187SOL    HW121194   0.563   3.058   2.569  0.6530 -1.5270  0.8599
 3187SOL    HW221195   0.421   3.112   2.558 -0.5090 -0.8900 -0.7299
 3188SOL     OW21196   0.732   2.023   5.945  0.2493 -0.2772  0.2613
 3188SOL    HW121197   0.680   2.095   5.980  3.4654  1.9899  0.3332
 3188SOL    HW221198   0.777   1.984   6.019  1.1632  1.9411  0.8846
 3189SOL     OW21199   2.568   1.202   4.804 -0.5070 -0.1151 -0.4138
 3189SOL    HW121200   2.591   1.212   4.711  1.3478 -2.4398 -0.2161
 3189SOL    HW221201   2.546   1.109   4.813  2.4243 -0.5449  2.0951
 3190SOL     OW21202   3.508   3.232   4.341  0.1177 -0.2818  0.2303
 3190SOL    HW121203   3.594   3.217   4.301 -0.4217 -0.3495 -0.9049
 3190SOL    HW221204   3.463   3.268   4.265 -0.3349 -1.0331  0.1412
 3191SOL     OW21205   0.547   4.465   6.112 -0.4722  0.2387  0.0914
 3191SOL    HW121206   0.496   4.393   6.150 -1.3856  1.9623  2.1165
 3191SOL    HW221207   0.629   4.447   6.158 -1.8154  0.5956  2.6170
 3192SOL     OW21208   2.135   0.179   2.856  0.5156  0.3850 -0.2812
 3192SOL    HW121209   2.128   0.268   2.822 -1.2488  1.1843  2.1653
 3192SOL    HW221210   2.050   0.143   2.833  0.2884  0.4035  0.5338
 3193SOL     OW21211   3.685   3.498   8.876 -0.1075 -0.0929 -0.6205
 3193SOL    HW121212   3.711   3.523   8.788  0.7060  0.8345 -0.1280
 3193SOL    HW221213   3.615   3.437   8.853  0.2487 -1.4991  1.9335
 3194SOL     OW21214   2.561   0.205   6.586 -0.0521  0.1742  0.0155
 3194SOL    HW121215   2.476   0.235   6.555  1.3491  2.1799 -1.8937
 3194SOL    HW221216   2.557   0.216   6.681  0.0795 -0.9550  0.1616
 3195SOL     OW21217   2.034   1.353   8.222  0.1593  0.1974  0.4100
 3195SOL    HW121218   1.984   1.310   8.292  1.3949 -0.4266  0.9021
 3195SOL    HW221219   2.125   1.343   8.251  0.0283 -0.3711  0.6258
 3196SOL     OW21220   4.658   1.490   7.921  0.4986  0.2249 -0.1916
 3196SOL    HW121221   4.698   1.456   8.001 -0.7300 -2.4456 -0.7142
 3196SOL    HW221222   4.636   1.404   7.885 -0.7956  0.7420 -0.6091
 3197SOL     OW21223   1.189   4.065   3.942 -0.0570  0.3047  0.7906
 3197SOL    HW121224   1.147   4.097   4.021 -1.6885  0.0361  0.0216
 3197SOL    HW221225   1.116   4.019   3.901 -0.2495  0.8315  0.5329
 3198SOL     OW21226   1.232   1.542  13.503 -0.1344 -0.3352  0.0510
 3198SOL    HW121227   1.164   1.489  13.546 -0.7113 -1.6217 -2.4399
 3198SOL    HW221228   1.299   1.474  13.494 -0.0552 -0.2957  0.3359
 3199SOL     OW21229   0.763   0.947   9.901  0.8154  0.3667  0.0398
 3199SOL    HW121230   0.716   0.915   9.978  1.4982  0.3448  0.4434
 3199SOL    HW221231   0.684   0.947   9.847  0.4726 -2.0515  0.5516
 3200SOL     OW21232   2.058   0.604   5.917 -0.2566 -0.3065 -0.1419
 3200SOL    HW121233   2.114   0.529   5.936 -1.9425 -1.5707 -0.2217
 3200SOL    HW221234   2.055   0.587   5.823  2.1475  2.4507 -0.6940
 3201SOL     OW21235   2.569   2.112   2.276  0.4494 -0.3565 -0.1159
 3201SOL    HW121236   2.505   2.180   2.293 -1.3119 -2.3872  1.2985
 3201SOL    HW221237   2.652   2.158   2.265  1.4581 -2.6774 -2.2646
 3202SOL     OW21238   1.736   0.485   0.026 -0.1401 -0.2323  0.0660
 3202SOL    HW121239   1.748   0.526   0.111 -1.5412  0.5835 -0.1361
 3202SOL    HW221240   1.827   0.472   0.002 -0.6256  0.9936 -2.4211
 3203SOL     OW21241   1.475   3.560  16.216 -0.4063 -0.7433 -0.8279
 3203SOL    HW121242   1.502   3.610  16.293 -0.1589  1.0661 -2.0817
 3203SOL    HW221243   1.514   3.473  16.229  2.0989  0.1976 -2.0094
 3204SOL     OW21244   4.056   0.443   3.145 -0.4378 -0.0733  0.4415
 3204SOL    HW121245   4.122   0.450   3.077 -0.8169  1.8081  0.2893
 3204SOL    HW221246   4.083   0.368   3.199  1.8959  0.6920  0.3451
 3205SOL     OW21247   3.196   0.255   0.122  0.2282  0.2466  0.3506
 3205SOL    HW121248   3.129   0.317   0.152 -0.9492 -1.3303  0.9829
 3205SOL    HW221249   3.274   0.310   0.109 -0.9528  2.7193  3.5506
 3206SOL     OW21250   3.640   0.770   7.825 -0.3638  0.5595 -0.0311
 3206SOL    HW121251   3.714   0.758   7.765 -0.1965  0.2881  0.2296
 3206SOL    HW221252   3.662   0.696   7.881  1.1511  1.4910  0.6086
 3207SOL     OW21253   1.866   1.582  10.209  0.7368  0.1328  0.0608
 3207SOL    HW121254   1.852   1.557  10.301 -0.8021  0.4034 -0.0976
 3207SOL    HW221255   1.789   1.535  10.179 -0.1956  0.9156  1.1971
 3208SOL     OW21256   3.476   4.377   1.802 -0.2594 -0.0217  0.2208
 3208SOL    HW121257   3.413   4.444   1.829 -0.1575  0.0760  0.2137
 3208SOL    HW221258   3.557   4.409   1.842 -0.6579  1.6626 -0.3309
 3209SOL     OW21259   0.823   0.012   1.719 -0.4607  0.4068 -0.5026
 3209SOL    HW121260   0.902   0.053   1.753  0.1250  0.5009 -1.9570
 3209SOL    HW221261   0.763   0.086   1.713 -1.1315 -0.0282  0.9012
 3210SOL     OW21262   3.160   2.835   5.166 -0.3065 -0.4735  0.0814
 3210SOL    HW121263   3.133   2.790   5.246 -1.6025 -1.4136 -0.8884
 3210SOL    HW221264   3.070   2.838   5.134 -0.0555  2.0682 -0.3965
 3211SOL     OW21265   1.305   1.191   1.988  0.0149  0.5938 -0.1187
 3211SOL    HW121266   1.327   1.231   1.904  1.8930  4.1220  2.0552
 3211SOL    HW221267   1.295   1.098   1.971  1.6024  0.3327  0.3815
 3212SOL     OW21268   2.647   0.729   6.407  0.9375  0.5919  0.6255
 3212SOL    HW121269   2.666   0.649   6.357 -1.0994  0.0946  0.6473
 3212SOL    HW221270   2.669   0.799   6.344  2.2311 -0.6253 -0.2694
 3213SOL     OW21271   1.816   3.413   1.620 -0.2240  0.3515  0.1280
 3213SOL    HW121272   1.749   3.423   1.553 -0.2873 -0.6807  0.0272
 3213SOL    HW221273   1.784   3.348   1.683 -0.0512  0.2432  0.1050
 3214SOL     OW21274   3.999   3.529   5.209  0.1713 -0.0255 -0.2754
 3214SOL    HW121275   4.020   3.595   5.275  1.6313  1.0375 -1.8369
 3214SOL    HW221276   3.905   3.512   5.211  0.4403 -1.4207  0.7462
 3215SOL     OW21277   4.400   1.162  11.832 -0.0392  0.5560  1.0553
 3215SOL    HW121278   4.352   1.108  11.895 -0.0203 -0.0155  0.5861
 3215SOL    HW221279   4.346   1.241  11.834  0.8677  1.2094 -1.1678
 3216SOL     OW21280   1.938   0.643   4.971  0.6374 -0.2740  0.2266
 3216SOL    HW121281   1.850   0.658   4.936 -0.1049 -0.7801  1.8612
 3216SOL    HW221282   1.922   0.605   5.057  0.5761  0.2803  0.4561
 3217SOL     OW21283   3.152   3.250   7.524 -0.1796 -0.2501 -0.2773
 3217SOL    HW121284   3.075   3.247   7.467  0.1430  1.1576 -0.7875
 3217SOL    HW221285   3.145   3.159   7.553  1.3252 -1.0356 -2.3564
 3218SOL     OW21286   2.125   3.364  17.036 -1.0410 -0.1562  0.2553
 3218SOL    HW121287   2.060   3.307  16.995  2.2908 -2.3472 -1.8513
 3218SOL    HW221288   2.160   3.312  17.109 -0.0905 -0.0316 -0.1126
 3219SOL     OW21289   1.667   0.485   4.540 -0.4091  0.4865 -0.0357
 3219SOL    HW121290   1.631   0.466   4.453 -2.7089  0.2075  0.9808
 3219SOL    HW221291   1.664   0.398   4.578  2.0470 -0.1313 -1.2405
 3220SOL     OW21292   0.627   2.220   4.560 -0.0466  0.0912 -0.1504
 3220SOL    HW121293   0.559   2.275   4.599 -0.1040  0.1884 -0.3872
 3220SOL    HW221294   0.585   2.159   4.499 -0.7099  0.0350  0.3624
 3221SOL     OW21295   3.404   3.437   4.854 -0.4040  0.0692 -0.4299
 3221SOL    HW121296   3.429   3.357   4.807  2.1112  0.0989  0.8531
 3221SOL    HW221297   3.321   3.406   4.889 -0.5613  1.7068  0.6556
 3222SOL     OW21298   3.606   3.109   3.938 -0.2229  0.5038  0.1586
 3222SOL    HW121299   3.554   3.063   3.872 -0.5433 -0.5776  1.1806
 3222SOL    HW221300   3.696   3.079   3.927 -0.3433  0.0836  0.3454
 3223SOL     OW21301   0.518   0.704   6.596  0.1795 -0.1387 -0.0272
 3223SOL    HW121302   0.447   0.643   6.574 -0.5563  1.1815 -1.3276
 3223SOL    HW221303   0.526   0.690   6.691 -2.2562  1.7471  0.4864
 3224SOL     OW21304   4.113   1.411   7.179  0.1805 -0.5884 -0.0135
 3224SOL    HW121305   4.046   1.469   7.215  1.1278  0.0047  0.7941
 3224SOL    HW221306   4.190   1.458   7.210 -0.6120  0.2417  0.6822
 3225SOL     OW21307   0.924   3.347   4.380  0.1293 -0.6213  0.1895
 3225SOL    HW121308   0.902   3.323   4.290 -0.0949 -2.8875  0.8416
 3225SOL    HW221309   0.907   3.265   4.426  0.9080 -1.5774 -1.2199
 3226SOL     OW21310   2.415   0.208  12.763 -0.0558 -0.7395 -0.2154
 3226SOL    HW121311   2.404   0.220  12.668  0.2607  0.0152 -0.1556
 3226SOL    HW221312   2.509   0.200  12.776 -0.3159 -1.1714  1.3590
 3227SOL     OW21313   2.121   4.126   5.222 -0.4539 -0.2429  0.2323
 3227SOL    HW121314   2.139   4.166   5.136 -1.8320 -0.6397 -0.2503
 3227SOL    HW221315   2.187   4.057   5.215 -0.9638 -0.7495  0.4003
 3228SOL     OW21316   3.747   4.099   3.934 -0.3462  0.2787 -0.5218
 3228SOL    HW121317   3.729   4.008   3.956 -3.1376  1.6914  3.0831
 3228SOL    HW221318   3.776   4.136   4.017 -1.8951 -0.2149  0.2426
 3229SOL     OW21319   0.812   1.847   1.721  0.2846 -0.4991 -0.6808
 3229SOL    HW121320   0.846   1.936   1.730 -1.0919  0.0490 -0.8876
 3229SOL    HW221321   0.885   1.791   1.746 -0.7548 -2.1805 -1.4375
 3230SOL     OW21322   1.307   1.399   5.665  0.4066 -0.2623  0.4393
 3230SOL    HW121323   1.223   1.356   5.652  0.2019 -0.2325  1.7019
 3230SOL    HW221324   1.298   1.437   5.752 -1.8919  0.5803 -0.1832
 3231SOL     OW21325   3.449   4.612   0.083  0.1561 -0.0710 -0.1466
 3231SOL    HW121326   3.464   4.674   0.155 -0.0647 -1.4078  1.0484
 3231SOL    HW221327   3.360   4.583   0.101  0.1747  0.4843  0.8522
 3232SOL     OW21328   3.452   3.506  10.231  0.5250 -0.8812  0.2561
 3232SOL    HW121329   3.358   3.501  10.212  0.7034 -0.2033 -0.8290
 3232SOL    HW221330   3.470   3.599  10.244  1.3099 -1.2108  1.4946
 3233SOL     OW21331   4.681   4.189   9.183 -0.6070  0.5816 -0.1421
 3233SOL    HW121332   4.608   4.235   9.141 -2.3268  0.3901  2.6376
 3233SOL    HW221333   4.663   4.095   9.176  2.7865 -0.0042 -1.1576
 3234SOL     OW21334   0.022   3.252  15.353 -0.3235  0.0315 -0.2216
 3234SOL    HW121335   4.695   3.323  15.346 -0.0316  0.4888  1.8148
 3234SOL    HW221336   0.099   3.303  15.329 -0.4569 -0.2620 -1.2950
 3235SOL     OW21337   4.721   3.995  15.342  0.6876  0.0945 -0.1953
 3235SOL    HW121338   0.004   3.909  15.379 -0.4557  1.6529  4.0497
 3235SOL    HW221339   4.628   4.002  15.362  1.3667 -0.8586  3.2962
 3236SOL     OW21340   4.574   0.834   4.376 -0.3892  0.1198 -0.0193
 3236SOL    HW121341   4.506   0.794   4.431 -0.6541 -1.9305 -1.8438
 3236SOL    HW221342   4.568   0.926   4.402 -0.0257  0.9678 -3.0379
 3237SOL     OW21343   4.469   1.870   5.212  0.1692  0.6830  0.1159
 3237SOL    HW121344   4.527   1.923   5.157  1.6405  1.1188  2.1062
 3237SOL    HW221345   4.490   1.911   5.296 -0.5660  2.1077 -0.3909
 3238SOL     OW21346   3.225   0.568   7.966  0.1607 -0.0654 -0.4771
 3238SOL    HW121347   3.141   0.576   7.920  1.0165  0.4492 -1.9367
 3238SOL    HW221348   3.239   0.658   7.994 -0.0551  0.1194 -0.9525
 3239SOL     OW21349   1.242   3.474  13.219  0.5849  0.5252  0.5431
 3239SOL    HW121350   1.168   3.485  13.160 -1.0658 -0.0450  2.4972
 3239SOL    HW221351   1.200   3.460  13.304 -1.9199 -0.4205 -0.8749
 3240SOL     OW21352   0.736   3.495  13.947  0.8456  0.2382  0.2125
 3240SOL    HW121353   0.655   3.537  13.975  0.4754 -1.3710  1.5553
 3240SOL    HW221354   0.726   3.514  13.854  1.7910 -0.8797 -0.1133
 3241SOL     OW21355   2.705   4.362   2.571 -0.2908  0.2762  0.1307
 3241SOL    HW121356   2.656   4.444   2.585  0.0615  0.1754  2.0313
 3241SOL    HW221357   2.752   4.357   2.654 -3.7921  0.9970  2.1889
 3242SOL     OW21358   4.119   4.518   6.470  0.7973  0.4913  0.8546
 3242SOL    HW121359   4.053   4.465   6.514 -0.4181  0.8420 -0.5153
 3242SOL    HW221360   4.166   4.444   6.431 -0.2560 -0.6200  1.7101
 3243SOL     OW21361   3.034   0.462   4.106  0.2825  0.2148 -0.1203
 3243SOL    HW121362   3.024   0.367   4.093  0.4436  0.5627 -2.6877
 3243SOL    HW221363   2.999   0.470   4.195  0.9277  1.0448  0.0473
 3244SOL     OW21364   2.562   3.752   3.732  0.7844 -0.2988  0.0310
 3244SOL    HW121365   2.609   3.792   3.805 -1.0428 -0.2854  1.1998
 3244SOL    HW221366   2.513   3.828   3.699  2.5032  0.5205 -0.5950
 3245SOL     OW21367   4.701   4.164   3.592 -0.1204  0.1007 -0.7549
 3245SOL    HW121368   4.681   4.211   3.673  0.8142 -0.1777 -0.3666
 3245SOL    HW221369   4.635   4.207   3.536 -1.1232  1.6960  1.6703
 3246SOL     OW21370   0.192   3.834   2.382 -0.3770  0.3676  0.1561
 3246SOL    HW121371   0.209   3.833   2.476 -2.1077 -1.9828  0.4296
 3246SOL    HW221372   0.262   3.895   2.358 -0.1761  0.0595 -0.0419
 3247SOL     OW21373   2.476   2.037   8.978  0.6806 -0.6558 -0.3438
 3247SOL    HW121374   2.489   2.111   9.037 -0.5163  0.4979 -1.5136
 3247SOL    HW221375   2.422   2.076   8.909 -1.1799 -1.1895  0.7978
 3248SOL     OW21376   3.300   4.504  12.080 -0.5369 -0.0640  0.2184
 3248SOL    HW121377   3.386   4.546  12.087 -0.0324 -1.1570  0.5857
 3248SOL    HW221378   3.271   4.568  12.015 -1.2771 -0.1843  0.4278
 3249SOL     OW21379   0.083   2.998  10.402 -0.5735 -1.0813 -1.0291
 3249SOL    HW121380   0.068   2.932  10.469 -0.0669 -0.4121 -0.2563
 3249SOL    HW221381   0.137   3.056  10.456 -2.6353 -1.9787  1.9632
 3250SOL     OW21382   1.859   4.621   4.371  0.3407 -0.2142 -0.2040
 3250SOL    HW121383   1.944   4.609   4.414  0.2917 -0.4811 -0.1855
 3250SOL    HW221384   1.812   4.549   4.413  0.3316 -0.5693 -0.8238
 3251SOL     OW21385   3.610   3.972   7.506 -0.0520  0.1578  0.0127
 3251SOL    HW121386   3.561   3.895   7.478  0.0369  0.7136 -1.7205
 3251SOL    HW221387   3.643   3.949   7.593 -0.5832  3.4114  1.0656
 3252SOL     OW21388   4.523   3.414  13.295  0.2586 -0.6455 -0.2475
 3252SOL    HW121389   4.532   3.416  13.200 -1.2127 -1.7394 -0.4093
 3252SOL    HW221390   4.558   3.330  13.323 -0.5700 -0.6710  0.7177
 3253SOL     OW21391   4.477   2.224  16.358  0.7994 -0.0732  0.0862
 3253SOL    HW121392   4.424   2.149  16.331 -1.7755  0.9032  2.4864
 3253SOL    HW221393   4.494   2.266  16.274  1.1624 -0.6428 -0.1236
 3254SOL     OW21394   2.341   1.150   8.113  0.5187  0.4771  0.8169
 3254SOL    HW121395   2.352   1.056   8.097 -1.6000  0.2445  0.6830
 3254SOL    HW221396   2.334   1.187   8.025 -0.5951 -0.4834  0.5013
 3255SOL     OW21397   3.506   1.728  17.307  0.7339 -0.0300 -0.0038
 3255SOL    HW121398   3.563   1.693  17.239  1.4343 -0.4823  0.8248
 3255SOL    HW221399   3.423   1.697  17.271  2.4644 -2.6228 -1.7956
 3256SOL     OW21400   3.778   0.619   5.431 -0.3937  0.8492 -0.2139
 3256SOL    HW121401   3.731   0.539   5.409  2.0981 -0.4380 -0.8745
 3256SOL    HW221402   3.830   0.607   5.511 -1.3800 -0.9879  0.1492
 3257SOL     OW21403   4.243   3.633   2.892 -0.1839  0.5075  0.6361
 3257SOL    HW121404   4.239   3.726   2.915 -1.6053 -0.0216  2.5703
 3257SOL    HW221405   4.167   3.628   2.833 -1.2417 -2.4920  2.2192
 3258SOL     OW21406   1.882   3.511   0.847  0.1429  0.4011 -0.0915
 3258SOL    HW121407   1.788   3.496   0.843  0.0661  0.4620  1.6459
 3258SOL    HW221408   1.881   3.606   0.832 -0.0031  0.0128 -2.6419
 3259SOL     OW21409   1.810   0.466  13.560 -0.3029  0.6974 -0.2667
 3259SOL    HW121410   1.731   0.505  13.524 -0.2433 -0.2045 -1.3753
 3259SOL    HW221411   1.782   0.416  13.638  3.0401 -1.6960 -0.6034
 3260SOL     OW21412   2.300   2.538   6.862 -0.6652 -0.2492  0.2239
 3260SOL    HW121413   2.276   2.453   6.900  0.8549 -0.1054  1.5216
 3260SOL    HW221414   2.347   2.573   6.939  1.3550  0.3734 -1.2909
 3261SOL     OW21415   0.901   1.028   0.534 -0.7366 -0.0763  0.3671
 3261SOL    HW121416   0.893   1.099   0.597  1.0440  0.1774  0.2932
 3261SOL    HW221417   0.814   1.008   0.499 -0.0908 -1.3896 -0.5069
 3262SOL     OW21418   0.709   2.111   4.226 -0.3245 -0.0903 -0.1141
 3262SOL    HW121419   0.689   2.077   4.139 -0.0603 -1.0037  0.1882
 3262SOL    HW221420   0.628   2.095   4.276 -0.5488 -0.5459 -0.6276
 3263SOL     OW21421   0.012   3.833   7.385 -0.0554 -0.7400  0.4603
 3263SOL    HW121422   4.674   3.838   7.445 -0.8624  1.4156 -0.6757
 3263SOL    HW221423   0.068   3.895   7.432  1.4939 -2.1646  0.4715
 3264SOL     OW21424   1.161   0.413   0.392 -0.1002  0.2299 -0.3623
 3264SOL    HW121425   1.212   0.436   0.470 -0.4005  0.1818 -0.1503
 3264SOL    HW221426   1.136   0.325   0.422 -0.6694  0.3190 -0.5634
 3265SOL     OW21427   1.327   1.507   5.361 -0.6502  0.3216 -0.3519
 3265SOL    HW121428   1.261   1.465   5.416 -0.2281  0.5820  0.3551
 3265SOL    HW221429   1.292   1.596   5.368  1.3512  1.1206 -0.3124
 3266SOL     OW21430   0.232   3.243   0.163 -0.4578  0.2047  1.0072
 3266SOL    HW121431   0.322   3.275   0.168 -0.2672 -0.0551 -0.5824
 3266SOL    HW221432   0.235   3.149   0.180  0.3049  0.4624  2.2925
 3267SOL     OW21433   3.247   1.578  14.340  0.0990 -0.0458  0.1613
 3267SOL    HW121434   3.304   1.514  14.297  0.9663  0.9269 -0.1380
 3267SOL    HW221435   3.289   1.662  14.323 -1.6526  0.9224  0.6721
 3268SOL     OW21436   4.092   4.605   1.295  0.9946  0.4974 -0.1471
 3268SOL    HW121437   4.149   4.669   1.337 -0.5508  2.0322 -0.4110
 3268SOL    HW221438   4.013   4.658   1.284 -0.9976 -2.2160  0.8631
 3269SOL     OW21439   0.946   1.164   4.565 -0.5357  0.4915  0.0168
 3269SOL    HW121440   0.913   1.139   4.651  3.3403 -0.3043  1.2697
 3269SOL    HW221441   0.912   1.253   4.559  1.1489  1.0868 -0.7464
 3270SOL     OW21442   3.380   2.296  12.608  0.0813  0.2290 -0.7290
 3270SOL    HW121443   3.392   2.201  12.611 -1.7011  0.0091 -0.4092
 3270SOL    HW221444   3.462   2.324  12.567  0.4317 -1.6284 -1.2911
 3271SOL     OW21445   2.049   3.302   0.798 -0.7674 -0.1680 -0.4148
 3271SOL    HW121446   2.123   3.362   0.788  0.7549 -2.1185 -0.6147
 3271SOL    HW221447   1.977   3.361   0.824  1.2682  0.5376  3.6613
 3272SOL     OW21448   2.562   1.276   7.797 -0.2924  0.4430  0.4215
 3272SOL    HW121449   2.603   1.330   7.864  1.3184 -0.1487 -0.0956
 3272SOL    HW221450   2.469   1.295   7.808 -0.6424 -0.7054 -0.6231
 3273SOL     OW21451   1.962   2.725   6.136  0.8555  0.1252  0.6659
 3273SOL    HW121452   1.962   2.748   6.043  0.4671 -0.4256  0.5285
 3273SOL    HW221453   1.911   2.799   6.170  1.4906 -0.2408  2.4309
 3274SOL     OW21454   1.960   3.704   1.856  0.1206  0.1583 -0.1549
 3274SOL    HW121455   1.972   3.753   1.938  0.3428 -2.5265  1.4092
 3274SOL    HW221456   2.024   3.633   1.859  0.1188  0.2889  3.2462
 3275SOL     OW21457   3.122   4.482  15.141 -0.0375 -0.3617 -0.1072
 3275SOL    HW121458   3.167   4.423  15.081  1.1951 -0.2379  0.7120
 3275SOL    HW221459   3.194   4.540  15.166 -1.2167  1.3746 -0.6880
 3276SOL     OW21460   0.940   2.360   4.822  0.1647  0.2415 -0.0659
 3276SOL    HW121461   1.012   2.384   4.763 -0.5141  1.1082 -0.5514
 3276SOL    HW221462   0.882   2.435   4.810 -2.6188 -1.9928 -0.4119
 3277SOL     OW21463   1.451   0.248   0.770 -0.1816  0.2409  0.1836
 3277SOL    HW121464   1.498   0.182   0.719  1.0946  1.8258 -0.7065
 3277SOL    HW221465   1.439   0.197   0.850 -0.0608  0.8975  0.6251
 3278SOL     OW21466   1.843   4.616   8.623 -0.2712 -0.3062  0.1775
 3278SOL    HW121467   1.929   4.637   8.661 -0.3088 -0.3587  0.2910
 3278SOL    HW221468   1.857   4.523   8.608 -1.4266 -0.3604 -0.5314
 3279SOL     OW21469   2.282   2.653   7.382  0.2400 -0.5276 -0.7053
 3279SOL    HW121470   2.297   2.693   7.468  0.0044 -0.7630 -0.5542
 3279SOL    HW221471   2.304   2.563   7.406 -0.9224 -0.6220  0.0235
 3280SOL     OW21472   1.844   1.137   3.832 -0.3893  0.4382 -0.0970
 3280SOL    HW121473   1.843   1.058   3.886  1.5309  0.7089  0.3080
 3280SOL    HW221474   1.834   1.199   3.905  1.5304 -0.5349  0.9769
 3281SOL     OW21475   2.681   1.252   8.321 -0.1721 -0.1315  0.5947
 3281SOL    HW121476   2.700   1.172   8.272 -0.5698  0.5747 -0.6893
 3281SOL    HW221477   2.769   1.287   8.329  0.6917 -2.1945  0.2803
 3282SOL     OW21478   1.607   1.652   9.017  0.0794  0.4252 -0.2438
 3282SOL    HW121479   1.627   1.591   8.947  2.2774  1.1600 -0.2316
 3282SOL    HW221480   1.565   1.718   8.962  0.0395  0.8348  0.2765
 3283SOL     OW21481   2.938   2.418   6.241 -0.4402  0.2599  0.5297
 3283SOL    HW121482   2.864   2.409   6.300 -0.2276 -1.5655  0.5189
 3283SOL    HW221483   2.959   2.325   6.228 -2.1771 -0.1962  1.0282
 3284SOL     OW21484   0.123   0.934   7.588  0.1419  0.2563 -1.1180
 3284SOL    HW121485   0.089   0.989   7.659 -0.6592  0.5823 -1.7539
 3284SOL    HW221486   0.047   0.876   7.587  0.0547  0.3518 -0.4034
 3285SOL     OW21487   4.654   4.125   8.594 -0.3356 -0.2130  0.3686
 3285SOL    HW121488   4.568   4.121   8.636  0.4062  1.3020  2.0834
 3285SOL    HW221489   4.638   4.149   8.503 -1.5723 -1.5379  0.2404
 3286SOL     OW21490   0.281   4.575   3.359 -0.6415 -0.1756  0.0846
 3286SOL    HW121491   0.288   4.501   3.298  0.6953 -1.0845  1.3555
 3286SOL    HW221492   0.206   4.619   3.318 -2.3330 -2.8135  0.3381
 3287SOL     OW21493   1.356   3.378   6.371 -0.2288 -0.2317 -0.3383
 3287SOL    HW121494   1.392   3.466   6.365 -0.5527  0.0557  2.0332
 3287SOL    HW221495   1.363   3.363   6.276  0.2769 -2.1977  0.0034
 3288SOL     OW21496   1.852   1.426   8.500  0.5483  0.4976 -0.4478
 3288SOL    HW121497   1.775   1.414   8.556  1.0785  0.0507  0.1865
 3288SOL    HW221498   1.814   1.450   8.415  1.0834 -1.0928 -1.1391
 3289SOL     OW21499   3.480   4.172   3.505  0.0353 -0.4384 -0.3610
 3289SOL    HW121500   3.418   4.106   3.476  2.4641 -1.4093 -3.4194
 3289SOL    HW221501   3.491   4.144   3.596  0.3320 -1.6136 -0.7566
 3290SOL     OW21502   3.590   4.667  12.144  0.6492 -0.0866 -0.2608
 3290SOL    HW121503   3.631   4.583  12.123 -0.8587 -1.3383  1.7248
 3290SOL    HW221504   3.665   4.725  12.142  0.7147 -0.2000 -0.9228
 3291SOL     OW21505   4.426   3.247   9.696  0.6665 -1.1232 -0.1252
 3291SOL    HW121506   4.464   3.290   9.773 -1.6942 -0.7051  0.8192
 3291SOL    HW221507   4.335   3.238   9.725  0.5911 -0.7988 -0.2615
 3292SOL     OW21508   3.295   3.593   3.671  0.0654  0.4231  0.3685
 3292SOL    HW121509   3.360   3.534   3.634  0.2533  0.8132  0.0767
 3292SOL    HW221510   3.302   3.592   3.767  0.4712 -2.5845  0.3133
 3293SOL     OW21511   0.343   1.927   3.246  0.0345  0.1666  0.2648
 3293SOL    HW121512   0.362   1.982   3.323  0.5263  1.2286 -0.6130
 3293SOL    HW221513   0.272   1.975   3.204 -0.4217 -0.5310  0.2428
 3294SOL     OW21514   1.849   2.322   3.141  0.1659  0.5159  0.3481
 3294SOL    HW121515   1.794   2.295   3.068  1.1819 -1.7898  0.4429
 3294SOL    HW221516   1.879   2.237   3.173  0.2311  0.1018 -0.8002
 3295SOL     OW21517   3.131   2.652   0.326 -0.2517 -0.3507 -0.3929
 3295SOL    HW121518   3.166   2.650   0.415 -1.0518  0.7582 -0.0573
 3295SOL    HW221519   3.155   2.740   0.299 -2.1229 -0.5185 -2.6307
 3296SOL     OW21520   3.752   4.604   6.902 -0.1724  0.6349  0.1015
 3296SOL    HW121521   3.689   4.625   6.833 -0.0044 -1.2969 -0.6299
 3296SOL    HW221522   3.790   4.521   6.874 -1.3195  0.2895 -0.4556
 3297SOL     OW21523   1.310   2.175  10.362 -0.6055 -0.3701  0.1489
 3297SOL    HW121524   1.254   2.123  10.304  1.0791 -2.3099  0.2260
 3297SOL    HW221525   1.387   2.192  10.307 -0.1289 -1.0915  0.5819
 3298SOL     OW21526   1.697   2.442  17.405  0.2159 -0.1364  0.0219
 3298SOL    HW121527   1.615   2.489  17.390  0.2960  0.7815  2.4821
 3298SOL    HW221528   1.738   2.449  17.319 -0.1442  2.8694  0.0812
 3299SOL     OW21529   0.416   0.032  11.838  0.5845  0.1471 -0.0155
 3299SOL    HW121530   0.401   0.026  11.932  0.7613 -0.4904 -0.0282
 3299SOL    HW221531   0.422   4.678  11.808  1.0053  0.5319 -1.1054
 3300SOL     OW21532   2.068   4.406   1.923  0.1183  0.2322 -0.2320
 3300SOL    HW121533   1.998   4.434   1.982  0.2322  1.6239 -0.7531
 3300SOL    HW221534   2.021   4.418   1.841  2.4204  0.2604 -1.5539
 3301SOL     OW21535   0.029   1.035   7.079  0.0537 -0.4035 -0.1794
 3301SOL    HW121536   4.674   1.013   7.096 -0.9278  0.7601 -3.9223
 3301SOL    HW221537   0.057   1.066   7.165  1.0335  1.2565 -1.0908
 3302SOL     OW21538   2.977   0.547  13.438  0.0979  0.2078  0.5772
 3302SOL    HW121539   2.932   0.522  13.357 -0.8494  0.9177  0.8893
 3302SOL    HW221540   2.995   0.638  13.411  0.8787 -0.0058  0.3581
 3303SOL     OW21541   0.979   0.980  15.000 -0.1942  0.3133  0.6670
 3303SOL    HW121542   1.018   0.986  15.087  1.6240  2.7318 -0.3011
 3303SOL    HW221543   0.911   1.047  15.004  0.3642  0.9625 -0.6274
 3304SOL     OW21544   0.424   1.334   3.061 -0.1114 -0.0740  0.6326
 3304SOL    HW121545   0.420   1.407   3.000  0.4185 -0.4224  0.1819
 3304SOL    HW221546   0.514   1.335   3.093  0.6672 -1.5918 -1.5620
 3305SOL     OW21547   2.736   4.675   7.765 -0.1780 -0.0616 -0.0228
 3305SOL    HW121548   2.733   4.620   7.843  1.4714  0.5754  0.4947
 3305SOL    HW221549   2.701   4.609   7.705 -1.6844  0.3203  0.4402
 3306SOL     OW21550   1.360   1.843  12.342 -0.2935  0.1066  0.1378
 3306SOL    HW121551   1.411   1.763  12.353  2.5582  1.7143 -1.3872
 3306SOL    HW221552   1.270   1.809  12.341 -0.5509  0.7991 -0.7085
 3307SOL     OW21553   1.192   4.080   4.241  0.0996 -0.1675  0.3342
 3307SOL    HW121554   1.179   4.157   4.296 -2.8734 -1.7985  1.9276
 3307SOL    HW221555   1.204   4.011   4.306  0.3919 -0.5592 -0.1359
 3308SOL     OW21556   4.416   0.920   2.658  0.4216 -0.0012  0.1552
 3308SOL    HW121557   4.359   0.977   2.710  1.1972  0.6460  0.2830
 3308SOL    HW221558   4.418   0.981   2.584  1.4988 -1.3001 -0.8857
 3309SOL     OW21559   4.024   2.941  11.919  0.0571  0.0318 -0.0227
 3309SOL    HW121560   4.118   2.952  11.935 -0.0063  2.3487 -1.1517
 3309SOL    HW221561   4.000   2.958  11.828 -0.0559 -2.4915 -0.4634
 3310SOL     OW21562   1.843   4.241   6.154  0.4378 -0.2408  0.1342
 3310SOL    HW121563   1.908   4.173   6.173  1.7691  0.7535 -0.8517
 3310SOL    HW221564   1.767   4.194   6.187 -1.1242  2.8876  0.8807
 3311SOL     OW21565   2.470   2.278   9.857  0.2674  0.3013  0.2944
 3311SOL    HW121566   2.498   2.187   9.870 -0.3657 -0.5293 -4.1881
 3311SOL    HW221567   2.376   2.263   9.849  0.3980 -0.7824  0.7681
 3312SOL     OW21568   3.745   2.722   8.293 -0.3296  0.0634 -0.1976
 3312SOL    HW121569   3.720   2.813   8.310  3.0042  1.2344 -1.6908
 3312SOL    HW221570   3.664   2.679   8.263 -0.3167  0.0694 -0.2406
 3313SOL     OW21571   1.054   1.362   8.210 -0.1833 -0.0333 -0.1156
 3313SOL    HW121572   0.997   1.395   8.140  0.1957  0.6907 -0.0908
 3313SOL    HW221573   1.061   1.446   8.255  0.6322  1.2912 -2.6668
 3314SOL     OW21574   3.145   4.130   7.269 -0.3522 -0.2208 -0.1621
 3314SOL    HW121575   3.229   4.086   7.260 -0.6322 -0.3232 -2.3498
 3314SOL    HW221576   3.158   4.202   7.207 -2.2086  0.2733  0.0220
 3315SOL     OW21577   0.694   0.944   0.344  0.8119 -0.1774 -0.0888
 3315SOL    HW121578   0.764   0.882   0.326 -1.5711 -2.8546 -0.2415
 3315SOL    HW221579   0.692   0.992   0.261 -2.2018 -0.3525 -0.1305
 3316SOL     OW21580   0.486   3.887  11.368  0.2812  0.4912 -0.3248
 3316SOL    HW121581   0.579   3.905  11.349  0.6584 -1.4430 -0.2848
 3316SOL    HW221582   0.450   3.921  11.286 -0.6254  2.1591  0.7685
 3317SOL     OW21583   0.233   2.474   1.256 -0.1608  0.5307 -0.1534
 3317SOL    HW121584   0.242   2.505   1.346 -1.4524  0.1894  0.0914
 3317SOL    HW221585   0.200   2.543   1.199 -1.6282  0.4862  0.6567
 3318SOL     OW21586   1.589   2.000   9.835  0.0679  0.7281  0.2391
 3318SOL    HW121587   1.515   1.946   9.861 -0.0653  0.2018 -1.2826
 3318SOL    HW221588   1.590   1.990   9.740 -0.5227  0.6299  0.2477
 3319SOL     OW21589   2.607   3.018   8.381 -0.3630 -0.1269 -0.1148
 3319SOL    HW121590   2.596   2.965   8.460  1.9254  0.2050  0.4008
 3319SOL    HW221591   2.521   3.005   8.339 -1.0959 -1.0419  1.6664
 3320SOL     OW21592   0.196   0.333   7.300 -0.3541 -0.3815  0.1848
 3320SOL    HW121593   0.206   0.287   7.383  0.7561 -1.1761 -0.3990
 3320SOL    HW221594   0.102   0.352   7.297 -0.0461  1.0123 -0.4322
 3321SOL     OW21595   1.650   4.420   7.895 -0.3645  0.6157 -0.2022
 3321SOL    HW121596   1.568   4.446   7.935 -0.6231  0.5044 -0.6548
 3321SOL    HW221597   1.704   4.496   7.914  0.0970  0.2145  0.1152
 3322SOL     OW21598   4.130   0.222  15.725  0.0410 -0.4698  0.4407
 3322SOL    HW121599   4.144   0.232  15.631 -1.6822 -0.3799  0.2018
 3322SOL    HW221600   4.110   0.129  15.737  4.2269 -1.3055  0.9821
 3323SOL     OW21601   1.493   0.733   0.553  0.3718  0.2260 -0.3368
 3323SOL    HW121602   1.521   0.665   0.614 -1.8960 -0.9099 -0.5438
 3323SOL    HW221603   1.536   0.806   0.596  1.9592  0.1704 -1.8360
 3324SOL     OW21604   1.083   0.525   9.472 -0.5922 -0.2357  0.4617
 3324SOL    HW121605   1.126   0.497   9.553  0.3754  1.5245  0.5609
 3324SOL    HW221606   0.994   0.543   9.501 -1.0513  1.2255 -1.8321
 3325SOL     OW21607   2.116   0.657   2.358  0.2581 -0.5717 -1.3262
 3325SOL    HW121608   2.060   0.616   2.292 -1.4845 -0.2688 -0.0704
 3325SOL    HW221609   2.174   0.591   2.393 -0.1146 -0.2910 -0.1574
 3326SOL     OW21610   2.783   3.363   0.471 -0.1571 -0.2455  0.5934
 3326SOL    HW121611   2.822   3.318   0.395 -2.0982 -0.0936 -0.4752
 3326SOL    HW221612   2.861   3.373   0.526  0.1046 -1.3067  0.4257
 3327SOL     OW21613   0.983   4.038   3.591 -0.1235  0.0082  0.0555
 3327SOL    HW121614   0.907   4.086   3.558 -1.7566 -0.8287  2.5196
 3327SOL    HW221615   1.047   4.109   3.584 -0.7163  0.5187 -0.2138
 3328SOL     OW21616   2.315   2.193   6.260  0.1045  0.5680 -0.3725
 3328SOL    HW121617   2.344   2.102   6.253  0.2443  0.6985 -1.5255
 3328SOL    HW221618   2.297   2.218   6.169  5.4064  0.7412 -1.3821
 3329SOL     OW21619   0.979   1.268   7.296 -0.1464  0.0448  0.4427
 3329SOL    HW121620   1.003   1.341   7.354 -2.5642  1.2255 -0.0303
 3329SOL    HW221621   1.008   1.193   7.347  0.1947 -2.4721 -3.5092
 3330SOL     OW21622   4.236   0.715   7.213  0.2671 -0.3418 -0.5107
 3330SOL    HW121623   4.249   0.681   7.302  0.1050 -0.2817 -0.4631
 3330SOL    HW221624   4.151   0.760   7.221  0.0909 -0.7491 -0.0737
 3331SOL     OW21625   3.613   3.448   1.872 -0.1279  0.1453  0.2064
 3331SOL    HW121626   3.661   3.373   1.908  1.1795  0.1074 -1.6218
 3331SOL    HW221627   3.627   3.438   1.778 -0.1197 -0.2581  0.2498
 3332SOL     OW21628   1.275   0.562   7.067  0.2807  0.4325 -0.5154
 3332SOL    HW121629   1.210   0.582   7.135  1.1186  3.0125 -0.4726
 3332SOL    HW221630   1.289   0.655   7.046  0.6999  0.5486  0.2726
 3333SOL     OW21631   4.398   0.208   8.211  0.3898  0.1642 -0.0903
 3333SOL    HW121632   4.414   0.248   8.296  3.5880  3.9518 -2.4894
 3333SOL    HW221633   4.326   0.260   8.174 -0.3148  0.4592  1.6724
 3334SOL     OW21634   3.350   3.951   6.685  0.1056  0.0701 -0.2259
 3334SOL    HW121635   3.381   4.033   6.722 -0.2645 -0.2114  0.7156
 3334SOL    HW221636   3.258   3.973   6.673 -0.0195 -0.6100 -0.5510
 3335SOL     OW21637   1.603   0.629  13.462  0.2581 -0.1563  0.3456
 3335SOL    HW121638   1.514   0.656  13.485  0.6308 -0.6088  2.3433
 3335SOL    HW221639   1.606   0.620  13.367  2.0221 -2.3629  0.6162
 3336SOL     OW21640   1.855   2.254  10.321 -0.3813 -0.1338  0.1845
 3336SOL    HW121641   1.837   2.301  10.239 -0.8923  0.7222  0.7974
 3336SOL    HW221642   1.949   2.233  10.316 -0.4813 -0.3676 -0.7303
 3337SOL     OW21643   1.621   4.699   9.307 -0.0643  0.4868 -0.1331
 3337SOL    HW121644   1.534   4.684   9.345 -0.8782  1.9566 -1.4411
 3337SOL    HW221645   1.605   0.051   9.275  2.4202  0.9371 -0.1364
 3338SOL     OW21646   3.803   4.230   2.716 -0.6661 -0.0982 -0.3509
 3338SOL    HW121647   3.779   4.233   2.808  1.3722  0.6600  0.1408
 3338SOL    HW221648   3.882   4.282   2.724  0.0492 -1.2190 -0.1584
 3339SOL     OW21649   0.400   2.488  13.693 -0.1943  0.4787 -0.0693
 3339SOL    HW121650   0.377   2.397  13.674 -1.1799  0.5975  0.5703
 3339SOL    HW221651   0.451   2.487  13.774 -0.4576 -1.0550  0.0630
 3340SOL     OW21652   1.923   1.265   3.313 -0.2721 -0.4245 -0.7302
 3340SOL    HW121653   1.865   1.213   3.259 -1.5541  1.2280 -0.9293
 3340SOL    HW221654   1.919   1.218   3.396  0.9791  0.8848  0.0834
 3341SOL     OW21655   4.246   2.246  16.992  0.0987  0.1023 -0.3888
 3341SOL    HW121656   4.227   2.243  16.899  1.6888  0.7484 -0.7287
 3341SOL    HW221657   4.168   2.293  17.023  0.4585  0.5628 -0.1858
 3342SOL     OW21658   0.419   3.713   7.976  0.0322 -0.2710  0.3812
 3342SOL    HW121659   0.407   3.803   7.945  2.3262  1.1258  3.5531
 3342SOL    HW221660   0.363   3.725   8.053  0.9555  0.0047  1.0126
 3343SOL     OW21661   3.539   2.835   8.930  0.3196 -0.0494  0.4433
 3343SOL    HW121662   3.609   2.773   8.912 -1.2916 -1.9935  0.9203
 3343SOL    HW221663   3.467   2.791   8.883 -0.4608  1.7034 -0.0075
 3344SOL     OW21664   2.582   1.287   7.509  0.4957 -0.1211 -0.0959
 3344SOL    HW121665   2.672   1.318   7.522  1.0409 -2.1154  0.8813
 3344SOL    HW221666   2.557   1.256   7.596  2.9360  1.3229  1.1389
 3345SOL     OW21667   0.568   4.210   2.136 -0.5839  0.0633 -0.0398
 3345SOL    HW121668   0.582   4.301   2.162  0.7268  0.0212 -0.5863
 3345SOL    HW221669   0.552   4.221   2.042 -1.9098  0.3866  0.2259
 3346SOL     OW21670   0.662   0.020   5.026 -0.1260  0.3824 -0.0667
 3346SOL    HW121671   0.713   4.675   5.032 -1.6766 -0.4143  2.2092
 3346SOL    HW221672   0.573   4.726   5.044 -0.7407  1.0830 -1.8491
 3347SOL     OW21673   1.135   4.331   2.504 -0.1837 -0.1222  0.0073
 3347SOL    HW121674   1.158   4.321   2.596  0.4779  0.7507 -0.0640
 3347SOL    HW221675   1.083   4.411   2.515  2.0424  1.0020  2.2057
 3348SOL     OW21676   2.297   1.330   7.365 -0.1141  0.0844 -0.3212
 3348SOL    HW121677   2.385   1.309   7.398 -0.9960 -2.6514  0.2367
 3348SOL    HW221678   2.242   1.286   7.429  0.6657 -1.5714 -0.7954
 3349SOL     OW21679   3.443   2.793   8.211  0.5551 -0.3866 -0.2216
 3349SOL    HW121680   3.379   2.762   8.147  0.8378  1.0235 -1.1775
 3349SOL    HW221681   3.483   2.874   8.179  1.6727 -1.5271 -1.6709
 3350SOL     OW21682   3.691   0.602  14.218  0.0370 -0.0205 -0.1253
 3350SOL    HW121683   3.648   0.643  14.293 -1.2773 -3.0053  0.7856
 3350SOL    HW221684   3.610   0.582  14.170 -0.4770 -0.2113  0.8169
 3351SOL     OW21685   2.896   4.718   1.794  0.8765 -0.3415 -0.1741
 3351SOL    HW121686   2.858   4.661   1.860 -1.3341  0.7552 -0.5239
 3351SOL    HW221687   2.957   4.656   1.752 -0.3836 -0.6055 -1.6163
 3352SOL     OW21688   0.248   1.294   0.065  0.0190 -0.4242 -0.1051
 3352SOL    HW121689   0.197   1.359   0.016 -1.2573 -2.1941 -1.1056
 3352SOL    HW221690   0.281   1.249  17.730 -1.5771 -1.2846 -0.2922
 3353SOL     OW21691   0.447   0.860  14.632  0.6193  0.5325  0.4716
 3353SOL    HW121692   0.487   0.802  14.567  0.8374 -1.0534  2.0253
 3353SOL    HW221693   0.416   0.803  14.702 -1.7532 -1.2537 -2.0115
 3354SOL     OW21694   2.295   2.657  16.885  0.1308  0.1141  0.0614
 3354SOL    HW121695   2.238   2.581  16.897 -0.1056  0.3651  0.5333
 3354SOL    HW221696   2.377   2.614  16.909 -0.6658 -1.2008  0.4357
 3355SOL     OW21697   3.527   1.165   1.389  0.1888  0.1142  0.0723
 3355SOL    HW121698   3.519   1.252   1.349 -1.5664  0.0159  0.2343
 3355SOL    HW221699   3.532   1.188   1.482  2.7143 -0.4291  0.0865
 3356SOL     OW21700   2.716   4.480   2.147  0.5031  0.2148 -0.0918
 3356SOL    HW121701   2.668   4.419   2.092  2.3898 -2.5399  1.2901
 3356SOL    HW221702   2.805   4.444   2.137  1.0780  0.7858  2.7884
 3357SOL     OW21703   2.474   3.081   2.566 -0.5850 -0.6833 -0.2231
 3357SOL    HW121704   2.422   3.153   2.530  2.8660  2.0192  0.2187
 3357SOL    HW221705   2.404   3.025   2.601 -1.7167  1.3015  0.7215
 3358SOL     OW21706   1.787   2.930   2.838 -0.3705  0.8073  0.3724
 3358SOL    HW121707   1.783   2.889   2.924 -2.6274  0.8259  0.2896
 3358SOL    HW221708   1.717   2.994   2.848 -1.2889 -0.4570  2.0758
 3359SOL     OW21709   3.616   0.635  10.718 -0.3062  0.0153 -0.2389
 3359SOL    HW121710   3.533   0.587  10.728 -1.6631  2.0105 -1.9830
 3359SOL    HW221711   3.634   0.638  10.812  1.9645 -0.6777 -0.6592
 3360SOL     OW21712   1.023   0.037   8.128 -0.1937  0.4542  0.2795
 3360SOL    HW121713   1.079   4.712   8.175  1.0770  2.7346  1.7853
 3360SOL    HW221714   1.075   0.047   8.048  2.2462  2.1228  2.0407
 3361SOL     OW21715   0.114   0.289   5.169 -0.4805 -0.4903 -0.5478
 3361SOL    HW121716   0.198   0.252   5.197 -0.6366  0.0514  0.6391
 3361SOL    HW221717   0.067   0.208   5.148  0.4771 -0.8334 -1.4125
 3362SOL     OW21718   1.815   1.227  17.192  0.7716  0.1726  0.5594
 3362SOL    HW121719   1.819   1.262  17.281 -0.0414  0.9747  0.2889
 3362SOL    HW221720   1.724   1.208  17.171  1.3035  0.8847 -2.3188
 3363SOL     OW21721   2.975   4.693   2.290  0.7948 -0.4899 -0.2598
 3363SOL    HW121722   2.951   4.711   2.381  0.0599 -0.5405 -0.4388
 3363SOL    HW221723   2.956   0.045   2.258 -1.0293 -1.0722 -0.8206
 3364SOL     OW21724   1.650   1.817  14.608  0.1429 -0.3661  0.6668
 3364SOL    HW121725   1.665   1.783  14.697 -1.2225 -2.8864 -0.0681
 3364SOL    HW221726   1.618   1.906  14.623  1.1642  0.2463 -0.7820
 3365SOL     OW21727   1.093   1.225   9.654 -0.3148 -0.0579 -0.2339
 3365SOL    HW121728   1.086   1.208   9.560 -0.9427 -1.4230  0.0694
 3365SOL    HW221729   1.084   1.138   9.692 -0.7887 -1.3589 -3.3853
 3366SOL     OW21730   2.074   0.922   4.888  0.4460 -0.2041  0.0836
 3366SOL    HW121731   2.001   0.930   4.828  0.3726 -1.3905  0.0189
 3366SOL    HW221732   2.028   0.897   4.968  0.9106 -1.2556  0.0248
 3367SOL     OW21733   4.382   4.503   7.787  0.0225 -0.0266 -0.2020
 3367SOL    HW121734   4.386   4.407   7.793  0.4072 -0.0046 -0.0753
 3367SOL    HW221735   4.468   4.520   7.749 -0.1082 -2.0304 -1.4141
 3368SOL     OW21736   4.314   2.478  10.125  0.4693 -0.0945 -0.0571
 3368SOL    HW121737   4.295   2.529  10.204  0.5496 -0.4016  0.1638
 3368SOL    HW221738   4.250   2.408  10.138 -0.1748  0.5264  0.1310
 3369SOL     OW21739   4.373   1.736   5.451  0.0193  0.0792  0.4395
 3369SOL    HW121740   4.292   1.787   5.459  0.3200  0.9102 -1.9422
 3369SOL    HW221741   4.407   1.761   5.365 -1.7328  0.8425 -0.0275
 3370SOL     OW21742   0.334   3.801   6.365 -0.3312 -0.0179 -0.2079
 3370SOL    HW121743   0.265   3.769   6.308 -0.6045  0.6473 -0.2522
 3370SOL    HW221744   0.313   3.761   6.450  3.8372 -6.1449 -2.0602
 3371SOL     OW21745   0.860   0.216  10.470 -0.1597  0.1171  0.1276
 3371SOL    HW121746   0.808   0.138  10.446  1.2754 -0.9676  0.5502
 3371SOL    HW221747   0.855   0.274  10.394 -0.4233  1.1487  0.9405
 3372SOL     OW21748   1.257   0.421   6.283  0.9936  0.4294  0.9891
 3372SOL    HW121749   1.213   0.507   6.283 -0.2318 -0.1900  1.4785
 3372SOL    HW221750   1.191   0.355   6.305  1.4268  0.2003  1.5960
 3373SOL     OW21751   2.957   4.279   1.806  0.2572 -0.3285 -0.4365
 3373SOL    HW121752   2.956   4.206   1.744  0.1064 -0.3509 -0.4070
 3373SOL    HW221753   2.926   4.348   1.746  2.2736  1.3783  0.4889
 3374SOL     OW21754   3.790   3.861   6.419 -0.3330 -0.2979 -0.3448
 3374SOL    HW121755   3.732   3.931   6.448  0.4878  0.3469 -0.2787
 3374SOL    HW221756   3.719   3.797   6.415  0.3882 -1.2944  2.5242
 3375SOL     OW21757   3.473   1.749  14.896  0.4050 -0.1338 -0.4280
 3375SOL    HW121758   3.419   1.828  14.884  0.5679  0.1681  0.8258
 3375SOL    HW221759   3.415   1.683  14.858 -1.6693 -0.5282  3.4001
 3376SOL     OW21760   0.458   1.055   2.985  0.4249 -0.1806 -0.6565
 3376SOL    HW121761   0.444   1.149   2.986  0.0621 -0.2373 -0.1609
 3376SOL    HW221762   0.475   1.038   2.893  1.0210  1.5885 -0.8571
 3377SOL     OW21763   4.460   3.389  12.177 -1.0477 -0.0566 -0.3253
 3377SOL    HW121764   4.376   3.432  12.193 -0.4734  1.4181 -1.2749
 3377SOL    HW221765   4.512   3.468  12.189  1.3303 -1.4953 -1.0963
 3378SOL     OW21766   0.551   0.899  10.728  0.2777 -0.1089  0.3229
 3378SOL    HW121767   0.605   0.860  10.797 -1.3316  0.2758  1.7962
 3378SOL    HW221768   0.516   0.823  10.681  2.1574  0.5755 -2.1642
 3379SOL     OW21769   1.094   3.303   8.280  0.5287  0.0865 -0.6166
 3379SOL    HW121770   1.149   3.263   8.347 -2.0983 -0.4529  1.2138
 3379SOL    HW221771   1.104   3.243   8.206 -0.4102 -0.4234 -0.3267
 3380SOL     OW21772   1.049   0.878   7.025 -0.4479  0.1689 -0.2085
 3380SOL    HW121773   1.109   0.936   7.071  0.2037 -1.0399  0.4742
 3380SOL    HW221774   1.030   0.807   7.087 -0.3860 -0.4077 -0.8466
 3381SOL     OW21775   1.095   0.739  13.882  0.4789 -0.2615  0.1580
 3381SOL    HW121776   1.091   0.826  13.842 -1.8158 -0.5613 -0.2525
 3381SOL    HW221777   1.187   0.719  13.864  0.8167 -0.5039  2.1284
 3382SOL     OW21778   1.441   1.645   3.439  0.1118 -0.5015 -0.0471
 3382SOL    HW121779   1.452   1.728   3.484  0.6937 -1.0058  0.7521
 3382SOL    HW221780   1.399   1.587   3.503 -1.5073 -1.8288 -2.3137
 3383SOL     OW21781   4.132   1.075  16.990 -0.5628  0.0084  0.1455
 3383SOL    HW121782   4.100   1.040  16.907 -1.8575 -0.7367  0.9572
 3383SOL    HW221783   4.054   1.114  17.028 -0.5184  1.5232 -1.3013
 3384SOL     OW21784   1.091   4.070  11.438 -0.1928  0.5145 -0.3687
 3384SOL    HW121785   1.102   4.061  11.343 -1.8466 -0.6657 -0.4440
 3384SOL    HW221786   1.116   4.162  11.446 -1.1102  1.0050 -3.0600
 3385SOL     OW21787   3.319   3.884   9.253 -0.3022 -0.0316 -0.3463
 3385SOL    HW121788   3.313   3.839   9.169 -0.0223 -3.1875  1.3403
 3385SOL    HW221789   3.352   3.971   9.230 -1.7603  0.3513 -0.9975
 3386SOL     OW21790   4.593   2.549   3.115 -0.2775 -0.0100 -0.1475
 3386SOL    HW121791   4.536   2.508   3.179  0.6675 -2.7476 -1.0427
 3386SOL    HW221792   4.607   2.632   3.161  0.5217 -0.7368  0.8799
 3387SOL     OW21793   4.174   1.540   5.293 -0.8751 -0.1370  0.1075
 3387SOL    HW121794   4.229   1.478   5.341 -3.0138 -1.2351  1.1916
 3387SOL    HW221795   4.187   1.611   5.355 -2.8103  3.7171 -3.8905
 3388SOL     OW21796   3.449   1.339   6.582 -0.2194  0.2845  0.1746
 3388SOL    HW121797   3.524   1.377   6.628 -0.5627 -0.8329  1.6466
 3388SOL    HW221798   3.493   1.273   6.528 -1.4123 -0.1519 -0.2581
 3389SOL     OW21799   4.048   0.600   3.724 -0.2004 -0.6993  0.2614
 3389SOL    HW121800   4.102   0.565   3.654  2.8694 -0.6278  2.5845
 3389SOL    HW221801   4.070   0.527   3.782 -1.8231  1.0298  3.0624
 3390SOL     OW21802   0.703   0.870   4.232 -0.0305 -0.2290 -0.0653
 3390SOL    HW121803   0.787   0.864   4.277 -0.5328 -1.1244  0.7335
 3390SOL    HW221804   0.731   0.863   4.141  0.4245 -0.4022  0.0878
 3391SOL     OW21805   0.501   0.038   6.768  0.1033 -0.0121  0.0684
 3391SOL    HW121806   0.520   0.084   6.686  1.6690 -0.9702 -0.1025
 3391SOL    HW221807   0.565   0.070   6.831 -0.1249  0.1504  0.2180
 3392SOL     OW21808   2.707   0.304   0.070  0.1046  0.3022 -0.2657
 3392SOL    HW121809   2.727   0.278  17.724  0.5267 -0.4824  0.0612
 3392SOL    HW221810   2.636   0.241   0.087  0.2976  0.0893 -0.2562
 3393SOL     OW21811   0.123   4.295   6.523 -0.4350  0.0505  0.0239
 3393SOL    HW121812   0.102   4.203   6.540  0.2711 -0.0320  0.4472
 3393SOL    HW221813   0.041   4.337   6.498 -0.9760 -1.4086 -0.6963
 3394SOL     OW21814   3.309   1.435   0.389 -0.8481 -0.5429 -0.2846
 3394SOL    HW121815   3.247   1.474   0.451  0.1426 -1.4827  1.2837
 3394SOL    HW221816   3.393   1.473   0.413 -0.9522 -0.1591 -0.5257
 3395SOL     OW21817   2.529   3.610   5.835 -0.5097  0.6693  0.2861
 3395SOL    HW121818   2.615   3.571   5.826 -0.2475  0.9665  1.4213
 3395SOL    HW221819   2.509   3.627   5.743  0.6672 -0.8710 -0.2340
 3396SOL     OW21820   3.966   2.236   2.033 -0.5490  0.1467 -0.8761
 3396SOL    HW121821   3.956   2.141   2.045  0.8360 -0.0976 -1.6124
 3396SOL    HW221822   3.877   2.259   2.059  0.0514  1.7711 -0.2451
 3397SOL     OW21823   0.701   3.579   3.785  0.8137 -0.4380  0.1717
 3397SOL    HW121824   0.782   3.629   3.795  0.0430  0.8266  0.0869
 3397SOL    HW221825   0.629   3.632   3.818  2.3765  1.5746  0.3443
 3398SOL     OW21826   1.994   1.913   4.075 -0.8774 -0.0108  0.1685
 3398SOL    HW121827   1.915   1.859   4.065 -0.2825 -0.7768 -0.3399
 3398SOL    HW221828   2.003   1.896   4.169  1.3440 -0.9208 -0.2194
 3399SOL     OW21829   1.801   4.341   8.694 -0.1896 -1.1092  0.4138
 3399SOL    HW121830   1.832   4.256   8.663  0.6739 -0.0480 -1.6483
 3399SOL    HW221831   1.840   4.340   8.781 -0.9831  1.9707  0.8067
 3400SOL     OW21832   2.028   0.769   9.229 -0.4519 -0.2643 -0.1530
 3400SOL    HW121833   2.071   0.762   9.144  0.3726  2.2257  0.0753
 3400SOL    HW221834   1.937   0.746   9.211  0.2263 -2.6586 -0.5291
 3401SOL     OW21835   4.367   2.178   0.291  0.0769 -0.2578  0.0904
 3401SOL    HW121836   4.316   2.225   0.224 -0.2962  0.1197  0.6447
 3401SOL    HW221837   4.391   2.098   0.244  2.3356  1.1476 -1.1546
 3402SOL     OW21838   3.551   2.550   9.630  0.0504  0.1592 -0.0473
 3402SOL    HW121839   3.492   2.540   9.705 -0.2886  1.6532 -0.1265
 3402SOL    HW221840   3.514   2.618   9.574  1.4960  0.9137 -0.0873
 3403SOL     OW21841   1.290   1.408  13.796  0.2385  0.3371  0.5437
 3403SOL    HW121842   1.318   1.362  13.717  0.1519  0.9890  0.1289
 3403SOL    HW221843   1.258   1.336  13.850  2.6669 -1.7354 -0.8008
 3404SOL     OW21844   1.807   4.424  14.651 -0.3206  0.0833 -0.2025
 3404SOL    HW121845   1.732   4.365  14.656  0.1736 -0.3728  1.4953
 3404SOL    HW221846   1.756   4.502  14.674 -0.7951 -0.9457  2.1357
 3405SOL     OW21847   3.615   4.313   8.017  0.4344  0.2853 -0.1484
 3405SOL    HW121848   3.590   4.362   7.938 -1.6493  1.6461  1.3697
 3405SOL    HW221849   3.543   4.341   8.073 -0.8116  0.5601 -1.8832
 3406SOL     OW21850   3.542   0.634   0.568 -0.7491  0.1845  0.6984
 3406SOL    HW121851   3.486   0.683   0.630 -0.0034 -0.7887  2.1447
 3406SOL    HW221852   3.528   0.683   0.487  0.9448 -0.2247  0.1753
 3407SOL     OW21853   0.336   1.690  10.163 -0.1473 -0.2071  0.2076
 3407SOL    HW121854   0.274   1.625  10.194 -0.3298 -0.9052 -1.6127
 3407SOL    HW221855   0.414   1.635  10.162 -1.1483 -1.5599 -2.5275
 3408SOL     OW21856   1.907   0.586   3.968 -0.2560  0.1684  0.7618
 3408SOL    HW121857   1.966   0.512   3.983 -0.3227  0.2047  1.2053
 3408SOL    HW221858   1.961   0.639   3.910 -2.0401 -0.7046 -1.7092
 3409SOL     OW21859   0.264   2.108   6.008  0.0354 -0.5515  0.2860
 3409SOL    HW121860   0.325   2.159   5.955 -1.2957  0.6056 -0.1563
 3409SOL    HW221861   0.234   2.042   5.945  1.1196 -2.1123  1.4181
 3410SOL     OW21862   4.213   2.143   2.307 -0.3510 -0.1896  0.0082
 3410SOL    HW121863   4.224   2.048   2.295 -0.8685 -0.6486  2.9868
 3410SOL    HW221864   4.259   2.158   2.389  2.8465  2.3831 -2.2763
 3411SOL     OW21865   0.658   0.583   8.385 -0.3198 -0.5340  0.1608
 3411SOL    HW121866   0.577   0.536   8.407  0.1915 -0.3996  2.3807
 3411SOL    HW221867   0.628   0.659   8.336 -4.0740 -2.1186 -0.0158
 3412SOL     OW21868   3.175   2.445   3.171 -0.0571  0.0450  0.6344
 3412SOL    HW121869   3.247   2.504   3.146 -1.3111  1.2169 -0.1982
 3412SOL    HW221870   3.097   2.499   3.164  0.6173  1.0370  0.7279
 3413SOL     OW21871   4.024   2.243  16.017 -0.1580  0.0152  0.2995
 3413SOL    HW121872   3.974   2.324  16.010 -1.7801 -1.0656 -0.8872
 3413SOL    HW221873   3.957   2.174  16.011 -1.1215  0.8307  1.8130
 3414SOL     OW21874   2.935   3.748  13.844 -0.3903 -0.3892  0.1834
 3414SOL    HW121875   2.938   3.832  13.889 -3.0437 -0.6946  0.9507
 3414SOL    HW221876   2.858   3.761  13.789 -0.1609 -1.1532 -0.3278
 3415SOL     OW21877   1.061   4.366  16.135  0.2663  0.0361  0.6406
 3415SOL    HW121878   1.032   4.449  16.172 -1.1478 -0.7198  1.2377
 3415SOL    HW221879   1.031   4.298  16.196  2.4421  0.2791  1.9335
 3416SOL     OW21880   3.921   4.550   5.256  0.5893  0.2133 -0.0421
 3416SOL    HW121881   3.880   4.564   5.170  1.0705  1.4360 -0.0650
 3416SOL    HW221882   3.923   4.454   5.256 -2.6709  0.1409  1.5628
 3417SOL     OW21883   3.407   4.568   2.608 -0.3249  0.0423 -0.6587
 3417SOL    HW121884   3.458   4.512   2.667 -0.4276  0.9211  0.2620
 3417SOL    HW221885   3.345   4.616   2.664 -1.0789 -1.5650 -0.1065
 3418SOL     OW21886   0.716   1.398   5.291  0.1993 -0.1514  0.6014
 3418SOL    HW121887   0.685   1.488   5.278 -3.1633 -1.5626 -1.1756
 3418SOL    HW221888   0.714   1.362   5.203  1.4348  2.4715 -0.5174
 3419SOL     OW21889   0.369   3.497  10.521 -0.5294 -0.1291 -0.1922
 3419SOL    HW121890   0.294   3.495  10.581  0.6178  0.1137  1.2621
 3419SOL    HW221891   0.368   3.404  10.498 -1.0677 -0.3373  0.6492
 3420SOL     OW21892   2.987   4.459  11.288 -0.3522 -0.2375  0.5779
 3420SOL    HW121893   3.063   4.421  11.244 -0.3653 -1.1268  1.3290
 3420SOL    HW221894   3.022   4.537  11.331 -1.2239  0.9762 -0.9264
 3421SOL     OW21895   1.881   1.205  11.302  0.1114 -0.7957 -0.9196
 3421SOL    HW121896   1.934   1.140  11.349 -0.1536 -0.3045  0.0566
 3421SOL    HW221897   1.920   1.198  11.215 -2.9210  1.4844 -2.4826
 3422SOL     OW21898   1.517   1.483   7.524  0.2626  0.0018  0.4471
 3422SOL    HW121899   1.440   1.490   7.580 -1.0150 -1.4748 -1.0936
 3422SOL    HW221900   1.576   1.420   7.567  1.8482  1.5952  0.5969
 3423SOL     OW21901   1.979   0.033   4.630  0.0641 -0.0149  0.7107
 3423SOL    HW121902   1.960   0.124   4.607 -1.0272 -0.6299 -0.8242
 3423SOL    HW221903   1.890   0.003   4.652 -0.5427 -1.5827 -3.9270
 3424SOL     OW21904   0.298   0.043   8.330  0.8141 -0.3292  0.6207
 3424SOL    HW121905   0.287   0.138   8.340 -2.0515 -0.7552  1.5336
 3424SOL    HW221906   0.257   0.029   8.245  0.6371 -1.7552  0.9485
 3425SOL     OW21907   0.298   3.135   5.227  0.0370 -0.1065 -0.6164
 3425SOL    HW121908   0.342   3.055   5.200  0.4128 -0.8882  2.3254
 3425SOL    HW221909   0.372   3.191   5.251 -2.6271  2.4672  1.5968
 3426SOL     OW21910   3.702   0.719   1.855 -0.2644 -0.4787 -0.3938
 3426SOL    HW121911   3.790   0.751   1.838 -0.9024  1.1904 -0.5234
 3426SOL    HW221912   3.734   0.631   1.873 -1.7154 -0.5917  1.6759
 3427SOL     OW21913   3.024   3.883   1.951 -0.2423 -0.4338 -0.4224
 3427SOL    HW121914   3.037   3.949   2.019  0.3983 -0.1090 -0.8557
 3427SOL    HW221915   3.061   3.808   1.997 -0.4696 -0.5877 -0.4886
 3428SOL     OW21916   3.468   0.776   0.337 -0.7064  0.1393  0.1651
 3428SOL    HW121917   3.375   0.784   0.361 -0.2691 -0.1169  1.9483
 3428SOL    HW221918   3.466   0.822   0.253 -0.0017 -1.4569 -0.7343
 3429SOL     OW21919   4.325   2.620   5.127 -0.3819  0.4123  0.0538
 3429SOL    HW121920   4.356   2.557   5.192 -0.8449 -1.9375 -2.0420
 3429SOL    HW221921   4.233   2.595   5.125 -0.3384  0.2713 -0.1237
 3430SOL     OW21922   3.683   2.303   2.051  0.0454 -0.1582 -0.0786
 3430SOL    HW121923   3.607   2.352   2.082  0.2428 -0.8236  1.4716
 3430SOL    HW221924   3.650   2.213   2.053 -1.0292  0.2387  0.0366
 3431SOL     OW21925   3.844   4.452   4.452 -0.2087  0.6207 -0.7412
 3431SOL    HW121926   3.864   4.539   4.486  3.2796 -0.0267 -1.1215
 3431SOL    HW221927   3.793   4.474   4.374  0.7233  1.9208 -0.9804
 3432SOL     OW21928   2.811   0.789   4.125  0.1616 -0.4277 -0.3074
 3432SOL    HW121929   2.788   0.782   4.032  1.5617 -1.5688 -0.5579
 3432SOL    HW221930   2.862   0.869   4.138  0.8064 -1.0005  0.6492
 3433SOL     OW21931   2.627   4.162   9.466  0.1430 -0.2835  0.3134
 3433SOL    HW121932   2.689   4.092   9.485  1.6952  0.6523 -1.3544
 3433SOL    HW221933   2.544   4.133   9.505 -0.4146 -0.7602 -1.2091
 3434SOL     OW21934   1.622   4.490   5.664  0.2017  0.0948 -0.4211
 3434SOL    HW121935   1.649   4.566   5.714  1.6969 -0.5160 -0.2963
 3434SOL    HW221936   1.707   4.469   5.625  0.3357  0.4090 -0.2925
 3435SOL     OW21937   0.673   3.266   3.782  0.2677 -0.6353  0.5390
 3435SOL    HW121938   0.718   3.332   3.834  1.1625 -0.9409  0.1424
 3435SOL    HW221939   0.725   3.257   3.702  3.4003 -1.1362  2.6260
 3436SOL     OW21940   4.445   1.029   1.160 -0.5290  0.4947  0.2182
 3436SOL    HW121941   4.522   0.995   1.113 -0.7264  1.6414 -0.9399
 3436SOL    HW221942   4.428   1.107   1.107 -0.0181  1.3540  1.3030
 3437SOL     OW21943   3.238   3.318   9.180  0.2561 -0.3839  0.3721
 3437SOL    HW121944   3.226   3.242   9.123  3.9725 -1.4509  0.9955
 3437SOL    HW221945   3.150   3.355   9.183  0.1802 -0.7280  2.0252
 3438SOL     OW21946   3.527   0.215   5.720 -0.1293  0.4722  0.3350
 3438SOL    HW121947   3.478   0.135   5.739 -0.0830  0.5084  0.6060
 3438SOL    HW221948   3.595   0.213   5.788  1.0733  4.7074 -0.7475
 3439SOL     OW21949   2.043   3.945   3.570 -0.2401  0.3237 -0.1838
 3439SOL    HW121950   2.084   3.993   3.642 -0.5930 -3.1974  2.3483
 3439SOL    HW221951   2.100   3.868   3.573 -2.9706 -1.6736  0.7409
 3440SOL     OW21952   1.004   0.170   2.318 -0.2098 -0.2001 -0.1421
 3440SOL    HW121953   0.997   0.201   2.228 -1.1836 -1.0865 -0.3790
 3440SOL    HW221954   1.031   0.079   2.305  1.5584  0.6214 -2.2120
 3441SOL     OW21955   2.444   0.883   8.651 -0.1557  0.0614 -0.0473
 3441SOL    HW121956   2.435   0.912   8.560  0.8977 -0.6604 -0.3796
 3441SOL    HW221957   2.394   0.941   8.708 -2.5043 -1.5703 -0.4224
 3442SOL     OW21958   1.689   2.721   4.091 -0.5085 -0.1724  0.8337
 3442SOL    HW121959   1.722   2.807   4.119  0.1600  0.4140 -1.7993
 3442SOL    HW221960   1.629   2.711   4.165 -1.3792 -1.5443 -0.0706
 3443SOL     OW21961   3.044   2.026   5.146 -0.2541 -0.2897  0.3770
 3443SOL    HW121962   3.081   1.947   5.105  0.4351 -0.0660  0.5718
 3443SOL    HW221963   3.121   2.047   5.198 -0.4152 -1.7696  1.2247
 3444SOL     OW21964   3.740   2.012   5.129 -0.1821  0.2927  0.1427
 3444SOL    HW121965   3.832   2.008   5.101  0.6233  1.4600  2.6317
 3444SOL    HW221966   3.699   2.079   5.075  2.8225  1.7834 -0.3353
 3445SOL     OW21967   0.938   0.537   3.215  0.4930  0.3258  0.2674
 3445SOL    HW121968   0.987   0.501   3.142 -2.6974  0.6006 -2.0204
 3445SOL    HW221969   1.007   0.599   3.240  2.4827 -1.4890 -0.8658
 3446SOL     OW21970   3.382   1.588   6.043 -0.0434  0.2754  0.0655
 3446SOL    HW121971   3.414   1.590   6.134  0.6505  2.3214 -0.2293
 3446SOL    HW221972   3.294   1.553   6.060  0.2584 -0.4575  0.1167
 3447SOL     OW21973   2.919   4.698   3.097  0.7272  0.1402  0.8417
 3447SOL    HW121974   2.859   4.695   3.022  1.6115 -3.5179  0.2867
 3447SOL    HW221975   2.919   0.055   3.118 -1.5511  0.6155 -1.2672
 3448SOL     OW21976   0.039   2.433  17.269 -0.4376 -0.3858  0.4698
 3448SOL    HW121977   0.036   2.339  17.256  0.7505 -0.4770  0.8155
 3448SOL    HW221978   0.034   2.458  17.177  0.7903 -2.0618 -0.0318
 3449SOL     OW21979   4.067   0.139  16.655 -0.3244  0.2658 -0.4672
 3449SOL    HW121980   4.046   0.229  16.628 -0.5881  0.5330  0.6397
 3449SOL    HW221981   4.018   0.083  16.595 -2.4358  1.0971  0.4725
 3450SOL     OW21982   2.774   2.650   8.808 -0.6125  0.0007 -0.6848
 3450SOL    HW121983   2.767   2.564   8.766 -2.4456  0.5386 -1.4770
 3450SOL    HW221984   2.809   2.639   8.897 -1.1663 -0.3561 -0.5115
 3451SOL     OW21985   3.471   2.951   4.375  0.5267 -0.1781  0.2657
 3451SOL    HW121986   3.507   2.955   4.286  2.6504  0.8159  1.1508
 3451SOL    HW221987   3.463   3.046   4.387 -1.2592 -0.7099  3.1668
 3452SOL     OW21988   1.034   3.832   2.832  0.1567  0.2444 -0.3038
 3452SOL    HW121989   0.953   3.783   2.815  0.5242 -0.1518 -0.9382
 3452SOL    HW221990   0.999   3.889   2.900 -0.3309 -0.7277  0.2647
 3453SOL     OW21991   1.647   1.442   5.826  0.1440  0.0483 -0.0751
 3453SOL    HW121992   1.655   1.362   5.877  1.1225 -0.6005 -1.2350
 3453SOL    HW221993   1.590   1.423   5.751 -2.1803 -0.5157  1.8430
 3454SOL     OW21994   0.514   4.639   3.240 -0.1386 -0.3899 -0.6955
 3454SOL    HW121995   0.549   4.720   3.277  1.1261 -1.0169 -0.4916
 3454SOL    HW221996   0.435   4.622   3.292 -0.0274  2.1326  0.2742
 3455SOL     OW21997   3.494   1.595   6.789 -0.0434  0.0137  0.2427
 3455SOL    HW121998   3.417   1.617   6.737  0.4881 -1.0605 -0.9780
 3455SOL    HW221999   3.554   1.658   6.750  0.4045 -0.8800 -0.5226
 3456SOL     OW22000   4.481   2.442  13.694  0.3030  0.2175 -0.1520
 3456SOL    HW122001   4.501   2.527  13.731  1.7723  0.1719 -0.8271
 3456SOL    HW222002   4.404   2.417  13.745 -0.1300 -0.7027 -1.2325
 3457SOL     OW22003   3.742   2.858   2.889  0.0393  0.0041  0.4654
 3457SOL    HW122004   3.836   2.865   2.905 -0.2264  0.9943  1.5829
 3457SOL    HW222005   3.743   2.762   2.887  0.8556 -0.0459  3.1647
 3458SOL     OW22006   0.111   0.177  15.938  0.2418 -0.2611 -0.1285
 3458SOL    HW122007   0.106   0.084  15.963 -0.5483 -0.1092  0.2706
 3458SOL    HW222008   0.065   0.220  16.010  0.8651 -0.5938  0.4808
 3459SOL     OW22009   1.372   1.273   0.332 -0.4842 -0.0348 -0.0264
 3459SOL    HW122010   1.359   1.340   0.266  2.2764  0.9918  0.4948
 3459SOL    HW222011   1.282   1.251   0.359  0.3038 -1.7881  1.1932
 3460SOL     OW22012   3.027   2.752   8.636  0.1602 -0.5204  0.3732
 3460SOL    HW122013   2.985   2.797   8.562 -0.5054  0.4212  1.3184
 3460SOL    HW222014   2.963   2.682   8.649  0.2832 -1.1274 -2.2492
 3461SOL     OW22015   3.423   3.372   3.548  0.6671  0.0212  0.1666
 3461SOL    HW122016   3.344   3.333   3.585  0.1035 -0.1074 -1.1399
 3461SOL    HW222017   3.426   3.318   3.469 -1.8113 -0.2299  0.2433
 3462SOL     OW22018   4.537   0.197   8.863  0.0683  0.0883  0.1932
 3462SOL    HW122019   4.493   0.233   8.941 -1.3794  4.4770 -2.6300
 3462SOL    HW222020   4.629   0.213   8.884  0.2609 -0.3115 -0.3469
 3463SOL     OW22021   1.593   4.711   4.210 -0.1749 -0.3242 -0.2002
 3463SOL    HW122022   1.654   0.043   4.238 -0.0190 -0.1416 -0.9959
 3463SOL    HW222023   1.528   4.728   4.278 -0.6572  0.5725 -0.8922
 3464SOL     OW22024   1.702   2.765  10.730 -0.6994  0.0850  0.2818
 3464SOL    HW122025   1.609   2.780  10.712 -0.8618  0.1529  1.1922
 3464SOL    HW222026   1.716   2.833  10.796  0.3443  0.2931 -0.1548
 3465SOL     OW22027   3.796   1.675  15.021 -0.3109  0.3673  0.3335
 3465SOL    HW122028   3.871   1.698  14.967  0.7371 -2.0774  0.7354
 3465SOL    HW222029   3.830   1.604  15.076  0.9376  0.3576 -0.4649
 3466SOL     OW22030   0.262   2.155  11.456  0.3996 -0.4210 -0.3322
 3466SOL    HW122031   0.294   2.075  11.414 -0.6059 -1.7754  1.4644
 3466SOL    HW222032   0.170   2.128  11.460  0.7804 -1.5455  1.1586
 3467SOL     OW22033   1.272   0.602   5.611 -0.0523  0.0354 -0.5491
 3467SOL    HW122034   1.329   0.582   5.685  0.6959  0.7505 -0.9348
 3467SOL    HW222035   1.327   0.577   5.538  0.7965  2.0606 -0.6056
 3468SOL     OW22036   2.478   3.314   4.166 -0.2103 -0.2896  0.9139
 3468SOL    HW122037   2.462   3.355   4.081 -1.6343  1.0415  1.8269
 3468SOL    HW222038   2.534   3.241   4.139 -1.2258 -0.0714 -1.7914
 3469SOL     OW22039   0.491   4.443   5.819 -0.0949 -0.4532  0.0655
 3469SOL    HW122040   0.538   4.432   5.902  0.3356  2.2953  0.1797
 3469SOL    HW222041   0.553   4.494   5.768 -0.5633 -1.3577 -1.4185
 3470SOL     OW22042   0.081   2.498   8.257  0.0665 -0.2292 -0.1079
 3470SOL    HW122043   0.057   2.421   8.309 -2.9438 -0.3135 -1.6210
 3470SOL    HW222044   0.056   2.472   8.168 -0.7463 -0.3305  0.1561
 3471SOL     OW22045   2.218   0.436   4.342  0.1034 -0.1146  0.0469
 3471SOL    HW122046   2.178   0.514   4.304 -0.1200 -0.1352  0.2400
 3471SOL    HW222047   2.172   0.370   4.291 -0.7272  1.3979 -1.1528
 3472SOL     OW22048   3.848   0.564   1.066  0.2306  0.0345 -0.3102
 3472SOL    HW122049   3.790   0.591   0.995 -0.1280  2.6524  0.9848
 3472SOL    HW222050   3.887   0.646   1.095 -0.2801  1.1320 -2.7906
 3473SOL     OW22051   3.850   3.735   8.513  0.1969  0.0668  0.2717
 3473SOL    HW122052   3.820   3.761   8.426 -0.1439  0.7605  0.5937
 3473SOL    HW222053   3.932   3.782   8.520 -0.7966  1.5547  1.8397
 3474SOL     OW22054   3.347   3.951  10.086  0.5630 -0.0735  0.5776
 3474SOL    HW122055   3.298   4.017  10.135  2.7667  1.5516  0.6021
 3474SOL    HW222056   3.348   3.879  10.149  1.1905 -1.9223 -1.5337
 3475SOL     OW22057   2.316   0.302  10.255 -0.3001  0.0841 -0.1717
 3475SOL    HW122058   2.309   0.319  10.349 -0.1301 -0.0197 -0.1403
 3475SOL    HW222059   2.400   0.344  10.236  0.2515 -0.2181  1.6604
 3476SOL     OW22060   0.536   3.725   4.181 -0.1286  0.2664 -0.0484
 3476SOL    HW122061   0.520   3.708   4.089 -0.5562  1.1224 -0.1380
 3476SOL    HW222062   0.602   3.660   4.206 -1.2418 -0.9418 -0.2236
 3477SOL     OW22063   0.817   1.007   6.940  0.3491 -0.2429 -0.2441
 3477SOL    HW122064   0.885   0.940   6.954  0.4569  0.2780  1.6500
 3477SOL    HW222065   0.868   1.087   6.948  0.2719 -0.1137 -1.0795
 3478SOL     OW22066   4.211   3.400   6.125  0.4389 -0.0342  0.2835
 3478SOL    HW122067   4.220   3.355   6.209 -0.7346 -2.9836 -1.2097
 3478SOL    HW222068   4.166   3.329   6.080  1.4346 -0.3223 -0.2602
 3479SOL     OW22069   1.087   3.874  16.942 -0.7685 -0.8712 -0.2583
 3479SOL    HW122070   1.081   3.878  16.846  2.5331  0.0080 -0.4320
 3479SOL    HW222071   1.166   3.820  16.951  0.2625  0.2270 -2.5050
 3480SOL     OW22072   0.989   0.302   4.775 -0.3704 -0.0535  0.0575
 3480SOL    HW122073   1.062   0.240   4.782  0.5756  1.0008 -0.3715
 3480SOL    HW222074   0.913   0.246   4.763  0.2502 -0.2907 -2.8063
 3481SOL     OW22075   4.252   1.865  16.807 -0.0380  0.0991 -0.2340
 3481SOL    HW122076   4.267   1.925  16.880 -1.3126 -0.8382  0.8008
 3481SOL    HW222077   4.172   1.825  16.841 -0.3249  2.3959  1.7847
 3482SOL     OW22078   2.161   4.487   4.366  0.9667 -0.1809 -0.5018
 3482SOL    HW122079   2.233   4.451   4.417  0.0683 -0.6596  0.4342
 3482SOL    HW222080   2.142   4.414   4.306 -0.8530 -0.7359  0.7579
 3483SOL     OW22081   3.061   2.343   4.306  0.3209 -0.0908 -0.1082
 3483SOL    HW122082   3.121   2.389   4.247  1.1495 -0.5134  0.3952
 3483SOL    HW222083   3.109   2.354   4.388  1.0732  0.6277 -0.6505
 3484SOL     OW22084   4.457   0.877   2.240 -0.2771 -0.0037 -0.5492
 3484SOL    HW122085   4.530   0.931   2.270  0.3409 -1.5607  0.7546
 3484SOL    HW222086   4.445   0.929   2.161 -0.7559 -0.4017 -0.7361
 3485SOL     OW22087   3.168   1.080   7.778  0.2763 -0.4695  0.0309
 3485SOL    HW122088   3.211   1.001   7.810  2.0374  1.0275  1.3448
 3485SOL    HW222089   3.182   1.137   7.854  2.8346 -0.0104 -0.8009
 3486SOL     OW22090   1.838   1.531   6.186  0.3158 -0.3741  0.4630
 3486SOL    HW122091   1.849   1.483   6.268  1.0585  0.2866  0.7535
 3486SOL    HW222092   1.878   1.615   6.209  3.3193 -1.2876 -1.3739
 3487SOL     OW22093   0.283   2.985  16.279 -0.1293  0.2515 -0.0431
 3487SOL    HW122094   0.208   3.039  16.252  1.6164  1.7956 -1.8259
 3487SOL    HW222095   0.361   3.038  16.260  1.0240 -2.1455 -2.0375
 3488SOL     OW22096   4.685   4.414   8.267 -0.1305  0.1478  0.1160
 3488SOL    HW122097   4.649   4.328   8.290  1.5675 -1.0169 -1.5747
 3488SOL    HW222098   4.670   4.428   8.174 -0.8445  0.4249  0.2738
 3489SOL     OW22099   0.510   4.350   9.062  0.2134 -0.2009  0.0614
 3489SOL    HW122100   0.590   4.355   9.010 -0.8787  1.5756 -1.4645
 3489SOL    HW222101   0.514   4.258   9.085  0.1949  0.0791  1.2061
 3490SOL     OW22102   0.575   3.224   5.360 -0.7060 -0.1021 -0.2857
 3490SOL    HW122103   0.561   3.171   5.439  1.1421 -1.6618 -0.9911
 3490SOL    HW222104   0.557   3.311   5.394 -0.3825 -0.5590  1.0414
 3491SOL     OW22105   2.781   0.751   3.647 -0.5072  0.3244  0.2732
 3491SOL    HW122106   2.804   0.678   3.590  0.2096  1.2525 -0.6224
 3491SOL    HW222107   2.748   0.804   3.575 -1.3491 -0.8090 -0.1760
 3492SOL     OW22108   1.992   1.205   0.181 -0.2952 -0.1178  0.6596
 3492SOL    HW122109   1.981   1.181   0.089  0.0451  0.5818  0.4349
 3492SOL    HW222110   1.993   1.300   0.173 -1.4795 -0.2315 -0.9315
 3493SOL     OW22111   0.653   4.000   5.698  0.1115 -0.3830 -0.0228
 3493SOL    HW122112   0.588   4.047   5.749  0.9689  0.9762 -0.1848
 3493SOL    HW222113   0.600   3.971   5.624  2.0026 -0.7972 -1.2022
 3494SOL     OW22114   1.909   2.486  12.462 -0.0479 -0.1508 -0.0984
 3494SOL    HW122115   1.880   2.396  12.447 -1.9583  0.5012 -0.2618
 3494SOL    HW222116   1.874   2.496  12.551 -1.9441  0.1822 -0.9035
 3495SOL     OW22117   0.325   0.856   7.410 -0.3773 -0.5310 -0.4018
 3495SOL    HW122118   0.263   0.918   7.447  0.2617 -1.3380  2.0184
 3495SOL    HW222119   0.320   0.794   7.483  1.4574  1.5416  1.4779
 3496SOL     OW22120   1.336   1.812   7.481 -0.2940 -0.1674 -0.0794
 3496SOL    HW122121   1.406   1.780   7.424 -1.4384 -0.2664 -1.4240
 3496SOL    HW222122   1.376   1.867   7.548  0.5076  0.6563 -1.2377
 3497SOL     OW22123   2.781   3.690   3.348 -0.3954 -0.3022  0.2463
 3497SOL    HW122124   2.849   3.741   3.304 -1.1012  0.8866  0.5527
 3497SOL    HW222125   2.709   3.704   3.287 -0.2976 -1.4447 -0.1419
 3498SOL     OW22126   0.492   3.491  12.599 -0.4736  0.0658 -0.1206
 3498SOL    HW122127   0.415   3.490  12.656  0.8337  2.8918  1.6928
 3498SOL    HW222128   0.566   3.518  12.654  0.8192  1.1108 -2.3620
 3499SOL     OW22129   3.804   2.751   5.745 -0.0490  0.4588  0.3203
 3499SOL    HW122130   3.877   2.795   5.701 -0.3517  1.9418  1.2919
 3499SOL    HW222131   3.725   2.770   5.694  1.3395  1.2334 -1.5204
 3500SOL     OW22132   2.515   1.463   6.447  0.2766  0.6794 -0.8288
 3500SOL    HW122133   2.601   1.423   6.430  0.5799  0.8228  0.3465
 3500SOL    HW222134   2.460   1.440   6.373 -0.1988  0.4671 -0.4078
 3501SOL     OW22135   0.533   0.825  11.115  0.0481  1.0496  0.2511
 3501SOL    HW122136   0.564   0.865  11.197  0.1503  0.7550  0.3570
 3501SOL    HW222137   0.446   0.859  11.096 -0.3780  0.4754  1.1578
 3502SOL     OW22138   0.190   4.083  11.235 -0.1206 -0.3800 -0.3388
 3502SOL    HW122139   0.250   4.053  11.167  3.2648  0.3176  2.3139
 3502SOL    HW222140   0.236   4.153  11.282 -0.9146 -0.4284  0.4961
 3503SOL     OW22141   3.129   3.448   7.700 -0.5597 -0.2526  0.1325
 3503SOL    HW122142   3.141   3.390   7.625  1.1303 -0.1780  0.3633
 3503SOL    HW222143   3.139   3.386   7.773  0.1687 -0.6869 -0.3424
 3504SOL     OW22144   3.371   1.176   5.169  0.2822  0.2778 -0.3014
 3504SOL    HW122145   3.285   1.212   5.145  0.4140  0.6730 -0.1788
 3504SOL    HW222146   3.412   1.259   5.191 -1.6285  1.7185 -2.2707
 3505SOL     OW22147   3.432   4.164   5.088 -0.3444 -0.1676 -0.2287
 3505SOL    HW122148   3.366   4.096   5.097 -0.5483  0.0160 -0.3331
 3505SOL    HW222149   3.509   4.111   5.068 -1.4153 -2.2621  1.2869
 3506SOL     OW22150   3.386   2.076   8.031  0.0180  0.0463 -0.4274
 3506SOL    HW122151   3.455   2.036   8.084 -0.7932 -0.0708  0.5484
 3506SOL    HW222152   3.388   2.013   7.958 -0.8634  1.1689 -1.4118
 3507SOL     OW22153   4.031   0.508   7.363 -0.1514  0.3742  0.5815
 3507SOL    HW122154   4.054   0.437   7.423  2.4554 -0.6764 -1.6338
 3507SOL    HW222155   3.988   0.566   7.425 -1.6291 -1.1804  1.0000
 3508SOL     OW22156   2.701   0.679  15.022 -0.1357  0.2312 -0.2053
 3508SOL    HW122157   2.651   0.713  14.948  0.8654  0.3463 -0.8265
 3508SOL    HW222158   2.657   0.721  15.096 -0.2648  0.0431 -0.1750
 3509SOL     OW22159   2.620   1.193   5.688 -0.3659 -0.1376 -0.1554
 3509SOL    HW122160   2.538   1.170   5.733 -0.1131  0.5009  0.6320
 3509SOL    HW222161   2.625   1.121   5.625  1.0032 -2.5164  2.6600
 3510SOL     OW22162   0.380   1.908  12.352  0.0612  0.2003  0.1953
 3510SOL    HW122163   0.404   1.870  12.437  2.4096  2.1179  0.3780
 3510SOL    HW222164   0.453   1.969  12.344 -0.7505  1.0837 -0.5124
 3511SOL     OW22165   2.064   0.967  12.979 -0.1473  0.4001  0.4805
 3511SOL    HW122166   1.977   0.929  12.964  0.0642  0.1530 -0.1060
 3511SOL    HW222167   2.079   1.032  12.911 -0.3351 -1.4342 -1.3126
 3512SOL     OW22168   4.059   0.018  12.691 -0.0145  0.4228  0.2009
 3512SOL    HW122169   4.087   0.060  12.772  0.7352 -0.9921  0.6699
 3512SOL    HW222170   4.000   4.686  12.724  0.4739  0.4679  1.1551
 3513SOL     OW22171   1.029   0.940  11.761  0.6681  0.1311  0.3349
 3513SOL    HW122172   1.112   0.891  11.760 -0.0826 -1.1040 -1.3278
 3513SOL    HW222173   0.992   0.923  11.847 -1.7464  2.3549 -0.2847
 3514SOL     OW22174   1.177   2.433  12.672 -0.0283 -0.1736 -0.3532
 3514SOL    HW122175   1.269   2.456  12.671 -0.5372  1.8579 -0.2025
 3514SOL    HW222176   1.175   2.348  12.717 -0.2789 -0.1593 -0.3346
 3515SOL     OW22177   1.194   2.657   7.862 -0.4415 -0.1036  0.6643
 3515SOL    HW122178   1.168   2.749   7.865 -0.0958 -0.0309  1.4279
 3515SOL    HW222179   1.193   2.637   7.955 -2.1193  0.8070  0.8369
 3516SOL     OW22180   1.789   2.054   0.530  0.2657 -0.2194  0.1468
 3516SOL    HW122181   1.767   2.124   0.592  2.3264  0.0104  0.6099
 3516SOL    HW222182   1.720   1.988   0.536  0.1424 -0.1477 -0.5179
 3517SOL     OW22183   4.003   1.102  12.151  0.2582 -0.2943 -0.0664
 3517SOL    HW122184   4.092   1.087  12.182 -0.2124  0.2100  1.5586
 3517SOL    HW222185   3.996   1.054  12.069  0.1049  3.6322 -2.3468
 3518SOL     OW22186   3.467   4.549   4.859 -0.2536  0.1596 -0.6973
 3518SOL    HW122187   3.503   4.557   4.947 -0.3029  0.7519 -0.7288
 3518SOL    HW222188   3.482   4.458   4.833 -0.3712  0.0502 -0.3800
 3519SOL     OW22189   3.710   3.223   2.002  0.3443 -0.3980  0.5009
 3519SOL    HW122190   3.710   3.248   2.094  2.2637 -0.7514  0.6012
 3519SOL    HW222191   3.667   3.138   2.007  0.4226 -0.7321 -3.9793
 3520SOL     OW22192   3.274   0.022   2.733  0.3562 -0.2972 -0.0909
 3520SOL    HW122193   3.236   0.109   2.737 -1.8659 -1.2106 -1.3556
 3520SOL    HW222194   3.346   0.022   2.797 -0.2375  1.4249  0.5639
 3521SOL     OW22195   3.636   2.409   4.526  0.1654  0.4305  0.4107
 3521SOL    HW122196   3.692   2.439   4.597  0.7550 -0.9757  0.5359
 3521SOL    HW222197   3.597   2.336   4.573 -0.6411  1.9614  2.1372
 3522SOL     OW22198   4.614   4.514   4.401  0.5788  0.3802  0.0315
 3522SOL    HW122199   4.520   4.509   4.420  0.6332  1.4298  0.5952
 3522SOL    HW222200   4.643   4.423   4.409  2.5440  0.9445 -0.5677
 3523SOL     OW22201   3.081   1.246   5.131 -0.1284  0.1660  0.4994
 3523SOL    HW122202   3.129   1.263   5.050 -1.4988 -0.0673 -0.3729
 3523SOL    HW222203   3.054   1.335   5.155  0.3676  0.5478 -0.3449
 3524SOL     OW22204   2.636   0.489   3.533 -0.0656  0.6721  0.1141
 3524SOL    HW122205   2.636   0.498   3.438  0.4965 -0.8730 -0.0342
 3524SOL    HW222206   2.550   0.451   3.551  0.7153 -0.3190  1.6823
 3525SOL     OW22207   2.537   3.349   7.265 -0.6271  0.2036 -0.1636
 3525SOL    HW122208   2.553   3.290   7.191 -1.4895 -0.4732  0.1800
 3525SOL    HW222209   2.587   3.423   7.233 -0.9405  0.6662  0.4197
 3526SOL     OW22210   3.704   4.246   4.611  0.0006 -0.4535  0.3058
 3526SOL    HW122211   3.752   4.292   4.542 -0.3296 -1.0345 -0.3056
 3526SOL    HW222212   3.765   4.264   4.683  1.2494  0.2219 -0.9383
 3527SOL     OW22213   0.177   1.437  16.524 -0.7683 -0.1318  0.3277
 3527SOL    HW122214   0.257   1.392  16.550 -0.8454 -0.3433  0.1925
 3527SOL    HW222215   0.198   1.530  16.518 -0.6071 -0.2753 -1.2718
 3528SOL     OW22216   4.251   1.262  14.450  0.0331 -0.0334  0.1142
 3528SOL    HW122217   4.199   1.342  14.456 -0.9461 -0.4315 -3.4270
 3528SOL    HW222218   4.186   1.195  14.472 -3.8558  2.8824 -2.5203
 3529SOL     OW22219   4.538   1.673   3.147  0.4751 -0.0428  0.1510
 3529SOL    HW122220   4.476   1.746   3.150 -0.1394 -0.6319  1.5140
 3529SOL    HW222221   4.617   1.711   3.109 -0.5054  1.9644  0.1098
 3530SOL     OW22222   4.561   3.440  15.309  0.2639 -0.0120 -0.2648
 3530SOL    HW122223   4.565   3.521  15.260  2.4496  0.6383  0.9955
 3530SOL    HW222224   4.473   3.409  15.288  0.5240  0.0376 -1.4221
 3531SOL     OW22225   2.326   4.115   9.560  0.3864 -0.6614 -0.3357
 3531SOL    HW122226   2.318   4.176   9.487  0.3912 -0.4099 -0.1270
 3531SOL    HW222227   2.273   4.039   9.534 -1.3977  0.7528 -0.8208
 3532SOL     OW22228   2.670   4.623   6.341 -0.4610  0.3916  0.3940
 3532SOL    HW122229   2.686   4.549   6.282  2.2767  1.2240  0.0753
 3532SOL    HW222230   2.696   4.591   6.427  1.5324 -1.4171 -0.8879
 3533SOL     OW22231   3.447   2.460   2.088 -0.0080  0.1258 -0.2816
 3533SOL    HW122232   3.383   2.404   2.044  1.3181 -0.7305 -1.1232
 3533SOL    HW222233   3.388   2.488   2.158 -0.2756 -1.4274  0.1069
 3534SOL     OW22234   0.660   4.189  11.514  0.1979  0.1179  0.4646
 3534SOL    HW122235   0.581   4.231  11.480  0.2247 -0.9253 -0.9113
 3534SOL    HW222236   0.705   4.169  11.432  0.0294  1.2222  0.0969
 3535SOL     OW22237   1.773   3.545  17.000 -0.2368 -0.0625  0.2659
 3535SOL    HW122238   1.842   3.556  17.066 -0.9424  3.3380  0.4340
 3535SOL    HW222239   1.803   3.463  16.962  0.3106  0.6008 -0.7465
 3536SOL     OW22240   0.218   2.008  16.868  0.0668  0.3511  0.0192
 3536SOL    HW122241   0.132   2.013  16.910 -0.3067  0.2649 -0.7340
 3536SOL    HW222242   0.211   2.074  16.800 -0.5801 -3.0789 -3.2245
 3537SOL     OW22243   3.991   3.531  11.300 -0.4219  0.3201 -0.2944
 3537SOL    HW122244   3.919   3.581  11.262 -1.1949 -1.1791 -0.7715
 3537SOL    HW222245   3.936   3.466  11.343 -1.7828  1.1649 -0.7777
 3538SOL     OW22246   3.057   3.572   9.487 -0.5135 -0.1427 -0.0271
 3538SOL    HW122247   2.991   3.514   9.448 -1.3968  0.5256  0.4898
 3538SOL    HW222248   3.066   3.525   9.569 -0.1143  3.5714  2.0499
 3539SOL     OW22249   2.556   0.227   4.456 -0.0858  0.0773  0.2973
 3539SOL    HW122250   2.475   0.278   4.460 -0.2787 -0.1885 -0.2456
 3539SOL    HW222251   2.526   0.150   4.408 -0.1431  2.0158 -2.8272
 3540SOL     OW22252   3.787   3.451   4.324 -0.3511 -0.5364  0.2960
 3540SOL    HW122253   3.788   3.360   4.354  1.8366 -0.0111  1.8014
 3540SOL    HW222254   3.838   3.501   4.388 -0.4190 -2.4122  1.8220
 3541SOL     OW22255   3.527   4.367  11.155 -0.5615  0.1537  0.0624
 3541SOL    HW122256   3.552   4.277  11.134 -1.0748 -0.1456  0.7222
 3541SOL    HW222257   3.568   4.383  11.240 -0.3060  1.8357 -0.3795
 3542SOL     OW22258   0.494   2.298   8.779 -0.2347 -0.2701  0.6921
 3542SOL    HW122259   0.566   2.335   8.829 -0.1401 -1.2191  1.2552
 3542SOL    HW222260   0.416   2.346   8.806 -1.7290 -1.1626 -2.0490
 3543SOL     OW22261   1.235   0.813   5.954  0.2043  0.2875 -0.1500
 3543SOL    HW122262   1.165   0.754   5.926  0.4117  0.6842 -1.5081
 3543SOL    HW222263   1.201   0.885   6.008 -2.7021 -1.5480  0.4785
 3544SOL     OW22264   2.658   3.220   2.312 -0.0668 -0.5062  0.5048
 3544SOL    HW122265   2.700   3.305   2.316 -0.9868 -0.0242  0.0106
 3544SOL    HW222266   2.576   3.243   2.356  0.2370 -0.0298  0.8142
 3545SOL     OW22267   1.068   3.896   3.239  0.5490  0.0182 -0.3174
 3545SOL    HW122268   1.049   3.950   3.316  0.1082 -0.9954  0.2789
 3545SOL    HW222269   1.104   3.817   3.278 -0.7863 -0.9677 -1.0802
 3546SOL     OW22270   0.413   0.798   9.316 -0.7748 -0.2202 -1.1018
 3546SOL    HW122271   0.444   0.713   9.287  0.3765 -0.4133  0.7189
 3546SOL    HW222272   0.322   0.791   9.288 -0.7470  0.1157 -1.2843
 3547SOL     OW22273   1.760   0.017  13.414  0.2265  0.1927  0.1498
 3547SOL    HW122274   1.680   0.008  13.466 -0.2350 -1.6138 -0.8722
 3547SOL    HW222275   1.733   0.061  13.333 -0.9974  0.0668  0.4873
 3548SOL     OW22276   1.744   0.304   1.195  0.0138  0.4757 -0.3579
 3548SOL    HW122277   1.756   0.219   1.153  0.0912  0.0681  0.4890
 3548SOL    HW222278   1.831   0.322   1.231 -0.3212  1.1492  0.0962
 3549SOL     OW22279   1.098   3.622   5.277 -0.0771  0.1037 -0.3587
 3549SOL    HW122280   1.153   3.585   5.346 -1.0678  1.8489  1.3566
 3549SOL    HW222281   1.021   3.566   5.285 -0.1473  0.6435  2.8100
 3550SOL     OW22282   1.697   1.877   8.437 -0.6266 -0.4688 -0.0110
 3550SOL    HW122283   1.773   1.930   8.414 -1.3605  1.8198  2.7462
 3550SOL    HW222284   1.637   1.937   8.393  0.7948  0.3165 -0.8771
 3551SOL     OW22285   2.308   0.106   4.694  0.3446 -0.5369  0.1959
 3551SOL    HW122286   2.292   0.106   4.789  0.6614  0.9628  0.2450
 3551SOL    HW222287   2.288   0.197   4.673 -1.8183 -1.2641 -0.8829
 3552SOL     OW22288   3.014   2.338   3.943 -0.2153 -0.5746  0.3045
 3552SOL    HW122289   3.000   2.366   3.853 -2.3829 -0.2440  0.7525
 3552SOL    HW222290   3.109   2.347   3.943 -0.2147 -0.5417 -1.7146
 3553SOL     OW22291   4.251   0.846   1.143 -0.0823  0.0081 -0.2360
 3553SOL    HW122292   4.323   0.907   1.157 -0.4112  0.2836  0.2692
 3553SOL    HW222293   4.177   0.900   1.113  0.1724 -0.6265 -2.0429
 3554SOL     OW22294   0.815   4.219  16.547  0.0325  0.2181 -0.3603
 3554SOL    HW122295   0.761   4.281  16.497  0.0904  1.1148  0.6823
 3554SOL    HW222296   0.745   4.174  16.594 -1.2542  2.3903 -0.1739
 3555SOL     OW22297   1.704   3.709  14.098  0.5963 -0.0612  0.1418
 3555SOL    HW122298   1.692   3.668  14.183 -0.7849  0.9686  0.4479
 3555SOL    HW222299   1.640   3.650  14.058 -0.6121  1.1561  0.2409
 3556SOL     OW22300   3.868   2.283  17.628 -0.1806 -0.1200  0.6866
 3556SOL    HW122301   3.798   2.344  17.652  2.2966  3.0078  0.0150
 3556SOL    HW222302   3.824   2.200  17.611  0.4914 -0.7063  1.8005
 3557SOL     OW22303   2.424   3.075  17.543 -0.0035 -0.0922  0.1109
 3557SOL    HW122304   2.416   3.160  17.500  1.6603 -0.2336 -0.4598
 3557SOL    HW222305   2.518   3.055  17.545 -0.3156 -1.6847 -1.0909
 3558SOL     OW22306   3.798   3.769   8.257  0.4189  0.3033 -0.3550
 3558SOL    HW122307   3.834   3.819   8.183 -1.2596  1.4754 -0.3772
 3558SOL    HW222308   3.737   3.707   8.216  1.3412 -0.2315 -0.9157
 3559SOL     OW22309   4.151   0.590   4.029  0.0310 -0.1860  0.1944
 3559SOL    HW122310   4.079   0.636   4.071 -0.6752 -0.2904 -0.9315
 3559SOL    HW222311   4.208   0.568   4.104 -0.3477  1.2399  0.9002
 3560SOL     OW22312   2.784   2.243   8.385  0.4326  0.2520 -0.1725
 3560SOL    HW122313   2.723   2.298   8.435  1.2144  0.2081  0.8226
 3560SOL    HW222314   2.745   2.156   8.380  0.7515  0.1622 -1.1233
 3561SOL     OW22315   1.202   0.457   3.940  0.3007  0.2485 -0.3004
 3561SOL    HW122316   1.192   0.453   4.035 -2.2106 -2.1339 -0.6451
 3561SOL    HW222317   1.144   0.383   3.922  0.8986 -0.0863 -0.8437
 3562SOL     OW22318   1.229   0.768   2.193  0.0368  0.2033  0.1551
 3562SOL    HW122319   1.174   0.839   2.160  0.9401  0.2437 -1.2362
 3562SOL    HW222320   1.161   0.702   2.206  0.4091 -0.3570 -0.7488
 3563SOL     OW22321   4.155   0.080   3.559  0.5059 -1.0716 -0.0725
 3563SOL    HW122322   4.083   0.018   3.548  0.1792 -0.4465 -1.3260
 3563SOL    HW222323   4.237   0.031   3.553  0.4054 -1.1891 -0.4446
 3564SOL     OW22324   3.392   1.588  15.849  0.2716 -0.1914 -0.1776
 3564SOL    HW122325   3.439   1.644  15.911  0.7738  1.4681 -2.0372
 3564SOL    HW222326   3.341   1.658  15.807 -0.9998 -1.4655 -0.7531
 3565SOL     OW22327   0.220   0.764  14.454  0.1213  0.0629 -0.1911
 3565SOL    HW122328   0.243   0.856  14.441  1.8241 -0.7404 -2.7344
 3565SOL    HW222329   0.270   0.740  14.532  1.4324 -0.4894 -1.2022
 3566SOL     OW22330   0.991   2.248  10.798  0.8429  0.2003  0.3956
 3566SOL    HW122331   1.033   2.335  10.796  1.9117 -0.3252  0.1257
 3566SOL    HW222332   1.053   2.197  10.747  1.7620  1.9565 -0.2702
 3567SOL     OW22333   1.498   2.488  10.485  0.0337  0.2002 -0.4160
 3567SOL    HW122334   1.572   2.436  10.516 -1.1391 -0.1888  1.7886
 3567SOL    HW222335   1.534   2.538  10.412 -3.2759  4.0141  0.5042
 3568SOL     OW22336   0.068   1.867  15.460 -0.9734  0.5826  0.0728
 3568SOL    HW122337   0.154   1.834  15.433 -1.2112  0.1300 -0.1326
 3568SOL    HW222338   0.067   1.808  15.535  1.8636  0.6001  0.1107
 3569SOL     OW22339   3.318   4.003  12.745  0.1780  0.1532  0.4052
 3569SOL    HW122340   3.352   3.971  12.828 -0.4009 -2.6322 -0.4486
 3569SOL    HW222341   3.395   4.032  12.696  0.7774 -0.5484  0.9370
 3570SOL     OW22342   0.525   0.243   9.117  0.0871 -0.0445  0.1531
 3570SOL    HW122343   0.572   0.226   9.199  1.5135  0.1005 -0.6464
 3570SOL    HW222344   0.543   0.171   9.057 -1.0413 -1.6645  1.7195
 3571SOL     OW22345   0.695   1.926  16.076  0.2967  0.4781  0.7555
 3571SOL    HW122346   0.773   1.972  16.043 -0.1400 -0.0619 -1.0650
 3571SOL    HW222347   0.738   1.881  16.148  1.5795  1.4337  0.5887
 3572SOL     OW22348   4.354   1.876   6.324 -0.0241 -0.5182  0.5363
 3572SOL    HW122349   4.388   1.961   6.352 -0.6085 -0.1401  0.1036
 3572SOL    HW222350   4.315   1.888   6.238  1.9935 -0.8916 -0.4222
 3573SOL     OW22351   1.970   4.364  16.940 -0.1691 -0.0039 -0.6807
 3573SOL    HW122352   2.041   4.425  16.959 -0.0313  0.0826 -1.4526
 3573SOL    HW222353   1.931   4.391  16.857 -0.0620  0.1326 -0.6846
 3574SOL     OW22354   2.976   2.898   2.573 -0.0551  0.0690  0.0276
 3574SOL    HW122355   3.038   2.968   2.555  1.5647 -1.1774  0.8307
 3574SOL    HW222356   2.888   2.936   2.573 -0.2895 -0.4608 -2.9960
 3575SOL     OW22357   4.471   3.864   3.083  0.2333 -0.0128  0.3077
 3575SOL    HW122358   4.470   3.787   3.140 -0.0360 -1.4142 -1.5895
 3575SOL    HW222359   4.380   3.893   3.078  0.5633  0.9970  0.0849
 3576SOL     OW22360   1.579   2.833   3.059  0.1719 -0.1508  0.2144
 3576SOL    HW122361   1.550   2.742   3.071  1.1811 -0.9155 -3.1280
 3576SOL    HW222362   1.513   2.867   2.998  1.4807  1.5194 -0.2676
 3577SOL     OW22363   3.124   3.625   6.635  0.5749  0.0567  0.5056
 3577SOL    HW122364   3.126   3.656   6.545  0.4172 -0.5884  0.2746
 3577SOL    HW222365   3.061   3.553   6.632  2.6118 -1.7707  1.3564
 3578SOL     OW22366   3.175   2.981   7.582  0.0680  0.0202 -0.2491
 3578SOL    HW122367   3.236   2.951   7.650 -0.8318  0.9218  0.9749
 3578SOL    HW222368   3.234   2.971   7.508 -2.3790 -1.3665 -2.0326
 3579SOL     OW22369   0.790   1.591   6.442  0.6681 -0.0405 -0.2053
 3579SOL    HW122370   0.787   1.506   6.486  0.0945  0.2091  0.2382
 3579SOL    HW222371   0.875   1.590   6.397  1.0808  0.4061  0.5761
 3580SOL     OW22372   3.697   3.417  11.739 -0.6094  0.3248 -0.3029
 3580SOL    HW122373   3.721   3.509  11.724 -0.1721  0.0795 -1.1538
 3580SOL    HW222374   3.622   3.443  11.792  0.3980 -0.1634  1.3740
 3581SOL     OW22375   2.032   2.111  15.393 -0.1528 -0.3490 -0.5132
 3581SOL    HW122376   2.065   2.120  15.483  1.1568  1.8756 -1.2049
 3581SOL    HW222377   1.982   2.030  15.399 -0.4035 -0.1454  0.1623
 3582SOL     OW22378   4.345   2.287   2.509  0.6282  0.2606  0.7041
 3582SOL    HW122379   4.270   2.285   2.569  0.2775 -0.6873  0.2266
 3582SOL    HW222380   4.408   2.268   2.579  0.7031 -1.4187  0.1720
 3583SOL     OW22381   4.327   4.664   4.698  0.0969  0.9686  0.2996
 3583SOL    HW122382   4.386   0.001   4.681 -0.2768  1.2519  0.2149
 3583SOL    HW222383   4.363   4.634   4.781 -1.6380 -2.7374 -0.2932
 3584SOL     OW22384   3.445   1.736   3.622  0.1517 -0.1333  0.6219
 3584SOL    HW122385   3.529   1.690   3.618  1.1798  1.7418  0.8654
 3584SOL    HW222386   3.392   1.694   3.554  0.3417  0.7942 -0.1019
 3585SOL     OW22387   2.177   0.929   3.966 -0.2739 -0.2101 -0.4792
 3585SOL    HW122388   2.115   0.880   3.912 -0.0801 -0.0702 -0.8340
 3585SOL    HW222389   2.254   0.878   3.942  0.2509  0.9326 -1.2420
 3586SOL     OW22390   4.423   4.178   5.246 -0.3046 -0.0703 -0.0392
 3586SOL    HW122391   4.398   4.266   5.276 -0.1827 -0.1118  0.1835
 3586SOL    HW222392   4.362   4.132   5.304 -0.3150  0.2380  0.1959
 3587SOL     OW22393   2.424   4.436   4.479  0.0970 -0.1865 -0.5283
 3587SOL    HW122394   2.443   4.488   4.557 -1.9318  2.2413 -1.6595
 3587SOL    HW222395   2.504   4.414   4.433  0.6894 -1.4408  1.0800
 3588SOL     OW22396   2.531   2.673   5.530 -0.2806  0.1171 -0.0647
 3588SOL    HW122397   2.451   2.623   5.542  0.1665 -0.9543 -1.5131
 3588SOL    HW222398   2.565   2.676   5.619  3.8775 -0.8801 -1.6312
 3589SOL     OW22399   2.559   2.635   6.351  0.3574 -0.0982  0.3745
 3589SOL    HW122400   2.490   2.651   6.415  0.6647  0.7905  0.4810
 3589SOL    HW222401   2.502   2.634   6.274 -0.4866  1.9000  0.9710
 3590SOL     OW22402   0.117   1.812   1.476 -0.0201  1.0904  0.1493
 3590SOL    HW122403   0.113   1.850   1.388 -0.7711 -0.1752 -0.3784
 3590SOL    HW222404   0.194   1.757   1.460 -1.5073 -0.8442 -0.4647
 3591SOL     OW22405   3.108   1.459  15.621  0.2622 -0.5504 -0.5405
 3591SOL    HW122406   3.149   1.502  15.696 -0.0036 -3.6880  1.4100
 3591SOL    HW222407   3.087   1.537  15.570  0.7981 -0.7198 -1.0130
 3592SOL     OW22408   2.663   2.424   3.962 -0.2574  0.8718 -0.7344
 3592SOL    HW122409   2.624   2.340   3.941  3.1184 -1.1415  1.0947
 3592SOL    HW222410   2.728   2.414   4.032  0.4788 -0.9193 -1.6853
 3593SOL     OW22411   1.891   1.175   2.475 -0.0965  0.2119 -0.4013
 3593SOL    HW122412   1.819   1.216   2.427  1.3169  0.1453 -2.5807
 3593SOL    HW222413   1.885   1.232   2.552 -0.2799 -0.3553  0.0029
 3594SOL     OW22414   2.731   3.882   2.028  0.4591 -0.2109 -0.1344
 3594SOL    HW122415   2.825   3.869   2.037  1.3013  5.4124 -1.0820
 3594SOL    HW222416   2.725   3.943   2.101 -0.0481 -0.6590  0.1972
 3595SOL     OW22417   1.481   0.804   7.296  0.2780 -0.0928 -0.1219
 3595SOL    HW122418   1.574   0.784   7.305  0.4317  0.4520 -0.5560
 3595SOL    HW222419   1.463   0.882   7.348 -0.0591 -0.4374  0.2826
 3596SOL     OW22420   1.444   4.102  15.513  0.7585 -0.0842  0.5018
 3596SOL    HW122421   1.371   4.055  15.472  1.3666  0.3160 -1.0701
 3596SOL    HW222422   1.451   4.060  15.598  0.1390 -0.2992  0.4442
 3597SOL     OW22423   4.467   1.292   5.131  0.3469  0.6512  0.1664
 3597SOL    HW122424   4.494   1.384   5.131  1.7377  0.2329 -0.8269
 3597SOL    HW222425   4.470   1.281   5.036  0.4905  0.1177  0.2379
 3598SOL     OW22426   3.213   1.082   3.185 -0.5112 -0.1683  0.4298
 3598SOL    HW122427   3.152   1.012   3.165 -0.2827 -0.1962 -0.1682
 3598SOL    HW222428   3.172   1.108   3.268  0.5933 -0.9456  1.2223
 3599SOL     OW22429   2.579   2.790  10.827  0.4491  0.7760  0.6030
 3599SOL    HW122430   2.620   2.751  10.905 -0.8621  0.9046  1.3526
 3599SOL    HW222431   2.595   2.882  10.848  4.7252  0.2647 -0.3099
 3600SOL     OW22432   3.175   1.942   3.465 -0.4067 -0.0746 -0.3830
 3600SOL    HW122433   3.229   1.876   3.421  1.0077  0.0773  1.1144
 3600SOL    HW222434   3.116   1.973   3.396 -0.6892 -1.2634 -0.6781
 3601SOL     OW22435   4.481   1.961   7.441  0.2419 -0.6264  0.0236
 3601SOL    HW122436   4.485   1.866   7.441  2.4784 -0.5311  0.2606
 3601SOL    HW222437   4.463   1.976   7.348 -0.6843 -1.2126  0.1102
 3602SOL     OW22438   0.732   0.112  15.172 -0.9333 -0.1169 -0.1758
 3602SOL    HW122439   0.684   0.161  15.105 -1.0152  0.5425  0.3649
 3602SOL    HW222440   0.669   0.108  15.245 -0.0589  0.1168  0.5812
 3603SOL     OW22441   3.595   0.676  14.453 -0.0757 -0.0825  0.0699
 3603SOL    HW122442   3.640   0.740  14.508 -0.0220 -1.4063  1.5780
 3603SOL    HW222443   3.512   0.661  14.498 -1.0838 -1.5445 -2.2734
 3604SOL     OW22444   2.602   1.326   3.115 -0.1116 -0.5664  0.0981
 3604SOL    HW122445   2.524   1.275   3.099  0.0854 -0.6132 -0.6939
 3604SOL    HW222446   2.615   1.337   3.210 -1.0990  0.5024  0.1101
 3605SOL     OW22447   0.146   1.657   9.446  0.0062 -0.2508 -0.2667
 3605SOL    HW122448   0.179   1.581   9.494 -0.3061 -0.4947 -0.4359
 3605SOL    HW222449   0.208   1.654   9.373  0.3093  0.2126 -0.0222
 3606SOL     OW22450   0.750   2.153  15.315 -0.3831  0.2834 -0.0005
 3606SOL    HW122451   0.788   2.072  15.347 -0.9405  0.0847  0.1579
 3606SOL    HW222452   0.804   2.178  15.240  0.0889 -1.1399 -0.1387
 3607SOL     OW22453   1.115   1.032   6.449  0.0045 -0.2485 -0.9194
 3607SOL    HW122454   1.025   1.003   6.465 -0.0707  0.2968 -0.3610
 3607SOL    HW222455   1.135   0.987   6.367  0.1259 -1.3635 -0.2889
 3608SOL     OW22456   0.339   0.302   2.807 -0.0320 -0.2455  0.2376
 3608SOL    HW122457   0.252   0.282   2.774 -0.5741 -2.8677  3.2153
 3608SOL    HW222458   0.341   0.398   2.810  0.8733 -0.2630  0.3043
 3609SOL     OW22459   4.089   2.652   8.127 -0.0570  0.3931 -0.2175
 3609SOL    HW122460   4.020   2.612   8.076 -0.0991 -0.9135  0.8631
 3609SOL    HW222461   4.065   2.745   8.131 -1.7310 -0.0498 -0.2080
 3610SOL     OW22462   2.495   3.202  14.909  0.4745  0.2474 -0.0490
 3610SOL    HW122463   2.576   3.166  14.943 -0.2880 -0.5447  0.9345
 3610SOL    HW222464   2.480   3.139  14.838  1.4272 -1.0645  0.9484
 3611SOL     OW22465   3.058   0.570   5.625  0.1313 -0.0087  0.6458
 3611SOL    HW122466   3.011   0.642   5.667  0.0644 -1.2664  2.7276
 3611SOL    HW222467   3.025   0.489   5.664 -0.8660  1.1052  2.1489
 3612SOL     OW22468   4.014   4.603   8.406 -0.0324 -0.2565  0.5288
 3612SOL    HW122469   4.087   4.647   8.451  1.5680 -0.7282 -1.5895
 3612SOL    HW222470   4.025   4.653   8.325 -0.0082 -0.9420  0.1133
 3613SOL     OW22471   1.994   0.386  11.730  0.1999 -0.3235 -0.0078
 3613SOL    HW122472   2.004   0.305  11.780  0.0792  1.4637  2.9098
 3613SOL    HW222473   2.039   0.451  11.785 -1.2221 -0.2404  1.0713
 3614SOL     OW22474   0.813   2.072   3.738  0.8792 -0.3691  0.1228
 3614SOL    HW122475   0.828   2.148   3.794  0.3915 -1.2733  1.4719
 3614SOL    HW222476   0.735   2.094   3.687  1.0575  0.8016  0.3471
 3615SOL     OW22477   1.209   1.794   4.356  0.7075  0.1088  0.4362
 3615SOL    HW122478   1.241   1.704   4.351 -0.5573 -0.2512 -1.1290
 3615SOL    HW222479   1.281   1.853   4.380  0.7764  0.1393  0.1569
 3616SOL     OW22480   3.388   1.967   5.162  0.4849 -0.4332  0.5379
 3616SOL    HW122481   3.454   2.014   5.211  0.4076 -0.6763  0.8736
 3616SOL    HW222482   3.358   1.898   5.222 -0.2915 -1.2847 -0.8245
 3617SOL     OW22483   1.536   3.131   3.751 -0.1869 -0.0744  0.2147
 3617SOL    HW122484   1.504   3.220   3.766  0.0848  0.1438 -0.4781
 3617SOL    HW222485   1.611   3.125   3.810  0.2185  1.3955 -0.1404
 3618SOL     OW22486   1.101   0.716  10.037 -0.3808  0.3493 -0.0998
 3618SOL    HW122487   1.043   0.782  10.077 -0.1439  1.0068 -0.8403
 3618SOL    HW222488   1.185   0.757  10.016 -0.4054  0.8308  0.7400
 3619SOL     OW22489   4.669   3.397   5.515 -0.0767 -0.5918  0.7149
 3619SOL    HW122490   4.596   3.459   5.507 -0.7383 -1.1906  2.0680
 3619SOL    HW222491   4.689   3.391   5.609  1.4907 -1.1568  0.3469
 3620SOL     OW22492   0.143   2.277   2.755  0.5919 -0.1080 -0.3271
 3620SOL    HW122493   0.186   2.318   2.831  0.4531 -1.1573  0.3130
 3620SOL    HW222494   0.091   2.216   2.807  1.5212  0.8984  1.8326
 3621SOL     OW22495   2.783   3.013   8.172  0.4722 -0.8053 -0.1910
 3621SOL    HW122496   2.717   3.042   8.234  1.6427 -2.5914  1.9093
 3621SOL    HW222497   2.768   3.076   8.102  0.6195  0.6573  1.1065
 3622SOL     OW22498   4.141   2.427  14.803  0.1172 -0.7137 -0.2916
 3622SOL    HW122499   4.064   2.394  14.757 -0.9028 -0.2122  1.0773
 3622SOL    HW222500   4.097   2.508  14.828  2.6107  0.2553  0.9138
 3623SOL     OW22501   4.366   2.091   1.961 -0.0571 -0.2505  0.2667
 3623SOL    HW122502   4.359   2.175   2.006  0.3094  0.7729 -1.5747
 3623SOL    HW222503   4.460   2.073   1.966 -0.1511 -0.9239 -0.4016
 3624SOL     OW22504   4.357   3.400  10.234 -0.2193  0.5879 -0.5579
 3624SOL    HW122505   4.307   3.319  10.223  0.9329 -0.0468 -1.1198
 3624SOL    HW222506   4.438   3.373  10.278  0.0549  0.5529 -1.0883
 3625SOL     OW22507   3.641   0.909   1.035  0.4055  0.0853 -0.1968
 3625SOL    HW122508   3.583   0.907   1.111  0.9789  1.1382  0.2689
 3625SOL    HW222509   3.685   0.992   1.054 -1.0101  0.9600 -0.7203
 3626SOL     OW22510   1.660   3.875   3.984 -0.0811  0.1790  0.1176
 3626SOL    HW122511   1.573   3.881   4.025  0.3824 -0.6062  1.2351
 3626SOL    HW222512   1.671   3.780   3.987  1.5593  0.4257  1.9584
 3627SOL     OW22513   2.424   3.945   9.282 -0.1388 -0.0543 -0.5590
 3627SOL    HW122514   2.448   3.860   9.320  0.4671  1.0311  1.5207
 3627SOL    HW222515   2.512   3.968   9.253 -0.3020  0.3087 -0.7515
 3628SOL     OW22516   3.681   2.402   3.752  0.1563 -0.6288 -0.1104
 3628SOL    HW122517   3.688   2.437   3.841  1.3529  0.2592 -0.5670
 3628SOL    HW222518   3.594   2.362   3.759 -0.4337  0.5073 -0.9723
 3629SOL     OW22519   0.142   0.105   1.705  0.4526  0.3149 -0.3027
 3629SOL    HW122520   0.149   0.199   1.720  0.5445  0.1011  1.0383
 3629SOL    HW222521   0.101   0.109   1.618 -1.4666  0.1440  0.5846
 3630SOL     OW22522   1.153   4.316  10.927 -0.1930 -0.0619  0.5273
 3630SOL    HW122523   1.059   4.327  10.911 -0.3909 -0.6993  1.2183
 3630SOL    HW222524   1.181   4.269  10.849 -2.4655  0.4119 -0.5719
 3631SOL     OW22525   2.025   2.319   8.390  0.5167  0.1521 -0.2571
 3631SOL    HW122526   2.058   2.346   8.304  1.8137  1.6949  0.7559
 3631SOL    HW222527   2.100   2.332   8.447 -0.2518 -1.4030  1.1042
 3632SOL     OW22528   1.018   2.940   6.865 -1.0174  0.2716 -0.1410
 3632SOL    HW122529   0.960   2.955   6.941  2.1433 -0.3748  2.4074
 3632SOL    HW222530   0.997   2.848   6.849 -0.7999  0.5744 -2.1361
 3633SOL     OW22531   0.202   3.645   3.512 -0.1449 -0.0788  0.1738
 3633SOL    HW122532   0.231   3.554   3.503  1.7593  0.4971  0.4995
 3633SOL    HW222533   0.228   3.658   3.603  0.8530  1.3422 -0.3214
 3634SOL     OW22534   4.624   3.832   9.847 -0.2678 -0.2118 -0.1540
 3634SOL    HW122535   4.652   3.879   9.769 -0.9435 -0.9244 -0.8239
 3634SOL    HW222536   4.589   3.755   9.802 -1.9243  0.4188  0.0488
 3635SOL     OW22537   2.488   2.700   1.957 -0.3772 -0.3993  0.2740
 3635SOL    HW122538   2.555   2.764   1.934 -1.3259  1.0035  1.4187
 3635SOL    HW222539   2.545   2.636   1.999 -0.5860 -0.6999  0.1014
 3636SOL     OW22540   2.688   4.715   4.924  0.4607  0.1170 -0.4718
 3636SOL    HW122541   2.599   4.694   4.951  0.9408  0.6129  1.4840
 3636SOL    HW222542   2.662   0.045   4.861  1.5932  1.4237  0.4357
 3637SOL     OW22543   2.929   2.999  14.751  0.5407  0.0425 -0.1061
 3637SOL    HW122544   2.979   2.932  14.704  1.1365 -1.1471  2.2745
 3637SOL    HW222545   2.885   2.944  14.816  0.3310  1.3659  0.8665
 3638SOL     OW22546   1.673   1.578   3.296 -0.7088  0.4847 -0.2374
 3638SOL    HW122547   1.739   1.613   3.355  1.0173 -1.5984 -0.9349
 3638SOL    HW222548   1.602   1.639   3.315  1.8728  2.6393  2.5996
 3639SOL     OW22549   2.065   1.618   0.858  0.0736  0.3966 -0.0755
 3639SOL    HW122550   2.152   1.635   0.821  0.4801 -0.2087  0.6082
 3639SOL    HW222551   2.040   1.707   0.882  1.4862  1.0743 -1.1008
 3640SOL     OW22552   0.203   0.041   9.354 -0.0652 -0.4069 -0.3150
 3640SOL    HW122553   0.211   0.043   9.258 -1.9235  0.3928 -0.4635
 3640SOL    HW222554   0.215   4.683   9.362  0.7420 -0.4090 -1.6011
 3641SOL     OW22555   4.513   2.092  14.435  0.1492 -0.0634  0.4009
 3641SOL    HW122556   4.523   2.155  14.506  1.1879  0.6671 -0.3805
 3641SOL    HW222557   4.513   2.150  14.359  3.6961 -0.7653 -0.1516
 3642SOL     OW22558   0.724   2.062   7.475  0.1133  0.2228  0.5441
 3642SOL    HW122559   0.778   2.120   7.420 -0.8372  0.4495 -0.1545
 3642SOL    HW222560   0.644   2.037   7.430 -0.2620  2.4641 -0.0388
 3643SOL     OW22561   3.512   0.824   8.253 -0.5637  0.4385 -0.1696
 3643SOL    HW122562   3.570   0.868   8.191 -1.3081  1.7259  0.0509
 3643SOL    HW222563   3.574   0.794   8.320 -1.6278 -2.2468 -0.3860
 3644SOL     OW22564   1.876   3.730   5.007  0.2914 -0.7610  0.1215
 3644SOL    HW122565   1.896   3.796   5.074  0.2045 -1.1245  0.5004
 3644SOL    HW222566   1.782   3.749   5.006  0.1615 -1.2800  2.1552
 3645SOL     OW22567   1.860   1.679   3.491  0.3532 -0.1193  0.3203
 3645SOL    HW122568   1.925   1.738   3.455 -0.9691  0.7254 -0.6966
 3645SOL    HW222569   1.897   1.665   3.578 -0.5938 -0.9399  0.5963
 3646SOL     OW22570   2.840   0.725   5.246 -0.1343 -0.2516  0.5805
 3646SOL    HW122571   2.909   0.791   5.257 -0.8455  0.7140 -0.7430
 3646SOL    HW222572   2.848   0.690   5.157 -2.3336 -1.7049  0.9562
 3647SOL     OW22573   0.208   3.817   9.914 -0.1555 -0.3812  0.0443
 3647SOL    HW122574   0.226   3.900   9.958  3.0817 -0.8024 -0.5057
 3647SOL    HW222575   0.113   3.816   9.928 -0.4113  2.7127 -1.3402
 3648SOL     OW22576   2.927   1.824   8.788 -0.4604 -0.3467  0.2571
 3648SOL    HW122577   2.881   1.903   8.815  1.3040  0.6614  0.2864
 3648SOL    HW222578   2.919   1.830   8.693  1.5300 -2.3416 -0.0558
 3649SOL     OW22579   3.516   4.030  14.757 -0.4187 -0.2546 -0.2319
 3649SOL    HW122580   3.525   4.064  14.846 -1.2621 -1.0100  0.1320
 3649SOL    HW222581   3.520   4.106  14.698 -0.2379 -0.7176 -0.8146
 3650SOL     OW22582   2.200   4.631   8.513 -0.9400  0.2684  0.0719
 3650SOL    HW122583   2.145   4.565   8.471  1.0467 -1.0967 -0.4198
 3650SOL    HW222584   2.166   4.638   8.602  0.2948  0.2985  0.5419
 3651SOL     OW22585   4.124   0.676   2.167  0.4783 -0.4725 -0.1167
 3651SOL    HW122586   4.135   0.707   2.077  0.1897  0.4370  0.1673
 3651SOL    HW222587   4.029   0.676   2.167  0.4763  0.7716  1.1963
 3652SOL     OW22588   4.395   0.449  13.620 -0.6153 -0.1736  0.0384
 3652SOL    HW122589   4.332   0.377  13.622 -1.1538  0.2767 -0.5359
 3652SOL    HW222590   4.419   0.463  13.712 -1.0107 -1.5417  0.3584
 3653SOL     OW22591   2.921   0.366   5.186  0.2152 -0.4439 -0.4920
 3653SOL    HW122592   2.973   0.345   5.264 -1.8878 -1.0998  0.7485
 3653SOL    HW222593   2.847   0.408   5.231 -0.2633 -1.3222 -0.4570
 3654SOL     OW22594   3.540   3.032   3.037  0.2184  0.0152  0.1756
 3654SOL    HW122595   3.546   3.113   2.987 -1.8631 -0.5795 -1.0328
 3654SOL    HW222596   3.604   2.978   2.991  2.5676  0.1601  3.2753
 3655SOL     OW22597   1.985   2.150   6.550  0.2585  0.2338  0.1074
 3655SOL    HW122598   1.986   2.229   6.604  0.3520 -0.2660  0.8224
 3655SOL    HW222599   1.918   2.185   6.490 -1.7776  0.3293  2.4679
 3656SOL     OW22600   3.852   2.287   8.950  0.3129 -0.0798 -0.0888
 3656SOL    HW122601   3.802   2.217   8.907 -0.1464 -0.3660  0.9239
 3656SOL    HW222602   3.814   2.294   9.037 -0.0567 -1.9545 -0.0985
 3657SOL     OW22603   1.168   1.369   5.134 -0.8681  0.0215  0.3211
 3657SOL    HW122604   1.239   1.419   5.174 -1.6335  1.1293  0.2920
 3657SOL    HW222605   1.119   1.349   5.214 -0.4264  1.2639  0.9067
 3658SOL     OW22606   4.576   3.576   8.679  0.1052  0.3484  0.1103
 3658SOL    HW122607   4.545   3.660   8.712  0.5710 -0.6988  3.1395
 3658SOL    HW222608   4.532   3.583   8.594 -1.7498  0.1105  1.0373
 3659SOL     OW22609   3.312   2.377  11.222 -0.3639  0.4316  0.0889
 3659SOL    HW122610   3.406   2.360  11.230 -0.4838 -0.4947 -0.4468
 3659SOL    HW222611   3.305   2.447  11.287 -0.5281  1.8009 -1.4025
 3660SOL     OW22612   2.063   3.741   8.910 -0.4726 -0.3238  0.1018
 3660SOL    HW122613   2.016   3.817   8.945  0.2453 -0.3133  1.0650
 3660SOL    HW222614   2.031   3.672   8.969  2.5004 -1.4828  0.3369
 3661SOL     OW22615   2.442   1.918  16.370  0.4529 -0.6585 -0.1226
 3661SOL    HW122616   2.507   1.953  16.431  1.8772 -2.2431 -0.7119
 3661SOL    HW222617   2.361   1.958  16.402  1.5933  1.6178 -0.0820
 3662SOL     OW22618   3.127   2.273  10.611  0.3095  0.3481 -0.3872
 3662SOL    HW122619   3.175   2.350  10.580 -1.6462  1.8402  0.2558
 3662SOL    HW222620   3.180   2.198  10.584  1.1722  0.6546  0.4334
 3663SOL     OW22621   3.388   4.216   2.311 -0.2092  0.3069  0.2559
 3663SOL    HW122622   3.326   4.277   2.351  0.7140  1.2665  0.2486
 3663SOL    HW222623   3.337   4.166   2.248  0.9125 -4.8463  3.4530
 3664SOL     OW22624   1.383   1.258  13.593 -0.0745  0.9870  0.6476
 3664SOL    HW122625   1.476   1.276  13.580  0.0550  1.0083  1.5677
 3664SOL    HW222626   1.387   1.195  13.665  2.8919 -0.3195 -0.6685
 3665SOL     OW22627   3.976   1.096  10.220  0.1500 -0.0661 -0.0759
 3665SOL    HW122628   4.042   1.035  10.188  1.3324  0.6327  1.0349
 3665SOL    HW222629   3.981   1.168  10.157 -1.7872 -0.6479 -0.8848
 3666SOL     OW22630   3.262   1.668  11.297  0.1333  0.0086  0.3075
 3666SOL    HW122631   3.262   1.621  11.381 -0.7533  0.9383  0.8377
 3666SOL    HW222632   3.352   1.662  11.266  0.0560 -0.9310  0.2822
 3667SOL     OW22633   4.677   4.337   4.979  0.2283  0.3433 -0.2711
 3667SOL    HW122634   4.596   4.287   4.994 -0.4422  1.9637  1.5762
 3667SOL    HW222635   4.633   4.421   4.965 -0.6078  0.2614  1.7280
 3668SOL     OW22636   3.355   0.572  14.140  0.1933 -0.1715  0.1242
 3668SOL    HW122637   3.344   0.666  14.125  2.0181 -0.1331 -1.0953
 3668SOL    HW222638   3.328   0.554  14.230 -1.5351 -3.0607 -0.9745
 3669SOL     OW22639   2.152   2.045   0.710  0.3115  0.5978 -0.6855
 3669SOL    HW122640   2.218   2.110   0.736 -0.2968  1.3472 -1.0192
 3669SOL    HW222641   2.168   2.044   0.616  0.8706  1.0453 -0.5946
 3670SOL     OW22642   3.176   2.162  17.258  0.0633 -0.4380 -0.4022
 3670SOL    HW122643   3.136   2.111  17.328  1.0201  1.4562  1.5302
 3670SOL    HW222644   3.106   2.153  17.193 -0.5154 -2.5073  0.5304
 3671SOL     OW22645   3.382   1.786   7.293 -0.1344 -0.0862  0.5970
 3671SOL    HW122646   3.470   1.749   7.282  0.4432  1.5635 -0.3645
 3671SOL    HW222647   3.393   1.842   7.370 -0.8020 -0.4860  0.9792
 3672SOL     OW22648   4.489   2.306  16.103 -0.7383 -0.3977 -0.1998
 3672SOL    HW122649   4.427   2.370  16.067 -1.2953 -0.9425 -0.2157
 3672SOL    HW222650   4.555   2.314  16.034 -2.5886  0.2726 -1.8996
 3673SOL     OW22651   1.052   1.204   6.739  0.5119 -0.3145  0.4615
 3673SOL    HW122652   1.014   1.245   6.817  0.1352  1.7984 -0.8317
 3673SOL    HW222653   1.086   1.122   6.776  1.1302  0.2465  1.1299
 3674SOL     OW22654   3.068   2.466  14.646 -0.7732 -0.4252  0.0520
 3674SOL    HW122655   3.086   2.378  14.680  2.0773 -0.1324 -0.6912
 3674SOL    HW222656   3.123   2.462  14.568 -0.1493  3.0158  0.3213
 3675SOL     OW22657   0.259   2.066   1.002  0.3475  0.3298  0.3127
 3675SOL    HW122658   0.220   2.095   0.919 -1.0005 -0.3139  0.7252
 3675SOL    HW222659   0.243   2.140   1.060  0.6434  0.2326  0.5163
 3676SOL     OW22660   1.919   4.573   9.955  0.0301  0.1818 -0.4761
 3676SOL    HW122661   1.976   4.623   9.897  0.9870 -1.3319 -0.8378
 3676SOL    HW222662   1.966   4.600  10.034 -0.3775  0.2012 -0.2383
 3677SOL     OW22663   4.531   4.196   8.326 -0.3812  0.3279 -0.0179
 3677SOL    HW122664   4.517   4.115   8.276 -0.5283  1.4012 -1.7469
 3677SOL    HW222665   4.439   4.222   8.325 -0.2029  1.0009  1.2669
 3678SOL     OW22666   3.328   4.465   9.278 -0.3895 -0.1297 -0.1388
 3678SOL    HW122667   3.381   4.402   9.325  0.1431 -0.8624 -1.7222
 3678SOL    HW222668   3.259   4.482   9.343 -2.3403  0.3146 -2.2983
 3679SOL     OW22669   4.642   1.260   6.948 -0.2414 -0.0769  0.1856
 3679SOL    HW122670   4.707   1.189   6.945  2.0656  2.0341  0.5661
 3679SOL    HW222671   4.666   1.303   7.030 -1.9216  0.1077  0.5721
 3680SOL     OW22672   0.761   0.874   1.973  0.0338  0.8872  0.1144
 3680SOL    HW122673   0.690   0.869   1.909 -1.9368 -0.0215  2.3739
 3680SOL    HW222674   0.809   0.802   1.933  3.0620  3.1799 -0.3804
 3681SOL     OW22675   0.468   3.566   6.958 -0.3213  0.6761 -0.2873
 3681SOL    HW122676   0.542   3.561   7.019  0.0728 -2.3109 -0.9861
 3681SOL    HW222677   0.529   3.565   6.884 -1.4649 -0.2936 -1.2220
 3682SOL     OW22678   2.419   3.590   7.431  0.5426  0.1038 -0.2477
 3682SOL    HW122679   2.457   3.619   7.514 -1.8276  2.5180 -0.0018
 3682SOL    HW222680   2.483   3.524   7.405  0.8442  0.5541 -0.6555
 3683SOL     OW22681   0.767   2.760  14.829 -0.0192  0.5257  0.2463
 3683SOL    HW122682   0.818   2.778  14.750 -0.9052  1.6214 -0.0780
 3683SOL    HW222683   0.713   2.839  14.832 -0.7920  0.0519 -0.9304
 3684SOL     OW22684   2.913   0.657   4.515  0.0086  0.1068 -0.3648
 3684SOL    HW122685   2.840   0.671   4.574 -0.2962  0.7492 -0.8901
 3684SOL    HW222686   2.868   0.610   4.446 -1.2237  0.3202  0.2974
 3685SOL     OW22687   1.295   3.380   4.923  0.4315  0.2543 -0.0584
 3685SOL    HW122688   1.211   3.386   4.969 -0.6191 -0.1883 -1.9117
 3685SOL    HW222689   1.277   3.416   4.837  0.3317 -1.2932 -0.6940
 3686SOL     OW22690   3.686   0.956   8.111  0.3613 -0.9407  0.0210
 3686SOL    HW122691   3.746   0.912   8.050  0.9384 -0.6957  0.4122
 3686SOL    HW222692   3.666   1.038   8.066 -1.7055 -0.7763  1.2374
 3687SOL     OW22693   2.761   2.424   6.774 -0.0517 -0.4388 -0.2682
 3687SOL    HW122694   2.759   2.413   6.679 -1.1161  1.6551 -0.4988
 3687SOL    HW222695   2.731   2.342   6.813 -2.2929  1.0195  1.0970
 3688SOL     OW22696   1.525   4.427   8.785 -0.1038 -0.4593 -0.0425
 3688SOL    HW122697   1.545   4.459   8.873  0.1402  2.1695 -1.0739
 3688SOL    HW222698   1.615   4.410   8.758  0.2801 -0.7367  1.3763
 3689SOL     OW22699   0.792   4.191  15.821  0.8804  0.0204 -0.1649
 3689SOL    HW122700   0.769   4.158  15.734  1.7761  0.4500 -0.5657
 3689SOL    HW222701   0.784   4.285  15.805  1.6459  0.0171 -0.5573
 3690SOL     OW22702   1.230   2.469   8.275 -0.5608  0.4669 -0.1140
 3690SOL    HW122703   1.304   2.501   8.224 -0.2132  1.7168  1.1816
 3690SOL    HW222704   1.149   2.478   8.225 -0.3640 -3.1184 -1.1104
 3691SOL     OW22705   3.471   0.458   8.058  0.1820  0.0127 -0.4451
 3691SOL    HW122706   3.440   0.382   8.107 -1.0370  1.7372  1.4492
 3691SOL    HW222707   3.389   0.506   8.045 -0.0389 -0.1387  0.3949
 3692SOL     OW22708   1.785   3.604  13.698 -0.2125  0.2904  0.6106
 3692SOL    HW122709   1.844   3.662  13.747 -2.1166  2.4002  0.3997
 3692SOL    HW222710   1.700   3.620  13.739 -0.2467  2.8875 -0.4423
 3693SOL     OW22711   4.279   2.556  17.135  0.3286 -0.2852  0.0840
 3693SOL    HW122712   4.310   2.601  17.056 -1.6226  1.3039  0.2398
 3693SOL    HW222713   4.335   2.584  17.207 -0.2320  1.1457 -0.0473
 3694SOL     OW22714   0.952   3.600  12.083 -0.3511 -0.0870  0.5064
 3694SOL    HW122715   0.867   3.615  12.123 -0.1599  0.3798  0.7398
 3694SOL    HW222716   0.978   3.524  12.135 -0.0093  0.0051  0.4705
 3695SOL     OW22717   2.193   3.481  14.111 -0.4634 -0.0976  0.1942
 3695SOL    HW122718   2.199   3.450  14.021  1.2138 -2.9083  1.2850
 3695SOL    HW222719   2.269   3.436  14.149  0.2405  0.3343 -0.7007
 3696SOL     OW22720   4.324   4.175  14.981 -0.2354 -0.6358  0.5068
 3696SOL    HW122721   4.416   4.182  14.958 -0.5714 -0.3847 -0.7495
 3696SOL    HW222722   4.305   4.087  14.947  0.2748 -0.1967 -0.9145
 3697SOL     OW22723   1.597   4.177  15.307  0.3449  0.6302 -0.3456
 3697SOL    HW122724   1.555   4.132  15.380  0.2386 -2.5728 -2.4093
 3697SOL    HW222725   1.522   4.230  15.278  0.1485  0.3731 -0.3049
 3698SOL     OW22726   4.621   0.046   8.143 -0.1931 -0.1364  0.1473
 3698SOL    HW122727   4.546   0.105   8.138  0.0018  0.2495  1.7338
 3698SOL    HW222728   4.598   4.722   8.214  0.3277  0.6968  1.0134
 3699SOL     OW22729   3.457   1.358   9.687  0.4382 -0.0898 -0.1636
 3699SOL    HW122730   3.456   1.296   9.761 -2.5128  0.1045 -0.0262
 3699SOL    HW222731   3.364   1.381   9.681  0.5513  0.4124 -0.0307
 3700SOL     OW22732   4.184   1.632  14.141  0.0474  0.4198 -0.1541
 3700SOL    HW122733   4.225   1.716  14.165  2.7405 -1.1043  0.6312
 3700SOL    HW222734   4.114   1.631  14.206  0.4778 -0.7930  0.2998
 3701SOL     OW22735   3.381   0.890   7.863 -0.1416 -0.4847  0.1723
 3701SOL    HW122736   3.341   0.852   7.941  0.4566 -1.2250  0.1287
 3701SOL    HW222737   3.463   0.841   7.861 -0.2293 -0.6749  1.4454
 3702SOL     OW22738   3.420   3.674  17.354 -0.2975  0.6553 -0.5252
 3702SOL    HW122739   3.426   3.768  17.369 -0.5661  0.7431 -0.9778
 3702SOL    HW222740   3.413   3.649  17.446  0.5810 -2.3420 -1.2832
 3703SOL     OW22741   1.591   1.310   3.415  0.5780  0.5337 -0.1551
 3703SOL    HW122742   1.643   1.389   3.400  0.1740  0.4052 -2.2489
 3703SOL    HW222743   1.639   1.275   3.490 -1.9173  0.2465  1.3034
 3704SOL     OW22744   0.110   0.561   2.138  0.0324 -0.6350  0.9130
 3704SOL    HW122745   0.085   0.632   2.079 -2.9468 -3.5139 -1.2352
 3704SOL    HW222746   0.119   0.612   2.218 -0.6640 -0.4166  0.8469
 3705SOL     OW22747   1.580   0.798   0.293  0.2219  1.1574  0.4082
 3705SOL    HW122748   1.524   0.812   0.369  0.8270  1.2163  0.8443
 3705SOL    HW222749   1.663   0.767   0.330 -0.0240 -1.3225 -1.1014
 3706SOL     OW22750   0.117   3.836   8.984  0.2243 -0.0129 -0.1456
 3706SOL    HW122751   0.209   3.848   8.962 -0.3059 -1.0377 -2.9399
 3706SOL    HW222752   0.073   3.906   8.934  1.4917 -0.6448 -2.1514
 3707SOL     OW22753   1.735   0.935  12.066 -0.1392  0.5500  0.7584
 3707SOL    HW122754   1.703   0.908  11.980  1.5481 -1.9155  0.8999
 3707SOL    HW222755   1.653   0.974  12.097 -1.6817 -2.8342  0.8440
 3708SOL     OW22756   4.067   2.696   3.108  0.3039 -0.8038  0.4766
 3708SOL    HW122757   4.102   2.770   3.158  0.4639 -0.2160 -0.5049
 3708SOL    HW222758   4.109   2.618   3.144  1.5782  0.4327  1.7072
 3709SOL     OW22759   0.281   1.974  15.181 -0.4027 -0.3727  0.2663
 3709SOL    HW122760   0.318   2.061  15.166 -1.5882 -0.3245 -2.4122
 3709SOL    HW222761   0.358   1.917  15.189 -0.2870  0.0441  2.1013
 3710SOL     OW22762   2.185   3.861   9.591 -0.4144 -0.3615 -0.1105
 3710SOL    HW122763   2.144   3.775   9.595 -1.4451  0.1079 -0.5519
 3710SOL    HW222764   2.195   3.886   9.683 -1.7378  5.4912 -1.5184
 3711SOL     OW22765   2.947   3.879   3.210 -0.0776  0.5739 -0.1854
 3711SOL    HW122766   2.966   3.943   3.278  1.8740  1.3022 -1.3982
 3711SOL    HW222767   3.036   3.872   3.174 -0.1280  0.4533 -0.2892
 3712SOL     OW22768   3.659   4.372   7.613 -0.2037 -0.6721 -0.3153
 3712SOL    HW122769   3.718   4.383   7.688  0.4036 -0.6895 -0.7851
 3712SOL    HW222770   3.721   4.342   7.547 -1.1124 -0.3458 -1.3043
 3713SOL     OW22771   4.059   3.371  15.745  0.8441  0.5102  0.3345
 3713SOL    HW122772   4.073   3.464  15.729 -1.2270  0.6752 -0.4062
 3713SOL    HW222773   4.087   3.357  15.835 -0.7177 -3.5991  0.1788
 3714SOL     OW22774   4.489   0.519   7.513 -0.1397  0.2644 -0.7533
 3714SOL    HW122775   4.397   0.542   7.523 -0.6886 -0.5169 -4.2023
 3714SOL    HW222776   4.479   0.427   7.538  1.0237  0.1341 -0.7718
 3715SOL     OW22777   0.244   2.873   5.846 -0.2871  0.0736 -0.2061
 3715SOL    HW122778   0.159   2.906   5.876 -0.5544  0.2082 -1.1336
 3715SOL    HW222779   0.301   2.910   5.914 -1.1184  1.2782 -0.1801
 3716SOL     OW22780   4.329   1.483   1.759 -0.4479 -0.0566 -0.5854
 3716SOL    HW122781   4.276   1.533   1.698 -1.1499  0.4627  0.4516
 3716SOL    HW222782   4.288   1.397   1.757 -0.6548  0.0740 -1.9512
 3717SOL     OW22783   0.461   0.572   8.665 -0.0392 -0.0443  0.5027
 3717SOL    HW122784   0.469   0.663   8.695  1.0010  0.3440 -0.9829
 3717SOL    HW222785   0.440   0.595   8.575  0.8766  2.0382  0.8159
 3718SOL     OW22786   3.060   3.412   0.999 -0.0243  0.0135 -0.4655
 3718SOL    HW122787   3.062   3.506   0.983  0.4019 -0.0763 -0.9344
 3718SOL    HW222788   3.084   3.382   0.912 -1.6210  1.7961 -1.5307
 3719SOL     OW22789   1.744   3.995   8.207 -0.1406  0.0589  0.0108
 3719SOL    HW122790   1.678   3.958   8.265 -1.8559  1.2859 -1.1560
 3719SOL    HW222791   1.774   4.073   8.254 -1.5652  1.0966 -0.8128
 3720SOL     OW22792   0.748   0.427   2.802 -0.0680  0.1555 -0.3373
 3720SOL    HW122793   0.841   0.423   2.781 -0.2863 -2.0003 -0.8203
 3720SOL    HW222794   0.741   0.486   2.877  2.6192  1.4188 -1.0642
 3721SOL     OW22795   4.618   3.005  12.275  0.2943 -0.2019  0.2875
 3721SOL    HW122796   4.653   3.088  12.243  0.1112 -0.2674 -0.0802
 3721SOL    HW222797   4.582   3.024  12.362  0.8330  0.8389  0.2858
 3722SOL     OW22798   3.907   4.377   6.882  0.0438 -0.1748  0.6496
 3722SOL    HW122799   3.957   4.315   6.830  0.6503 -1.7458  3.1061
 3722SOL    HW222800   3.854   4.315   6.933 -1.2145 -0.4953 -1.0556
 3723SOL     OW22801   1.355   3.041   1.687  0.3603 -0.2170 -0.4257
 3723SOL    HW122802   1.418   2.991   1.635 -0.0118  1.6204 -2.6310
 3723SOL    HW222803   1.376   3.132   1.669  0.6057 -0.6829 -2.4363
 3724SOL     OW22804   0.670   2.557   8.628 -0.4095  0.0497  0.1536
 3724SOL    HW122805   0.631   2.490   8.571  0.7254  1.3549 -2.1893
 3724SOL    HW222806   0.588   2.598   8.654 -0.9797 -0.7905 -0.2821
 3725SOL     OW22807   0.453   1.878   1.037  0.3504 -0.0867  0.0888
 3725SOL    HW122808   0.472   1.941   1.107 -1.8006 -0.5720  1.0941
 3725SOL    HW222809   0.379   1.927   1.000  0.4963 -0.1088 -0.2344
 3726SOL     OW22810   2.709   1.510   7.904 -0.5885 -1.0132 -0.6971
 3726SOL    HW122811   2.666   1.562   7.836 -1.3610 -0.4177  0.2392
 3726SOL    HW222812   2.748   1.583   7.952 -0.4651 -0.7394 -1.2120
 3727SOL     OW22813   1.469   2.617  17.368  0.6247 -0.1999  0.2343
 3727SOL    HW122814   1.373   2.609  17.374  0.4547  1.6861 -0.0321
 3727SOL    HW222815   1.483   2.644  17.277 -0.6482  0.4766  0.2422
 3728SOL     OW22816   2.587   1.808   7.036  0.1647  0.3428  0.2992
 3728SOL    HW122817   2.570   1.743   6.968  2.9182 -0.1175  0.0539
 3728SOL    HW222818   2.679   1.829   7.019 -0.3590  1.1330 -1.5724
 3729SOL     OW22819   0.940   3.844  11.771  0.3507 -0.0389 -0.7477
 3729SOL    HW122820   1.023   3.889  11.754  0.1437  0.4838 -0.3408
 3729SOL    HW222821   0.878   3.916  11.773 -0.3085 -0.4784 -4.1048
 3730SOL     OW22822   3.543   1.856   1.634 -0.1696 -0.4300 -0.1298
 3730SOL    HW122823   3.626   1.811   1.650 -0.7994 -1.4227  0.3054
 3730SOL    HW222824   3.495   1.803   1.571 -0.2786 -0.9394  0.3817
 3731SOL     OW22825   3.657   2.520   4.924 -0.1820 -0.2165  0.2366
 3731SOL    HW122826   3.636   2.609   4.896 -0.5575 -0.9726 -1.8582
 3731SOL    HW222827   3.665   2.549   5.015  1.6233 -2.7419  0.8620
 3732SOL     OW22828   0.044   0.731   7.196  0.5588 -0.0239  0.4219
 3732SOL    HW122829   4.727   0.808   7.176 -0.4231 -0.7518  0.2711
 3732SOL    HW222830   0.136   0.755   7.182  0.9027 -1.5286  0.1836
 3733SOL     OW22831   3.374   2.241   6.457  0.0552 -0.5407  0.4295
 3733SOL    HW122832   3.442   2.244   6.524 -0.9406 -2.7543  1.5548
 3733SOL    HW222833   3.304   2.282   6.509 -0.7774 -0.5751 -0.6646
 3734SOL     OW22834   1.570   1.973  12.713  0.0237 -0.0272  0.0547
 3734SOL    HW122835   1.644   1.947  12.768  0.9507 -0.8865 -1.6013
 3734SOL    HW222836   1.532   2.034  12.776 -0.9286 -0.8242  0.2471
 3735SOL     OW22837   4.408   2.194   3.369  0.0037 -0.3606 -0.4780
 3735SOL    HW122838   4.449   2.281   3.366  0.0860 -0.4504 -1.9322
 3735SOL    HW222839   4.404   2.190   3.465  0.3607  2.6436 -0.3257
 3736SOL     OW22840   1.612   0.520   6.974  0.3341  0.7543 -0.1685
 3736SOL    HW122841   1.562   0.562   6.904 -2.1799  1.7905  2.2669
 3736SOL    HW222842   1.595   0.426   6.968 -0.8009  1.0556 -1.5872
 3737SOL     OW22843   1.179   0.331  11.644  0.4564  0.1790 -0.1054
 3737SOL    HW122844   1.174   0.365  11.555 -0.2820  1.4975  0.4370
 3737SOL    HW222845   1.086   0.316  11.663  0.6310 -1.4915 -0.5694
 3738SOL     OW22846   2.489   0.726  17.632 -0.0119  0.0929  0.3147
 3738SOL    HW122847   2.402   0.686  17.635 -0.1673  0.5565  1.7281
 3738SOL    HW222848   2.528   0.712  17.718 -1.0172 -0.6105  0.6525
 3739SOL     OW22849   0.566   2.675   8.225  0.6050  0.1065  0.6876
 3739SOL    HW122850   0.484   2.640   8.261 -0.9887  3.1481  0.0201
 3739SOL    HW222851   0.516   2.743   8.178 -0.3429 -1.8285 -1.1291
 3740SOL     OW22852   2.333   1.571   5.141  0.5771  0.1427 -0.6301
 3740SOL    HW122853   2.396   1.526   5.085  2.2550  0.3733  1.0945
 3740SOL    HW222854   2.318   1.500   5.204 -2.5110 -0.9346 -2.5297
 3741SOL     OW22855   2.649   1.473   4.470 -0.2068 -0.3198 -0.0092
 3741SOL    HW122856   2.696   1.556   4.457  0.9810 -0.7160  1.7069
 3741SOL    HW222857   2.600   1.481   4.552 -0.1652  1.0012 -0.1108
 3742SOL     OW22858   3.267   0.134   3.912  0.3613  0.4272 -0.8144
 3742SOL    HW122859   3.188   0.188   3.913  0.8165  1.0697  0.3313
 3742SOL    HW222860   3.305   0.142   3.999 -0.6690  1.0288 -0.4216
 3743SOL     OW22861   1.747   2.441   9.180 -0.2564  0.6116  0.0065
 3743SOL    HW122862   1.794   2.366   9.144 -0.7666 -1.1343  2.9703
 3743SOL    HW222863   1.758   2.504   9.108  0.9248  1.9651  1.3481
 3744SOL     OW22864   3.091   0.004   8.903 -0.1062  0.0611  0.2071
 3744SOL    HW122865   3.163   0.036   8.850 -2.8291 -0.3895 -3.7480
 3744SOL    HW222866   3.037   4.682   8.850 -1.8772  1.8278  0.0699
 3745SOL     OW22867   0.923   0.844  17.128  0.4314  0.6275  0.0179
 3745SOL    HW122868   0.880   0.902  17.191 -0.8172 -1.7737  1.3974
 3745SOL    HW222869   0.871   0.865  17.051 -1.4234 -3.2637  0.1737
 3746SOL     OW22870   1.228   0.765   0.635 -0.6237 -0.3713  0.2794
 3746SOL    HW122871   1.312   0.749   0.592 -1.7344  0.2650 -2.1145
 3746SOL    HW222872   1.200   0.829   0.569 -2.4130 -1.7000 -0.2497
 3747SOL     OW22873   0.423   3.981   2.340  0.2545 -0.2770 -0.5866
 3747SOL    HW122874   0.465   4.056   2.384 -0.8100 -0.8362  1.3611
 3747SOL    HW222875   0.500   3.941   2.300  1.7474  1.5913  0.3771
 3748SOL     OW22876   0.409   2.714   5.530 -0.6457 -0.5517  0.3638
 3748SOL    HW122877   0.327   2.677   5.561 -0.1120 -1.7080  0.3899
 3748SOL    HW222878   0.394   2.727   5.437  2.3642 -0.0345 -0.0656
 3749SOL     OW22879   1.110   2.023  13.572  0.2887 -0.3333 -0.1603
 3749SOL    HW122880   1.043   2.001  13.507  0.2824  2.5335 -1.1133
 3749SOL    HW222881   1.134   2.109  13.539  0.0471  0.5316  1.9216
 3750SOL     OW22882   0.880   4.448   3.917  0.6354 -0.8348  0.3954
 3750SOL    HW122883   0.793   4.413   3.938  0.6703  0.5068  2.8316
 3750SOL    HW222884   0.896   4.404   3.833  1.5313  1.0158 -0.3843
 3751SOL     OW22885   4.318   3.191   2.289 -0.3435  0.4791 -0.2051
 3751SOL    HW122886   4.297   3.147   2.371  1.3610  1.8883  1.0043
 3751SOL    HW222887   4.412   3.175   2.282 -0.9486 -2.6534 -0.7761
 3752SOL     OW22888   4.396   0.441   3.907 -0.1835  0.3005 -0.1328
 3752SOL    HW122889   4.366   0.472   3.993 -0.0239  1.7272 -0.5933
 3752SOL    HW222890   4.313   0.423   3.863 -0.6937 -0.0349  0.9510
 3753SOL     OW22891   2.990   0.628   1.096 -0.2340  0.0469  0.1619
 3753SOL    HW122892   2.980   0.717   1.131  2.8485 -0.4322  2.1638
 3753SOL    HW222893   2.918   0.585   1.143  1.1661 -0.7057  1.5940
 3754SOL     OW22894   1.451   2.025   3.795  0.8301 -0.0322  0.8837
 3754SOL    HW122895   1.447   2.117   3.823  2.4674 -0.6622  3.1915
 3754SOL    HW222896   1.536   1.991   3.825  1.7586  3.4315  2.1776
 3755SOL     OW22897   2.413   2.511  10.585  0.1387  0.3827 -0.0412
 3755SOL    HW122898   2.407   2.504  10.490 -2.2937 -1.3640  0.2311
 3755SOL    HW222899   2.321   2.517  10.611  0.3609 -0.1448  0.8606
 3756SOL     OW22900   2.324   2.300   1.238  0.2445 -0.2230  0.2030
 3756SOL    HW122901   2.296   2.339   1.321  0.5566  1.7157 -0.5865
 3756SOL    HW222902   2.322   2.377   1.180 -0.6906  0.7053  1.4597
 3757SOL     OW22903   4.614   3.100   4.673  0.0044  0.1127 -0.4224
 3757SOL    HW122904   4.707   3.082   4.659  0.9808  2.7654  2.6919
 3757SOL    HW222905   4.616   3.155   4.752 -3.3453  0.0687 -0.3012
 3758SOL     OW22906   4.489   3.116  13.401  0.4146  0.1802  0.0721
 3758SOL    HW122907   4.457   3.054  13.467 -2.5705  0.1580 -1.4006
 3758SOL    HW222908   4.400   3.148  13.384  0.8725  2.0896  1.2407
 3759SOL     OW22909   2.608   3.326  11.472  0.1928 -0.2045 -0.1859
 3759SOL    HW122910   2.603   3.237  11.437  0.4025 -0.5684  0.7107
 3759SOL    HW222911   2.701   3.335  11.496 -0.1264 -0.2622  1.0448
 3760SOL     OW22912   2.400   0.488   6.373 -0.4021 -0.3492 -0.4246
 3760SOL    HW122913   2.428   0.561   6.428 -0.4293  0.1976 -1.1452
 3760SOL    HW222914   2.342   0.441   6.433 -0.8013  0.1146 -0.4437
 3761SOL     OW22915   3.128   3.071   4.162 -0.4902  0.1018  0.0759
 3761SOL    HW122916   3.212   3.099   4.124  0.2627 -1.8266  0.2948
 3761SOL    HW222917   3.072   3.132   4.113 -0.3819 -0.1988 -0.4294
 3762SOL     OW22918   1.012   0.736  15.669 -0.1930  0.1274  0.1929
 3762SOL    HW122919   0.946   0.719  15.737 -1.5751 -1.7435 -1.6421
 3762SOL    HW222920   1.076   0.773  15.731 -0.9626 -2.4716  2.5558
 3763SOL     OW22921   1.546   3.117  15.008  0.2461 -0.1132  0.1635
 3763SOL    HW122922   1.507   3.201  15.032  0.3438  0.0656 -0.3080
 3763SOL    HW222923   1.578   3.159  14.928  2.1883  0.5937  1.2978
 3764SOL     OW22924   4.348   2.610   6.685 -0.4619  0.4380  0.8641
 3764SOL    HW122925   4.285   2.540   6.667  0.9525 -0.3446 -1.0273
 3764SOL    HW222926   4.352   2.600   6.780 -0.6658 -0.2281  0.8012
 3765SOL     OW22927   2.672   0.773  17.421  0.0847 -0.1373 -0.1454
 3765SOL    HW122928   2.635   0.847  17.373  1.9885 -0.5410 -2.2539
 3765SOL    HW222929   2.618   0.771  17.500 -1.1252  0.9102 -0.9547
 3766SOL     OW22930   0.173   1.625  12.422 -1.1387 -0.5086  0.2035
 3766SOL    HW122931   0.234   1.653  12.491 -1.2686  2.1486 -0.7625
 3766SOL    HW222932   0.176   1.530  12.432 -2.5682 -0.5540  0.2425
 3767SOL     OW22933   1.535   0.377   2.777  0.4123  0.7400  0.1544
 3767SOL    HW122934   1.624   0.382   2.811 -0.5758 -0.3415  2.9112
 3767SOL    HW222935   1.542   0.349   2.686 -2.0219  0.7935 -0.0521
 3768SOL     OW22936   1.784   3.819   7.222 -0.0799  0.3731 -0.4073
 3768SOL    HW122937   1.801   3.739   7.272 -1.7559  0.1212 -0.2333
 3768SOL    HW222938   1.828   3.783   7.145 -2.2286  2.1509 -2.4622
 3769SOL     OW22939   0.965   0.233   7.704 -0.0618  0.4839 -0.2511
 3769SOL    HW122940   0.888   0.253   7.758  0.5707 -0.8020  1.1248
 3769SOL    HW222941   0.939   0.142   7.689 -1.3427  1.3221 -3.1747
 3770SOL     OW22942   0.147   4.030  14.998  0.1247 -0.0879  0.2961
 3770SOL    HW122943   0.178   4.120  14.989 -0.6919  0.2658  0.9510
 3770SOL    HW222944   0.062   4.058  15.034  0.6361  1.5531  0.2281
 3771SOL     OW22945   4.006   0.520   9.623 -0.1231  0.3551 -0.2017
 3771SOL    HW122946   4.070   0.550   9.687  0.3489 -3.0872  0.9312
 3771SOL    HW222947   3.971   0.446   9.672  0.3919  0.5092  0.3896
 3772SOL     OW22948   2.049   1.418   1.844 -0.2114 -0.3770 -0.1009
 3772SOL    HW122949   2.039   1.468   1.763  0.8172  0.3240  0.2036
 3772SOL    HW222950   1.982   1.463   1.895  0.0990  2.0938 -1.8465
 3773SOL     OW22951   4.664   0.488   5.956 -0.4709 -0.3337 -0.5306
 3773SOL    HW122952   4.640   0.577   5.931 -0.9668  0.0157  1.1938
 3773SOL    HW222953   4.582   0.441   5.944 -0.3069 -0.1606 -2.3251
 3774SOL     OW22954   1.626   1.926   6.982  0.5375 -0.9962  0.7691
 3774SOL    HW122955   1.609   1.910   6.889 -0.0601 -2.8177  1.1899
 3774SOL    HW222956   1.702   1.871   6.999  2.3756  1.1892 -0.3756
 3775SOL     OW22957   0.689   4.258   8.219 -0.1534 -0.0704 -0.6699
 3775SOL    HW122958   0.717   4.174   8.183  0.0900 -1.1625  2.0436
 3775SOL    HW222959   0.767   4.306   8.194 -0.3843 -0.8351 -2.8888
 3776SOL     OW22960   0.635   3.474  17.517  0.4077 -0.3914 -0.2858
 3776SOL    HW122961   0.725   3.456  17.490  1.4130  2.1065  1.3342
 3776SOL    HW222962   0.598   3.386  17.511 -0.6219 -0.0225  0.6998
 3777SOL     OW22963   1.866   3.979   5.156 -0.5082  0.5552 -0.1395
 3777SOL    HW122964   1.801   4.022   5.212 -1.7723 -0.0390 -1.1785
 3777SOL    HW222965   1.949   4.000   5.199 -0.2782  2.0346 -1.3201
 3778SOL     OW22966   3.190   4.257  14.987  0.0390  0.0475 -0.5632
 3778SOL    HW122967   3.215   4.168  15.013  0.8419  0.1622 -0.9477
 3778SOL    HW222968   3.194   4.248  14.892 -0.2304  1.2465 -0.6846
 3779SOL     OW22969   2.037   4.189   4.646  0.1580  0.0330  0.0714
 3779SOL    HW122970   2.042   4.114   4.706 -1.6064 -1.1159 -1.2392
 3779SOL    HW222971   2.026   4.256   4.713  1.0012 -1.2338  1.4699
 3780SOL     OW22972   4.015   2.698  14.175 -0.0572  0.0265  0.0593
 3780SOL    HW122973   3.931   2.716  14.217 -0.2091 -0.9312  0.1807
 3780SOL    HW222974   4.009   2.701  14.079  1.1490 -2.2477 -0.0824
 3781SOL     OW22975   4.201   3.778  13.912 -0.3211  0.2285 -0.3764
 3781SOL    HW122976   4.113   3.782  13.876 -0.5839  2.4263  0.5135
 3781SOL    HW222977   4.241   3.843  13.854  0.6208 -1.9118 -2.1167
 3782SOL     OW22978   3.639   0.203  13.010 -0.2301 -0.0710 -0.0934
 3782SOL    HW122979   3.708   0.240  12.955  0.5342 -0.6096  0.4991
 3782SOL    HW222980   3.672   0.233  13.095  0.5105  1.8701 -1.0576
 3783SOL     OW22981   2.354   1.183   5.825 -0.0377 -0.3706  0.9219
 3783SOL    HW122982   2.307   1.191   5.908 -0.1249  4.6517  0.3856
 3783SOL    HW222983   2.385   1.270   5.800 -0.5226 -0.1108  1.2101
 3784SOL     OW22984   1.774   1.684   3.963 -0.0135 -0.1358 -0.4672
 3784SOL    HW122985   1.699   1.653   3.913 -2.1379  0.0749  2.5678
 3784SOL    HW222986   1.738   1.727   4.040  2.1610 -2.2363  1.7407
 3785SOL     OW22987   4.156   2.998   6.395 -0.1221  0.2744 -0.2881
 3785SOL    HW122988   4.204   3.081   6.390  1.4145 -0.5834  0.1710
 3785SOL    HW222989   4.124   3.002   6.485 -0.0216  1.2517 -0.2889
 3786SOL     OW22990   4.057   4.448   9.064  0.3244  0.5365  0.0237
 3786SOL    HW122991   4.146   4.423   9.038  0.0101 -0.7317  0.1688
 3786SOL    HW222992   4.055   4.540   9.036  0.3702  0.8558  1.0560
 3787SOL     OW22993   0.004   4.216   2.765 -0.1206  0.3002  0.1287
 3787SOL    HW122994   0.044   4.277   2.827 -0.3434  3.2888 -2.6210
 3787SOL    HW222995   4.694   4.171   2.836 -0.2730  1.6085  0.8666
 3788SOL     OW22996   1.543   2.712   8.942 -0.1149  0.0941  0.4387
 3788SOL    HW122997   1.577   2.634   8.899 -1.6520  0.4121 -1.3505
 3788SOL    HW222998   1.592   2.775   8.888  0.3015 -0.2009  0.4717
 3789SOL     OW22999   0.815   0.808   7.445 -0.0317  0.0958  0.7204
 3789SOL    HW123000   0.747   0.815   7.378 -0.3537 -1.9452  0.8446
 3789SOL    HW223001   0.848   0.718   7.438 -0.6773 -0.0050 -0.8999
 3790SOL     OW23002   0.237   1.977  12.778 -0.1748 -0.1860  0.6755
 3790SOL    HW123003   0.309   2.034  12.751  1.1398 -1.6578  0.9995
 3790SOL    HW223004   0.251   1.902  12.721  2.9367  2.0000 -1.4532
 3791SOL     OW23005   0.436   3.503  14.358 -0.5948  0.6707  0.3894
 3791SOL    HW123006   0.390   3.445  14.418  3.4364 -1.4551  1.3581
 3791SOL    HW223007   0.361   3.542  14.312 -0.0456  0.1624 -0.9377
 3792SOL     OW23008   1.062   4.050  11.164  0.5985  0.3574  0.1026
 3792SOL    HW123009   1.058   4.077  11.072  0.6291 -0.2152 -0.0676
 3792SOL    HW223010   1.116   3.971  11.164  3.5329  2.3705  0.0738
 3793SOL     OW23011   3.955   3.528  17.337 -0.1016 -0.4565  0.3409
 3793SOL    HW123012   3.922   3.614  17.363  2.4755  0.2643  1.2145
 3793SOL    HW223013   4.049   3.540  17.347 -0.0944  0.6944 -1.0671
 3794SOL     OW23014   3.774   1.698   0.764  0.1350 -0.1949  0.6793
 3794SOL    HW123015   3.687   1.657   0.757  0.1789 -0.0240 -0.9966
 3794SOL    HW223016   3.784   1.723   0.855  2.1654 -3.4651  1.3640
 3795SOL     OW23017   4.109   3.300   9.104 -0.6532 -0.5305  0.4056
 3795SOL    HW123018   4.022   3.260   9.111 -1.5047  1.0278 -1.3568
 3795SOL    HW223019   4.163   3.227   9.135  1.7950  0.3651 -1.8207
 3796SOL     OW23020   1.068   0.443   5.220 -0.1030 -0.4168 -0.1330
 3796SOL    HW123021   1.150   0.433   5.173  0.8107 -0.5288  1.4842
 3796SOL    HW223022   1.013   0.451   5.142  0.5232  0.3113 -0.4952
 3797SOL     OW23023   4.296   4.426   5.366  0.0440  0.4162 -0.0984
 3797SOL    HW123024   4.251   4.445   5.284 -2.6409  0.5268  1.4182
 3797SOL    HW223025   4.330   4.514   5.385 -2.0073  0.7140  2.0895
 3798SOL     OW23026   0.728   0.877   6.237 -0.1185  0.2961 -0.2109
 3798SOL    HW123027   0.763   0.861   6.324 -1.7908 -1.4180  0.1534
 3798SOL    HW223028   0.646   0.829   6.249 -0.2797  0.8158  0.7217
 3799SOL     OW23029   2.321   4.727   8.290 -0.0049  0.1939  0.0828
 3799SOL    HW123030   2.265   4.726   8.368 -0.1747 -2.3238 -0.0952
 3799SOL    HW223031   2.249   0.001   8.228  0.0892 -0.5560 -0.1465
 3800SOL     OW23032   0.158   2.215  16.718  0.1637  0.3190  0.4321
 3800SOL    HW123033   0.096   2.286  16.735 -0.9310 -0.6338  0.4775
 3800SOL    HW223034   0.121   2.196  16.632 -1.1097 -0.2376  1.0938
 3801SOL     OW23035   0.845   4.470   7.600  0.2280 -0.1275 -0.1187
 3801SOL    HW123036   0.812   4.436   7.683 -0.0936  1.0062  0.2206
 3801SOL    HW223037   0.796   4.433   7.527 -1.7960 -1.4503  1.9102
 3802SOL     OW23038   2.008   4.134   7.323 -0.2336  0.3575  0.4280
 3802SOL    HW123039   1.995   4.218   7.279 -0.4949 -0.9111 -1.9246
 3802SOL    HW223040   2.026   4.161   7.413  0.2993 -0.0335  0.4384
 3803SOL     OW23041   0.674   0.560   4.812  0.4492  0.3997 -0.4234
 3803SOL    HW123042   0.690   0.557   4.906 -1.4423  0.9092 -0.0892
 3803SOL    HW223043   0.588   0.597   4.796  0.3983  0.0749 -0.8981
 3804SOL     OW23044   3.341   3.941   8.204  0.2420 -0.4414  0.3812
 3804SOL    HW123045   3.342   4.011   8.139  0.5222 -0.4984  0.3259
 3804SOL    HW223046   3.251   3.956   8.234  0.4025 -1.1209  1.2324
 3805SOL     OW23047   3.530   3.297   1.046  0.2617 -0.1480  0.4562
 3805SOL    HW123048   3.618   3.287   1.008 -0.5384 -1.0400 -1.1637
 3805SOL    HW223049   3.551   3.298   1.139 -0.0995 -1.7930  0.5434
 3806SOL     OW23050   3.835   1.955   5.903 -0.4349 -0.6104 -0.2911
 3806SOL    HW123051   3.807   1.920   5.818 -0.3411  0.0013 -0.5738
 3806SOL    HW223052   3.873   2.041   5.884 -1.0447  0.8826  5.0571
 3807SOL     OW23053   2.126   3.732  14.069 -0.1590  0.0487  0.3903
 3807SOL    HW123054   2.145   3.643  14.098 -0.3592 -0.4808 -1.0772
 3807SOL    HW223055   2.212   3.773  14.067 -0.3598  0.5018  1.0064
 3808SOL     OW23056   1.792   0.716   5.411 -0.4995 -0.2433 -0.3631
 3808SOL    HW123057   1.712   0.760   5.439 -0.7853  0.8741 -2.9436
 3808SOL    HW223058   1.851   0.717   5.486 -1.6720  2.4615  0.5120
 3809SOL     OW23059   4.250   0.261   4.195  0.1500 -0.0664 -0.0191
 3809SOL    HW123060   4.338   0.263   4.158  0.8520 -1.7200  1.5533
 3809SOL    HW223061   4.238   0.350   4.226 -0.5406  0.0042 -0.5031
 3810SOL     OW23062   2.633   2.461   5.742  0.2112 -0.0717  0.3233
 3810SOL    HW123063   2.581   2.414   5.678  0.8263 -1.3612  0.7592
 3810SOL    HW223064   2.722   2.426   5.733 -0.7075 -2.1917 -0.2599
 3811SOL     OW23065   0.948   3.193   8.507  0.0444 -0.1698  0.0598
 3811SOL    HW123066   0.964   3.143   8.427  1.8685 -0.3372  0.5256
 3811SOL    HW223067   0.979   3.133   8.576 -0.6447  1.4391  1.7614
 3812SOL     OW23068   0.733   0.730  17.734 -0.4030 -0.4741  0.0677
 3812SOL    HW123069   0.823   0.764  17.738  0.0330 -1.5124 -0.8358
 3812SOL    HW223070   0.747   0.655   0.049 -3.5557 -1.2084 -0.1445
 3813SOL     OW23071   4.297   2.807   3.875 -0.0954  0.8689 -0.1986
 3813SOL    HW123072   4.292   2.804   3.970 -1.3285 -4.8471 -0.4776
 3813SOL    HW223073   4.305   2.901   3.859 -0.6125  1.0042  0.3316
 3814SOL     OW23074   2.091   3.405   1.561 -0.3681  0.2587  0.1630
 3814SOL    HW123075   2.008   3.394   1.607  0.4873  0.5637  1.7800
 3814SOL    HW223076   2.071   3.474   1.499 -2.1552  0.2827  0.7817
 3815SOL     OW23077   4.635   3.865   9.583  0.1436 -0.3230 -0.1448
 3815SOL    HW123078   4.691   3.844   9.508  0.2956  1.7676 -0.6154
 3815SOL    HW223079   4.548   3.848   9.547 -0.6483 -0.2484  1.7621
 3816SOL     OW23080   3.034   1.554   3.371  0.0949 -0.1869  0.0952
 3816SOL    HW123081   3.031   1.641   3.331  2.2346  0.1298  0.6274
 3816SOL    HW223082   2.944   1.522   3.367 -0.6631  1.2936  4.4802
 3817SOL     OW23083   4.670   3.389   2.965 -0.1596 -0.0977 -0.0323
 3817SOL    HW123084   0.024   3.386   2.932  0.1094 -3.4843  1.0399
 3817SOL    HW223085   4.643   3.476   2.935 -1.4402 -0.4769  0.0342
 3818SOL     OW23086   1.428   3.363   2.370  0.7651  0.8121 -0.2557
 3818SOL    HW123087   1.437   3.431   2.437  0.5992  0.1160  0.4744
 3818SOL    HW223088   1.441   3.412   2.289 -1.9339  2.4375  0.2745
 3819SOL     OW23089   1.411   2.098   7.014  1.1079 -0.5483  0.2140
 3819SOL    HW123090   1.400   2.118   6.921  0.0101 -0.2140  0.4173
 3819SOL    HW223091   1.497   2.055   7.017  0.5824 -1.3328  4.0925
 3820SOL     OW23092   3.568   2.387   6.326  0.7075 -0.3125  0.3037
 3820SOL    HW123093   3.481   2.349   6.335  1.6529 -2.1749  1.6134
 3820SOL    HW223094   3.565   2.418   6.235  4.0843  2.1198  1.0327
 3821SOL     OW23095   2.800   3.124   9.138  0.0023  0.5440  0.1841
 3821SOL    HW123096   2.817   3.160   9.051 -0.7665  2.2419  0.7195
 3821SOL    HW223097   2.721   3.173   9.163  1.1215  0.9801  2.9029
 3822SOL     OW23098   0.433   4.357   7.199 -0.5627  0.3904  0.2944
 3822SOL    HW123099   0.396   4.441   7.174 -0.2274  0.0965 -1.1512
 3822SOL    HW223100   0.397   4.310   7.124 -0.0449  0.0488  0.2560
 3823SOL     OW23101   0.343   2.420  11.230  0.2697 -0.7543  0.0111
 3823SOL    HW123102   0.248   2.426  11.222  0.0174  0.2695  3.6819
 3823SOL    HW223103   0.368   2.413  11.138  0.5941  0.7867 -0.0161
 3824SOL     OW23104   2.305   1.925   6.251 -0.0616 -0.5366 -0.0714
 3824SOL    HW123105   2.299   1.861   6.323  1.6490 -0.5282  0.0700
 3824SOL    HW223106   2.326   1.863   6.181 -1.7140 -0.2470 -0.8242
 3825SOL     OW23107   2.290   0.727  16.331  0.2800  0.0343 -0.1098
 3825SOL    HW123108   2.237   0.663  16.284 -1.0764  2.0483 -1.2910
 3825SOL    HW223109   2.272   0.806  16.281 -0.2208  0.5682  0.9243
 3826SOL     OW23110   2.253   2.621   5.581  0.2852  0.7588 -0.1370
 3826SOL    HW123111   2.186   2.553   5.571  1.3218 -0.7760  3.3468
 3826SOL    HW223112   2.214   2.680   5.516 -1.6228  1.1860  1.3949
 3827SOL     OW23113   1.530   0.253   2.530 -0.2833 -0.3507 -0.0502
 3827SOL    HW123114   1.440   0.233   2.503 -1.3693  2.0827  1.7611
 3827SOL    HW223115   1.571   0.168   2.513  0.8409  0.1904 -0.0371
 3828SOL     OW23116   3.385   3.123   4.089  0.4439  0.3884  0.0140
 3828SOL    HW123117   3.360   3.211   4.060 -0.0467  0.4322  0.5685
 3828SOL    HW223118   3.467   3.112   4.041  0.1794  0.2767 -0.4116
 3829SOL     OW23119   3.940   1.376   8.431  0.7410  0.0895 -0.3659
 3829SOL    HW123120   3.928   1.282   8.438 -0.4350  0.2945  0.3669
 3829SOL    HW223121   3.852   1.408   8.450  0.9529 -0.3004  1.2847
 3830SOL     OW23122   4.147   3.589   5.501  0.2305 -0.3103  0.0939
 3830SOL    HW123123   4.230   3.551   5.472  0.0887 -0.9206  0.4917
 3830SOL    HW223124   4.122   3.535   5.576  0.4559 -0.9425 -0.2873
 3831SOL     OW23125   1.309   4.491   6.036 -0.8398  0.0151 -0.7191
 3831SOL    HW123126   1.387   4.448   6.069 -2.3070 -0.3412  2.2998
 3831SOL    HW223127   1.248   4.416   6.036 -1.3801  0.4826  2.0380
 3832SOL     OW23128   2.833   2.338   7.221  0.0710  0.4473 -0.3499
 3832SOL    HW123129   2.926   2.333   7.201  0.0587 -0.2094 -0.2342
 3832SOL    HW223130   2.801   2.248   7.217  3.3899 -0.7658  0.4912
 3833SOL     OW23131   2.302   1.290  13.380 -0.4068  0.6108 -0.2901
 3833SOL    HW123132   2.344   1.358  13.328  0.6954  0.7788  0.8244
 3833SOL    HW223133   2.360   1.214  13.378  1.0789  1.6394  3.4385
 3834SOL     OW23134   0.281   1.282  11.554  0.3933 -0.4137  0.1092
 3834SOL    HW123135   0.355   1.339  11.533  1.4808 -2.0296 -0.4003
 3834SOL    HW223136   0.308   1.257  11.642  1.4101  1.6214  0.3793
 3835SOL     OW23137   2.606   0.263  10.005  0.7134 -0.9217  0.2787
 3835SOL    HW123138   2.619   0.329  10.073 -1.1455 -0.7444  0.4447
 3835SOL    HW223139   2.659   0.293   9.931 -1.8344  2.4898 -0.1373
 3836SOL     OW23140   1.680   2.264  13.059  0.1747  0.5592  0.2855
 3836SOL    HW123141   1.719   2.283  13.144  0.7287 -0.1063  0.1834
 3836SOL    HW223142   1.752   2.270  12.997 -0.5306 -0.8696 -0.6811
 3837SOL     OW23143   4.097   2.282   5.468  0.2511 -0.1598 -0.2831
 3837SOL    HW123144   4.111   2.215   5.401  2.5152  1.4204 -1.3949
 3837SOL    HW223145   4.006   2.271   5.494  0.3436  2.1283  1.0028
 3838SOL     OW23146   4.148   3.791   9.333  0.2972 -0.2917  0.2827
 3838SOL    HW123147   4.140   3.841   9.252 -1.5898  2.0466  1.8744
 3838SOL    HW223148   4.086   3.722   9.311 -1.0377  0.3981  1.8255
 3839SOL     OW23149   3.504   4.408   6.978  0.5971  0.7176  0.7114
 3839SOL    HW123150   3.505   4.481   7.039  0.7893  1.4945 -0.2231
 3839SOL    HW223151   3.552   4.339   7.025 -0.0179 -0.2159 -0.0290
 3840SOL     OW23152   4.257   0.183   1.888  0.4456  0.4209 -0.5128
 3840SOL    HW123153   4.353   0.188   1.882  0.4475 -1.6202 -1.9221
 3840SOL    HW223154   4.247   0.088   1.881  0.3058  0.4816 -1.1288
 3841SOL     OW23155   1.656   3.121   2.035  0.5414  0.4960  0.6296
 3841SOL    HW123156   1.691   3.169   2.110  0.0182  1.2372  0.3993
 3841SOL    HW223157   1.663   3.031   2.066  0.2139  0.2470 -0.0081
 3842SOL     OW23158   2.200   4.005   5.889  0.3303 -0.1543  0.0727
 3842SOL    HW123159   2.172   4.096   5.875  2.1250  0.2771 -0.7591
 3842SOL    HW223160   2.290   4.018   5.860  0.0465 -0.3120 -0.8899
 3843SOL     OW23161   1.206   1.630   8.286 -0.0595  0.1109  0.2797
 3843SOL    HW123162   1.228   1.702   8.228  1.6554  0.2031  1.0342
 3843SOL    HW223163   1.138   1.679   8.332 -1.2941 -0.4544 -0.9391
 3844SOL     OW23164   1.454   3.765   2.934 -0.4833  0.5572  0.0822
 3844SOL    HW123165   1.520   3.781   3.001 -3.2959  0.3564  2.8728
 3844SOL    HW223166   1.384   3.743   2.996  1.3227 -0.7492  1.6371
 3845SOL     OW23167   1.866   3.786   0.847  0.3206  0.0578 -0.0700
 3845SOL    HW123168   1.913   3.825   0.921  1.5574 -1.6730  0.0412
 3845SOL    HW223169   1.927   3.776   0.774 -0.2217  0.2977 -0.5514
 3846SOL     OW23170   4.496   2.370  16.741 -0.0193  0.1418 -0.2867
 3846SOL    HW123171   4.423   2.309  16.736  0.0160  0.1495 -0.9188
 3846SOL    HW223172   4.508   2.363  16.836  2.0474  1.8218 -0.4164
 3847SOL     OW23173   0.165   1.901   1.195  0.3281 -0.3288 -0.2493
 3847SOL    HW123174   0.199   1.960   1.128  4.3687 -0.8181  1.3599
 3847SOL    HW223175   0.080   1.878   1.157  0.3032  0.7013 -0.8123
 3848SOL     OW23176   4.363   4.686   1.012  0.4960 -0.3595  0.2046
 3848SOL    HW123177   4.403   4.615   0.962  1.0639 -0.2003  0.4413
 3848SOL    HW223178   4.277   4.684   0.970 -0.0348 -1.4041  1.3355
 3849SOL     OW23179   3.449   3.918  12.985  0.4136 -0.3913  0.1493
 3849SOL    HW123180   3.505   3.993  13.007  0.4117 -0.4664  0.4062
 3849SOL    HW223181   3.402   3.906  13.068  1.3275  0.9800  0.8651
 3850SOL     OW23182   3.258   2.358   9.404  0.2209 -0.0781  0.0418
 3850SOL    HW123183   3.201   2.288   9.372  2.5465 -1.8236 -0.2553
 3850SOL    HW223184   3.219   2.358   9.491 -2.3832 -0.5086 -1.1099
 3851SOL     OW23185   0.094   4.557   8.877 -0.2809 -0.0544 -0.0532
 3851SOL    HW123186   0.120   4.559   8.785 -0.0769  0.5798  0.0197
 3851SOL    HW223187   0.008   4.600   8.882 -0.8827 -1.1629 -0.8207
 3852SOL     OW23188   1.727   2.234   6.499 -0.2936 -0.4438 -0.0522
 3852SOL    HW123189   1.715   2.164   6.434 -1.3923 -0.1065 -0.2127
 3852SOL    HW223190   1.642   2.277   6.507  0.8164  1.7553 -0.1518
 3853SOL     OW23191   4.087   0.036   0.956 -0.9903 -0.0791 -0.2956
 3853SOL    HW123192   4.010   4.732   0.996 -0.4808  1.2192  2.0187
 3853SOL    HW223193   4.061   0.034   0.864 -0.3553  1.0456 -0.5030
 3854SOL     OW23194   3.039   0.795   2.714 -1.0343 -0.0501  0.4185
 3854SOL    HW123195   3.017   0.847   2.792  0.4597  0.2231  0.6558
 3854SOL    HW223196   2.958   0.754   2.684 -0.0491 -1.7800  0.0864
 3855SOL     OW23197   3.854   3.799  16.142  0.3069 -0.5148 -0.2627
 3855SOL    HW123198   3.874   3.841  16.225  0.4009 -2.5200  0.7253
 3855SOL    HW223199   3.899   3.715  16.148 -0.4806 -0.9689 -0.5993
 3856SOL     OW23200   1.121   4.028  10.460 -0.4706 -0.1400 -0.2450
 3856SOL    HW123201   1.085   3.954  10.507 -1.8551  2.0963  2.2366
 3856SOL    HW223202   1.047   4.088  10.446 -0.1091  0.8908  2.2835
 3857SOL     OW23203   3.687   0.269   7.885 -0.1101  0.3282  0.0961
 3857SOL    HW123204   3.623   0.200   7.903  2.0337 -1.3190  1.3701
 3857SOL    HW223205   3.639   0.334   7.833 -1.5164 -0.0938  0.8934
 3858SOL     OW23206   1.577   3.274   3.191  0.7424  0.3361 -0.0625
 3858SOL    HW123207   1.623   3.330   3.255  0.0268  2.3591 -1.3272
 3858SOL    HW223208   1.564   3.189   3.234  0.8464  0.6897  0.6833
 3859SOL     OW23209   3.254   0.794  11.978 -0.1446 -0.6184  0.6686
 3859SOL    HW123210   3.246   0.881  12.017 -1.1999  0.3073 -1.6275
 3859SOL    HW223211   3.345   0.799  11.947 -0.9253 -1.1081 -1.7190
 3860SOL     OW23212   1.964   4.103  17.072  0.2551 -0.1102 -0.4268
 3860SOL    HW123213   1.904   4.170  17.040 -0.9675 -0.6657  0.6936
 3860SOL    HW223214   2.043   4.127  17.023  0.0391  1.3469 -0.0580
 3861SOL     OW23215   3.355   0.032   5.763  0.1382 -0.3404  0.1482
 3861SOL    HW123216   3.350   4.674   5.777  1.6938 -0.4309  0.1799
 3861SOL    HW223217   3.275   0.057   5.809 -0.7570 -0.2985 -1.4312
 3862SOL     OW23218   0.734   0.341   5.938 -0.1348 -0.9442  0.0628
 3862SOL    HW123219   0.692   0.258   5.962 -1.4375  0.2991  2.1041
 3862SOL    HW223220   0.816   0.337   5.987  0.0349  2.1125  0.0197
 3863SOL     OW23221   4.166   1.826   1.391  0.0649 -0.2553  0.2555
 3863SOL    HW123222   4.199   1.911   1.361  0.2481 -1.0121 -1.6231
 3863SOL    HW223223   4.072   1.840   1.379 -0.5431 -4.3222  0.5165
 3864SOL     OW23224   3.796   0.339   5.199  0.3671 -0.1549 -0.9288
 3864SOL    HW123225   3.878   0.362   5.243  0.2379  1.0974 -1.3318
 3864SOL    HW223226   3.771   0.429   5.176  0.7312  0.0010 -0.7245
 3865SOL     OW23227   1.085   4.250  11.984 -0.4676  0.0203 -0.3925
 3865SOL    HW123228   1.005   4.295  12.014  0.7045 -0.4998  3.4757
 3865SOL    HW223229   1.061   4.158  11.995  3.8824 -1.1304 -0.6599
 3866SOL     OW23230   4.511   1.890   8.342  0.0107 -0.4060 -0.2898
 3866SOL    HW123231   4.510   1.976   8.384 -4.2582 -0.5360 -0.1795
 3866SOL    HW223232   4.418   1.873   8.327 -0.1946 -0.2927  0.9182
 3867SOL     OW23233   0.524   4.619   6.526 -0.0199  0.4903 -0.3799
 3867SOL    HW123234   0.506   4.613   6.620  0.1527 -0.2959 -0.3985
 3867SOL    HW223235   0.442   4.589   6.487 -0.0464  1.1673 -0.8425
 3868SOL     OW23236   0.338   1.482  17.167  0.1185  0.0845 -0.0687
 3868SOL    HW123237   0.332   1.420  17.094 -1.5383 -0.9379  0.9424
 3868SOL    HW223238   0.399   1.551  17.141  2.0126 -2.0336 -1.2671
 3869SOL     OW23239   1.873   4.373   8.944 -0.3931  0.3799  0.0318
 3869SOL    HW123240   1.878   4.467   8.931 -0.8464  0.5381  0.9587
 3869SOL    HW223241   1.941   4.355   9.010  0.4706  1.6220 -0.5218
 3870SOL     OW23242   4.646   0.485   3.792  0.0297  0.2105 -0.0604
 3870SOL    HW123243   4.562   0.467   3.834  0.1335 -0.1903 -0.0241
 3870SOL    HW223244   4.632   0.457   3.701  0.9700 -0.8592  0.1342
 3871SOL     OW23245   2.121   1.546   7.919 -0.2627 -0.3668 -0.2272
 3871SOL    HW123246   2.040   1.511   7.956 -0.4088  0.1667 -0.0490
 3871SOL    HW223247   2.085   1.590   7.842  2.0274  2.4562  0.3071
 3872SOL     OW23248   0.047   2.146  15.454 -0.1496 -0.5948  0.6797
 3872SOL    HW123249   0.012   2.065  15.491 -4.2648  0.4073 -1.0533
 3872SOL    HW223250   0.140   2.124  15.442 -0.1109  0.2445 -0.5868
 3873SOL     OW23251   3.092   3.456  11.336  0.3247  0.8181  0.3317
 3873SOL    HW123252   3.055   3.500  11.259 -1.0059 -0.4821  0.2425
 3873SOL    HW223253   3.185   3.481  11.337 -0.1166  2.4858 -0.5902
 3874SOL     OW23254   0.669   3.769   6.618 -0.2975 -0.3301 -0.0730
 3874SOL    HW123255   0.603   3.821   6.665 -0.7897 -0.5771 -0.4935
 3874SOL    HW223256   0.663   3.688   6.667  1.9876 -0.0273  0.7244
 3875SOL     OW23257   4.114   2.185   1.084  0.1517  0.3217  0.5714
 3875SOL    HW123258   4.106   2.212   1.175  1.0566  0.9604  0.4674
 3875SOL    HW223259   4.035   2.219   1.043  0.5155  1.0135  0.4303
 3876SOL     OW23260   0.325   3.261   2.440  0.2220  0.0254 -0.9083
 3876SOL    HW123261   0.285   3.241   2.355  2.0126 -3.0317 -1.0128
 3876SOL    HW223262   0.268   3.337   2.450  0.1263 -0.5051  2.6931
 3877SOL     OW23263   1.410   3.429  14.690  0.0016 -0.1308  0.2147
 3877SOL    HW123264   1.377   3.420  14.779 -2.3199  0.2377 -0.6152
 3877SOL    HW223265   1.497   3.459  14.717  1.2637 -1.8494 -1.9810
 3878SOL     OW23266   1.042   0.794   8.862 -0.4592 -0.1606 -0.7986
 3878SOL    HW123267   1.131   0.829   8.860 -0.3612 -0.3514  0.3391
 3878SOL    HW223268   1.038   0.730   8.933 -1.1029 -0.1696 -0.8414
 3879SOL     OW23269   2.001   1.225   4.706  0.2862  0.1086 -0.0693
 3879SOL    HW123270   2.024   1.295   4.646  0.4139  0.0433 -0.0975
 3879SOL    HW223271   2.091   1.191   4.715 -0.2146 -1.0249  0.7753
 3880SOL     OW23272   2.464   4.547   8.847 -0.1417 -0.7465 -0.1482
 3880SOL    HW123273   2.415   4.501   8.780 -3.7117  2.1394  0.4796
 3880SOL    HW223274   2.427   4.634   8.862  0.8967 -0.3587  0.1796
 3881SOL     OW23275   2.949   2.830   1.285 -0.4992 -0.2975 -0.6970
 3881SOL    HW123276   2.872   2.868   1.326 -0.6574 -0.7255 -0.6023
 3881SOL    HW223277   2.919   2.741   1.266  1.2503 -0.5962 -2.1024
 3882SOL     OW23278   0.131   1.541   8.766 -0.2491  0.2299 -0.0537
 3882SOL    HW123279   0.188   1.492   8.825  0.7290  0.0729 -1.1206
 3882SOL    HW223280   0.124   1.490   8.686 -1.1092 -1.7762  1.3071
 3883SOL     OW23281   3.721   3.499   8.601  0.5968  0.0104 -0.0124
 3883SOL    HW123282   3.642   3.523   8.551  0.3124  0.2131  0.5328
 3883SOL    HW223283   3.788   3.546   8.552  1.3010  0.7897  1.7003
 3884SOL     OW23284   3.909   2.700   8.888 -0.2414 -0.4635  0.7000
 3884SOL    HW123285   3.948   2.783   8.864  0.8866 -1.6487 -1.5390
 3884SOL    HW223286   3.923   2.648   8.809 -2.8122 -1.0143  0.6036
 3885SOL     OW23287   3.275   2.343   7.965 -0.0416 -0.1395  0.6888
 3885SOL    HW123288   3.259   2.424   8.013  2.1432  1.0993 -0.6886
 3885SOL    HW223289   3.314   2.291   8.036  2.5011 -0.1718 -0.7353
 3886SOL     OW23290   0.338   3.367   5.700 -1.0090  0.2749  0.0247
 3886SOL    HW123291   0.348   3.365   5.605  2.5470  0.3975  0.3912
 3886SOL    HW223292   0.373   3.450   5.732  2.1215 -0.5059 -1.3259
 3887SOL     OW23293   1.646   4.214   9.014  0.1772  0.4715 -0.6432
 3887SOL    HW123294   1.718   4.275   8.999  0.8137 -0.1007  0.0755
 3887SOL    HW223295   1.624   4.209   8.921 -0.5714  0.2166 -0.4523
 3888SOL     OW23296   4.471   1.738   0.355 -0.7845 -0.3827  0.2623
 3888SOL    HW123297   4.443   1.758   0.266 -0.7070 -0.8623  0.1287
 3888SOL    HW223298   4.497   1.649   0.332 -0.1527  0.1577 -1.1235
 3889SOL     OW23299   2.173   4.500   2.795 -0.3835  0.1661  0.1994
 3889SOL    HW123300   2.090   4.462   2.826 -0.3410  0.2354  0.3968
 3889SOL    HW223301   2.225   4.422   2.814 -0.3672  0.5346  1.6676
 3890SOL     OW23302   1.092   4.129  16.588 -0.2652  0.0654  0.2806
 3890SOL    HW123303   1.140   4.198  16.634 -1.9997  0.4164  1.5655
 3890SOL    HW223304   1.001   4.153  16.602 -0.7210 -0.6903 -1.4139
 3891SOL     OW23305   3.830   4.725  15.807 -0.1465 -0.3488  0.3581
 3891SOL    HW123306   3.898   0.041  15.763  0.2706 -0.1366  1.2665
 3891SOL    HW223307   3.804   0.060  15.865  0.2738 -0.5319  0.7736
 3892SOL     OW23308   1.202   1.037  11.399  0.1983  1.2732  0.4026
 3892SOL    HW123309   1.256   1.046  11.321 -1.4775 -1.2187 -1.0285
 3892SOL    HW223310   1.278   1.023  11.456 -0.9955 -0.9037  1.4629
 3893SOL     OW23311   3.379   2.035  17.141 -0.3733  0.5959 -0.4458
 3893SOL    HW123312   3.332   1.952  17.143 -0.9889  0.9843  0.9261
 3893SOL    HW223313   3.317   2.090  17.188 -1.3828  0.4099 -1.5536
 3894SOL     OW23314   1.839   1.795   9.015  0.6482  0.0066  0.5357
 3894SOL    HW123315   1.794   1.879   9.011 -0.8863 -0.7888  1.1955
 3894SOL    HW223316   1.768   1.733   9.029  1.7584 -1.2458  0.6571
 3895SOL     OW23317   1.032   4.101  17.093 -0.3841 -0.3388  0.2608
 3895SOL    HW123318   1.032   4.021  17.040  1.1295  1.4403 -2.4288
 3895SOL    HW223319   1.074   4.066  17.171  0.6598 -0.3596 -0.3142
 3896SOL     OW23320   1.389   3.786  14.378  0.2094 -0.6910 -0.1954
 3896SOL    HW123321   1.317   3.752  14.432  0.1884 -1.0540 -0.4538
 3896SOL    HW223322   1.346   3.790  14.293 -2.3212 -0.7212  1.0921
 3897SOL     OW23323   4.453   1.618   3.447  0.0876 -0.3754  0.4543
 3897SOL    HW123324   4.498   1.635   3.364  1.4715 -1.2884  1.0174
 3897SOL    HW223325   4.531   1.601   3.500  0.8680 -1.4870 -1.0550
 3898SOL     OW23326   3.028   0.395  12.762 -0.8130 -0.1555 -0.0540
 3898SOL    HW123327   2.942   0.419  12.798 -1.9871 -1.6609 -1.8844
 3898SOL    HW223328   2.997   0.332  12.697 -0.6329 -0.6344  0.3192
 3899SOL     OW23329   0.010   4.422  15.846  0.1077 -0.4499  0.4543
 3899SOL    HW123330   0.059   4.344  15.870  3.2484  2.4069  3.3487
 3899SOL    HW223331   0.005   4.410  15.751  4.1766  2.3484 -0.0886
 3900SOL     OW23332   1.179   3.235  16.566  0.0690 -0.2752  0.5063
 3900SOL    HW123333   1.253   3.175  16.562 -0.2539 -0.7548  1.9540
 3900SOL    HW223334   1.181   3.254  16.660  0.9711  0.3267  0.3705
 3901SOL     OW23335   1.103   1.051   7.406  0.2724 -0.2276 -0.4103
 3901SOL    HW123336   1.124   1.099   7.487  0.6149 -0.2674 -0.4754
 3901SOL    HW223337   1.094   0.964   7.445  0.3620 -0.8530 -1.8040
 3902SOL     OW23338   2.058   1.477   3.226  0.3764 -0.0742  0.2701
 3902SOL    HW123339   2.089   1.529   3.300  1.3484 -0.6864  0.2964
 3902SOL    HW223340   1.998   1.412   3.264  1.1644  0.2211  2.0052
 3903SOL     OW23341   2.529   1.435   5.524 -0.1217 -0.1783  0.1372
 3903SOL    HW123342   2.501   1.348   5.496  0.3584 -0.3934  0.3194
 3903SOL    HW223343   2.474   1.497   5.476  3.0460  1.9478 -0.6955
 3904SOL     OW23344   1.815   2.013   3.642  0.5612 -0.1499 -0.3514
 3904SOL    HW123345   1.799   2.062   3.562 -0.6454 -0.0275 -0.0347
 3904SOL    HW223346   1.908   2.016   3.662  0.2344 -1.3191  1.3232
 3905SOL     OW23347   4.063   4.701  11.814  0.1781  0.5637  0.2354
 3905SOL    HW123348   4.114   0.033  11.858  0.3404 -1.0623  2.5934
 3905SOL    HW223349   4.117   4.698  11.736 -0.8357  0.5598 -0.4648
 3906SOL     OW23350   3.198   0.318   6.334  0.1954  0.1946 -0.0611
 3906SOL    HW123351   3.168   0.312   6.424  0.9168 -0.6425  0.1242
 3906SOL    HW223352   3.289   0.297   6.356 -0.2062  0.5764  1.9811
 3907SOL     OW23353   0.270   0.521  16.470  0.6575 -0.1519  0.0416
 3907SOL    HW123354   0.354   0.557  16.442  1.1765  0.2598  2.1653
 3907SOL    HW223355   0.260   0.445  16.412 -0.7427  0.3039 -0.3070
 3908SOL     OW23356   3.204   4.096   2.525  0.7441 -0.2517 -0.4284
 3908SOL    HW123357   3.268   4.074   2.458  0.0588 -0.4823 -1.0166
 3908SOL    HW223358   3.195   4.010   2.565  0.1230 -0.2298 -0.5196
 3909SOL     OW23359   4.325   0.269   2.158 -0.3952 -0.1980  0.1249
 3909SOL    HW123360   4.275   0.194   2.189 -0.2694 -0.8943 -1.3562
 3909SOL    HW223361   4.301   0.274   2.066 -1.1226  0.1746  0.3367
 3910SOL     OW23362   3.284   4.110   5.783 -0.1237  1.1339 -0.0370
 3910SOL    HW123363   3.349   4.169   5.743 -0.2645  2.2282  1.3754
 3910SOL    HW223364   3.228   4.090   5.709  2.0092 -0.2104 -1.2902
 3911SOL     OW23365   0.154   2.748   1.864  0.0520 -0.6095  0.2072
 3911SOL    HW123366   0.080   2.766   1.923 -1.0048  0.0049 -1.2951
 3911SOL    HW223367   0.168   2.655   1.880 -0.4845 -0.5962  0.7762
 3912SOL     OW23368   0.095   0.920   6.124  0.0762  0.1782 -0.2911
 3912SOL    HW123369   0.049   0.939   6.043  0.4135 -0.1707 -0.5686
 3912SOL    HW223370   0.036   0.949   6.193  1.2134  0.1187  0.7224
 3913SOL     OW23371   3.847   3.941   9.553  0.6353 -0.1560  0.2968
 3913SOL    HW123372   3.780   3.928   9.620 -0.7434  0.2778 -1.0041
 3913SOL    HW223373   3.806   3.915   9.470 -2.3521 -0.5247  1.8944
 3914SOL     OW23374   4.395   0.189   5.416 -0.4207 -0.1429 -0.1102
 3914SOL    HW123375   4.450   0.265   5.433  2.1070 -1.6217 -1.6994
 3914SOL    HW223376   4.322   0.211   5.473 -1.6172 -2.8970 -0.5577
 3915SOL     OW23377   3.924   0.798   6.322 -0.3823  0.3620  0.4530
 3915SOL    HW123378   4.012   0.791   6.359 -0.4171  0.1571  0.4953
 3915SOL    HW223379   3.935   0.734   6.252  0.8671 -0.1476  1.1159
 3916SOL     OW23380   0.937   3.198   6.098  0.2726 -0.0820 -0.1539
 3916SOL    HW123381   0.863   3.253   6.124 -0.8934 -1.2307 -1.0127
 3916SOL    HW223382   1.009   3.260   6.093  0.6081 -0.4100  0.6863
 3917SOL     OW23383   0.130   0.569  17.225  0.1502  0.3876  0.3386
 3917SOL    HW123384   0.074   0.518  17.283 -0.8483  0.3580 -0.6469
 3917SOL    HW223385   0.205   0.509  17.227  0.5654  0.9074  0.5634
 3918SOL     OW23386   3.353   2.818   3.570  0.1384  0.6156  0.2201
 3918SOL    HW123387   3.415   2.748   3.547  2.0962  2.6578 -0.7575
 3918SOL    HW223388   3.337   2.854   3.483 -2.4377 -0.5618  0.2118
 3919SOL     OW23389   3.560   1.261   1.669  0.3302  0.2171 -0.2039
 3919SOL    HW123390   3.588   1.173   1.695 -0.4316 -0.2626 -1.0162
 3919SOL    HW223391   3.519   1.296   1.748  2.0660  3.3486 -0.7034
 3920SOL     OW23392   1.449   0.002  13.711  0.4981 -0.1514 -0.1959
 3920SOL    HW123393   1.407   0.062  13.650  0.9954 -0.6843 -1.0669
 3920SOL    HW223394   1.375   4.686  13.740  1.0842  0.0475  1.6572
 3921SOL     OW23395   2.113   4.113   7.598  0.2236  0.1650 -0.2927
 3921SOL    HW123396   2.080   4.074   7.679 -2.4557 -0.5846 -1.7588
 3921SOL    HW223397   2.133   4.045   7.534  0.1318  0.3454 -0.5155
 3922SOL     OW23398   2.091   3.859   1.601  0.0030  0.2311  0.1847
 3922SOL    HW123399   2.047   3.800   1.662  0.1276 -0.0701 -0.0177
 3922SOL    HW223400   2.120   3.787   1.545  0.2003 -0.5276  1.2676
 3923SOL     OW23401   4.211   0.313   2.929  1.0282 -0.7142  0.7571
 3923SOL    HW123402   4.300   0.339   2.953  1.7768 -1.1968 -1.5197
 3923SOL    HW223403   4.205   0.334   2.836  1.4592 -0.3186  0.8221
 3924SOL     OW23404   4.319   0.717  17.654  0.2248 -0.6100 -0.5924
 3924SOL    HW123405   4.226   0.730  17.670  0.6969 -0.0934  1.6942
 3924SOL    HW223406   4.323   0.792  17.595 -0.4967 -0.7766 -0.8556
 3925SOL     OW23407   3.360   2.398   5.975 -0.1179 -0.0904  0.8100
 3925SOL    HW123408   3.441   2.419   6.021  2.0401  0.5448 -3.3438
 3925SOL    HW223409   3.311   2.339   6.032 -0.6697  0.3865  0.8354
 3926SOL     OW23410   3.566   3.671   5.231  0.2156 -0.1137 -0.1686
 3926SOL    HW123411   3.629   3.602   5.252  1.7665  1.8925  1.7126
 3926SOL    HW223412   3.587   3.676   5.138  1.3738  1.9435  0.2070
 3927SOL     OW23413   2.633   3.399   8.120 -0.1105 -0.3806 -0.0650
 3927SOL    HW123414   2.549   3.366   8.086 -0.8855  1.8762 -0.3959
 3927SOL    HW223415   2.699   3.339   8.087 -0.2620 -1.6007  1.8749
 3928SOL     OW23416   2.256   2.123   3.289  0.1319  0.0973 -0.3624
 3928SOL    HW123417   2.272   2.177   3.212  0.3637  0.4874 -0.0449
 3928SOL    HW223418   2.260   2.179   3.367 -1.2124  1.1155 -1.0268
 3929SOL     OW23419   2.273   3.663  13.282 -0.9117 -0.4869  0.4769
 3929SOL    HW123420   2.295   3.698  13.368 -0.0594 -4.3595  1.8116
 3929SOL    HW223421   2.345   3.604  13.262  0.1478 -0.0487  2.9823
 3930SOL     OW23422   3.341   2.978   6.015  0.7417 -0.2965  0.6789
 3930SOL    HW123423   3.255   3.019   6.006  1.6378  1.6100  0.5657
 3930SOL    HW223424   3.328   2.934   6.099  1.8478  2.0277  2.0787
 3931SOL     OW23425   3.913   0.929   9.230  0.1663  0.1460  0.1429
 3931SOL    HW123426   3.964   0.946   9.309 -1.3250  2.4311  0.6399
 3931SOL    HW223427   3.835   0.975   9.262  0.8344  0.7303  0.9458
 3932SOL     OW23428   4.450   2.616  11.096 -0.2039  0.2177  0.4093
 3932SOL    HW123429   4.428   2.567  11.175 -0.3107  1.1688  0.9754
 3932SOL    HW223430   4.373   2.674  11.098  0.6262  1.4109 -1.8963
 3933SOL     OW23431   3.974   1.137   3.128  0.3157 -0.4563 -0.0864
 3933SOL    HW123432   4.043   1.193   3.163 -0.8304  1.4622 -0.8364
 3933SOL    HW223433   3.984   1.053   3.173  1.1992 -0.0451  0.4834
 3934SOL     OW23434   2.554   2.233   3.191  0.1887  0.1015 -0.7583
 3934SOL    HW123435   2.463   2.205   3.179  0.3947 -0.9613  0.1260
 3934SOL    HW223436   2.533   2.325   3.207  0.6601 -0.0577  0.7477
 3935SOL     OW23437   1.732   3.055   9.415 -0.5232 -0.3113  0.1074
 3935SOL    HW123438   1.670   3.124   9.392 -0.3410 -0.2086 -0.0696
 3935SOL    HW223439   1.765   3.036   9.328 -0.7766  0.1208 -0.0820
 3936SOL     OW23440   1.027   4.404   6.494  0.2216 -0.2454  0.2270
 3936SOL    HW123441   0.937   4.434   6.479 -0.0597 -0.4370  1.5997
 3936SOL    HW223442   1.005   4.313   6.476  1.1114 -0.2867 -0.6526
 3937SOL     OW23443   3.172   1.659   4.747 -0.1043 -0.6208  0.6739
 3937SOL    HW123444   3.150   1.657   4.654  1.5324  0.3546  0.2636
 3937SOL    HW223445   3.244   1.597   4.744  0.4213  0.0914 -1.3832
 3938SOL     OW23446   3.494   4.287   4.790  0.1256 -0.4921  0.4767
 3938SOL    HW123447   3.492   4.203   4.835 -2.3772 -0.2386  0.8247
 3938SOL    HW223448   3.542   4.282   4.707 -0.0434  1.1589  0.2729
 3939SOL     OW23449   2.128   0.908   6.884 -0.0685  0.0578 -0.0749
 3939SOL    HW123450   2.076   0.873   6.811 -0.0366 -0.7650  0.3059
 3939SOL    HW223451   2.170   0.984   6.843  0.7721 -0.5635 -0.3700
 3940SOL     OW23452   1.578   3.973   5.651  0.3156  0.8646 -0.2649
 3940SOL    HW123453   1.570   4.067   5.667  0.6698  1.3396 -2.8757
 3940SOL    HW223454   1.484   3.959   5.638  0.4925  0.3745 -1.0357
 3941SOL     OW23455   1.314   1.964  16.472  0.0658  0.4641  0.5422
 3941SOL    HW123456   1.341   2.055  16.457  1.1071  0.1030  0.1726
 3941SOL    HW223457   1.365   1.924  16.401 -0.7765 -1.3545  0.9572
 3942SOL     OW23458   3.001   4.019   4.943 -0.2591  0.1914 -0.2713
 3942SOL    HW123459   3.060   4.089   4.915  0.4745 -0.6501 -0.8649
 3942SOL    HW223460   2.963   4.060   5.020  0.1775  0.7583 -0.3639
 3943SOL     OW23461   4.346   0.217   4.527  0.5201 -0.2864 -1.0966
 3943SOL    HW123462   4.293   0.296   4.518  0.7655  0.1219  1.1142
 3943SOL    HW223463   4.383   0.232   4.614  0.8173 -0.5393 -1.1788
 3944SOL     OW23464   2.099   2.442  12.796 -0.1727 -0.2793  0.3640
 3944SOL    HW123465   2.161   2.382  12.754  1.0237  0.1217  1.5537
 3944SOL    HW223466   2.147   2.524  12.782 -0.3650 -0.3732 -0.8231
 3945SOL     OW23467   0.213   0.221  11.783  0.3670  0.0228 -0.9579
 3945SOL    HW123468   0.289   0.163  11.795 -1.3830 -2.3451 -1.4250
 3945SOL    HW223469   0.246   0.311  11.782  1.2636 -0.3214 -2.0453
 3946SOL     OW23470   0.059   3.599   7.230 -0.6694  0.3946  0.1713
 3946SOL    HW123471   0.129   3.572   7.290 -0.4375 -0.4551 -0.4723
 3946SOL    HW223472   0.040   3.684   7.270  0.8731 -0.1788  2.0841
 3947SOL     OW23473   1.784   4.068  14.334 -0.1741  0.1683 -0.1074
 3947SOL    HW123474   1.840   3.996  14.305 -2.6848 -1.4351 -1.0100
 3947SOL    HW223475   1.727   4.029  14.399  0.7991 -1.0848 -0.0177
 3948SOL     OW23476   2.145   4.396   9.694  0.0177  0.0755 -0.1962
 3948SOL    HW123477   2.177   4.362   9.610  2.4002 -1.9176  1.5292
 3948SOL    HW223478   2.056   4.360   9.698 -0.1364  0.5597  0.6526
 3949SOL     OW23479   4.110   1.717   8.469  0.0712  0.0485 -0.2450
 3949SOL    HW123480   4.055   1.712   8.547 -0.2936  0.5314 -0.4620
 3949SOL    HW223481   4.142   1.628   8.464 -2.7746 -0.9967 -0.1804
 3950SOL     OW23482   1.521   0.004  17.574 -0.3380  0.0561 -0.1917
 3950SOL    HW123483   1.583   4.686  17.526 -1.6864 -1.0463 -0.7060
 3950SOL    HW223484   1.470   0.064  17.519 -0.7807  0.5684  0.7879
 3951SOL     OW23485   3.881   3.900   2.264  0.3750 -0.3610 -0.0291
 3951SOL    HW123486   3.831   3.982   2.265  0.9872  0.0545 -1.7532
 3951SOL    HW223487   3.960   3.925   2.216  0.5865  0.6931  0.8669
 3952SOL     OW23488   0.909   2.967   2.340 -0.1010 -0.0435 -0.2689
 3952SOL    HW123489   0.993   3.012   2.352  1.2567 -3.1627  1.8207
 3952SOL    HW223490   0.915   2.940   2.248 -0.2092 -2.2643  0.3732
 3953SOL     OW23491   3.813   0.855   8.808  0.0916 -0.4281  0.0162
 3953SOL    HW123492   3.729   0.898   8.791  1.7113  2.7381 -0.0171
 3953SOL    HW223493   3.801   0.822   8.897 -1.6263 -1.4767 -0.6042
 3954SOL     OW23494   0.042   1.086   0.187  0.1790  0.3210 -0.5888
 3954SOL    HW123495   0.098   1.114   0.114 -0.4315 -3.6142 -2.5554
 3954SOL    HW223496   0.028   0.993   0.170  0.9846  0.1297 -0.1879
 3955SOL     OW23497   1.733   1.840   1.907 -0.5361  0.7693  0.0961
 3955SOL    HW123498   1.811   1.896   1.898  1.2443 -1.7624 -0.0572
 3955SOL    HW223499   1.744   1.803   1.995 -0.8122 -1.1088 -0.6735
 3956SOL     OW23500   2.344   1.230   8.781 -0.5387  0.6503 -0.2291
 3956SOL    HW123501   2.421   1.275   8.746  0.6858 -0.4776  0.9979
 3956SOL    HW223502   2.370   1.225   8.873 -1.7650  0.5752  0.1080
 3957SOL     OW23503   1.774   2.013  12.895 -0.3135  0.2032  1.0085
 3957SOL    HW123504   1.724   2.035  12.973 -0.5216  3.4307 -0.0312
 3957SOL    HW223505   1.841   1.956  12.933 -0.1505  0.5587  1.2602
 3958SOL     OW23506   4.632   1.491  17.375  0.4115  0.2332 -0.5159
 3958SOL    HW123507   4.692   1.423  17.406 -0.4326  0.9259  2.6406
 3958SOL    HW223508   4.689   1.564  17.352  0.2996  0.7172  0.7013
 3959SOL     OW23509   1.897   3.796   9.551  0.2751  0.2441  0.0830
 3959SOL    HW123510   1.907   3.742   9.474  0.6863  0.3773  0.0476
 3959SOL    HW223511   1.979   3.775   9.595 -1.1710 -0.2160  2.5628
 3960SOL     OW23512   1.229   3.943   6.982  0.6110  0.0939  0.6958
 3960SOL    HW123513   1.257   3.853   7.000 -1.6130 -1.0353 -1.4068
 3960SOL    HW223514   1.188   3.965   7.066 -1.2933  0.9303 -0.4434
 3961SOL     OW23515   2.532   4.388   5.364 -0.0960 -0.3966  0.2385
 3961SOL    HW123516   2.591   4.434   5.304 -1.5466  0.1438 -0.7617
 3961SOL    HW223517   2.517   4.314   5.305  2.3601 -2.2434  1.9052
 3962SOL     OW23518   0.444   2.084   2.744  0.0069 -0.2041 -0.1447
 3962SOL    HW123519   0.518   2.109   2.689 -0.1151 -0.3940 -0.3946
 3962SOL    HW223520   0.394   2.052   2.669  0.2767 -1.7660  0.3222
 3963SOL     OW23521   2.279   1.946   9.191  0.1236  0.2126  0.5086
 3963SOL    HW123522   2.355   1.981   9.145  0.0175 -0.4430 -0.1592
 3963SOL    HW223523   2.321   1.894   9.260  0.4494 -0.0427  0.1112
 3964SOL     OW23524   1.272   4.077  16.838 -0.0010  0.5216 -0.2465
 3964SOL    HW123525   1.313   4.021  16.772 -0.5269 -0.6986  0.4670
 3964SOL    HW223526   1.192   4.032  16.865 -0.6494  0.5413 -2.1592
 3965SOL     OW23527   2.284   0.387  10.521  0.4307 -0.2057  0.4466
 3965SOL    HW123528   2.362   0.386  10.577  0.0158  0.4426  1.0287
 3965SOL    HW223529   2.219   0.341  10.574 -1.5416  1.7686 -0.2706
 3966SOL     OW23530   4.247   0.073   6.578 -0.1518  0.4502  0.0987
 3966SOL    HW123531   4.263   0.150   6.523 -0.6900  0.2665 -0.3184
 3966SOL    HW223532   4.305   0.007   6.541 -0.2849  0.6990 -0.5470
 3967SOL     OW23533   1.107   0.944   0.388 -0.1604  0.1689  0.3997
 3967SOL    HW123534   1.021   0.967   0.423 -0.7085  1.6468 -1.9092
 3967SOL    HW223535   1.127   1.009   0.320 -1.5374  0.7015  0.4839
 3968SOL     OW23536   0.406   4.148  13.320  0.0864 -0.4613  0.4574
 3968SOL    HW123537   0.334   4.205  13.294 -0.3491  0.0510  2.7889
 3968SOL    HW223538   0.371   4.064  13.289  0.2390 -1.2140  2.3340
 3969SOL     OW23539   2.029   1.327   5.210 -0.0107  0.2248 -0.4264
 3969SOL    HW123540   2.108   1.375   5.234 -0.5999  1.3197 -0.6718
 3969SOL    HW223541   2.069   1.242   5.228 -1.7636 -0.5772 -0.3541
 3970SOL     OW23542   2.700   0.501   6.252  0.3508  0.2529 -0.2224
 3970SOL    HW123543   2.740   0.421   6.287 -0.7891  0.4706  1.5767
 3970SOL    HW223544   2.628   0.471   6.197 -0.3904  0.8973  0.4004
 3971SOL     OW23545   4.631   4.681  15.315  0.9098 -0.0565  0.0461
 3971SOL    HW123546   4.627   0.026  15.364 -1.3084  0.4429 -0.9369
 3971SOL    HW223547   4.547   4.640  15.336 -0.2676  2.2461 -0.2107
 3972SOL     OW23548   4.206   1.655   1.578  0.5956  0.3884 -0.3804
 3972SOL    HW123549   4.210   1.727   1.515 -1.8323 -0.7936 -1.9112
 3972SOL    HW223550   4.188   1.707   1.656  1.9619  0.0990  0.1197
 3973SOL     OW23551   2.233   0.752   3.557  0.0133  0.0337 -0.2882
 3973SOL    HW123552   2.164   0.765   3.492  0.2978  3.3406  0.0998
 3973SOL    HW223553   2.273   0.669   3.530  2.1049  1.2196 -0.7894
 3974SOL     OW23554   1.005   3.161   3.921 -0.0166 -0.0139  0.4171
 3974SOL    HW123555   1.088   3.126   3.890  0.7626  1.2075  1.1142
 3974SOL    HW223556   1.013   3.254   3.900 -2.1909  0.3883  1.3409
 3975SOL     OW23557   2.488   1.807   1.965 -0.2237  0.7035 -0.5254
 3975SOL    HW123558   2.557   1.822   1.901 -0.5512 -0.4672 -1.1509
 3975SOL    HW223559   2.533   1.818   2.048 -2.6112  0.6906  0.7882
 3976SOL     OW23560   4.230   4.552   4.282 -0.1707  0.2392 -0.4236
 3976SOL    HW123561   4.171   4.620   4.252  0.9430  0.2133 -2.6844
 3976SOL    HW223562   4.312   4.601   4.282  0.3622 -0.6403  0.2048
 3977SOL     OW23563   4.002   3.565  16.139 -0.9001  0.1450  0.0583
 3977SOL    HW123564   3.976   3.557  16.048  2.5788  0.6727 -0.9621
 3977SOL    HW223565   3.942   3.514  16.193 -0.0193 -2.2917 -1.2933
 3978SOL     OW23566   0.970   0.320  12.072 -0.4232 -0.1709  0.0259
 3978SOL    HW123567   1.047   0.329  12.015 -1.4806 -0.2365 -1.4046
 3978SOL    HW223568   0.906   0.293  12.005  0.3967 -1.1303 -0.3845
 3979SOL     OW23569   2.355   1.409  12.690 -0.0418  0.2157 -0.2033
 3979SOL    HW123570   2.435   1.394  12.740  0.3599  0.9265 -0.6260
 3979SOL    HW223571   2.359   1.503  12.672 -0.9013  0.2877 -0.0286
 3980SOL     OW23572   3.207   1.761   8.370  0.0352 -0.4671  0.6099
 3980SOL    HW123573   3.280   1.703   8.348  0.9221  1.4194 -1.3975
 3980SOL    HW223574   3.132   1.702   8.375 -0.0548 -0.2171  1.9911
 3981SOL     OW23575   1.394   4.645   4.043 -0.5885 -0.3063 -0.4549
 3981SOL    HW123576   1.471   4.646   4.099  1.4135 -0.4150 -3.2086
 3981SOL    HW223577   1.406   4.556   4.009 -0.7664  0.1470 -1.7221
 3982SOL     OW23578   0.802   3.576   3.073  0.3308  0.2063  0.1262
 3982SOL    HW123579   0.846   3.592   3.157  0.3670 -1.3657  0.4155
 3982SOL    HW223580   0.752   3.657   3.066  0.5757 -0.0106 -4.0787
 3983SOL     OW23581   2.497   3.668   9.028  0.3482  0.1896  0.2116
 3983SOL    HW123582   2.436   3.651   9.100 -2.0178  3.2452 -1.1029
 3983SOL    HW223583   2.440   3.710   8.964  0.4393 -0.2905 -0.1844
 3984SOL     OW23584   0.309   2.518   6.045  0.5952  0.1687 -0.1508
 3984SOL    HW123585   0.382   2.579   6.042 -1.0230  2.0666 -1.3335
 3984SOL    HW223586   0.317   2.495   6.138  1.8831  3.3682  0.5291
 3985SOL     OW23587   4.394   4.695   5.112  0.1857  0.2315 -0.1548
 3985SOL    HW123588   4.466   4.709   5.051 -0.5363 -2.1818 -1.5343
 3985SOL    HW223589   4.338   4.632   5.067  0.7901 -0.7452  0.4456
 3986SOL     OW23590   3.339   2.697   4.370 -0.0321 -0.0595  0.2572
 3986SOL    HW123591   3.288   2.727   4.294 -1.8673  1.7714  2.2063
 3986SOL    HW223592   3.398   2.772   4.382  1.0885 -0.7624 -0.8080
 3987SOL     OW23593   0.424   1.971  10.445  0.2940  0.0416  0.5049
 3987SOL    HW123594   0.502   1.959  10.498  1.9841  0.0867 -1.9998
 3987SOL    HW223595   0.454   1.929  10.364 -2.3593  0.3633 -0.6599
 3988SOL     OW23596   0.141   1.152  16.729 -0.1823  0.2652  0.1363
 3988SOL    HW123597   0.220   1.204  16.711 -0.5948  0.7398 -0.3067
 3988SOL    HW223598   0.114   1.131  16.640  0.1972  0.2239  0.0313
 3989SOL     OW23599   3.513   2.182   9.120 -0.0924  0.2760  0.1303
 3989SOL    HW123600   3.428   2.224   9.128 -1.0074 -1.3694 -0.9487
 3989SOL    HW223601   3.569   2.245   9.165  2.5048 -2.0316  0.1280
 3990SOL     OW23602   3.299   2.701   7.345 -0.8316  0.1866  0.2241
 3990SOL    HW123603   3.329   2.612   7.362 -3.2324 -0.9812 -1.5872
 3990SOL    HW223604   3.372   2.736   7.295 -0.2216  1.0654  1.7166
 3991SOL     OW23605   2.830   4.259   5.796  0.0099 -0.2107  0.1745
 3991SOL    HW123606   2.846   4.219   5.881  0.0092  2.3174  1.3600
 3991SOL    HW223607   2.914   4.251   5.750  0.7708 -1.9238  1.9179
 3992SOL     OW23608   0.100   1.651  14.365  0.4451  0.4573  0.2875
 3992SOL    HW123609   0.042   1.616  14.297  1.2275 -1.1965  0.4826
 3992SOL    HW223610   0.033   1.706  14.406  0.1192 -0.2023  0.6443
 3993SOL     OW23611   0.739   2.000   9.251 -0.3083  0.2996 -0.7885
 3993SOL    HW123612   0.733   2.073   9.189 -1.4307 -0.7222 -1.9024
 3993SOL    HW223613   0.672   1.943   9.214 -0.1245 -1.0528  0.9864
 3994SOL     OW23614   2.077   3.053   5.856  0.1028  0.0800 -0.1503
 3994SOL    HW123615   2.172   3.048   5.850  0.3059  2.2139  1.4603
 3994SOL    HW223616   2.052   3.138   5.891 -0.8361  0.3130 -1.4032
 3995SOL     OW23617   0.458   0.719   4.731  0.2960  0.2757  0.1240
 3995SOL    HW123618   0.539   0.762   4.706  1.6944 -2.5783 -0.3368
 3995SOL    HW223619   0.397   0.790   4.711  1.5548  1.3258  0.0436
 3996SOL     OW23620   3.848   0.848   4.921 -0.5709  0.4264  0.4436
 3996SOL    HW123621   3.927   0.850   4.866 -0.3480 -1.3427  0.7110
 3996SOL    HW223622   3.885   0.900   4.992  1.6450  0.9460 -1.0869
 3997SOL     OW23623   2.594   3.145   7.475 -0.3264 -0.8168  0.3863
 3997SOL    HW123624   2.611   3.216   7.412  1.0725 -0.9797  0.5932
 3997SOL    HW223625   2.508   3.176   7.504 -1.2528 -2.0282 -1.0761
 3998SOL     OW23626   3.178   1.294   7.191 -0.0885  0.5861 -0.0436
 3998SOL    HW123627   3.183   1.387   7.213 -1.0908  0.1931  1.8850
 3998SOL    HW223628   3.084   1.293   7.172  0.0415 -1.8397 -0.4721
 3999SOL     OW23629   4.581   0.576  12.109 -0.1172  0.2018  0.0800
 3999SOL    HW123630   4.567   0.665  12.078  0.1991  0.5611  0.9806
 3999SOL    HW223631   4.573   0.524  12.028  0.9720  1.3586 -0.7678
 4000SOL     OW23632   3.901   4.451   2.892  0.1089  0.6795 -0.5297
 4000SOL    HW123633   3.938   4.465   2.979 -0.8412 -1.9969  0.3136
 4000SOL    HW223634   3.920   4.536   2.853  2.4855  1.8938  3.2688
 4001SOL     OW23635   3.293   2.166  14.688  0.0474  0.1448  0.3035
 4001SOL    HW123636   3.205   2.198  14.710 -0.1324 -1.6450  2.1992
 4001SOL    HW223637   3.290   2.086  14.741 -1.5017  0.1550  0.2294
 4002SOL     OW23638   2.285   2.238   5.416  0.0405  0.3030  0.2884
 4002SOL    HW123639   2.218   2.303   5.436 -0.3904 -1.1908  3.7803
 4002SOL    HW223640   2.238   2.159   5.441 -0.1306 -0.1429 -1.4572
 4003SOL     OW23641   3.711   0.241   3.063 -0.0050  0.2625 -0.1995
 4003SOL    HW123642   3.661   0.320   3.044 -1.0901 -0.3758 -0.0184
 4003SOL    HW223643   3.766   0.258   2.986  0.6928  0.9380  0.4535
 4004SOL     OW23644   1.163   3.148   5.463 -0.2432 -0.1063 -0.0187
 4004SOL    HW123645   1.137   3.068   5.419  4.5747 -2.5306  1.5202
 4004SOL    HW223646   1.258   3.154   5.453 -0.2412 -0.7137 -0.3283
 4005SOL     OW23647   1.527   1.945   4.247 -0.2561  0.3058  0.7826
 4005SOL    HW123648   1.555   1.943   4.339 -1.1171 -0.7522  1.0311
 4005SOL    HW223649   1.580   1.884   4.196  0.3058  1.3472  0.1520
 4006SOL     OW23650   4.216   1.853   7.047 -0.5819 -0.6019  0.0763
 4006SOL    HW123651   4.182   1.886   6.964  0.5430 -0.1616 -0.2098
 4006SOL    HW223652   4.290   1.909   7.070 -2.4615  1.4793  0.9644
 4007SOL     OW23653   0.935   1.471   0.517 -0.0114 -0.0357 -0.2723
 4007SOL    HW123654   0.885   1.426   0.449  0.5932 -0.2305 -0.5773
 4007SOL    HW223655   0.872   1.512   0.578  2.6605  2.8361  0.5582
 4008SOL     OW23656   0.230   2.932   3.106 -0.2314  0.7058  0.4381
 4008SOL    HW123657   0.263   2.973   3.186 -0.3503  0.7395  0.4701
 4008SOL    HW223658   0.296   2.867   3.081 -0.1223  0.0850  2.2794
 4009SOL     OW23659   3.784   4.593   5.650  0.0128 -0.0772 -0.3716
 4009SOL    HW123660   3.806   4.507   5.685 -1.8830 -0.8772 -1.1128
 4009SOL    HW223661   3.842   4.587   5.574  0.7016  1.4019  0.0363
 4010SOL     OW23662   1.543   0.566  14.300  0.2499 -0.0845  0.0173
 4010SOL    HW123663   1.507   0.480  14.278 -0.5030 -0.2444  1.8780
 4010SOL    HW223664   1.613   0.576  14.235  1.5663  0.3992  1.4870
 4011SOL     OW23665   4.188   0.568   8.634  0.3661  0.3213 -0.1509
 4011SOL    HW123666   4.186   0.485   8.682 -1.3279 -0.4018 -1.4631
 4011SOL    HW223667   4.132   0.616   8.695 -1.5415 -0.4060 -1.3255
 4012SOL     OW23668   3.162   4.466   0.080 -0.6103  0.9144  0.1832
 4012SOL    HW123669   3.093   4.404   0.106 -0.4221 -0.5154 -2.7157
 4012SOL    HW223670   3.120   4.548   0.106 -0.8046  0.6948  0.5866
 4013SOL     OW23671   2.055   4.150  12.214  0.0871 -0.1677  0.0681
 4013SOL    HW123672   1.981   4.178  12.160  0.0675 -2.9715 -1.4078
 4013SOL    HW223673   2.100   4.087  12.157  0.9068  1.2510 -0.8481
 4014SOL     OW23674   1.809   3.198   6.184  0.3979  0.3325  0.3261
 4014SOL    HW123675   1.860   3.256   6.127  1.6661 -0.3750  0.7605
 4014SOL    HW223676   1.763   3.262   6.239  2.1225 -0.1365  2.2745
 4015SOL     OW23677   3.868   2.491   2.450 -0.6745  0.2379 -0.0013
 4015SOL    HW123678   3.932   2.482   2.379 -1.5508  1.1576 -0.8904
 4015SOL    HW223679   3.925   2.534   2.514  0.5770 -0.1042 -0.8835
 4016SOL     OW23680   0.068   3.399   3.827  0.1022  0.5593 -0.0457
 4016SOL    HW123681   0.067   3.373   3.735 -0.3340  0.5898 -0.0496
 4016SOL    HW223682   4.727   3.453   3.812  0.4050  0.7613 -0.9152
 4017SOL     OW23683   3.780   1.042   6.308 -0.6267  0.8083 -0.0072
 4017SOL    HW123684   3.867   1.046   6.266 -0.4177 -0.3512  0.3244
 4017SOL    HW223685   3.778   0.947   6.321  0.9065  0.8125  0.3465
 4018SOL     OW23686   2.881   2.947   7.254  0.2364 -0.0310 -0.5296
 4018SOL    HW123687   2.946   2.878   7.242 -0.3117 -0.5739 -0.3925
 4018SOL    HW223688   2.860   2.978   7.166 -2.7265  0.3899  0.2873
 4019SOL     OW23689   4.546   0.120   1.828  0.1835  0.3383 -0.6462
 4019SOL    HW123690   4.550   0.180   1.754  1.0343  2.4607  1.1196
 4019SOL    HW223691   4.540   0.029   1.798 -0.2901  0.3754 -0.6534
 4020SOL     OW23692   3.456   1.932   1.156  0.1797 -0.5776 -0.4337
 4020SOL    HW123693   3.472   1.979   1.074  1.2457 -1.4981 -0.7541
 4020SOL    HW223694   3.534   1.961   1.203 -0.2287  1.4006 -0.9527
 4021SOL     OW23695   0.760   2.578   4.780  0.3441 -0.1553 -0.6004
 4021SOL    HW123696   0.755   2.625   4.863  1.8744 -0.6708 -0.2185
 4021SOL    HW223697   0.671   2.547   4.762  0.4724 -0.5916 -0.4804
 4022SOL     OW23698   4.304   0.009   2.538 -0.0243 -0.3967  0.5781
 4022SOL    HW123699   4.252   0.020   2.458  1.7636 -1.8713 -0.7962
 4022SOL    HW223700   4.356   4.675   2.498  0.3371 -0.2114  0.7212
 4023SOL     OW23701   3.675   3.952   2.932 -0.2079 -0.4358  0.0448
 4023SOL    HW123702   3.612   3.891   2.972 -0.5771 -0.5577 -0.7077
 4023SOL    HW223703   3.655   3.950   2.838  1.3094  0.8177 -0.2796
 4024SOL     OW23704   4.230   4.044   1.895 -0.1834  0.1365  0.1791
 4024SOL    HW123705   4.234   4.139   1.908  0.8303  0.0611  0.3878
 4024SOL    HW223706   4.216   4.010   1.984  1.2042 -0.7509  0.0472
 4025SOL     OW23707   1.802   3.077   6.996 -0.5367 -0.1245  0.6885
 4025SOL    HW123708   1.737   3.143   6.971  1.4517  0.9858 -1.5481
 4025SOL    HW223709   1.801   3.097   7.089  0.6902  2.4659  0.1524
 4026SOL     OW23710   0.711   2.654   6.999  0.7270 -0.1281  0.7100
 4026SOL    HW123711   0.693   2.748   7.006 -0.0044 -0.2283  0.2069
 4026SOL    HW223712   0.802   2.661   7.027  0.5084  0.1247  1.3524
 4027SOL     OW23713   1.241   0.494   4.286  0.3048  0.3274  0.0169
 4027SOL    HW123714   1.203   0.575   4.318 -1.4987 -0.1879 -0.7653
 4027SOL    HW223715   1.330   0.526   4.301  0.4904 -0.1275 -0.1107
 4028SOL     OW23716   0.510   1.884   2.964 -0.2942 -0.8181  0.7779
 4028SOL    HW123717   0.441   1.920   2.908  1.6520 -2.0718 -2.4522
 4028SOL    HW223718   0.472   1.905   3.049  0.1754 -1.5143  1.1545
 4029SOL     OW23719   3.369   4.298  15.583 -0.2820 -0.3244  0.1659
 4029SOL    HW123720   3.464   4.304  15.589 -0.1934 -1.8771  0.2889
 4029SOL    HW223721   3.338   4.331  15.667 -1.8501  0.1573 -0.6102
 4030SOL     OW23722   4.630   1.921   1.181  0.5452  0.3501 -0.0580
 4030SOL    HW123723   4.601   1.980   1.112  1.9330  1.2670  0.1289
 4030SOL    HW223724   4.559   1.857   1.183  3.0762 -2.4404  0.9280
 4031SOL     OW23725   3.922   0.731   4.090  0.7677 -0.4249 -0.2341
 4031SOL    HW123726   3.865   0.806   4.108  1.8177  0.7014 -1.5906
 4031SOL    HW223727   3.864   0.659   4.115 -0.0011  0.2960  0.0962
 4032SOL     OW23728   4.620   0.226   2.857  0.5809 -0.2438 -0.1917
 4032SOL    HW123729   4.615   0.178   2.940 -2.3347 -0.5911 -0.5580
 4032SOL    HW223730   4.525   0.224   2.839  0.4547  3.0572  0.1707
 4033SOL     OW23731   1.171   3.127  12.992 -0.1254  0.5060  0.3402
 4033SOL    HW123732   1.174   3.216  12.956 -0.4678  1.2625  2.2207
 4033SOL    HW223733   1.106   3.135  13.061  0.8926 -1.5172  1.5308
 4034SOL     OW23734   2.668   0.097   3.308 -0.1787 -0.0686 -0.3712
 4034SOL    HW123735   2.639   0.015   3.347  2.1328 -0.8604 -0.2897
 4034SOL    HW223736   2.698   0.142   3.387 -0.3292  0.5535 -0.6686
 4035SOL     OW23737   2.919   2.610   4.830  0.1303 -0.2204  0.2271
 4035SOL    HW123738   2.904   2.654   4.746  0.6672  0.5503  0.5398
 4035SOL    HW223739   2.971   2.673   4.880  0.0521 -0.5210  0.6855
 4036SOL     OW23740   3.859   0.760   9.495 -0.0564 -0.0895  0.4675
 4036SOL    HW123741   3.769   0.731   9.512  0.0235 -1.1840 -1.0098
 4036SOL    HW223742   3.891   0.702   9.564  0.9273  1.2062  1.1014
 4037SOL     OW23743   2.838   3.463   2.299 -0.7075  0.4217 -0.3023
 4037SOL    HW123744   2.878   3.421   2.376 -0.3897 -1.3902 -1.4552
 4037SOL    HW223745   2.910   3.455   2.238 -1.3203  1.6876 -1.1816
 4038SOL     OW23746   3.475   4.710   9.273  0.5420  0.4152  0.4269
 4038SOL    HW123747   3.552   4.656   9.290 -0.0758 -0.1808  1.3331
 4038SOL    HW223748   3.407   4.643   9.281  2.2928 -1.1523  2.2499
 4039SOL     OW23749   4.605   2.684  13.765  0.1475  0.2361 -0.0948
 4039SOL    HW123750   4.559   2.735  13.699  0.4481 -1.6704 -1.7878
 4039SOL    HW223751   4.695   2.716  13.770 -1.1800  3.7077  1.2527
 4040SOL     OW23752   1.326   2.522  13.275  0.9025  0.7129  0.3031
 4040SOL    HW123753   1.388   2.481  13.335  1.4960  3.5860  1.6731
 4040SOL    HW223754   1.327   2.464  13.199  3.4695  0.4341  0.5333
 4041SOL     OW23755   1.848   1.005   3.218 -0.0880  0.2726  0.0994
 4041SOL    HW123756   1.936   1.015   3.183  0.3330  0.4349  1.1899
 4041SOL    HW223757   1.795   0.984   3.142  0.9447 -2.6122  0.1712
 4042SOL     OW23758   3.605   0.894   1.372  0.8645 -0.4040 -0.3702
 4042SOL    HW123759   3.534   0.843   1.333  0.5297  0.3846 -0.7940
 4042SOL    HW223760   3.554   0.974   1.359  0.4804 -0.9211 -2.1276
 4043SOL     OW23761   1.853   2.047  11.367  0.3959 -0.4183  0.5389
 4043SOL    HW123762   1.781   2.075  11.310  1.0582 -0.4853 -0.3230
 4043SOL    HW223763   1.918   2.056  11.298  0.1686 -0.4450  0.3205
 4044SOL     OW23764   1.393   3.915   4.081  0.2985  0.3785 -0.4080
 4044SOL    HW123765   1.391   3.924   4.176 -1.1591 -1.4891 -0.2484
 4044SOL    HW223766   1.325   3.978   4.057 -0.9585  0.4397  3.2868
 4045SOL     OW23767   3.199   4.305  11.208  0.3343  0.2598  0.0572
 4045SOL    HW123768   3.265   4.371  11.184  0.7564 -0.8135 -1.7186
 4045SOL    HW223769   3.162   4.292  11.121 -0.1593 -0.7786  0.4249
 4046SOL     OW23770   0.450   2.411   1.084  0.3178  0.3205  0.7124
 4046SOL    HW123771   0.419   2.489   1.039 -1.0553 -2.2451 -2.7327
 4046SOL    HW223772   0.388   2.418   1.157  0.3316 -0.0025  0.7525
 4047SOL     OW23773   3.306   3.171   3.713 -0.2396 -0.0323 -0.2217
 4047SOL    HW123774   3.363   3.095   3.704 -0.4595 -0.1366 -0.7228
 4047SOL    HW223775   3.311   3.187   3.807 -0.0661  1.8905 -0.5526
 4048SOL     OW23776   1.147   2.517   5.222  0.7020 -0.4246 -0.6934
 4048SOL    HW123777   1.214   2.547   5.160  0.0759  0.0012 -1.1694
 4048SOL    HW223778   1.100   2.456   5.166 -1.9277 -1.2433  2.4077
 4049SOL     OW23779   4.114   1.544   0.277  0.1937 -0.0769 -0.0854
 4049SOL    HW123780   4.039   1.504   0.232 -0.3837  2.1698 -1.1093
 4049SOL    HW223781   4.141   1.625   0.234  0.4371  0.9229  1.9483
 4050SOL     OW23782   2.522   3.054  11.429 -0.3144  0.0272  0.6861
 4050SOL    HW123783   2.426   3.048  11.424 -0.3538  1.1875 -0.1172
 4050SOL    HW223784   2.537   2.997  11.504  0.6432 -0.6699 -0.0288
 4051SOL     OW23785   4.635   1.131   1.653 -0.9487 -0.7860  0.1546
 4051SOL    HW123786   4.604   1.048   1.690 -0.0646 -0.3531  1.8735
 4051SOL    HW223787   4.603   1.193   1.718 -0.5107  0.8810 -1.2248
 4052SOL     OW23788   0.125   2.461  13.802  0.8364  0.1552 -0.5754
 4052SOL    HW123789   0.209   2.484  13.762  0.5234  0.4212 -1.0704
 4052SOL    HW223790   0.117   2.368  13.780  1.2504  0.1195 -0.5781
 4053SOL     OW23791   2.843   0.702   3.268  0.0370  0.2056  0.3085
 4053SOL    HW123792   2.865   0.643   3.341 -2.9960 -0.1051  1.0151
 4053SOL    HW223793   2.808   0.773   3.322  2.6558  0.6242  1.4454
 4054SOL     OW23794   0.874   0.578   6.159  0.1064  0.0110 -0.0572
 4054SOL    HW123795   0.842   0.650   6.105 -0.8539 -0.1864  0.2518
 4054SOL    HW223796   0.802   0.574   6.221  0.5226 -1.7323  0.3229
 4055SOL     OW23797   3.586   1.565   1.948  0.5531  0.0291  0.4763
 4055SOL    HW123798   3.532   1.629   1.995  0.0614  0.7027 -1.0118
 4055SOL    HW223799   3.535   1.484   1.948 -2.8084  2.1497 -0.4793
 4056SOL     OW23800   4.594   4.273   3.144 -0.2790  0.1467 -0.3425
 4056SOL    HW123801   4.502   4.286   3.165 -0.6235  0.5557 -2.1245
 4056SOL    HW223802   4.629   4.205   3.202  4.2984  3.0303  0.2997
 4057SOL     OW23803   0.694   1.062  17.086  1.2007  0.3164  0.1469
 4057SOL    HW123804   0.666   1.009  17.161 -1.7492  1.0353 -0.4534
 4057SOL    HW223805   0.684   1.000  17.014 -1.3353  2.2689 -1.1789
 4058SOL     OW23806   3.662   3.782   9.390 -0.3044  0.0769  0.3172
 4058SOL    HW123807   3.656   3.687   9.379  1.5572 -0.0020 -0.1571
 4058SOL    HW223808   3.658   3.821   9.302  0.6985 -0.8963 -0.1636
 4059SOL     OW23809   0.301   3.453   5.170 -0.2437  0.3533  0.1350
 4059SOL    HW123810   0.281   3.409   5.253 -1.8929 -1.7718 -1.3863
 4059SOL    HW223811   0.246   3.398   5.115  0.8510  0.1815 -0.7880
 4060SOL     OW23812   0.643   4.369   8.469  0.1249  0.6037 -0.4516
 4060SOL    HW123813   0.682   4.310   8.405  2.0015  0.1649  1.0969
 4060SOL    HW223814   0.675   4.454   8.440  0.9680  0.6691  0.6630
 4061SOL     OW23815   1.787   1.586   7.808 -0.4851 -0.2018  0.7854
 4061SOL    HW123816   1.804   1.535   7.886  0.2038  0.2682  0.9436
 4061SOL    HW223817   1.701   1.615   7.839 -1.1645 -0.6930 -0.6090
 4062SOL     OW23818   4.154   2.305   8.841  0.0267 -0.3547  0.4084
 4062SOL    HW123819   4.063   2.319   8.865 -0.5765  0.3253 -2.4144
 4062SOL    HW223820   4.204   2.271   8.916  0.4246 -2.7560 -0.9637
 4063SOL     OW23821   1.423   1.000  14.955 -0.1629 -0.5484 -0.0361
 4063SOL    HW123822   1.425   0.908  14.930  0.1939 -0.0906 -1.7021
 4063SOL    HW223823   1.422   0.993  15.051 -1.9867 -0.0095 -0.0152
 4064SOL     OW23824   1.933   4.642   6.001  0.1258  0.8393 -0.2826
 4064SOL    HW123825   2.028   4.636   6.011 -0.1809 -1.9308  0.9437
 4064SOL    HW223826   1.907   4.624   6.091  0.6620  2.3442  0.1644
 4065SOL     OW23827   0.330   3.774   4.849 -0.0667  0.0355  0.7789
 4065SOL    HW123828   0.238   3.793   4.867  0.2295  2.1267  0.0844
 4065SOL    HW223829   0.321   3.688   4.807  0.2787  0.6757 -0.6157
 4066SOL     OW23830   2.619   1.691   6.593  0.0644 -0.3397  0.0474
 4066SOL    HW123831   2.617   1.647   6.678 -1.8293 -1.0666 -0.3728
 4066SOL    HW223832   2.573   1.629   6.536  1.5884 -1.5349  0.1063
 4067SOL     OW23833   4.320   0.969  12.036  0.1117  0.2380 -0.0896
 4067SOL    HW123834   4.283   0.900  12.090  0.5810  0.5852  0.6880
 4067SOL    HW223835   4.298   1.046  12.090 -2.5587  0.1356 -1.0303
 4068SOL     OW23836   1.589   0.885   1.732 -0.3785  0.0134 -0.1016
 4068SOL    HW123837   1.552   0.825   1.668 -1.5149  0.6730 -0.0646
 4068SOL    HW223838   1.679   0.886   1.701 -0.3143  0.1497  0.0870
 4069SOL     OW23839   3.409   3.610   5.616 -0.6733 -0.5902  0.1079
 4069SOL    HW123840   3.468   3.682   5.589 -0.0560 -0.8590  0.7358
 4069SOL    HW223841   3.328   3.659   5.603  0.3327  1.0828 -0.0230
 4070SOL     OW23842   3.948   3.476   2.524  0.2683 -0.1844  0.5452
 4070SOL    HW123843   4.027   3.454   2.473  0.4915  2.7691 -0.3681
 4070SOL    HW223844   3.902   3.529   2.459  0.1551 -1.5520 -0.5162
 4071SOL     OW23845   2.734   0.510   1.345  0.5617 -0.1864 -0.3840
 4071SOL    HW123846   2.690   0.583   1.301 -0.5204 -0.1882  0.6922
 4071SOL    HW223847   2.817   0.549   1.373 -0.5744  1.5022  0.6336
 4072SOL     OW23848   2.550   2.944   9.641 -0.0700 -0.4570  0.0681
 4072SOL    HW123849   2.643   2.964   9.630 -0.5433  0.2228 -2.7652
 4072SOL    HW223850   2.552   2.850   9.658 -1.4631 -0.2283  1.4212
 4073SOL     OW23851   4.556   0.327  10.792  0.1986 -0.3083  0.0623
 4073SOL    HW123852   4.489   0.276  10.838  0.9911 -3.4246 -2.1933
 4073SOL    HW223853   4.505   0.382  10.732  1.0217  1.4198  0.9449
 4074SOL     OW23854   3.134   4.265   3.854 -0.0625  0.1000  0.0633
 4074SOL    HW123855   3.157   4.350   3.891 -3.1186  0.6669  0.7137
 4074SOL    HW223856   3.083   4.285   3.775 -2.0386 -2.2371  0.7553
 4075SOL     OW23857   4.676   1.227   3.620  0.5476 -0.4768  0.4655
 4075SOL    HW123858   4.585   1.215   3.648  0.9646  0.4937  2.2495
 4075SOL    HW223859   4.671   1.292   3.550  0.6920  0.4437  1.3146
 4076SOL     OW23860   2.803   0.871   7.738 -0.0323 -0.2929 -0.3448
 4076SOL    HW123861   2.784   0.800   7.677 -2.1741 -1.2187  1.4096
 4076SOL    HW223862   2.870   0.834   7.796  1.6908 -0.1738 -2.2438
 4077SOL     OW23863   0.801   1.586   4.370 -0.4096 -0.4842  0.5921
 4077SOL    HW123864   0.811   1.601   4.276 -0.3448 -0.9566  0.5247
 4077SOL    HW223865   0.732   1.642   4.405 -1.1954 -0.8136 -0.4564
 4078SOL     OW23866   0.855   0.050   5.520  0.1409 -0.0693 -0.0709
 4078SOL    HW123867   0.852   4.730   5.442 -0.8498 -2.4254  1.6655
 4078SOL    HW223868   0.880   4.734   5.597  1.0219  1.4225  0.6578
 4079SOL     OW23869   2.317   0.098   2.284 -0.2627  0.0251  0.1250
 4079SOL    HW123870   2.338   0.178   2.237  0.7757  0.6800  1.6962
 4079SOL    HW223871   2.385   0.037   2.257  0.1219  0.0511  1.0333
 4080SOL     OW23872   0.784   3.444   9.039 -0.3882  0.2251  0.0673
 4080SOL    HW123873   0.768   3.447   9.133  3.4939 -0.5801  0.7540
 4080SOL    HW223874   0.879   3.432   9.033 -0.6721 -1.7489 -0.4354
 4081SOL     OW23875   0.746   0.334  10.235  0.2670  0.2276  0.3695
 4081SOL    HW123876   0.731   0.427  10.214 -1.8691 -0.4979 -1.3523
 4081SOL    HW223877   0.696   0.282  10.172  1.1067 -1.3917  1.0386
 4082SOL     OW23878   4.222   3.946   4.736  0.0968 -0.3289  0.2424
 4082SOL    HW123879   4.306   3.958   4.781 -0.2301 -0.2369  0.8210
 4082SOL    HW223880   4.207   4.034   4.701 -0.1333 -0.6358 -0.4330
 4083SOL     OW23881   1.924   3.015  16.478 -0.3567 -1.1612  0.0214
 4083SOL    HW123882   1.952   3.101  16.447 -0.3668 -0.7986  1.0267
 4083SOL    HW223883   1.926   2.967  16.395  0.1125 -0.9325 -0.0985
 4084SOL     OW23884   0.873   4.376   6.186  0.1340 -0.1597  0.1494
 4084SOL    HW123885   0.840   4.394   6.274 -2.1255 -1.5259 -0.4081
 4084SOL    HW223886   0.868   4.457   6.136  0.1071  0.0983  0.5668
 4085SOL     OW23887   3.760   2.714   6.019  0.1995  0.3896 -0.4216
 4085SOL    HW123888   3.778   2.708   5.926 -0.4155  0.3445 -0.5418
 4085SOL    HW223889   3.843   2.713   6.067 -0.0812  0.3133  0.0643
 4086SOL     OW23890   0.662   3.641   2.345 -0.4556 -0.5996 -0.1823
 4086SOL    HW123891   0.616   3.691   2.413  1.3087 -0.7942  1.1343
 4086SOL    HW223892   0.587   3.594   2.309 -1.2166  0.6357 -0.2284
 4087SOL     OW23893   2.044   2.640   5.210  0.8579  0.5953  0.0574
 4087SOL    HW123894   1.954   2.672   5.215  0.6871  0.4504 -1.8559
 4087SOL    HW223895   2.031   2.565   5.151 -1.3384  0.1233  1.1251
 4088SOL     OW23896   1.573   1.242   2.900 -0.2539 -0.2020 -0.3894
 4088SOL    HW123897   1.478   1.237   2.912  0.0441 -2.4823  0.9815
 4088SOL    HW223898   1.592   1.322   2.948  2.1189 -1.1957  0.3163
 4089SOL     OW23899   0.791   0.030   8.754  0.2642  0.0792  0.1689
 4089SOL    HW123900   0.746   4.689   8.722  2.3542 -0.2227 -2.0546
 4089SOL    HW223901   0.880   4.734   8.764  0.3912  0.3144 -0.1895
 4090SOL     OW23902   1.636   2.136   1.813  0.6320 -0.7639 -0.0715
 4090SOL    HW123903   1.720   2.126   1.768 -0.1098 -1.5628 -1.2906
 4090SOL    HW223904   1.582   2.071   1.768  0.6409 -0.6618 -0.2278
 4091SOL     OW23905   2.513   1.512   4.697  0.8666  0.3005 -0.3234
 4091SOL    HW123906   2.602   1.523   4.732  0.7421  0.6177 -0.1072
 4091SOL    HW223907   2.455   1.525   4.772  1.6024 -0.4952  0.3927
 4092SOL     OW23908   0.539   3.374   8.318  0.4121  0.2736  0.2154
 4092SOL    HW123909   0.632   3.388   8.300  0.8451 -2.8383 -0.0809
 4092SOL    HW223910   0.518   3.444   8.380  0.9381  0.2959  0.3755
 4093SOL     OW23911   2.010   0.329   8.666  0.7848  0.3081 -0.0955
 4093SOL    HW123912   1.919   0.314   8.692  0.1340  1.5478 -1.6292
 4093SOL    HW223913   2.023   0.422   8.682  0.4941 -0.0410  2.1051
 4094SOL     OW23914   3.700   1.695   9.572 -0.3906 -0.5348 -0.5848
 4094SOL    HW123915   3.670   1.697   9.481 -2.5840  0.0860  0.1536
 4094SOL    HW223916   3.690   1.601   9.587 -1.0985 -0.5891 -1.3966
 4095SOL     OW23917   0.181   1.413   3.973  0.2507 -0.2498 -0.1153
 4095SOL    HW123918   0.186   1.331   3.924 -1.0675  0.7261 -1.8699
 4095SOL    HW223919   0.258   1.406   4.030  0.8702 -0.2241 -0.9633
 4096SOL     OW23920   2.916   2.476  11.406  0.3685 -0.1744  1.0011
 4096SOL    HW123921   2.986   2.459  11.469 -0.2001  0.3652  1.7704
 4096SOL    HW223922   2.876   2.389  11.404 -2.2217  0.9952  0.6147
 4097SOL     OW23923   1.304   1.334   8.549  0.9328 -0.2619 -0.0803
 4097SOL    HW123924   1.308   1.302   8.639 -1.9167  1.1880  0.5796
 4097SOL    HW223925   1.332   1.424   8.565  0.1499 -0.3831  1.9955
 4098SOL     OW23926   2.127   3.976   7.122  0.4676  0.0017  0.9051
 4098SOL    HW123927   2.147   3.895   7.169  0.3595 -1.2668 -1.2446
 4098SOL    HW223928   2.092   4.025   7.196  1.0186  0.3558  0.9401
 4099SOL     OW23929   0.595   1.156  12.541  0.0365  0.1841 -0.3026
 4099SOL    HW123930   0.567   1.233  12.590 -1.1918  0.6081 -1.6585
 4099SOL    HW223931   0.600   1.184  12.450  0.4858 -2.9781 -1.2487
 4100SOL     OW23932   1.133   2.818  10.124 -0.4685  0.1848 -0.5207
 4100SOL    HW123933   1.189   2.886  10.084 -0.1700 -1.0885 -2.2622
 4100SOL    HW223934   1.100   2.754  10.061 -2.2996  1.7885 -1.2116
 4101SOL     OW23935   3.189   0.270   2.665 -0.3628  0.1578  0.4210
 4101SOL    HW123936   3.100   0.303   2.674  0.7802  2.9029  1.7559
 4101SOL    HW223937   3.230   0.318   2.737 -1.3655 -0.5486  1.4683
 4102SOL     OW23938   1.274   0.190   2.451 -0.4385  0.0410  0.3318
 4102SOL    HW123939   1.190   0.152   2.427 -0.1077 -0.7084  0.3871
 4102SOL    HW223940   1.283   0.257   2.382  2.9219  1.8368  2.4956
 4103SOL     OW23941   0.764   1.974   2.825  0.6717 -0.3602 -0.3995
 4103SOL    HW123942   0.839   1.966   2.884 -0.0084 -1.7206  0.2803
 4103SOL    HW223943   0.693   1.972   2.889 -0.0696  0.2611 -1.2090
 4104SOL     OW23944   3.476   2.338   0.599 -0.2206  0.2284  0.0961
 4104SOL    HW123945   3.544   2.280   0.564  1.4491  2.4210 -0.2538
 4104SOL    HW223946   3.404   2.289   0.558  1.5398 -2.7326  0.5372
 4105SOL     OW23947   4.496   3.185   6.107  0.4170  0.3291  0.0490
 4105SOL    HW123948   4.450   3.104   6.127  2.6107 -0.8923  0.1098
 4105SOL    HW223949   4.469   3.247   6.175 -1.8589  0.4622 -0.9711
 4106SOL     OW23950   1.084   2.972   0.556 -0.0193  0.0701  0.5743
 4106SOL    HW123951   1.119   3.028   0.486 -1.2332 -1.2757 -1.1032
 4106SOL    HW223952   1.165   2.972   0.608 -0.0166 -0.2153  0.5680
 4107SOL     OW23953   2.004   0.506  11.183  0.0109 -0.1901 -0.0963
 4107SOL    HW123954   2.086   0.486  11.138 -0.0890  1.5608 -1.0551
 4107SOL    HW223955   2.026   0.573  11.247 -1.9682  0.2207  0.1442
 4108SOL     OW23956   1.621   0.154   3.601  0.2214  1.0155 -0.1487
 4108SOL    HW123957   1.537   0.110   3.588  1.2018 -0.7257 -0.5481
 4108SOL    HW223958   1.650   0.123   3.687 -0.3688 -0.6589 -0.5449
 4109SOL     OW23959   2.570   1.906   7.871  0.5649  0.0012 -0.6212
 4109SOL    HW123960   2.569   1.842   7.800  0.4789  2.2948 -2.6785
 4109SOL    HW223961   2.560   1.840   7.940 -0.3348 -0.4836 -1.2091
 4110SOL     OW23962   1.388   1.275   7.029  0.6963  0.7853  0.3002
 4110SOL    HW123963   1.381   1.335   6.955  2.1187  0.6273  0.0211
 4110SOL    HW223964   1.394   1.198   6.972  0.7772  1.0733 -0.0818
 4111SOL     OW23965   2.059   0.863   5.183 -0.6092 -0.5169 -0.5551
 4111SOL    HW123966   1.967   0.859   5.211 -0.2758 -2.1479  0.3074
 4111SOL    HW223967   2.074   0.769   5.187  1.6094 -0.1106  0.7147
 4112SOL     OW23968   1.363   1.319  11.780 -0.0226 -0.4120 -0.4440
 4112SOL    HW123969   1.295   1.381  11.754 -0.4460 -0.5984  0.2238
 4112SOL    HW223970   1.390   1.290  11.693  0.7018 -1.0464 -0.0122
 4113SOL     OW23971   4.609   4.114   0.471 -0.0169  1.0175 -0.1487
 4113SOL    HW123972   4.578   4.200   0.500 -0.1167  0.7555  0.5359
 4113SOL    HW223973   4.653   4.143   0.391  0.8867 -2.3352 -0.8689
 4114SOL     OW23974   0.831   2.790   2.741 -0.4188 -0.4673 -0.3052
 4114SOL    HW123975   0.898   2.801   2.809  0.4796 -0.4297 -1.1923
 4114SOL    HW223976   0.760   2.760   2.798 -0.7952 -0.4234 -0.7593
 4115SOL     OW23977   0.117   3.785   5.882  0.1704 -0.1175 -0.1788
 4115SOL    HW123978   0.154   3.841   5.951 -2.6185  0.1011  1.1248
 4115SOL    HW223979   0.036   3.835   5.877 -1.5919 -3.1368 -1.4921
 4116SOL     OW23980   3.849   2.047  16.459 -0.2894 -0.4368 -0.4519
 4116SOL    HW123981   3.838   2.060  16.553 -0.2195  0.5941 -0.5860
 4116SOL    HW223982   3.792   1.971  16.443  0.2052 -1.2250  1.5199
 4117SOL     OW23983   1.804   1.773   9.681  0.0270  0.4647  0.3452
 4117SOL    HW123984   1.762   1.777   9.767 -0.9050 -1.7498  0.0002
 4117SOL    HW223985   1.888   1.807   9.712 -0.4076  0.4487  1.5423
 4118SOL     OW23986   0.247   3.758   8.193 -0.3137 -0.1194 -0.4578
 4118SOL    HW123987   0.224   3.824   8.258 -1.0074 -1.2563  0.4625
 4118SOL    HW223988   0.162   3.719   8.172 -1.1942  0.9912  1.0108
 4119SOL     OW23989   0.543   4.711   9.438  0.1220  0.0527 -0.3772
 4119SOL    HW123990   0.485   0.030   9.386  0.1089  0.7761  0.4157
 4119SOL    HW223991   0.532   4.634   9.383 -0.1526  0.0230 -0.2848
 4120SOL     OW23992   4.047   0.736   8.803 -0.0566  1.2170 -0.3202
 4120SOL    HW123993   4.050   0.798   8.876 -0.9383 -0.4773  1.1379
 4120SOL    HW223994   3.984   0.783   8.749 -0.4787  0.2115 -0.6806
 4121SOL     OW23995   3.542   0.468   3.019  0.0847 -0.1599  0.2812
 4121SOL    HW123996   3.586   0.537   3.068  2.8535 -1.6914 -0.0422
 4121SOL    HW223997   3.463   0.462   3.073 -1.0312 -1.6142 -1.4910
 4122SOL     OW23998   1.849   3.309   3.636  0.1742 -0.2169 -0.5139
 4122SOL    HW123999   1.912   3.374   3.665 -1.2896  0.1122  1.9467
 4122SOL    HW224000   1.870   3.231   3.687  1.6232  0.2635 -0.3759
 4123SOL     OW24001   0.319   3.253   3.521 -0.4041  0.1404 -0.0644
 4123SOL    HW124002   0.283   3.186   3.579 -0.0407  0.4269  0.4866
 4123SOL    HW224003   0.398   3.210   3.487 -0.2059 -0.8885  1.6640
 4124SOL     OW24004   4.362   3.671   0.588  0.3986 -0.4949 -0.2690
 4124SOL    HW124005   4.304   3.682   0.513  0.0228  2.4669  0.4723
 4124SOL    HW224006   4.431   3.736   0.577 -0.1717  0.2773  0.6946
 4125SOL     OW24007   3.514   2.170   3.205 -0.0476  0.5601 -0.2569
 4125SOL    HW124008   3.527   2.077   3.185 -0.3193  0.6002 -0.6151
 4125SOL    HW224009   3.444   2.190   3.143  0.5285 -0.1910 -1.1582
 4126SOL     OW24010   1.689   4.638   7.019  0.4738 -0.2074  0.4788
 4126SOL    HW124011   1.690   4.625   6.924 -2.3448 -0.0611  0.4400
 4126SOL    HW224012   1.608   4.591   7.037  1.4496 -2.1008 -0.1112
 4127SOL     OW24013   2.510   3.666   9.380  0.4006 -0.0113  0.2300
 4127SOL    HW124014   2.553   3.599   9.433 -0.0031  0.1585  0.7640
 4127SOL    HW224015   2.559   3.740   9.415 -0.0547 -0.6360  2.2062
 4128SOL     OW24016   1.064   0.224   3.333 -0.7232  0.0310 -0.0825
 4128SOL    HW124017   1.053   0.319   3.334 -3.2856 -0.2662  0.3282
 4128SOL    HW224018   1.159   0.216   3.324 -0.9538 -3.5218  0.4062
 4129SOL     OW24019   2.281   3.618   2.088  0.0692 -0.4093  0.3057
 4129SOL    HW124020   2.369   3.639   2.056 -1.3359  2.7092 -1.5319
 4129SOL    HW224021   2.239   3.613   2.002 -1.2641  0.5116  0.9051
 4130SOL     OW24022   2.725   1.107   8.694 -0.1031  0.1107  0.0991
 4130SOL    HW124023   2.724   1.132   8.786 -0.0563  0.2588  0.0590
 4130SOL    HW224024   2.634   1.132   8.675 -1.2152 -1.2436  3.5766
 4131SOL     OW24025   2.368   4.375   1.831  0.7077  0.1060 -0.6472
 4131SOL    HW124026   2.296   4.344   1.886  0.9424 -0.5791 -0.7221
 4131SOL    HW224027   2.437   4.344   1.890 -0.9648 -2.1239  0.1406
 4132SOL     OW24028   0.338   0.182   2.069  0.4242 -0.1328 -0.0752
 4132SOL    HW124029   0.331   0.116   2.000  0.7853  0.0677 -0.3062
 4132SOL    HW224030   0.325   0.127   2.147 -0.6870  0.6811  0.3074
 4133SOL     OW24031   2.217   2.644   1.913  0.2874  0.4475  0.3851
 4133SOL    HW124032   2.183   2.706   1.977  0.0495  1.3119 -0.5905
 4133SOL    HW224033   2.310   2.666   1.923  0.2125  0.4263  1.1437
 4134SOL     OW24034   0.355   1.157  16.934  0.0836 -0.2144 -0.2530
 4134SOL    HW124035   0.375   1.096  16.863  1.2215 -2.2859  1.8766
 4134SOL    HW224036   0.369   1.097  17.007 -0.4475 -1.0462 -0.8399
 4135SOL     OW24037   0.940   1.652   0.972 -0.2172 -0.0290  0.2779
 4135SOL    HW124038   0.848   1.676   0.961 -0.6548 -2.7734 -1.7263
 4135SOL    HW224039   0.926   1.559   0.984  2.3706 -0.4112  0.3296
 4136SOL     OW24040   0.384   2.259   9.147  0.4669  0.7979 -0.0576
 4136SOL    HW124041   0.343   2.174   9.163  0.5765  0.6404 -0.6292
 4136SOL    HW224042   0.476   2.239   9.130 -0.4387 -2.1961 -1.3734
 4137SOL     OW24043   2.679   3.936   4.225  0.1997  0.1924  0.3547
 4137SOL    HW124044   2.632   3.981   4.295  0.6977 -0.2156  0.9530
 4137SOL    HW224045   2.742   4.004   4.202  0.0899 -0.0139 -0.5471
 4138SOL     OW24046   3.451   0.637   9.233  0.0645 -0.1093  0.1499
 4138SOL    HW124047   3.472   0.559   9.285  2.8896  0.6485  0.1678
 4138SOL    HW224048   3.422   0.704   9.294 -2.7913 -0.1992 -1.1217
 4139SOL     OW24049   1.883   1.392  16.970  0.2648  0.3215 -0.4405
 4139SOL    HW124050   1.881   1.347  17.054  1.1136  0.8314 -0.1492
 4139SOL    HW224051   1.806   1.448  16.980  0.0161 -0.1546  0.3155
 4140SOL     OW24052   4.611   3.305  16.099 -0.0329  0.4437 -0.8992
 4140SOL    HW124053   4.635   3.329  16.010  1.8260 -1.3379 -0.8768
 4140SOL    HW224054   4.516   3.318  16.101  0.0767  1.4169 -2.5570
 4141SOL     OW24055   0.988   0.739   5.870 -0.1097 -0.8616  0.1496
 4141SOL    HW124056   0.902   0.781   5.871  0.7032  0.8100 -2.1852
 4141SOL    HW224057   0.971   0.658   5.822 -0.0293 -0.1188 -1.1282
 4142SOL     OW24058   0.324   1.336  10.223  0.5302 -0.1544  0.1057
 4142SOL    HW124059   0.410   1.338  10.181 -0.1484 -0.0051 -1.3012
 4142SOL    HW224060   0.319   1.242  10.238 -0.4616 -0.1482 -0.1510
 4143SOL     OW24061   0.279   0.185   0.156  0.0415  0.5659  0.3228
 4143SOL    HW124062   0.254   0.102   0.198  1.3559 -0.3527 -0.7121
 4143SOL    HW224063   0.245   0.170   0.068 -0.2139 -0.9354  0.6637
 4144SOL     OW24064   2.202   1.885   8.126  0.9478  0.3639  0.3851
 4144SOL    HW124065   2.241   1.804   8.095 -1.8181 -0.4554 -0.9751
 4144SOL    HW224066   2.225   1.888   8.219 -0.4979 -0.6845  0.7842
 4145SOL     OW24067   3.395   2.636  14.522 -0.0828  0.1482 -0.1915
 4145SOL    HW124068   3.343   2.564  14.487 -0.3382 -0.2919  1.0934
 4145SOL    HW224069   3.357   2.707  14.470 -2.4433 -1.0457 -0.0744
 4146SOL     OW24070   2.592   1.254   5.222  0.7989  0.3174 -0.0475
 4146SOL    HW124071   2.671   1.238   5.274  0.9928 -0.3164 -0.5283
 4146SOL    HW224072   2.565   1.164   5.203  1.7416 -0.0096  0.1457
 4147SOL     OW24073   2.211   0.503   0.087  0.4149 -0.0631 -0.0115
 4147SOL    HW124074   2.257   0.492   0.005  0.2086  1.6565 -0.3713
 4147SOL    HW224075   2.280   0.478   0.148  1.8566  1.3431 -1.0827
 4148SOL     OW24076   3.895   1.777   7.100  0.8390 -0.3774 -0.0554
 4148SOL    HW124077   3.904   1.869   7.074  0.5017 -0.4910 -0.5950
 4148SOL    HW224078   3.956   1.730   7.043 -0.1356 -0.1419 -1.2961
 4149SOL     OW24079   0.519   1.689   7.311  0.4622  0.1298  0.2753
 4149SOL    HW124080   0.561   1.624   7.367 -1.1581  1.3200  2.8876
 4149SOL    HW224081   0.567   1.660   7.234  0.8765 -1.3290  1.0756
 4150SOL     OW24082   2.729   3.068  17.481  0.2613  0.1350 -0.3358
 4150SOL    HW124083   2.698   3.039  17.395 -2.9171 -0.6593  1.0709
 4150SOL    HW224084   2.743   3.162  17.469  0.8202  0.0267 -0.5535
 4151SOL     OW24085   4.040   0.479   4.794 -0.3697  0.6794 -0.0510
 4151SOL    HW124086   3.952   0.442   4.804 -0.6131  1.1058 -0.5991
 4151SOL    HW224087   4.030   0.509   4.703 -1.4180 -1.5827 -0.6845
 4152SOL     OW24088   1.200   1.209  16.576  0.1201  0.1618 -0.2309
 4152SOL    HW124089   1.131   1.152  16.543  0.5293 -0.2261 -0.4129
 4152SOL    HW224090   1.165   1.297  16.561  2.1800  1.0028 -0.0341
 4153SOL     OW24091   2.106   0.340   7.871 -0.5719  0.1970  0.2551
 4153SOL    HW124092   2.045   0.374   7.806 -1.5161  0.7073  1.4185
 4153SOL    HW224093   2.120   0.254   7.831 -1.5191  0.5107 -0.7539
 4154SOL     OW24094   4.648   0.565   4.873 -0.2231 -0.3293 -0.4718
 4154SOL    HW124095   4.709   0.491   4.865 -1.3476 -1.2507 -0.4430
 4154SOL    HW224096   4.595   0.542   4.798 -1.2664 -0.8339  0.4166
 4155SOL     OW24097   1.993   2.621   2.433  0.2046 -0.4822 -0.2578
 4155SOL    HW124098   2.009   2.659   2.520  1.1208 -2.5918  0.4977
 4155SOL    HW224099   1.930   2.681   2.393  3.1622  1.5470 -1.8211
 4156SOL     OW24100   0.290   0.505   6.653  0.2719 -0.1897  0.0042
 4156SOL    HW124101   0.285   0.412   6.671 -0.6194 -0.3785 -1.2059
 4156SOL    HW224102   0.281   0.534   6.744 -0.7668 -1.0885  0.1870
 4157SOL     OW24103   2.533   0.995   6.551 -0.2256 -0.1878  0.1800
 4157SOL    HW124104   2.565   1.073   6.505  1.5115 -1.9112 -1.5760
 4157SOL    HW224105   2.591   0.927   6.515 -1.3404 -1.6992  1.2687
 4158SOL     OW24106   4.503   2.926   9.048  0.0090  0.1347  0.4655
 4158SOL    HW124107   4.436   2.929   8.980 -2.5219 -0.3564  2.9416
 4158SOL    HW224108   4.477   3.000   9.103 -0.7634 -0.3160  0.7071
 4159SOL     OW24109   0.573   0.995   4.729  0.5230 -0.5252  0.1826
 4159SOL    HW124110   0.589   1.018   4.637  2.8765 -1.7043  0.3013
 4159SOL    HW224111   0.639   1.051   4.770  0.6252 -0.3828 -0.1737
 4160SOL     OW24112   0.970   0.789   4.948 -0.1267  0.2013 -0.6172
 4160SOL    HW124113   0.976   0.787   5.044  0.7027 -1.8530 -0.7167
 4160SOL    HW224114   0.905   0.719   4.945  0.4068 -0.2426 -1.7384
 4161SOL     OW24115   2.859   1.841   2.609  0.2287 -0.8226  0.4897
 4161SOL    HW124116   2.923   1.815   2.542  1.0478  0.8036  0.6172
 4161SOL    HW224117   2.791   1.776   2.597  0.4491 -0.9008 -0.3727
 4162SOL     OW24118   0.785   4.480  13.099  0.8030 -0.1370  0.1280
 4162SOL    HW124119   0.795   4.511  13.189  1.1101  0.7998 -0.2314
 4162SOL    HW224120   0.815   4.557  13.050 -2.5093  2.4053  2.1043
 4163SOL     OW24121   1.090   4.668  12.033 -0.6265  0.3707  0.2095
 4163SOL    HW124122   1.133   4.646  11.951  0.4600 -2.0072  1.4232
 4163SOL    HW224123   1.072   4.577  12.057  1.5725  0.2372  1.3633
 4164SOL     OW24124   4.656   0.242  15.339  0.5693  0.4287 -0.0769
 4164SOL    HW124125   0.009   0.259  15.371  0.6525 -0.6246  0.2539
 4164SOL    HW224126   4.635   0.332  15.314 -1.3282 -0.3451 -1.2172
 4165SOL     OW24127   1.600   1.544  14.836 -0.1189  0.2410 -0.4817
 4165SOL    HW124128   1.569   1.574  14.921  1.5148 -0.6801  0.4448
 4165SOL    HW224129   1.556   1.458  14.834  0.7965 -0.2451  0.3594
 4166SOL     OW24130   0.505   3.639   8.449  0.2008  0.6159  0.2266
 4166SOL    HW124131   0.540   3.723   8.421  0.6879 -0.5160 -2.5710
 4166SOL    HW224132   0.456   3.657   8.529 -0.9173  0.7686 -0.4919
 4167SOL     OW24133   0.742   3.250  17.694  0.1916  0.0106  0.1101
 4167SOL    HW124134   0.705   3.178  17.643  1.7412 -1.3909  0.9514
 4167SOL    HW224135   0.823   3.261  17.645  1.5921  0.4670  2.4911
 4168SOL     OW24136   2.073   3.340   7.143 -0.5988  0.3297 -0.6097
 4168SOL    HW124137   1.980   3.363   7.155 -0.4561 -0.6518  2.1357
 4168SOL    HW224138   2.068   3.249   7.113 -0.7625  0.0890  0.1417
 4169SOL     OW24139   0.405   0.776   3.360 -0.3049  0.1961  0.1949
 4169SOL    HW124140   0.464   0.815   3.424  0.8104 -0.0562 -0.6737
 4169SOL    HW224141   0.326   0.763   3.413  0.8510  2.2957  2.3892
 4170SOL     OW24142   3.461   2.533   3.205  0.6254  0.2756  1.0856
 4170SOL    HW124143   3.533   2.475   3.178 -1.6028 -1.5210 -0.8997
 4170SOL    HW224144   3.502   2.619   3.196 -0.3241  0.6323  0.2640
 4171SOL     OW24145   3.618   4.046   2.376 -0.2185  0.7298  0.5225
 4171SOL    HW124146   3.598   3.956   2.351 -1.7315  1.5843 -1.3637
 4171SOL    HW224147   3.537   4.085   2.343  1.0449  1.5937 -1.4880
 4172SOL     OW24148   1.065   0.858   3.595  0.8165  0.0883  0.0180
 4172SOL    HW124149   1.124   0.908   3.539  1.1422  1.1407  1.2949
 4172SOL    HW224150   1.117   0.784   3.627 -1.1576 -0.9929  0.7046
 4173SOL     OW24151   4.564   0.863   1.818  0.1176 -0.5512 -0.7502
 4173SOL    HW124152   4.477   0.885   1.785 -0.8128  0.4607  2.4100
 4173SOL    HW224153   4.555   0.891   1.909  2.9605  0.2448 -0.7000
 4174SOL     OW24154   3.243   1.993  14.901 -0.1855 -0.7520  0.3220
 4174SOL    HW124155   3.264   2.003  14.994 -0.0246 -4.3542  0.6660
 4174SOL    HW224156   3.149   1.983  14.908 -0.4445 -0.0446 -2.2052
 4175SOL     OW24157   3.094   3.497  15.582 -0.2210  0.0333  0.2551
 4175SOL    HW124158   3.150   3.426  15.614 -2.9091 -2.1266  0.2478
 4175SOL    HW224159   3.106   3.492  15.487 -1.5640  2.3355 -0.0274
 4176SOL     OW24160   3.381   0.769   0.761  0.8786  0.0510  0.1468
 4176SOL    HW124161   3.341   0.723   0.835 -0.4277  3.1058  1.3468
 4176SOL    HW224162   3.298   0.791   0.718  0.9377 -2.7610 -1.4582
 4177SOL     OW24163   3.160   2.736   9.363  0.2527  0.0927  0.0899
 4177SOL    HW124164   3.250   2.729   9.331 -1.2362 -0.3251 -4.0683
 4177SOL    HW224165   3.148   2.830   9.348  0.4553  0.1470  0.2756
 4178SOL     OW24166   2.605   0.592   0.129  0.0675  0.0070  0.1256
 4178SOL    HW124167   2.615   0.622   0.219 -0.5444 -1.0162  0.5329
 4178SOL    HW224168   2.665   0.517   0.124  0.8969  0.7194 -0.5235
 4179SOL     OW24169   3.228   1.448  15.312 -0.2613  0.6700 -0.3044
 4179SOL    HW124170   3.233   1.403  15.229 -3.4357  0.1764 -0.2355
 4179SOL    HW224171   3.150   1.413  15.356  0.3391  1.9289  1.7624
 4180SOL     OW24172   2.805   1.070   5.333  0.5447  0.0903 -0.0329
 4180SOL    HW124173   2.873   1.021   5.286  1.8720  1.1821  0.7539
 4180SOL    HW224174   2.740   1.070   5.262  1.3977  2.3945 -0.7957
 4181SOL     OW24175   4.354   1.322  11.009 -0.4418 -0.6818 -0.3815
 4181SOL    HW124176   4.385   1.400  10.962 -1.6785 -0.5548 -0.9783
 4181SOL    HW224177   4.409   1.340  11.085  0.6639  0.5124 -1.4584
 4182SOL     OW24178   2.160   2.061   2.913 -0.4170 -0.0013 -0.8780
 4182SOL    HW124179   2.221   2.003   2.959 -3.2793 -2.3007 -0.0063
 4182SOL    HW224180   2.210   2.143   2.914  0.9217 -0.8330  1.0314
 4183SOL     OW24181   1.151   0.518  12.620 -0.9388  0.4708  0.3271
 4183SOL    HW124182   1.203   0.530  12.541 -3.8152  1.1437 -1.4325
 4183SOL    HW224183   1.072   0.567  12.600 -0.7673  0.6168  0.0047
 4184SOL     OW24184   1.752   1.542   9.822  0.0789  0.1968  0.2074
 4184SOL    HW124185   1.812   1.588   9.763  0.0986  1.4064  1.1666
 4184SOL    HW224186   1.782   1.452   9.807 -0.2431  0.0940  0.1913
 4185SOL     OW24187   1.596   0.332   1.927 -0.6180  0.2240 -0.2695
 4185SOL    HW124188   1.631   0.409   1.971 -1.6445  0.4631  0.1213
 4185SOL    HW224189   1.673   0.294   1.884  0.7211  1.5480  0.9491
 4186SOL     OW24190   4.421   1.254   6.119  0.1137 -0.3317  0.2374
 4186SOL    HW124191   4.349   1.228   6.061 -1.9834  3.1278  1.2902
 4186SOL    HW224192   4.381   1.328   6.164 -0.3794 -0.9008  0.7459
 4187SOL     OW24193   1.431   2.002   7.637  0.1584  0.6694  0.0228
 4187SOL    HW124194   1.440   1.960   7.723 -0.6035  2.9824  1.2271
 4187SOL    HW224195   1.378   2.080   7.651  0.6710  0.9966  0.1403
 4188SOL     OW24196   0.086   1.471  10.549  0.2722  0.4446  0.4149
 4188SOL    HW124197   0.073   1.435  10.637  2.7241 -0.1038  0.5617
 4188SOL    HW224198   4.734   1.501  10.527 -0.0821  0.5822  2.0298
 4189SOL     OW24199   0.283   0.240   6.669 -0.1952 -0.6478  0.0305
 4189SOL    HW124200   0.293   0.181   6.594  0.7278 -1.6645  0.9487
 4189SOL    HW224201   0.226   0.186   6.724 -0.4470 -0.3881  0.0234
 4190SOL     OW24202   4.395   3.116   4.498  0.1240 -0.0740  0.5268
 4190SOL    HW124203   4.467   3.099   4.560 -1.7897 -1.2710  2.4280
 4190SOL    HW224204   4.343   3.182   4.543  0.3973  0.9313 -0.6399
 4191SOL     OW24205   2.202   0.436   2.783  0.4624  0.2555 -0.0947
 4191SOL    HW124206   2.278   0.472   2.828  0.4095  0.5816 -0.2636
 4191SOL    HW224207   2.145   0.514   2.776  0.0781  0.0717  0.9939
 4192SOL     OW24208   3.999   0.756   1.316  0.3948 -0.1466  0.3602
 4192SOL    HW124209   4.064   0.688   1.303  1.1888  0.5485  0.7269
 4192SOL    HW224210   4.010   0.800   1.231 -1.0663 -0.2159  0.1344
 4193SOL     OW24211   3.734   1.171   4.079  0.4708 -0.0849 -0.4342
 4193SOL    HW124212   3.696   1.258   4.088  1.7873  0.2530  1.7016
 4193SOL    HW224213   3.806   1.198   4.022  2.5408  0.0658  2.2619
 4194SOL     OW24214   0.114   3.645   5.313  0.5440  0.4616 -0.3672
 4194SOL    HW124215   0.058   3.717   5.343 -1.0518 -1.0554  0.3115
 4194SOL    HW224216   0.088   3.640   5.221  0.3894 -3.5992 -0.0961
 4195SOL     OW24217   3.139   0.992   4.277 -0.1514 -0.3231  0.4485
 4195SOL    HW124218   3.234   1.001   4.282 -0.4587  1.1128  3.3013
 4195SOL    HW224219   3.123   0.953   4.191  3.1063 -0.4872 -0.0952
 4196SOL     OW24220   1.437   1.247  16.423  0.0475 -0.2038  0.3384
 4196SOL    HW124221   1.364   1.265  16.482 -0.4328 -1.4111  0.1069
 4196SOL    HW224222   1.494   1.202  16.485 -0.5154  0.5963  1.4345
 4197SOL     OW24223   1.728   4.441   3.335  0.3847 -0.1697  0.2151
 4197SOL    HW124224   1.773   4.519   3.302  0.0666 -0.4350 -0.8314
 4197SOL    HW224225   1.689   4.468   3.419  0.3191 -0.7582  0.3722
 4198SOL     OW24226   0.157   3.110   2.880  0.3117  0.4711 -0.2314
 4198SOL    HW124227   0.202   3.052   2.942  1.5953  0.9963 -0.6678
 4198SOL    HW224228   0.230   3.166   2.854  0.4473  0.4587  0.1229
 4199SOL     OW24229   4.249   4.685   6.316  0.0690  0.2183 -1.0217
 4199SOL    HW124230   4.208   4.609   6.359 -1.0714  1.5606  0.2403
 4199SOL    HW224231   4.337   4.649   6.312 -0.4428 -1.1910  0.4011
 4200SOL     OW24232   3.668   3.406  10.339 -0.2800 -0.6436 -0.5430
 4200SOL    HW124233   3.586   3.397  10.290 -2.2566 -0.3251  2.6670
 4200SOL    HW224234   3.706   3.487  10.306 -1.1475  0.2612  0.6841
 4201SOL     OW24235   1.330   3.902  16.123  0.5830 -0.4554  0.2282
 4201SOL    HW124236   1.279   3.968  16.170 -1.6277 -1.5826 -0.6172
 4201SOL    HW224237   1.367   3.952  16.050 -4.4662  0.7030 -1.5563
 4202SOL     OW24238   2.278   2.412   4.676  0.2649 -0.3465 -0.6321
 4202SOL    HW124239   2.372   2.401   4.684 -0.2315 -1.4280  3.6884
 4202SOL    HW224240   2.263   2.408   4.581 -2.4379  2.9036 -0.3611
 4203SOL     OW24241   3.558   3.757   8.019 -0.0910  0.1758  0.5989
 4203SOL    HW124242   3.637   3.809   8.005 -0.1165  0.2415  0.6964
 4203SOL    HW224243   3.493   3.828   8.016  1.0392  1.1206 -1.2764
 4204SOL     OW24244   3.251   2.462   2.600  0.0321 -0.0823  0.6259
 4204SOL    HW124245   3.172   2.502   2.636 -1.1396 -0.9394 -1.0125
 4204SOL    HW224246   3.305   2.430   2.673  3.5138  1.2536 -1.3565
 4205SOL     OW24247   2.738   2.668  14.420  0.6776 -0.0275 -0.1324
 4205SOL    HW124248   2.803   2.706  14.361  0.6081  1.1766  0.5623
 4205SOL    HW224249   2.668   2.734  14.417  0.6586  0.0031  0.9363
 4206SOL     OW24250   4.133   2.077   7.346  0.2043  0.0971 -0.2035
 4206SOL    HW124251   4.057   2.020   7.363  1.4357 -1.9534 -1.5122
 4206SOL    HW224252   4.201   2.009   7.341  2.4631  2.2556  1.0815
 4207SOL     OW24253   0.087   0.613   3.366 -0.0215 -0.0775 -0.1870
 4207SOL    HW124254   0.134   0.632   3.285  0.1972  1.2995  0.2630
 4207SOL    HW224255   0.076   0.518   3.359  1.0544 -0.4650  3.4595
 4208SOL     OW24256   3.616   0.824   6.038 -0.0220 -0.4338 -0.0523
 4208SOL    HW124257   3.574   0.879   6.103  1.1709 -0.6190  0.8911
 4208SOL    HW224258   3.539   0.776   6.008  0.6738 -0.1986 -2.2502
 4209SOL     OW24259   0.229   4.285  14.996  0.0696 -0.2729  0.5453
 4209SOL    HW124260   0.202   4.296  14.905 -0.7799  4.0699  1.3465
 4209SOL    HW224261   0.220   4.372  15.036  0.0903 -0.7262  1.5462
 4210SOL     OW24262   0.704   3.196   4.658  0.2644  0.6269 -0.3783
 4210SOL    HW124263   0.747   3.165   4.578  0.3174 -1.7042  0.5705
 4210SOL    HW224264   0.714   3.123   4.718 -1.2183  1.4397  0.8514
 4211SOL     OW24265   1.599   3.299   4.082  0.1114  0.1219 -0.1808
 4211SOL    HW124266   1.656   3.230   4.050  2.3329  2.1102 -0.5383
 4211SOL    HW224267   1.611   3.281   4.175  1.3410 -0.2894 -0.4296
 4212SOL     OW24268   3.792   0.649   2.213  0.1977  0.3992 -0.3548
 4212SOL    HW124269   3.726   0.594   2.255 -0.5049  1.2794 -0.3090
 4212SOL    HW224270   3.809   0.592   2.137  1.7651 -1.1693  1.1703
 4213SOL     OW24271   2.675   3.553   7.098  0.5015  0.5178 -0.0663
 4213SOL    HW124272   2.640   3.640   7.076 -0.9410 -0.5520 -2.0243
 4213SOL    HW224273   2.741   3.547   7.029 -0.1987  0.5016 -0.7407
 4214SOL     OW24274   4.584   4.388   7.166  0.0326  0.0606  0.6647
 4214SOL    HW124275   4.490   4.400   7.160  0.0607  0.3949  0.9033
 4214SOL    HW224276   4.594   4.301   7.127 -0.5639  0.0628  0.5166
 4215SOL     OW24277   2.377   4.387  15.195 -0.6395  0.0196 -0.4820
 4215SOL    HW124278   2.304   4.409  15.137 -2.3472 -2.5382  0.6496
 4215SOL    HW224279   2.373   4.291  15.189 -0.8869 -0.1268  1.6795
 4216SOL     OW24280   4.380   2.245   6.110 -0.5207  0.1428 -0.7233
 4216SOL    HW124281   4.456   2.188   6.120 -2.1373 -2.2673 -2.3883
 4216SOL    HW224282   4.357   2.211   6.024  1.1817  1.1152 -1.5639
 4217SOL     OW24283   3.411   2.444   8.199 -0.1287  0.0141  0.2469
 4217SOL    HW124284   3.338   2.430   8.260 -0.8082 -0.3297 -0.6511
 4217SOL    HW224285   3.488   2.414   8.248  0.4951  1.3827  0.0874
 4218SOL     OW24286   1.705   3.302   2.263 -0.3259  0.6446 -0.3784
 4218SOL    HW124287   1.787   3.341   2.293 -0.2838 -0.4685  0.9324
 4218SOL    HW224288   1.643   3.370   2.292 -1.4227 -0.1360 -0.8758
 4219SOL     OW24289   2.051   3.428   5.428 -0.4315 -0.2228  0.2042
 4219SOL    HW124290   2.124   3.490   5.429 -1.8653  1.5477 -3.3274
 4219SOL    HW224291   2.081   3.363   5.491 -1.4132 -0.7313  0.1439
 4220SOL     OW24292   2.595   1.043   2.024 -0.0075 -0.6580 -0.5343
 4220SOL    HW124293   2.530   0.973   2.013  0.3862 -0.8276 -1.7686
 4220SOL    HW224294   2.678   1.001   2.004  1.3490  2.1066 -0.7689
 4221SOL     OW24295   2.567   0.646   5.060  0.5461  0.2025  0.2955
 4221SOL    HW124296   2.655   0.666   5.028  0.6363 -1.1405 -0.2904
 4221SOL    HW224297   2.580   0.590   5.137 -1.4196 -2.1722 -1.0885
 4222SOL     OW24298   1.745   2.249   4.029  0.1393 -0.2761  0.1847
 4222SOL    HW124299   1.772   2.327   3.982 -0.3911 -0.4888 -0.4722
 4222SOL    HW224300   1.818   2.216   4.082 -0.5878 -0.9010  0.8101
 4223SOL     OW24301   2.200   2.304   6.989  0.0269  0.1399 -0.3840
 4223SOL    HW124302   2.275   2.254   6.957  0.1669  0.3784 -0.4286
 4223SOL    HW224303   2.126   2.244   6.986  1.1821 -1.2850 -0.6192
 4224SOL     OW24304   0.206   0.767   0.189  0.0447  0.1923  0.6676
 4224SOL    HW124305   0.131   0.727   0.231 -1.1480  1.0743 -0.6116
 4224SOL    HW224306   0.277   0.746   0.250  1.4435  0.4166 -0.8694
 4225SOL     OW24307   0.513   3.331  12.942 -0.3289  0.1811 -0.2287
 4225SOL    HW124308   0.566   3.388  12.886  1.4409 -0.6979  0.5411
 4225SOL    HW224309   0.478   3.399  13.000 -3.3648 -1.9370  0.3787
 4226SOL     OW24310   4.735   1.571   3.538 -0.0429 -0.0310  0.4852
 4226SOL    HW124311   0.018   1.662   3.561  0.3750  0.1242 -0.4926
 4226SOL    HW224312   0.065   1.546   3.473  2.2616  0.5675  2.6074
 4227SOL     OW24313   1.517   4.200   5.434 -0.0225  0.1792 -0.1287
 4227SOL    HW124314   1.483   4.146   5.362  0.8057  1.4390 -1.4498
 4227SOL    HW224315   1.491   4.285   5.398 -1.4942  0.4718  1.6287
 4228SOL     OW24316   4.236   3.663   0.304 -0.4440  0.1838  0.6351
 4228SOL    HW124317   4.233   3.576   0.264 -0.6852  1.6694 -2.5616
 4228SOL    HW224318   4.321   3.692   0.272 -1.1704  0.9574 -0.6127
 4229SOL     OW24319   1.020   2.680  16.969  0.5142 -0.1979 -0.1481
 4229SOL    HW124320   0.977   2.596  16.957 -0.6199  0.0699  1.9727
 4229SOL    HW224321   0.950   2.730  17.012  0.5376  0.4275 -0.8377
 4230SOL     OW24322   2.125   3.633  15.202 -0.2321  0.2946 -0.3364
 4230SOL    HW124323   2.208   3.589  15.184 -0.0800 -0.4466  2.1227
 4230SOL    HW224324   2.063   3.567  15.169  0.6824 -1.2331  1.0026
 4231SOL     OW24325   3.418   4.449   5.432  0.4180  0.0462 -0.5306
 4231SOL    HW124326   3.457   4.536   5.437 -1.4077  0.8279  0.3981
 4231SOL    HW224327   3.333   4.456   5.390  0.1306 -2.2493 -0.3443
 4232SOL     OW24328   1.231   1.399  13.107 -0.0445 -0.2762 -0.3320
 4232SOL    HW124329   1.279   1.398  13.025 -0.7101 -0.6583 -0.7136
 4232SOL    HW224330   1.295   1.427  13.172 -0.9842 -0.6810  0.7813
 4233SOL     OW24331   0.476   0.780   6.292  0.0518  0.0701  0.0886
 4233SOL    HW124332   0.422   0.773   6.371  0.5267  0.1833  0.4259
 4233SOL    HW224333   0.412   0.769   6.222  0.6153 -0.8774 -0.2727
 4234SOL     OW24334   2.448   2.062   4.762 -0.3927  0.2772  0.2962
 4234SOL    HW124335   2.445   2.140   4.817 -0.0563 -0.5324  1.4666
 4234SOL    HW224336   2.376   2.017   4.807  0.5423  0.2601  1.7918
 4235SOL     OW24337   0.758   0.281   1.840  0.6113  0.0688  0.3086
 4235SOL    HW124338   0.785   0.302   1.750 -5.5095 -1.9433 -2.0267
 4235SOL    HW224339   0.662   0.277   1.839  0.5302  2.1029 -0.6116
 4236SOL     OW24340   1.947   4.456   5.780  0.0154 -0.1256  0.1325
 4236SOL    HW124341   1.940   4.528   5.843 -0.9429  1.7778 -2.1821
 4236SOL    HW224342   1.885   4.396   5.820  0.0147 -0.6601 -0.6701
 4237SOL     OW24343   4.516   1.764  10.746 -0.1041 -0.0153 -0.3560
 4237SOL    HW124344   4.560   1.848  10.748  2.2280 -1.2846  1.6053
 4237SOL    HW224345   4.552   1.735  10.662  0.0520  2.1851 -1.0281
 4238SOL     OW24346   1.095   3.775   3.630 -0.1694  0.1497 -0.0095
 4238SOL    HW124347   1.106   3.761   3.535  0.6626  1.0973 -0.0583
 4238SOL    HW224348   1.055   3.861   3.631 -1.6972 -0.5418 -1.2636
 4239SOL     OW24349   0.533   1.836  15.172  0.1891 -0.0977  0.3321
 4239SOL    HW124350   0.628   1.834  15.174  0.1504 -1.7728  0.2920
 4239SOL    HW224351   0.517   1.743  15.155  0.4168 -0.7023  3.4226
 4240SOL     OW24352   4.620   2.299   0.261  0.1835 -0.4332  0.2385
 4240SOL    HW124353   4.565   2.227   0.290 -0.6359  0.9589  2.1071
 4240SOL    HW224354   4.563   2.342   0.197 -0.8932 -0.6931  1.0286
 4241SOL     OW24355   2.499   4.028   5.871 -0.3929 -0.0121  0.2045
 4241SOL    HW124356   2.477   4.032   5.778 -1.6236 -1.6209  0.4203
 4241SOL    HW224357   2.574   3.969   5.864  0.3817  0.7091  2.4801
 4242SOL     OW24358   1.742   1.136   8.806 -0.3868 -0.0179 -0.4607
 4242SOL    HW124359   1.648   1.141   8.823 -0.1263 -0.1391  0.9736
 4242SOL    HW224360   1.744   1.067   8.740 -2.2444 -1.5183  1.0414
 4243SOL     OW24361   3.574   2.264   5.610  0.1520  0.2711  0.1476
 4243SOL    HW124362   3.567   2.231   5.700 -0.3434  1.5637  0.5943
 4243SOL    HW224363   3.580   2.357   5.635 -0.1374 -0.0660  1.4793
 4244SOL     OW24364   3.688   0.693   0.887 -0.0365 -0.5373 -0.2721
 4244SOL    HW124365   3.728   0.727   0.807 -0.4718  1.4280  0.3327
 4244SOL    HW224366   3.670   0.769   0.942 -0.8727 -1.4826  0.7699
 4245SOL     OW24367   0.542   1.493   8.022  0.1015 -0.6766 -0.5046
 4245SOL    HW124368   0.564   1.402   8.002 -0.9785 -0.6865 -1.6430
 4245SOL    HW224369   0.536   1.484   8.117 -2.6257 -1.7162 -0.7849
 4246SOL     OW24370   1.730   1.809  12.535  0.3407 -0.1712 -0.0182
 4246SOL    HW124371   1.688   1.723  12.535  0.7382 -0.3654  0.0037
 4246SOL    HW224372   1.654   1.860  12.562  0.6653 -0.8492  2.1418
 4247SOL     OW24373   3.756   2.930  12.615  0.6318  0.2216 -0.3380
 4247SOL    HW124374   3.796   2.850  12.582  1.8028  0.7875 -0.2777
 4247SOL    HW224375   3.746   2.984  12.536 -0.8834  0.7618  0.2178
 4248SOL     OW24376   3.257   2.390   4.120  0.1814 -0.2869  0.1916
 4248SOL    HW124377   3.302   2.456   4.068  1.9701 -2.7277 -1.3245
 4248SOL    HW224378   3.313   2.314   4.103  0.2642 -0.3937  0.9121
 4249SOL     OW24379   4.212   0.497   4.510 -0.4194  0.3941  0.3234
 4249SOL    HW124380   4.147   0.498   4.439  1.0404  1.9064 -1.0011
 4249SOL    HW224381   4.246   0.587   4.505 -0.0460  0.3075  1.3771
 4250SOL     OW24382   2.244   4.651   9.737  0.4291 -0.0661  0.8510
 4250SOL    HW124383   2.194   4.572   9.718  1.2251  0.1285 -2.1045
 4250SOL    HW224384   2.208   4.685   9.819  2.5200  1.7581  1.0299
 4251SOL     OW24385   1.305   2.691   3.562 -0.0958  0.5297  0.6454
 4251SOL    HW124386   1.226   2.729   3.601 -0.4206  1.6371 -1.1306
 4251SOL    HW224387   1.361   2.764   3.591  1.0429  0.0136 -0.2522
 4252SOL     OW24388   3.556   3.725   4.283  0.2007 -0.6011  0.3284
 4252SOL    HW124389   3.632   3.738   4.340 -0.0194  0.2218  0.4383
 4252SOL    HW224390   3.501   3.802   4.297  1.0199 -0.1703  1.1993
 4253SOL     OW24391   1.137   4.369   3.232 -0.3904 -0.2016 -0.1908
 4253SOL    HW124392   1.135   4.438   3.167 -2.8552 -0.2932 -0.2046
 4253SOL    HW224393   1.158   4.420   3.310 -0.4705 -0.2117 -0.1624
 4254SOL     OW24394   4.028   2.239   1.366 -0.3584 -0.3040  0.2701
 4254SOL    HW124395   3.950   2.290   1.385  0.2990  1.5181 -1.9165
 4254SOL    HW224396   4.018   2.161   1.421  0.0578  0.3014  1.2189
 4255SOL     OW24397   3.254   3.310  15.691  0.3111  0.3197  0.3113
 4255SOL    HW124398   3.329   3.331  15.636 -0.0793  2.6490  0.6594
 4255SOL    HW224399   3.297   3.297  15.776  1.4376 -1.4232 -0.5401
 4256SOL     OW24400   0.189   4.362   4.186  0.1779  0.1663  0.0869
 4256SOL    HW124401   0.177   4.456   4.169  0.5615 -0.0886 -1.6330
 4256SOL    HW224402   0.114   4.323   4.142  1.4111 -2.8162  0.6362
 4257SOL     OW24403   2.885   4.713   5.115 -0.2911  0.8165  0.2379
 4257SOL    HW124404   2.945   0.040   5.075  0.1290  0.0371 -0.3640
 4257SOL    HW224405   2.814   4.703   5.051  0.4204 -0.3826 -0.3664
 4258SOL     OW24406   1.409   0.400   6.549 -0.4938  0.2354  0.1248
 4258SOL    HW124407   1.469   0.327   6.536 -0.2672  0.5303 -0.4870
 4258SOL    HW224408   1.345   0.369   6.485  0.3689 -0.9056 -0.1872
 4259SOL     OW24409   2.320   3.317   5.150  0.2346  0.1223  0.4206
 4259SOL    HW124410   2.237   3.347   5.114  0.2493 -0.1962  0.1284
 4259SOL    HW224411   2.342   3.369   5.227  1.6208  0.0711  0.0549
 4260SOL     OW24412   0.252   2.951   4.889  0.0923 -0.0702 -0.5076
 4260SOL    HW124413   0.343   2.929   4.912  0.1961  0.4252 -0.4310
 4260SOL    HW224414   0.217   2.862   4.893  0.8216 -0.4084 -1.6601
 4261SOL     OW24415   0.460   0.408  10.318 -0.0304  0.1434 -0.1794
 4261SOL    HW124416   0.425   0.441  10.234 -0.9361  0.5797  0.3673
 4261SOL    HW224417   0.552   0.395  10.297 -0.1431 -1.4369  0.3588
 4262SOL     OW24418   1.848   4.251   7.811  0.1379  0.0769  0.0380
 4262SOL    HW124419   1.780   4.316   7.827  0.1070 -0.0441  0.3975
 4262SOL    HW224420   1.825   4.225   7.722 -1.7475 -0.0479  0.5632
 4263SOL     OW24421   4.646   1.535   5.181  0.1163  0.0291 -0.3444
 4263SOL    HW124422   4.696   1.506   5.104 -0.7711 -1.1131 -0.4857
 4263SOL    HW224423   4.610   1.617   5.146 -0.3640 -0.4571 -0.9929
 4264SOL     OW24424   2.309   2.364   9.297 -0.2904  0.0117 -1.0910
 4264SOL    HW124425   2.265   2.428   9.240 -1.6644 -0.1033 -0.1634
 4264SOL    HW224426   2.246   2.291   9.295 -1.5074  1.0480 -0.9480
 4265SOL     OW24427   1.516   3.055   1.431 -0.1014 -0.6191 -0.4283
 4265SOL    HW124428   1.523   3.136   1.381  0.8781  0.2296  1.0784
 4265SOL    HW224429   1.524   2.993   1.358  2.5106 -0.2142 -0.5081
 4266SOL     OW24430   0.801   1.317   6.627 -0.3977  0.3812 -0.1810
 4266SOL    HW124431   0.892   1.301   6.651 -1.5835 -1.7282  2.9278
 4266SOL    HW224432   0.790   1.231   6.586  0.9376  1.1517 -2.1662
 4267SOL     OW24433   2.196   3.351   2.804 -0.5337 -0.5800 -0.3852
 4267SOL    HW124434   2.197   3.349   2.708 -1.6071 -2.3433 -0.3526
 4267SOL    HW224435   2.290   3.338   2.822 -1.0594 -1.3314  1.8137
 4268SOL     OW24436   4.207   2.997   1.578  0.0558  0.5904  0.7331
 4268SOL    HW124437   4.200   3.000   1.673 -0.8733 -0.0918  0.6791
 4268SOL    HW224438   4.186   3.089   1.559  1.6130  0.9313  0.5899
 4269SOL     OW24439   3.698   2.070   1.270 -0.1014  0.2134  0.1727
 4269SOL    HW124440   3.744   2.062   1.353  0.9774 -1.3460 -0.5869
 4269SOL    HW224441   3.719   2.156   1.233  0.2096  0.4729  0.9645
 4270SOL     OW24442   1.001   1.647   1.830 -0.6488  0.2365 -0.1419
 4270SOL    HW124443   1.061   1.687   1.894  2.2103 -2.0772 -1.4023
 4270SOL    HW224444   1.007   1.556   1.859 -0.5619  0.9609  2.1276
 4271SOL     OW24445   3.927   3.887   6.654  0.2320  0.2832  0.4502
 4271SOL    HW124446   3.871   3.857   6.582 -1.4432 -0.3094  2.0003
 4271SOL    HW224447   3.877   3.964   6.682 -2.5582 -1.2393 -0.3222
 4272SOL     OW24448   1.663   3.397  13.566 -0.3277  0.1328 -0.2564
 4272SOL    HW124449   1.700   3.440  13.489  0.7901 -1.3854 -0.5502
 4272SOL    HW224450   1.685   3.468  13.626 -1.3339  1.9551 -2.0358
 4273SOL     OW24451   3.597   1.573   9.848  0.1373 -0.0314  0.4586
 4273SOL    HW124452   3.521   1.570   9.790 -0.7168  1.7772  1.4844
 4273SOL    HW224453   3.585   1.659   9.887  0.3562  0.5919 -0.8555
 4274SOL     OW24454   1.141   3.367   6.151  0.2999  0.3735 -0.0414
 4274SOL    HW124455   1.224   3.320   6.144  2.2279  3.6853  1.0544
 4274SOL    HW224456   1.159   3.451   6.110  0.3536  0.5731  0.4029
 4275SOL     OW24457   3.879   0.632   9.225 -0.0482 -0.0489 -0.3709
 4275SOL    HW124458   3.900   0.681   9.305  0.9113 -0.1220 -0.5787
 4275SOL    HW224459   3.964   0.606   9.188  0.3136 -2.9743  2.4223
 4276SOL     OW24460   1.357   1.564   4.282  0.0375 -0.1957  0.0784
 4276SOL    HW124461   1.370   1.470   4.299  1.2732 -0.0634 -0.1501
 4276SOL    HW224462   1.340   1.560   4.188  0.2343 -0.7050  0.0639
 4277SOL     OW24463   3.280   2.125   0.637  0.0434 -0.6070  0.5162
 4277SOL    HW124464   3.206   2.080   0.597  0.8398 -1.8383  0.4305
 4277SOL    HW224465   3.348   2.102   0.574  0.0976 -1.0215  0.7281
 4278SOL     OW24466   1.180   4.467   9.617 -0.0882  0.4794 -0.3771
 4278SOL    HW124467   1.274   4.459   9.631  0.2061  2.4202 -1.1712
 4278SOL    HW224468   1.145   4.482   9.704 -0.7872 -1.7891 -0.2796
 4279SOL     OW24469   3.022   2.650   2.652  0.7010  0.2447 -0.3321
 4279SOL    HW124470   3.016   2.735   2.608  1.2887  1.6294  2.3062
 4279SOL    HW224471   2.977   2.595   2.587 -0.4647 -0.6449  1.2236
 4280SOL     OW24472   0.341   2.499  17.497  0.2735  0.3964  0.3057
 4280SOL    HW124473   0.248   2.509  17.516  0.1349  0.2029 -0.2692
 4280SOL    HW224474   0.370   2.586  17.524  1.1938  0.1879 -0.0053
 4281SOL     OW24475   1.402   4.097   1.783  0.2813 -0.4847 -0.0099
 4281SOL    HW124476   1.356   4.018   1.754 -0.7872  0.7726 -1.7307
 4281SOL    HW224477   1.375   4.153   1.710 -0.9517 -0.8840  0.1370
 4282SOL     OW24478   0.589   2.715   5.077  0.0402  0.9720 -0.4565
 4282SOL    HW124479   0.678   2.718   5.041  0.5145 -2.3168  0.4173
 4282SOL    HW224480   0.575   2.630   5.120  0.8285  0.6094 -0.9218
 4283SOL     OW24481   3.907   4.735   2.246  0.5762  0.1720 -0.3096
 4283SOL    HW124482   3.906   4.657   2.302  1.4304  0.8893  0.7069
 4283SOL    HW224483   3.820   0.036   2.259  0.0561 -0.7216 -1.2343
 4284SOL     OW24484   3.682   4.686   2.626 -0.0817  0.1665 -0.0614
 4284SOL    HW124485   3.604   4.678   2.572  0.2875 -4.8921  0.1172
 4284SOL    HW224486   3.653   4.691   2.717 -0.2875 -2.1440  0.0153
 4285SOL     OW24487   0.698   3.699   5.552 -0.5695  0.2429  0.5695
 4285SOL    HW124488   0.627   3.762   5.540 -0.8126  0.0249  0.8590
 4285SOL    HW224489   0.737   3.729   5.635 -2.7098 -0.0268  1.6675
 4286SOL     OW24490   2.717   3.477  12.350 -0.2858 -0.2676  0.4556
 4286SOL    HW124491   2.791   3.445  12.298  0.4541 -0.1400  1.4367
 4286SOL    HW224492   2.674   3.395  12.374  0.0981 -1.0545 -1.5264
 4287SOL     OW24493   2.129   2.478   9.950 -0.1859 -0.3296 -0.1554
 4287SOL    HW124494   2.158   2.400   9.997  1.4416 -0.4316 -1.3299
 4287SOL    HW224495   2.135   2.539  10.024 -2.4735 -1.3482  0.8803
 4288SOL     OW24496   0.446   1.953   6.710  0.1857 -0.1756 -0.8690
 4288SOL    HW124497   0.370   1.960   6.652  0.4188 -0.6524 -1.2373
 4288SOL    HW224498   0.522   1.928   6.656 -0.0305  1.3566 -1.8828
 4289SOL     OW24499   3.729   4.271  10.030  0.4157  0.2077  0.7679
 4289SOL    HW124500   3.816   4.241  10.056  1.0375  0.8378 -0.6380
 4289SOL    HW224501   3.684   4.187  10.021  1.4632 -0.4173  1.3817
 4290SOL     OW24502   3.080   3.515   0.141  0.0285 -0.4729 -0.1991
 4290SOL    HW124503   3.152   3.467   0.100  1.4838  0.9517  0.7122
 4290SOL    HW224504   3.105   3.607   0.137 -1.2649 -0.1823 -1.9031
 4291SOL     OW24505   0.730   1.268   7.645 -0.0366 -0.5764 -0.7021
 4291SOL    HW124506   0.735   1.178   7.612  3.5118  0.0424 -1.8810
 4291SOL    HW224507   0.719   1.241   7.736 -0.6012 -0.1345 -0.6378
 4292SOL     OW24508   4.018   0.050   8.158  0.3259  0.2245 -0.2586
 4292SOL    HW124509   4.087   0.110   8.186  1.0950 -0.3310 -0.9645
 4292SOL    HW224510   3.996   0.077   8.069 -0.1256  2.8812  0.6593
 4293SOL     OW24511   1.134   4.204   0.315 -0.3846  0.4664 -0.2841
 4293SOL    HW124512   1.096   4.179   0.231  0.0862  1.8058 -0.8892
 4293SOL    HW224513   1.098   4.131   0.367 -0.1504  1.4753  1.2789
 4294SOL     OW24514   2.986   0.188   3.407  0.0228  0.4704  0.3881
 4294SOL    HW124515   2.951   0.204   3.320 -0.2100  0.9468  0.5685
 4294SOL    HW224516   2.942   0.256   3.458  1.0527  2.3927 -1.2958
 4295SOL     OW24517   3.314   1.647   6.597  0.7799  0.1099  1.4824
 4295SOL    HW124518   3.306   1.723   6.540  1.5733 -0.1149  1.0634
 4295SOL    HW224519   3.338   1.575   6.538 -0.9064 -0.4720  1.5020
 4296SOL     OW24520   1.941   4.705   4.107 -0.1292 -0.0892 -0.1487
 4296SOL    HW124521   1.851   4.714   4.077 -0.2988 -1.2349  0.0136
 4296SOL    HW224522   1.932   4.659   4.190  1.8891 -1.1407 -0.4947
 4297SOL     OW24523   1.080   3.353  15.044 -0.4121 -0.2006 -0.1534
 4297SOL    HW124524   1.021   3.330  14.973  1.0933 -1.4967 -0.9968
 4297SOL    HW224525   1.125   3.272  15.071  0.6651  0.2261 -0.6822
 4298SOL     OW24526   2.503   0.037  11.450  0.1632  0.4789  0.3798
 4298SOL    HW124527   2.449   4.694  11.445 -1.1394  1.3898 -0.0565
 4298SOL    HW224528   2.439   0.099  11.415 -1.3292 -0.0115  2.2822
 4299SOL     OW24529   2.810   0.254   4.383 -0.2923 -0.4487  0.0135
 4299SOL    HW124530   2.802   0.347   4.364  1.7560  0.2589  2.8184
 4299SOL    HW224531   2.720   0.244   4.414  0.6701  1.0653  3.2901
 4300SOL     OW24532   4.381   0.219   2.700  0.6908 -0.4109  0.3447
 4300SOL    HW124533   4.362   0.143   2.645 -0.6383 -1.0740  1.7031
 4300SOL    HW224534   4.314   0.274   2.659  2.1935 -0.2526 -1.8860
 4301SOL     OW24535   2.534   3.342   5.352 -0.5971  0.3786 -0.2514
 4301SOL    HW124536   2.482   3.301   5.421  2.6556 -1.1877  1.2776
 4301SOL    HW224537   2.619   3.354   5.396 -1.6280  1.5024  1.4467
 4302SOL     OW24538   4.419   0.761   2.866 -0.3860 -0.5650 -0.0996
 4302SOL    HW124539   4.396   0.812   2.788  1.1547 -0.1003 -0.2585
 4302SOL    HW224540   4.509   0.733   2.849 -0.4216 -1.8232  1.9011
 4303SOL     OW24541   0.733   2.788  12.826 -0.0802 -0.3004 -0.0051
 4303SOL    HW124542   0.637   2.796  12.824 -0.1203 -0.6235  0.5228
 4303SOL    HW224543   0.765   2.792  12.736 -3.4764  1.5338 -1.1609
 4304SOL     OW24544   1.555   1.915   0.574 -0.5310  0.1134 -0.0277
 4304SOL    HW124545   1.598   1.833   0.599  0.4680  1.2234  1.8031
 4304SOL    HW224546   1.475   1.874   0.541 -0.6489 -1.1653  1.8649
 4305SOL     OW24547   3.283   1.912   3.998  0.4259 -0.6192 -0.6426
 4305SOL    HW124548   3.193   1.942   4.011  1.1200  0.5004  1.6054
 4305SOL    HW224549   3.280   1.881   3.908  1.3215 -1.2122 -0.4690
 4306SOL     OW24550   0.093   2.228  10.208 -0.3747 -0.3371  0.0695
 4306SOL    HW124551   0.086   2.185  10.293 -0.0465  0.0110  0.2738
 4306SOL    HW224552   0.086   2.320  10.230  2.6915 -0.2708  0.8159
 4307SOL     OW24553   3.541   4.412  15.892  0.2499 -0.0984  0.0314
 4307SOL    HW124554   3.516   4.497  15.855  2.3085  0.7027  0.4266
 4307SOL    HW224555   3.455   4.392  15.928  1.0892 -1.1098  1.4766
 4308SOL     OW24556   2.514   3.628   8.406 -0.2441 -0.3731 -0.3761
 4308SOL    HW124557   2.433   3.679   8.401  0.5088  0.8285 -0.4799
 4308SOL    HW224558   2.521   3.603   8.498 -1.2405 -1.4417 -0.5885
 4309SOL     OW24559   0.857   3.449  13.329  0.3242 -0.1638  0.0982
 4309SOL    HW124560   0.907   3.375  13.294 -0.7128 -0.1760 -1.3269
 4309SOL    HW224561   0.918   3.475  13.398  1.0935 -0.8900 -0.3046
 4310SOL     OW24562   2.137   2.008   5.120 -0.0534  0.3560  0.2387
 4310SOL    HW124563   2.115   1.988   5.210 -1.2502  0.5600 -0.0178
 4310SOL    HW224564   2.069   1.968   5.066  1.3696 -2.3758  0.4575
 4311SOL     OW24565   2.461   4.624   4.664  0.3443 -0.2574  0.6050
 4311SOL    HW124566   2.402   4.591   4.732 -0.1482  0.4875  0.5433
 4311SOL    HW224567   2.433   4.715   4.675  0.0192 -0.0273 -1.9696
 4312SOL     OW24568   0.889   4.285   3.125 -0.4322  0.1305  0.2237
 4312SOL    HW124569   0.883   4.345   3.051  0.9796 -1.0042 -0.8075
 4312SOL    HW224570   0.961   4.325   3.173  0.6517 -0.5580 -0.8260
 4313SOL     OW24571   4.686   0.507   7.301 -0.0615 -0.1001  0.1155
 4313SOL    HW124572   4.717   0.591   7.269  0.6480 -1.0283 -1.6365
 4313SOL    HW224573   4.643   0.527   7.385 -0.5517  3.5598 -1.0235
 4314SOL     OW24574   3.165   4.047  11.290 -0.3039 -0.0111  0.1000
 4314SOL    HW124575   3.180   4.139  11.270  2.1516 -0.2905  0.7183
 4314SOL    HW224576   3.083   4.053  11.338  0.5031 -1.8321  1.7022
 4315SOL     OW24577   2.711   3.787  13.073  0.0815  0.2569 -0.4719
 4315SOL    HW124578   2.724   3.824  13.160 -1.2372 -0.6331  0.1060
 4315SOL    HW224579   2.728   3.866  13.021  2.4418  0.3430  0.4556
 4316SOL     OW24580   2.337   1.901   5.972  0.4269 -0.3597  0.0341
 4316SOL    HW124581   2.272   1.955   6.017 -0.6462 -0.5242 -1.3451
 4316SOL    HW224582   2.373   1.959   5.905 -2.9112 -0.9021 -2.2327
 4317SOL     OW24583   4.211   1.867  14.269 -0.1461 -0.5078  0.2891
 4317SOL    HW124584   4.219   1.949  14.220 -0.5374 -1.4937 -1.4361
 4317SOL    HW224585   4.143   1.895  14.329 -1.1165 -0.6869 -0.7346
 4318SOL     OW24586   1.695   3.540   2.460 -0.2877 -0.1942  0.2474
 4318SOL    HW124587   1.690   3.596   2.383  1.3830 -2.0473 -1.2119
 4318SOL    HW224588   1.702   3.607   2.528  0.5164  1.7759 -1.7847
 4319SOL     OW24589   4.374   3.558   5.216  0.2740 -0.1483 -0.2443
 4319SOL    HW124590   4.394   3.464   5.218 -2.3116 -0.6753  1.0756
 4319SOL    HW224591   4.375   3.593   5.305  2.0688  2.0418 -1.1156
 4320SOL     OW24592   4.562   0.103   7.854 -0.0152 -0.1355  0.1464
 4320SOL    HW124593   4.562   0.051   7.934  0.7638  1.8130  1.4166
 4320SOL    HW224594   4.484   0.079   7.805 -0.3929 -2.0069  1.6607
 4321SOL     OW24595   4.176   1.143   7.192 -0.0950  0.3423  0.6491
 4321SOL    HW124596   4.180   1.144   7.288  0.2033  0.9465  0.6279
 4321SOL    HW224597   4.135   1.227   7.174 -1.4988 -0.6638 -0.8479
 4322SOL     OW24598   4.596   1.585   8.768  0.2079 -0.3444 -0.2882
 4322SOL    HW124599   4.576   1.548   8.681 -1.1792 -1.0726  0.3338
 4322SOL    HW224600   4.690   1.570   8.769  0.9648  4.6548 -1.0762
 4323SOL     OW24601   0.203   2.851   6.703 -0.2763 -0.2926  0.4227
 4323SOL    HW124602   0.189   2.757   6.705 -0.0801 -0.2982  1.5737
 4323SOL    HW224603   0.115   2.886   6.716 -0.4596 -0.3713 -0.6214
 4324SOL     OW24604   2.348   2.141  17.733 -0.3191 -0.4176  0.2898
 4324SOL    HW124605   2.267   2.092  17.723 -1.5887  1.8159 -0.4457
 4324SOL    HW224606   2.322   2.218   0.040  0.2042 -0.2760  0.3487
 4325SOL     OW24607   1.279   1.498   4.635  0.6451 -0.0886 -0.0015
 4325SOL    HW124608   1.252   1.425   4.691 -3.7846  1.3794 -0.2097
 4325SOL    HW224609   1.208   1.494   4.570  1.1764  0.6303 -0.6311
 4326SOL     OW24610   1.046   3.544  13.043 -0.1810 -0.0292 -0.4208
 4326SOL    HW124611   0.958   3.515  13.067  0.1791  1.2831  2.3904
 4326SOL    HW224612   1.051   3.620  13.100 -0.3848 -0.4594  0.1674
 4327SOL     OW24613   0.559   0.968   2.726  1.0703  0.2433 -0.3622
 4327SOL    HW124614   0.604   0.898   2.680 -0.8788 -1.1477 -0.1773
 4327SOL    HW224615   0.620   1.037   2.701  0.1712  0.1289 -2.8207
 4328SOL     OW24616   3.981   1.685  12.307 -0.1833 -0.4941  0.6939
 4328SOL    HW124617   3.897   1.711  12.343  0.4200  3.0575 -0.4541
 4328SOL    HW224618   3.961   1.592  12.307  2.8585 -1.1435  2.2365
 4329SOL     OW24619   0.322   4.611   7.151  0.0135 -0.5447  0.1163
 4329SOL    HW124620   0.306   4.692   7.102 -1.6396  0.1304  1.7815
 4329SOL    HW224621   0.241   4.562   7.138  1.0768 -2.0744 -0.7440
 4330SOL     OW24622   3.312   3.426   9.515 -0.2512  0.1366 -0.0326
 4330SOL    HW124623   3.364   3.466   9.585 -0.1694  0.8256 -0.4902
 4330SOL    HW224624   3.251   3.497   9.496  0.4050  1.1533  1.6794
 4331SOL     OW24625   2.622   3.352   6.345  0.3594 -0.0209 -0.1284
 4331SOL    HW124626   2.674   3.429   6.319  0.1393  0.8904  2.1686
 4331SOL    HW224627   2.579   3.325   6.264 -0.1358 -1.1805  0.5317
 4332SOL     OW24628   2.944   0.200   1.979 -0.1506  0.5385 -0.0567
 4332SOL    HW124629   3.016   0.250   1.940 -1.6351  1.2010 -1.9309
 4332SOL    HW224630   2.954   0.126   1.920  0.1686 -0.2772  1.0061
 4333SOL     OW24631   4.059   4.384   8.588  0.4378 -0.9540 -0.0920
 4333SOL    HW124632   3.980   4.330   8.583 -0.0831 -0.2375  0.4414
 4333SOL    HW224633   4.037   4.458   8.532  1.4361 -0.9143 -0.4317
 4334SOL     OW24634   2.512   1.462   3.715  0.2028 -0.0334  0.6684
 4334SOL    HW124635   2.420   1.484   3.729 -0.0794 -0.3991 -0.6652
 4334SOL    HW224636   2.552   1.505   3.791 -1.9640 -0.4128  2.0263
 4335SOL     OW24637   0.865   2.324   6.869 -0.1721  0.3091  0.0528
 4335SOL    HW124638   0.792   2.306   6.929 -0.3859 -1.3842 -0.7251
 4335SOL    HW224639   0.829   2.272   6.797 -0.8782 -0.8742  1.2565
 4336SOL     OW24640   0.950   4.323  16.968  0.4434 -0.2154 -0.4312
 4336SOL    HW124641   0.969   4.255  17.033  0.5291 -0.1402 -0.3766
 4336SOL    HW224642   0.863   4.302  16.936 -0.0230  1.2092 -0.0992
 4337SOL     OW24643   2.369   3.326   7.999 -0.4299  0.1949  0.3194
 4337SOL    HW124644   2.346   3.238   8.027  2.2870 -0.9584 -1.1398
 4337SOL    HW224645   2.425   3.310   7.923  0.7093 -0.9165  1.4062
 4338SOL     OW24646   3.498   4.235  14.557  0.4691  0.0301 -0.5528
 4338SOL    HW124647   3.523   4.207  14.469 -0.7402  1.3144 -1.2953
 4338SOL    HW224648   3.567   4.299  14.571  0.1062  0.0861  0.9710
 4339SOL     OW24649   0.167   2.122   8.321  0.3877  0.0014 -0.5203
 4339SOL    HW124650   0.181   2.069   8.242 -2.5971 -2.5771  0.6582
 4339SOL    HW224651   0.144   2.055   8.386  0.1543 -0.9568 -1.5722
 4340SOL     OW24652   2.807   4.375   9.520 -0.7839 -0.5519  0.0327
 4340SOL    HW124653   2.773   4.420   9.598  1.9540 -0.3189  1.0959
 4340SOL    HW224654   2.741   4.307   9.507 -2.0532  0.8504 -0.8590
 4341SOL     OW24655   1.348   1.668  17.124  0.1816 -0.2450  0.6701
 4341SOL    HW124656   1.255   1.674  17.143  1.0995  0.9791  4.7855
 4341SOL    HW224657   1.347   1.740  17.060  1.0025  0.0606  0.9979
 4342SOL     OW24658   3.921   3.974   7.116 -0.2180  0.5679 -0.2193
 4342SOL    HW124659   3.983   3.923   7.168 -0.1685 -0.8163 -1.6391
 4342SOL    HW224660   3.896   3.910   7.049  0.7264 -0.5036  0.4562
 4343SOL     OW24661   2.133   2.665   2.854 -0.3730  0.0003 -0.2647
 4343SOL    HW124662   2.114   2.759   2.847 -2.2194 -0.2308  1.3631
 4343SOL    HW224663   2.060   2.641   2.911  0.3322 -1.8093 -0.1252
 4344SOL     OW24664   0.455   3.715   7.408 -0.9813 -0.4436  0.6290
 4344SOL    HW124665   0.523   3.652   7.384 -0.8348  0.1282 -0.4696
 4344SOL    HW224666   0.373   3.668   7.391 -1.4974  1.2412 -1.5699
 4345SOL     OW24667   3.928   2.367  14.630  0.3309 -0.6918  0.5447
 4345SOL    HW124668   3.935   2.450  14.583  0.7551 -0.9315  0.1789
 4345SOL    HW224669   3.835   2.344  14.622  0.2110  0.1409 -0.5170
 4346SOL     OW24670   1.419   1.058   6.857  0.1210 -0.8338  0.1825
 4346SOL    HW124671   1.341   1.035   6.806  1.9197  1.7132 -3.7448
 4346SOL    HW224672   1.450   0.978   6.898 -0.2257 -0.8849  0.3457
 4347SOL     OW24673   4.581   1.676   1.445 -0.0490 -0.2853 -0.6449
 4347SOL    HW124674   4.675   1.689   1.437  0.2248 -0.6160  1.9735
 4347SOL    HW224675   4.575   1.602   1.385 -1.9128 -1.3902  0.8855
 4348SOL     OW24676   1.023   2.622  11.947 -0.2816  0.1673  0.0205
 4348SOL    HW124677   1.082   2.640  11.874 -1.8493  0.8101 -1.0925
 4348SOL    HW224678   0.938   2.631  11.904 -0.0539  1.2341 -0.1989
 4349SOL     OW24679   1.791   4.527   4.905  0.2938  0.1165 -0.3311
 4349SOL    HW124680   1.794   4.610   4.952  1.6438 -0.7598  1.1384
 4349SOL    HW224681   1.869   4.476   4.927  1.2136  0.8906 -1.7745
 4350SOL     OW24682   0.311   1.698   8.640  0.6553 -0.4813 -0.1954
 4350SOL    HW124683   0.330   1.760   8.711 -1.4415  0.5015 -0.4926
 4350SOL    HW224684   0.250   1.636   8.680  0.6849 -1.9613 -2.4792
 4351SOL     OW24685   1.394   0.672  10.067  0.4684  0.5708 -0.0356
 4351SOL    HW124686   1.423   0.706  10.152 -2.5401 -0.5096  1.4338
 4351SOL    HW224687   1.432   0.584  10.073  1.1159  0.5690 -4.0029
 4352SOL     OW24688   4.654   1.761  16.560  0.2963 -0.2785  0.6537
 4352SOL    HW124689   4.687   1.732  16.645  0.3459 -2.2231 -0.0375
 4352SOL    HW224690   4.564   1.729  16.567  0.8498 -1.6465  1.5592
 4353SOL     OW24691   0.056   1.696   4.360 -0.2774 -0.1602  0.0962
 4353SOL    HW124692   4.710   1.670   4.401 -0.5189  1.8529  0.8936
 4353SOL    HW224693   0.077   1.624   4.300  0.3897  0.6547 -0.6375
 4354SOL     OW24694   1.536   3.549   2.188  0.0804  0.0474 -0.3419
 4354SOL    HW124695   1.583   3.568   2.107 -0.3911  0.2294 -0.5722
 4354SOL    HW224696   1.512   3.635   2.221  0.4746 -0.7311  1.9349
 4355SOL     OW24697   4.334   3.943   6.213 -0.3729 -0.5566  0.2104
 4355SOL    HW124698   4.409   4.002   6.202 -1.3959  1.1810  2.6777
 4355SOL    HW224699   4.263   4.006   6.203  1.2930  1.4100  0.6171
 4356SOL     OW24700   0.313   1.518   2.346 -0.4144 -0.1792  1.1128
 4356SOL    HW124701   0.311   1.613   2.351 -1.1208 -0.2668  2.5728
 4356SOL    HW224702   0.397   1.492   2.308 -0.6013  1.6953 -0.5308
 4357SOL     OW24703   2.808   4.733   5.624  0.1533  0.0230  0.0533
 4357SOL    HW124704   2.849   4.727   5.538  1.4554  2.0425  0.5250
 4357SOL    HW224705   2.780   0.087   5.614  0.5953  0.3729  1.9112
 4358SOL     OW24706   1.724   3.559   9.835  0.5081 -0.1623 -0.1735
 4358SOL    HW124707   1.783   3.633   9.824  0.7115 -0.4149 -0.7881
 4358SOL    HW224708   1.764   3.489   9.784 -1.6992 -0.4198 -1.5736
 4359SOL     OW24709   3.719   0.196   9.454  0.4379  0.2302 -0.9728
 4359SOL    HW124710   3.711   0.254   9.378 -1.1770 -1.3135 -1.9861
 4359SOL    HW224711   3.784   0.136   9.419 -0.5501 -1.1963 -0.3479
 4360SOL     OW24712   2.526   4.723   5.985 -0.1631 -0.1286 -0.0529
 4360SOL    HW124713   2.524   0.061   6.046  3.4520 -0.0330 -0.0771
 4360SOL    HW224714   2.557   0.031   5.907 -3.1863  2.3717  0.1929
 4361SOL     OW24715   2.676   0.200  12.803  0.3469  0.6622 -0.4313
 4361SOL    HW124716   2.706   0.290  12.817 -1.0768  1.2088 -0.8124
 4361SOL    HW224717   2.676   0.203  12.707  0.7069 -1.9005 -0.4995
 4362SOL     OW24718   2.347   4.284   7.619 -0.5540  0.1609  0.1912
 4362SOL    HW124719   2.398   4.240   7.551  0.3377 -2.3979  2.5195
 4362SOL    HW224720   2.268   4.230   7.616 -1.7050  2.1468 -4.9168
 4363SOL     OW24721   3.590   0.662   9.511  0.2846  0.2514  0.2361
 4363SOL    HW124722   3.499   0.692   9.519 -0.5026 -2.0773 -0.0557
 4363SOL    HW224723   3.568   0.580   9.467  1.3909  0.5151 -0.7797
 4364SOL     OW24724   0.860   2.116   0.007 -0.0515 -0.3106  0.4231
 4364SOL    HW124725   0.884   2.112   0.100  0.0582 -0.5179  0.3855
 4364SOL    HW224726   0.929   2.060  17.715  0.9314  0.7595  0.6293
 4365SOL     OW24727   1.928   3.877   2.091  0.1345 -0.5491 -0.0763
 4365SOL    HW124728   1.833   3.878   2.084  0.3509  1.1122 -2.8182
 4365SOL    HW224729   1.949   3.969   2.107 -1.4065 -0.9111  3.9128
 4366SOL     OW24730   4.135   1.940   3.060  0.1703  0.2395  0.2688
 4366SOL    HW124731   4.154   2.023   3.103 -1.0612  0.6330  0.0370
 4366SOL    HW224732   4.182   1.951   2.977  1.1314  0.7927  0.8813
 4367SOL     OW24733   0.590   4.626   1.855  0.0256 -0.0405 -0.2762
 4367SOL    HW124734   0.557   4.660   1.773 -3.0857 -2.6555 -0.1063
 4367SOL    HW224735   0.516   4.641   1.914 -0.7646  0.2211 -1.3490
 4368SOL     OW24736   1.975   0.283  13.415 -0.3019  0.6746 -0.0342
 4368SOL    HW124737   1.964   0.356  13.475  2.2995  1.5702 -0.6622
 4368SOL    HW224738   1.890   0.238  13.409 -0.7748  1.9360 -2.9342
 4369SOL     OW24739   1.545   1.692   7.987 -0.1168 -0.4980  0.0256
 4369SOL    HW124740   1.538   1.597   7.989  0.5190 -0.5359  0.5220
 4369SOL    HW224741   1.617   1.697   8.051 -1.5257  0.6048  1.5445
 4370SOL     OW24742   2.350   0.610   7.297  0.3823 -0.0018 -0.3121
 4370SOL    HW124743   2.300   0.611   7.215 -1.8186 -0.9664  1.0090
 4370SOL    HW224744   2.405   0.688   7.287  2.8134 -1.1210  4.5245
 4371SOL     OW24745   0.859   2.422  13.826 -0.0839  0.2335 -0.9392
 4371SOL    HW124746   0.848   2.501  13.878 -0.8442  0.6285 -1.6923
 4371SOL    HW224747   0.918   2.368  13.878  0.8382 -0.8843 -3.1385
 4372SOL     OW24748   3.080   4.502   4.065 -0.6885 -0.3695 -0.0348
 4372SOL    HW124749   3.009   4.452   4.023 -0.5062 -1.8448  1.4238
 4372SOL    HW224750   3.029   4.507   4.146 -1.1349  1.2975 -0.4143
 4373SOL     OW24751   4.120   3.873   5.059 -0.7595 -0.1097  0.1290
 4373SOL    HW124752   4.140   3.790   5.016 -0.7974  1.5766 -3.1456
 4373SOL    HW224753   4.153   3.858   5.147 -0.5687  1.5892  0.3505
 4374SOL     OW24754   4.596   0.096   1.154  0.7158 -0.5898  0.3454
 4374SOL    HW124755   4.522   0.044   1.122  1.3064 -0.4595 -1.2232
 4374SOL    HW224756   4.561   0.146   1.228  0.3155 -0.7656  0.2768
 4375SOL     OW24757   0.657   2.594   2.592  0.1120 -0.5590 -0.2543
 4375SOL    HW124758   0.602   2.568   2.666 -0.6537  0.1375 -0.5780
 4375SOL    HW224759   0.592   2.656   2.558 -0.0061 -1.7913 -2.2990
 4376SOL     OW24760   4.503   4.104   7.091  0.4186 -0.0448 -0.0346
 4376SOL    HW124761   4.480   4.088   7.182  0.1248 -0.8965 -0.2597
 4376SOL    HW224762   4.517   4.019   7.049 -1.5145  0.6628 -2.1414
 4377SOL     OW24763   3.602   4.068  13.135 -0.2828  0.4146 -0.0775
 4377SOL    HW124764   3.570   4.157  13.146  0.6605  0.9562 -1.7630
 4377SOL    HW224765   3.695   4.072  13.156  0.0724  1.5141 -1.8953
 4378SOL     OW24766   4.392   1.679  16.665  0.2185  0.1305  0.2248
 4378SOL    HW124767   4.436   1.632  16.735 -1.5873  0.1000  1.3567
 4378SOL    HW224768   4.337   1.749  16.702  2.8846  3.2361 -1.7339
 4379SOL     OW24769   0.959   2.234  12.459 -0.0160 -0.9574 -0.5309
 4379SOL    HW124770   1.028   2.289  12.496 -1.8402  0.6663  0.4662
 4379SOL    HW224771   0.937   2.296  12.390  0.4129 -1.4222 -1.0866
 4380SOL     OW24772   3.318   0.494   5.729  0.2675 -0.2324 -0.3282
 4380SOL    HW124773   3.260   0.468   5.801  2.7881 -0.6481  1.5319
 4380SOL    HW224774   3.256   0.547   5.678  0.7906  0.7212  0.0092
 4381SOL     OW24775   3.739   0.082  16.673  0.4958 -0.2880 -0.1539
 4381SOL    HW124776   3.792   0.067  16.595  1.4903  0.1430  0.4553
 4381SOL    HW224777   3.658   0.032  16.656  1.1285 -2.3251  2.8239
 4382SOL     OW24778   1.797   3.068   7.276  0.4846  0.0018 -0.2782
 4382SOL    HW124779   1.725   3.016   7.313  0.2207  0.4545 -0.1629
 4382SOL    HW224780   1.860   2.998   7.258  1.1826  0.2284  1.3279
 4383SOL     OW24781   3.258   2.189   3.105  0.5826 -0.1930  0.6617
 4383SOL    HW124782   3.229   2.188   3.014 -0.5097  0.7733  1.0105
 4383SOL    HW224783   3.232   2.277   3.130  0.3052 -0.0347 -0.1792
 4384SOL     OW24784   2.136   1.065  10.064 -0.1582 -0.2660 -0.0354
 4384SOL    HW124785   2.174   1.111  10.139  1.0824 -1.2080 -0.0890
 4384SOL    HW224786   2.059   1.121  10.055  0.2836  0.1708 -0.9747
 4385SOL     OW24787   3.135   3.063   7.137  0.1799  0.1557  0.0410
 4385SOL    HW124788   3.097   3.002   7.200  1.4806  1.5709  2.2116
 4385SOL    HW224789   3.195   3.113   7.193  1.2855  0.2766 -1.2427
 4386SOL     OW24790   1.453   3.135   7.740  0.0703  0.2445 -0.4045
 4386SOL    HW124791   1.359   3.143   7.750  0.2240 -3.2211  3.7288
 4386SOL    HW224792   1.489   3.221   7.763 -1.8163  0.7180  0.7238
 4387SOL     OW24793   1.836   0.397   2.815 -0.0964 -0.2222 -0.1742
 4387SOL    HW124794   1.871   0.352   2.738  1.0850  1.7739 -0.8002
 4387SOL    HW224795   1.852   0.488   2.791 -2.8105  0.5443  0.9163
 4388SOL     OW24796   1.633   1.502  11.789  0.0492 -0.0701 -0.4727
 4388SOL    HW124797   1.602   1.534  11.874  1.7986  0.7895 -0.1656
 4388SOL    HW224798   1.559   1.444  11.771  0.0393 -0.7964  1.8696
 4389SOL     OW24799   1.122   4.315   7.329  0.1118  0.2422 -0.4747
 4389SOL    HW124800   1.141   4.349   7.417  2.6064  0.4868 -1.0999
 4389SOL    HW224801   1.073   4.379   7.279 -1.3593  1.2600  2.2924
 4390SOL     OW24802   1.201   4.192   3.543 -0.1707  0.4256  0.0177
 4390SOL    HW124803   1.272   4.184   3.607 -0.3378  0.2520  0.1839
 4390SOL    HW224804   1.225   4.279   3.513  2.3509 -0.1809  0.2696
 4391SOL     OW24805   3.033   3.585   4.177  0.2463  0.1877  0.1845
 4391SOL    HW124806   2.938   3.593   4.190  0.1744  1.0264 -0.8421
 4391SOL    HW224807   3.055   3.538   4.257 -1.7096 -1.2925 -0.1543
 4392SOL     OW24808   1.204   4.087   7.566 -0.0105 -0.4758  0.1497
 4392SOL    HW124809   1.278   4.099   7.626 -0.6890 -0.2087  0.9377
 4392SOL    HW224810   1.252   4.125   7.493 -1.8697 -1.8724 -1.7785
 4393SOL     OW24811   2.058   0.126   2.338  0.0406  0.4501 -0.5738
 4393SOL    HW124812   2.153   0.114   2.330 -0.0677 -0.2384 -0.7942
 4393SOL    HW224813   2.036   0.075   2.416  0.0383 -0.8122 -1.3985
 4394SOL     OW24814   2.274   1.598   6.723  0.5010  0.1522  0.0425
 4394SOL    HW124815   2.264   1.596   6.818 -2.9886 -2.3000 -0.4113
 4394SOL    HW224816   2.320   1.515   6.712 -0.8900 -0.6348  0.2126
 4395SOL     OW24817   0.875   1.700   5.858  0.3619 -0.2659  0.4664
 4395SOL    HW124818   0.866   1.782   5.907  1.0842 -0.0290  0.2142
 4395SOL    HW224819   0.793   1.655   5.878  0.6205 -0.2379  1.5833
 4396SOL     OW24820   0.705   2.380   2.942 -0.1588  0.2953  0.2608
 4396SOL    HW124821   0.740   2.346   2.859  2.1170 -0.5212  1.5599
 4396SOL    HW224822   0.772   2.347   3.002 -1.0515 -1.5829  0.2397
 4397SOL     OW24823   2.080   0.371   3.980 -0.1329  0.0040 -0.1715
 4397SOL    HW124824   2.035   0.307   4.035  0.0713  0.0721  0.0751
 4397SOL    HW224825   2.075   0.312   3.905  1.1028  0.5700 -0.7061
 4398SOL     OW24826   2.118   0.535   7.586 -0.1293  0.0306 -1.0654
 4398SOL    HW124827   2.141   0.506   7.498 -0.5327 -1.7256 -0.6032
 4398SOL    HW224828   2.104   0.629   7.573 -0.7540  0.4003  2.3886
 4399SOL     OW24829   0.633   0.208   8.162  0.1975  0.4841 -0.2409
 4399SOL    HW124830   0.670   0.171   8.082  2.3057  0.4186  0.7692
 4399SOL    HW224831   0.711   0.209   8.218  1.0718 -0.1571 -1.4558
 4400SOL     OW24832   1.585   3.370   7.816 -0.6562 -0.2326 -0.3633
 4400SOL    HW124833   1.672   3.360   7.778 -0.1978  3.7646 -0.4352
 4400SOL    HW224834   1.611   3.388   7.907 -2.4756  0.6950 -0.0258
 4401SOL     OW24835   4.454   2.512   8.796  0.9978 -0.1915  0.9296
 4401SOL    HW124836   4.441   2.606   8.807 -1.9840 -0.6815  1.7010
 4401SOL    HW224837   4.537   2.510   8.750 -0.0256  0.8828 -0.9661
 4402SOL     OW24838   1.201   2.014   8.279 -0.1340  0.9545  0.8199
 4402SOL    HW124839   1.198   2.108   8.292  0.6058  1.1497 -0.4255
 4402SOL    HW224840   1.291   1.999   8.251 -0.2427 -0.4552  1.1855
 4403SOL     OW24841   0.147   3.102  10.651  0.2631 -0.0337 -0.4961
 4403SOL    HW124842   0.187   3.115  10.738 -1.5345 -1.9407  0.6203
 4403SOL    HW224843   0.066   3.057  10.677 -0.3227  1.2185 -0.1562
 4404SOL     OW24844   3.209   0.909   7.475  0.2809 -0.3151 -0.5017
 4404SOL    HW124845   3.114   0.901   7.472  0.3059 -0.7791  0.1862
 4404SOL    HW224846   3.231   0.889   7.384  0.7802  2.1802 -0.9539
 4405SOL     OW24847   3.859   1.968   6.644 -0.0967  0.3473 -0.4434
 4405SOL    HW124848   3.797   2.027   6.600 -1.3998 -2.8732 -2.9572
 4405SOL    HW224849   3.933   1.980   6.584 -1.2513  0.5692 -1.8334
 4406SOL     OW24850   1.103   3.430   8.561 -0.1089  0.3250  0.7874
 4406SOL    HW124851   1.056   3.351   8.532 -1.1815  1.7319 -1.2912
 4406SOL    HW224852   1.065   3.505   8.515  0.5303  0.2034  0.0691
 4407SOL     OW24853   4.207   0.094   7.860 -0.1678  0.0760  0.9044
 4407SOL    HW124854   4.114   0.118   7.854 -0.0220  0.8375  1.6377
 4407SOL    HW224855   4.222   0.067   7.769  0.2015  0.5616  0.8273
 4408SOL     OW24856   2.968   4.682   3.611  0.4120 -0.6136 -0.2952
 4408SOL    HW124857   3.029   4.683   3.684  0.1359 -1.0632 -0.0590
 4408SOL    HW224858   2.984   0.029   3.566  1.6762 -0.5065  0.3548
 4409SOL     OW24859   0.179   3.416   1.993 -0.0802  0.2272 -0.1985
 4409SOL    HW124860   0.114   3.394   1.926 -0.9135 -0.1959  0.7389
 4409SOL    HW224861   0.235   3.339   1.991  0.8149  0.9229 -1.9427
 4410SOL     OW24862   2.740   4.184   5.542 -0.5564  0.4779  0.4700
 4410SOL    HW124863   2.726   4.231   5.625 -3.7271 -0.1823  0.3337
 4410SOL    HW224864   2.714   4.237   5.467 -0.2288  0.3182  0.2464
 4411SOL     OW24865   2.022   1.131   2.820  0.2408  0.1334 -0.1733
 4411SOL    HW124866   1.932   1.152   2.792  1.7001  4.4342 -1.6444
 4411SOL    HW224867   2.062   1.216   2.839 -0.2269  0.7373 -1.8896
 4412SOL     OW24868   4.631   2.523   4.847 -0.0157 -0.1830 -0.7969
 4412SOL    HW124869   4.603   2.437   4.876 -3.6714  1.6487  1.1709
 4412SOL    HW224870   4.606   2.523   4.755  1.0221 -0.7138 -1.0739
 4413SOL     OW24871   3.097   2.285   2.335 -0.1322 -0.7663  0.0499
 4413SOL    HW124872   3.057   2.327   2.411 -1.1098 -1.5075 -0.0666
 4413SOL    HW224873   3.164   2.354   2.326 -0.6978 -0.1684  0.4565
 4414SOL     OW24874   4.168   4.233   9.249 -0.0764 -0.0908 -0.3797
 4414SOL    HW124875   4.166   4.183   9.330 -0.7736  0.5075 -0.0291
 4414SOL    HW224876   4.088   4.284   9.260  0.6040  0.9288 -0.1310
 4415SOL     OW24877   0.951   3.674   2.386  0.1285 -0.2817 -0.2178
 4415SOL    HW124878   0.951   3.758   2.340  1.0156 -0.3314 -0.3125
 4415SOL    HW224879   0.857   3.665   2.402  0.4301 -1.3835  0.9126
 4416SOL     OW24880   0.546   3.765   2.537  0.2293 -0.1018 -0.2976
 4416SOL    HW124881   0.479   3.713   2.580 -0.6298  0.9364 -0.3808
 4416SOL    HW224882   0.549   3.844   2.590 -1.9779  0.5256 -1.0957
 4417SOL     OW24883   2.319   3.285   6.893  0.0454 -0.2498  0.6666
 4417SOL    HW124884   2.230   3.251   6.898  0.0062 -0.4086 -1.0046
 4417SOL    HW224885   2.301   3.354   6.829  2.6223  0.1907  0.3957
 4418SOL     OW24886   3.459   1.856   7.043 -0.2464 -0.1216  0.2920
 4418SOL    HW124887   3.526   1.790   7.026  0.9866  0.8237  1.4882
 4418SOL    HW224888   3.430   1.832   7.131 -0.7478 -0.1395  0.1231
 4419SOL     OW24889   0.833   0.482   7.091 -0.0689 -0.4669 -0.2978
 4419SOL    HW124890   0.742   0.511   7.086  0.3670  1.2133  1.4643
 4419SOL    HW224891   0.842   0.446   7.003 -0.4580  3.1206 -1.7934
 4420SOL     OW24892   2.076   0.596   5.257 -0.0599 -0.1489 -0.2673
 4420SOL    HW124893   2.139   0.552   5.314 -0.6084 -2.5596 -1.5033
 4420SOL    HW224894   2.014   0.523   5.253 -1.5353  1.1685 -2.0018
 4421SOL     OW24895   4.269   4.241   3.117 -0.2367  1.1990  0.2559
 4421SOL    HW124896   4.276   4.146   3.118 -0.7348  1.1627  0.2193
 4421SOL    HW224897   4.181   4.259   3.085  0.4691  2.0390 -1.2042
 4422SOL     OW24898   2.686   2.957   3.782  0.1563  0.3391 -0.3502
 4422SOL    HW124899   2.780   2.966   3.767  0.5953 -0.8990  1.6877
 4422SOL    HW224900   2.684   2.876   3.833 -1.6108  1.3514  1.2004
 4423SOL     OW24901   2.992   0.011   9.155  0.0579  0.5056  0.5781
 4423SOL    HW124902   2.982   4.653   9.149  2.7218  0.2013  1.0824
 4423SOL    HW224903   3.043   0.030   9.076  0.1092 -1.7732  0.0751
 4424SOL     OW24904   3.904   2.388   6.163  0.7686 -0.1402 -0.2050
 4424SOL    HW124905   3.910   2.392   6.258  2.1747 -0.1921 -0.3002
 4424SOL    HW224906   3.985   2.426   6.129  0.8726  1.2881  1.6499
 4425SOL     OW24907   1.404   3.210   1.969  0.4180  0.2941  0.0529
 4425SOL    HW124908   1.492   3.183   1.992  0.2356 -0.6603 -0.3722
 4425SOL    HW224909   1.413   3.210   1.874  1.1830 -0.0114  0.1296
 4426SOL     OW24910   4.216   1.145   0.531  0.1243  0.3251  0.1923
 4426SOL    HW124911   4.169   1.065   0.554  0.4936 -0.0199 -0.2524
 4426SOL    HW224912   4.147   1.180   0.475  0.5056 -0.8304 -0.9998
 4427SOL     OW24913   4.177   0.563   9.150  0.1801 -0.1852 -0.2759
 4427SOL    HW124914   4.191   0.657   9.138  0.0546 -0.3871 -2.0331
 4427SOL    HW224915   4.229   0.526   9.079 -1.5613 -2.0286 -0.5672
 4428SOL     OW24916   2.260   3.810  11.594 -0.2360 -0.3169  0.2791
 4428SOL    HW124917   2.310   3.830  11.515  0.2771  0.6939  0.8579
 4428SOL    HW224918   2.268   3.891  11.645 -0.7497  1.4753 -2.4321
 4429SOL     OW24919   1.532   1.989  13.603  0.0079  0.1871 -0.0281
 4429SOL    HW124920   1.491   2.050  13.542  1.0910  0.3297 -0.6103
 4429SOL    HW224921   1.456   1.935  13.627  0.2207  0.0928  0.4351
 4430SOL     OW24922   0.788   2.047  12.540  0.7489  0.4094  0.1927
 4430SOL    HW124923   0.834   1.973  12.580  1.4935  1.0733  0.5597
 4430SOL    HW224924   0.857   2.110  12.520 -0.1451  1.1114 -0.6983
 4431SOL     OW24925   3.813   1.045   5.964  0.3255 -0.0418  0.4054
 4431SOL    HW124926   3.756   1.055   6.041 -0.9619 -0.9336 -0.4404
 4431SOL    HW224927   3.893   1.068   6.011  0.2427 -0.3494  0.7011
 4432SOL     OW24928   3.903   1.212   0.701 -0.0512 -0.1192 -0.3593
 4432SOL    HW124929   3.812   1.235   0.720  0.5815  1.8718  0.2277
 4432SOL    HW224930   3.926   1.296   0.661 -0.3848 -0.2750 -0.8756
 4433SOL     OW24931   0.015   3.754  11.214 -0.2996 -0.1516 -0.3715
 4433SOL    HW124932   0.007   3.835  11.265 -1.4893  0.6028 -1.7577
 4433SOL    HW224933   4.700   3.692  11.266  0.4745 -2.1865 -2.0312
 4434SOL     OW24934   2.843   0.890   6.041  0.0134  0.1074  0.1944
 4434SOL    HW124935   2.902   0.944   5.989  0.2118 -2.0996 -1.8548
 4434SOL    HW224936   2.794   0.957   6.089 -0.6913  1.7123 -2.7914
 4435SOL     OW24937   0.760   2.784   9.820  0.6079 -1.0264  0.1372
 4435SOL    HW124938   0.716   2.699   9.822 -2.0006  0.3048  0.3383
 4435SOL    HW224939   0.684   2.840   9.801  1.0502 -0.2309  0.7392
 4436SOL     OW24940   0.370   3.148   4.165 -0.4238  0.0061 -0.0006
 4436SOL    HW124941   0.301   3.194   4.213 -0.8158 -0.6162  0.0407
 4436SOL    HW224942   0.398   3.074   4.219 -1.1821  0.0829  0.5018
 4437SOL     OW24943   1.345   1.200   3.422  0.4284 -0.4880 -1.2301
 4437SOL    HW124944   1.429   1.238   3.396 -0.2972  1.0260 -1.3826
 4437SOL    HW224945   1.355   1.205   3.517 -1.9436  0.6550 -1.0336
 4438SOL     OW24946   2.442   1.464  13.212  0.4032  0.0705 -0.5279
 4438SOL    HW124947   2.460   1.555  13.233  1.9975 -0.4400  0.3813
 4438SOL    HW224948   2.531   1.428  13.220  0.3905  0.1162 -0.1813
 4439SOL     OW24949   3.595   3.605  15.967  0.0251 -0.0717  0.7237
 4439SOL    HW124950   3.589   3.650  16.051 -2.0421  1.0136 -0.0141
 4439SOL    HW224951   3.656   3.532  15.979  0.2509 -0.6677 -4.0801
 4440SOL     OW24952   0.629   4.501   3.023  0.0289  0.1720  0.1240
 4440SOL    HW124953   0.612   4.558   2.948  1.5703 -1.2485 -1.2923
 4440SOL    HW224954   0.601   4.559   3.094  2.0550  0.6393  0.5508
 4441SOL     OW24955   1.416   1.336  12.307 -0.4687  0.6002  0.6951
 4441SOL    HW124956   1.366   1.299  12.380  2.3814 -1.5861  1.5327
 4441SOL    HW224957   1.414   1.421  12.352  0.9403  0.4996  0.9317
 4442SOL     OW24958   3.934   1.845   7.355 -0.3935 -0.7516 -0.2058
 4442SOL    HW124959   3.876   1.910   7.396  2.2107  0.3163  1.7414
 4442SOL    HW224960   3.912   1.853   7.262 -0.8174  0.1646 -0.0283
 4443SOL     OW24961   0.216   1.208   5.563 -0.1517  0.0636 -0.3607
 4443SOL    HW124962   0.298   1.170   5.531  0.9211  0.4057  1.9160
 4443SOL    HW224963   0.167   1.131   5.590 -0.3800  0.4019  0.1935
 4444SOL     OW24964   0.153   2.481   7.685  0.1075  0.3846 -1.2544
 4444SOL    HW124965   0.237   2.523   7.668  0.3608 -0.4155 -1.9642
 4444SOL    HW224966   0.177   2.396   7.648 -1.9762  0.4298 -2.7582
 4445SOL     OW24967   2.446   4.709   4.341  0.0968 -0.0668  0.3424
 4445SOL    HW124968   2.352   4.724   4.350 -0.1988 -2.3338  0.9969
 4445SOL    HW224969   2.452   4.638   4.405 -0.5695 -1.3862 -1.0489
 4446SOL     OW24970   1.728   1.665   4.949  0.2864  0.3855 -0.8343
 4446SOL    HW124971   1.644   1.711   4.950 -0.1513 -0.4130 -0.8174
 4446SOL    HW224972   1.703   1.580   4.985  1.2114  1.6878  2.8704
 4447SOL     OW24973   2.357   3.763   6.406  0.4869  0.5296  0.2273
 4447SOL    HW124974   2.387   3.829   6.468 -1.6067  0.1439  1.6582
 4447SOL    HW224975   2.306   3.819   6.347 -0.6368  0.1549  0.8420
 4448SOL     OW24976   2.429   4.060  11.615 -0.1263 -0.5856 -0.4606
 4448SOL    HW124977   2.461   4.137  11.570 -0.3163 -0.0360  0.3409
 4448SOL    HW224978   2.501   4.044  11.677 -1.2631  0.9572  1.2828
 4449SOL     OW24979   2.593   4.600   2.652 -0.0599 -0.6524  0.5625
 4449SOL    HW124980   2.644   4.631   2.577 -0.7562 -0.8298  0.0182
 4449SOL    HW224981   2.518   4.658   2.653 -0.4495 -1.1519  0.5478
 4450SOL     OW24982   0.115   1.767   4.655 -0.2117 -0.4296 -0.2762
 4450SOL    HW124983   0.185   1.769   4.590 -0.8342 -0.9025 -0.9480
 4450SOL    HW224984   0.151   1.833   4.716 -0.1755 -0.3364 -0.3988
 4451SOL     OW24985   3.866   0.957   1.476  0.2561  0.2834  0.2107
 4451SOL    HW124986   3.921   0.888   1.439 -0.6796  0.6632 -1.9321
 4451SOL    HW224987   3.792   0.942   1.417  0.4613  1.1520 -0.2771
 4452SOL     OW24988   1.578   1.884  17.206 -0.0645  0.9236 -0.2077
 4452SOL    HW124989   1.579   1.866  17.300 -0.6607 -1.7837 -0.7129
 4452SOL    HW224990   1.497   1.834  17.191  0.6166  0.1966 -1.4559
 4453SOL     OW24991   4.477   3.980   3.748  0.2438 -0.8283 -0.1214
 4453SOL    HW124992   4.417   3.930   3.693 -1.6477 -0.3324  1.4809
 4453SOL    HW224993   4.564   3.954   3.716  0.3011 -1.3876  0.4975
 4454SOL     OW24994   1.761   4.328   6.626  0.4273 -0.0841  0.8056
 4454SOL    HW124995   1.780   4.240   6.592  0.1739  0.4991 -0.8487
 4454SOL    HW224996   1.689   4.303   6.684 -0.3019 -0.1586 -0.1389
 4455SOL     OW24997   2.365   2.588   7.106 -0.0013  0.3536  0.3333
 4455SOL    HW124998   2.331   2.607   7.194  0.0774  0.8761  0.2520
 4455SOL    HW224999   2.447   2.548   7.135 -0.7793 -0.7319  1.0397
 4456SOL     OW25000   2.507   4.598   3.879  0.4203 -0.2371  0.3837
 4456SOL    HW125001   2.530   4.505   3.872 -1.5389 -0.7820  1.0761
 4456SOL    HW225002   2.536   4.625   3.966  3.7361 -2.1516 -0.1494
 4457SOL     OW25003   1.371   4.655   5.812  0.2193  0.0724  0.8303
 4457SOL    HW125004   1.357   4.592   5.883  0.5004  0.7281  1.4651
 4457SOL    HW225005   1.365   4.592   5.740 -0.1515  1.1489 -0.0658
 4458SOL     OW25006   0.673   3.901   8.656 -0.6860 -0.1846 -0.1133
 4458SOL    HW125007   0.609   3.849   8.608 -1.1940  0.4984 -0.1724
 4458SOL    HW225008   0.730   3.835   8.695 -0.8884 -1.2880 -1.6941
 4459SOL     OW25009   2.385   4.217   4.699  0.1074  0.9199  0.6222
 4459SOL    HW125010   2.364   4.213   4.605 -1.4291 -1.2980  1.0519
 4459SOL    HW225011   2.466   4.166   4.703 -0.3201  0.0417 -1.6880
 4460SOL     OW25012   2.620   4.735   9.878  0.2102  0.3733 -0.0786
 4460SOL    HW125013   2.618   0.081   9.926  1.0589  0.8777 -0.9051
 4460SOL    HW225014   2.614   4.674   9.952 -0.2331  0.4934 -0.0135
 4461SOL     OW25015   2.243   4.056   6.531 -0.7540 -0.0011 -0.1232
 4461SOL    HW125016   2.228   4.150   6.541 -2.6889 -0.3178 -0.0068
 4461SOL    HW225017   2.271   4.036   6.621 -0.0415 -1.8342 -0.7485
 4462SOL     OW25018   4.320   1.549   7.263  0.1732  0.1032 -0.4809
 4462SOL    HW125019   4.413   1.567   7.278 -0.0342  1.4205 -0.7411
 4462SOL    HW225020   4.279   1.626   7.301  1.2966  0.7271 -0.5212
 4463SOL     OW25021   1.399   3.396   8.222 -0.4962 -0.6388 -0.6047
 4463SOL    HW125022   1.467   3.374   8.159  0.1265  0.4921 -0.3206
 4463SOL    HW225023   1.389   3.313   8.269  1.4274 -0.7215 -0.3270
 4464SOL     OW25024   4.023   2.020   7.688 -0.4992 -0.1630  0.0341
 4464SOL    HW125025   4.112   2.044   7.664 -0.3837 -0.1949  0.4349
 4464SOL    HW225026   4.048   1.951   7.749  3.5734  1.1207 -0.1857
 4465SOL     OW25027   1.732   2.174   2.223 -0.6172 -0.4451 -0.0397
 4465SOL    HW125028   1.702   2.083   2.231 -0.3558 -0.8156 -3.2075
 4465SOL    HW225029   1.760   2.193   2.312  0.4012 -2.5388  0.0824
 4466SOL     OW25030   4.103   3.096   5.098 -0.3163  0.3606 -0.0246
 4466SOL    HW125031   4.034   3.134   5.151  1.0507  0.9291  1.3515
 4466SOL    HW225032   4.051   3.047   5.034 -2.1184  2.8207 -0.4341
 4467SOL     OW25033   2.561   3.655   0.298  0.1144 -0.3766  0.1949
 4467SOL    HW125034   2.583   3.679   0.208  2.4774 -0.0477  0.8839
 4467SOL    HW225035   2.481   3.707   0.304 -0.7646 -1.8971  1.8494
 4468SOL     OW25036   1.946   1.477   6.938  0.0192 -0.2525 -0.2404
 4468SOL    HW125037   1.873   1.455   6.994  0.2376  1.3188  0.6565
 4468SOL    HW225038   1.950   1.571   6.956 -3.2899 -0.0955 -0.3819
 4469SOL     OW25039   0.042   3.372   1.789 -0.4966  1.1318  0.2040
 4469SOL    HW125040   4.685   3.352   1.780 -0.5964  1.1613  1.1966
 4469SOL    HW225041   0.060   3.389   1.696 -1.5820  0.1969 -0.1854
 4470SOL     OW25042   4.258   4.513  16.893  0.1809 -0.5472  0.2927
 4470SOL    HW125043   4.298   4.595  16.921 -0.7663  0.1152 -0.2592
 4470SOL    HW225044   4.286   4.501  16.802 -2.6301  1.4193 -0.8423
 4471SOL     OW25045   0.933   4.605   4.368 -0.1317 -0.0161  0.4423
 4471SOL    HW125046   0.940   4.626   4.462  1.8415 -1.1977  0.5770
 4471SOL    HW225047   0.946   4.693   4.334 -3.0344  0.7664  1.3830
 4472SOL     OW25048   2.733   2.933   6.651 -0.3319  0.1185 -0.0677
 4472SOL    HW125049   2.705   3.015   6.610 -1.4897 -0.9152 -1.3080
 4472SOL    HW225050   2.739   2.876   6.575 -0.4905  0.6178 -0.4584
 4473SOL     OW25051   0.006   1.881  14.491 -0.5212  0.0772  0.5528
 4473SOL    HW125052   0.050   1.955  14.532  1.5803 -0.9789  0.2212
 4473SOL    HW225053   4.665   1.916  14.448 -1.0103 -0.8949  0.6445
 4474SOL     OW25054   3.086   2.407  13.877  0.0333 -0.1631 -0.0529
 4474SOL    HW125055   3.104   2.491  13.833  0.0273 -0.6670 -1.0316
 4474SOL    HW225056   3.166   2.402  13.929  0.8139  1.1834 -1.1070
 4475SOL     OW25057   3.471   1.730   2.130 -0.1527  0.3782 -0.1931
 4475SOL    HW125058   3.473   1.825   2.139 -3.9609  0.7393 -3.1084
 4475SOL    HW225059   3.454   1.704   2.221 -2.4858 -1.5331 -1.1746
 4476SOL     OW25060   0.386   2.968   4.395  0.0991 -0.0742  0.3238
 4476SOL    HW125061   0.461   2.908   4.390 -0.6023 -0.7417 -2.2934
 4476SOL    HW225062   0.380   2.970   4.490 -2.3340 -2.5656  0.2431
 4477SOL     OW25063   2.927   2.108   4.267  0.1521  0.0113 -0.9235
 4477SOL    HW125064   2.957   2.084   4.179  1.0268  0.4800 -0.7521
 4477SOL    HW225065   2.970   2.191   4.288 -3.1709  1.4839  0.1984
 4478SOL     OW25066   3.701   1.593   5.590 -0.3016 -0.0674 -0.5324
 4478SOL    HW125067   3.614   1.591   5.630 -0.0063  0.5644  0.1445
 4478SOL    HW225068   3.700   1.507   5.550 -1.5543 -0.0452 -0.5551
 4479SOL     OW25069   2.663   4.000   8.593  0.0593  0.5098  0.2558
 4479SOL    HW125070   2.720   3.932   8.629  1.3771  0.5448 -1.7851
 4479SOL    HW225071   2.717   4.052   8.534 -1.0134  2.1092  0.6966
 4480SOL     OW25072   3.646   3.189   7.113 -0.5521 -0.1422 -0.1619
 4480SOL    HW125073   3.627   3.262   7.171  1.5439  0.8190 -0.6837
 4480SOL    HW225074   3.564   3.165   7.070 -1.1281  0.3408  0.6681
 4481SOL     OW25075   3.183   0.359   1.081  0.2723  0.2880  0.0383
 4481SOL    HW125076   3.135   0.279   1.102 -2.1627  1.8808  0.5663
 4481SOL    HW225077   3.125   0.427   1.116  0.4624  0.6951 -0.4376
 4482SOL     OW25078   0.418   2.327  14.015 -0.1886 -0.1188 -0.9476
 4482SOL    HW125079   0.461   2.394  13.963 -0.2599 -0.8603 -1.9481
 4482SOL    HW225080   0.472   2.252  13.992  0.9834  0.3182  0.3842
 4483SOL     OW25081   3.394   1.055  11.902 -0.2362  0.1997  0.2416
 4483SOL    HW125082   3.461   1.113  11.938 -0.9384  2.6605 -2.4457
 4483SOL    HW225083   3.433   0.970  11.922  0.0333  0.6482  1.5919
 4484SOL     OW25084   4.132   0.213   3.291 -0.7306  0.4306  0.3549
 4484SOL    HW125085   4.185   0.149   3.243 -2.3387 -0.0419 -0.7648
 4484SOL    HW225086   4.158   0.203   3.383  2.4568 -0.5112 -0.6412
 4485SOL     OW25087   2.890   2.757   5.636 -0.2866 -0.0450  0.3530
 4485SOL    HW125088   2.953   2.804   5.692  2.4057 -0.9540 -1.9296
 4485SOL    HW225089   2.823   2.741   5.703 -1.2752  0.1778 -0.5870
 4486SOL     OW25090   1.614   0.704  13.005  0.2315  0.5944  0.2255
 4486SOL    HW125091   1.637   0.749  12.923 -0.5755 -2.5679 -1.7113
 4486SOL    HW225092   1.680   0.739  13.065 -1.4332  2.5095  0.9452
 4487SOL     OW25093   0.213   3.215   7.977  0.7006 -0.0228 -0.6579
 4487SOL    HW125094   0.267   3.221   8.056 -2.2679 -1.8144  1.5202
 4487SOL    HW225095   0.129   3.187   8.015 -1.0132  3.7612 -1.6212
 4488SOL     OW25096   3.744   1.770  12.570 -0.0805 -0.3074  0.0470
 4488SOL    HW125097   3.696   1.753  12.489 -0.8319  0.2842  0.3703
 4488SOL    HW225098   3.721   1.691  12.618  3.6202 -2.0659 -1.1294
 4489SOL     OW25099   2.938   0.212  14.313  0.0453 -0.1576 -0.3002
 4489SOL    HW125100   2.856   0.222  14.264 -2.0039  0.8120  3.3795
 4489SOL    HW225101   2.962   0.121  14.294  0.8723 -0.4229  2.0636
 4490SOL     OW25102   4.523   0.206  13.218  0.0293 -0.2941 -0.5441
 4490SOL    HW125103   4.502   0.299  13.217  1.1828 -0.0344 -1.2593
 4490SOL    HW225104   4.546   0.198  13.311  1.2763 -1.2412 -0.9269
 4491SOL     OW25105   0.093   1.379   1.845  0.1277  0.4267 -0.1691
 4491SOL    HW125106   0.046   1.399   1.764  2.2127 -0.6472 -1.6248
 4491SOL    HW225107   0.037   1.424   1.908 -1.1165 -1.0007 -0.2711
 4492SOL     OW25108   4.282   2.046   2.825 -0.6406  0.0083 -0.0615
 4492SOL    HW125109   4.252   2.015   2.739  0.2675 -0.5000 -0.1934
 4492SOL    HW225110   4.367   2.083   2.802 -0.7725  0.0725 -0.4629
 4493SOL     OW25111   4.372   1.173   6.487 -0.1602 -0.2467 -0.2167
 4493SOL    HW125112   4.395   1.121   6.564  1.5732  1.0371  0.1433
 4493SOL    HW225113   4.421   1.254   6.501 -0.6915  0.3719 -1.9105
 4494SOL     OW25114   2.411   2.902   8.229 -0.2593 -0.4875  0.2610
 4494SOL    HW125115   2.438   2.860   8.147 -1.6970  1.8258 -1.4039
 4494SOL    HW225116   2.379   2.988   8.200  0.9279 -0.1333  0.0106
 4495SOL     OW25117   0.420   1.152  12.028  1.0400 -0.5186  0.4860
 4495SOL    HW125118   0.377   1.173  11.945  2.4494 -0.7081 -0.2913
 4495SOL    HW225119   0.513   1.165  12.008  0.8202  0.6397  0.1684
 4496SOL     OW25120   2.917   3.059  14.014 -0.3717  0.5013  0.0595
 4496SOL    HW125121   2.886   2.974  13.983  0.1974  0.0603  0.7019
 4496SOL    HW225122   2.939   3.036  14.104 -0.6816 -1.6850 -0.4066
 4497SOL     OW25123   0.577   3.351   8.673 -0.1939  0.7848 -0.2074
 4497SOL    HW125124   0.545   3.326   8.759  0.1190  0.1607 -0.2760
 4497SOL    HW225125   0.557   3.444   8.660 -3.2513  0.1462  0.0023
 4498SOL     OW25126   4.687   4.391  15.116 -0.7381 -0.0229  0.4608
 4498SOL    HW125127   4.657   4.477  15.085  0.8059  0.8861  1.5374
 4498SOL    HW225128   4.633   4.346  15.050 -0.8052  2.4929 -1.2171
 4499SOL     OW25129   2.269   1.817   2.451  0.0874 -0.1847 -0.3126
 4499SOL    HW125130   2.184   1.773   2.442 -0.0163 -0.1612  0.5704
 4499SOL    HW225131   2.286   1.790   2.541  0.0831  1.3501  0.1502
 4500SOL     OW25132   4.317   0.229  10.213  0.1936  0.2382 -0.1146
 4500SOL    HW125133   4.397   0.181  10.238 -1.0905  0.7116  4.8907
 4500SOL    HW225134   4.309   0.296  10.280  2.2337  0.4574 -0.0866
 4501SOL     OW25135   0.912   4.041   8.556 -0.2958  0.4003  0.5490
 4501SOL    HW125136   0.828   4.020   8.597  0.5416  0.3593  2.2591
 4501SOL    HW225137   0.962   4.023   8.636  1.5127 -0.4786 -0.7600
 4502SOL     OW25138   1.482   4.150   4.792  0.5555 -0.4182  0.2111
 4502SOL    HW125139   1.492   4.245   4.798  0.2532 -0.5505  2.7571
 4502SOL    HW225140   1.569   4.114   4.805  0.1882 -1.1316  0.6675
 4503SOL     OW25141   3.510   2.432   2.807 -0.6368 -0.1565  0.9417
 4503SOL    HW125142   3.478   2.342   2.820 -0.0443 -0.6822 -1.1876
 4503SOL    HW225143   3.561   2.432   2.726  1.0095  0.1762  1.9672
 4504SOL     OW25144   1.976   4.204  10.126 -0.0032 -0.5864  0.2764
 4504SOL    HW125145   1.917   4.128  10.122 -1.3976  0.6276 -2.1885
 4504SOL    HW225146   2.005   4.193  10.216  0.7408  0.8690  0.2112
 4505SOL     OW25147   0.937   0.008   7.116 -0.0433 -0.0449 -0.2212
 4505SOL    HW125148   0.986   0.081   7.078 -2.3065  1.6966  0.1816
 4505SOL    HW225149   1.008   4.684   7.136 -0.2864 -0.4413 -0.5458
 4506SOL     OW25150   1.218   0.977  17.697  0.3367  0.4193 -0.2678
 4506SOL    HW125151   1.218   1.033   0.030 -1.5773  0.1305 -0.0491
 4506SOL    HW225152   1.313   0.977  17.683  0.6623  1.2075  2.0462
 4507SOL     OW25153   1.187   3.157   7.669 -0.3876 -0.2355 -0.0527
 4507SOL    HW125154   1.196   3.252   7.672  0.0810 -0.3452  2.4541
 4507SOL    HW225155   1.101   3.149   7.629 -1.1678  1.6362  1.2626
 4508SOL     OW25156   2.226   4.191   4.939 -0.5608 -0.5826  0.1338
 4508SOL    HW125157   2.312   4.153   4.960 -0.1002 -0.2481 -1.1836
 4508SOL    HW225158   2.238   4.189   4.844  0.7191  0.2835  0.2756
 4509SOL     OW25159   1.317   0.968   8.940 -0.8423  0.1999  0.2655
 4509SOL    HW125160   1.343   0.892   8.887  2.5381  1.0462  0.7093
 4509SOL    HW225161   1.387   1.026   8.909 -0.6753 -0.5557 -0.7842
 4510SOL     OW25162   3.871   0.589  14.008  0.4191 -0.4280  0.1404
 4510SOL    HW125163   3.852   0.523  13.941  1.6667 -1.6156  0.9627
 4510SOL    HW225164   3.813   0.576  14.083  0.8342 -1.3997  0.2907
 4511SOL     OW25165   3.486   2.675  16.823  0.1573  0.1974  0.0874
 4511SOL    HW125166   3.434   2.633  16.754  0.8174 -0.8329  0.2203
 4511SOL    HW225167   3.424   2.689  16.894  0.3804  2.1009 -0.0771
 4512SOL     OW25168   2.071   0.340  17.302 -0.0006 -0.0865  0.3867
 4512SOL    HW125169   2.129   0.308  17.371  0.6151  1.4865  0.5991
 4512SOL    HW225170   2.132   0.360  17.231  1.1423 -0.3380  1.3022
 4513SOL     OW25171   0.472   2.279  17.683 -0.0038  0.7983  0.3295
 4513SOL    HW125172   0.445   2.365  17.651  1.5402  1.5480  1.0472
 4513SOL    HW225173   0.522   2.302   0.017 -2.2776  0.6160  1.8546
 4514SOL     OW25174   2.438   2.262   4.922 -0.6679 -0.2943 -0.0672
 4514SOL    HW125175   2.442   2.357   4.937  1.2052 -0.1374 -1.6124
 4514SOL    HW225176   2.405   2.233   5.006  0.3708 -0.4213  0.2967
 4515SOL     OW25177   4.178   2.197   7.951  0.2500  0.0521 -0.3923
 4515SOL    HW125178   4.247   2.201   8.017 -0.9966 -0.8633  0.9639
 4515SOL    HW225179   4.147   2.108   7.970  2.3849 -0.5814  0.0859
 4516SOL     OW25180   3.176   3.445   4.395 -0.3164  0.2325 -0.3319
 4516SOL    HW125181   3.206   3.481   4.478 -1.1440  0.8770 -0.3190
 4516SOL    HW225182   3.249   3.448   4.333 -0.6724  1.3866 -0.6791
 4517SOL     OW25183   4.214   1.465   4.238  0.1390  0.3066  0.2272
 4517SOL    HW125184   4.169   1.502   4.314  1.7255 -0.1780  1.3956
 4517SOL    HW225185   4.291   1.522   4.243  0.0685  0.4589 -0.3722
 4518SOL     OW25186   4.199   3.034   9.147 -0.0917  0.0321 -0.0418
 4518SOL    HW125187   4.220   3.026   9.054 -2.2010 -1.3656 -0.3931
 4518SOL    HW225188   4.144   2.957   9.159 -0.4694  0.9387  4.1859
 4519SOL     OW25189   0.085   1.452  10.262  0.7683  0.0840  0.2514
 4519SOL    HW125190   0.085   1.450  10.358 -2.9258  0.9281  0.2545
 4519SOL    HW225191   0.171   1.410  10.253  0.3637 -0.3481 -1.4419
 4520SOL     OW25192   2.652   0.170   4.749 -0.0068 -0.2807  0.6076
 4520SOL    HW125193   2.725   0.199   4.694 -2.2656 -2.6168 -3.6394
 4520SOL    HW225194   2.585   0.148   4.685  2.0816 -2.2275 -0.9352
 4521SOL     OW25195   0.068   1.665   7.748  0.2378 -0.1784 -0.3390
 4521SOL    HW125196   0.110   1.621   7.823  0.4963  2.7967  1.2831
 4521SOL    HW225197   4.713   1.652   7.771  0.7119 -0.0715  1.6277
 4522SOL     OW25198   1.774   4.305   4.575 -0.4970  0.0664  0.1926
 4522SOL    HW125199   1.861   4.283   4.609  0.2607 -0.7004 -2.2883
 4522SOL    HW225200   1.771   4.397   4.601  0.7540 -0.3261  1.7124
 4523SOL     OW25201   4.613   0.467   1.932  0.5482  0.0090 -0.8374
 4523SOL    HW125202   4.578   0.497   2.016  0.0247  0.1154 -1.0893
 4523SOL    HW225203   4.667   0.393   1.960 -0.1424  0.1151  0.7820
 4524SOL     OW25204   1.768   0.277   6.780  0.4972 -0.0420  0.3443
 4524SOL    HW125205   1.819   0.339   6.727 -1.3216 -0.1063 -1.4676
 4524SOL    HW225206   1.804   0.196   6.744 -0.8449 -0.3464 -0.2863
 4525SOL     OW25207   3.427   2.979  15.214  0.0436 -0.0315 -0.2220
 4525SOL    HW125208   3.424   3.071  15.188 -1.1598 -0.1511 -0.5246
 4525SOL    HW225209   3.399   2.933  15.135 -0.8834  1.5951 -0.8522
 4526SOL     OW25210   0.950   3.927  13.986  0.0302  0.0607  0.1346
 4526SOL    HW125211   1.005   4.003  14.005 -1.1396  0.9743 -0.1162
 4526SOL    HW225212   0.877   3.930  14.047  0.5645 -1.1016  0.8280
 4527SOL     OW25213   1.672   4.322   7.054  0.1657  0.3691  0.1732
 4527SOL    HW125214   1.668   4.399   6.997 -0.5664  0.3046  0.1398
 4527SOL    HW225215   1.731   4.268   7.001 -2.1470 -0.6478 -1.3843
 4528SOL     OW25216   4.078   2.163   1.773  0.3778  0.1415  0.4475
 4528SOL    HW125217   4.164   2.131   1.745  0.3808  1.2424 -0.7823
 4528SOL    HW225218   4.093   2.173   1.867  0.1077 -3.0080  0.8335
 4529SOL     OW25219   3.635   3.721   7.185  0.0683 -0.0684 -0.1458
 4529SOL    HW125220   3.546   3.702   7.155 -0.9187  2.0223  1.4627
 4529SOL    HW225221   3.674   3.745   7.101 -1.4209  1.2753 -0.4634
 4530SOL     OW25222   2.730   3.571   9.156  0.4941  0.0433  0.4236
 4530SOL    HW125223   2.654   3.593   9.102  0.2925  2.0637  1.5260
 4530SOL    HW225224   2.784   3.650   9.159 -1.6306  1.5157 -1.1162
 4531SOL     OW25225   1.860   4.126  10.888 -0.2466  0.9946  0.5857
 4531SOL    HW125226   1.887   4.035  10.874 -1.7800  0.5049  0.8802
 4531SOL    HW225227   1.941   4.175  10.901  0.2425  0.8085 -1.6861
 4532SOL     OW25228   3.497   4.622   7.167  0.6427  0.3962 -1.0120
 4532SOL    HW125229   3.561   4.619   7.238 -1.3819 -0.8786  0.7601
 4532SOL    HW225230   3.425   4.576   7.210  1.1764 -2.1080 -2.7713
 4533SOL     OW25231   4.724   1.210   1.397 -0.2518 -0.4191 -0.3675
 4533SOL    HW125232   4.701   1.196   1.489 -0.1427 -1.6769 -0.5317
 4533SOL    HW225233   4.656   1.274   1.376 -1.1878 -2.1063 -2.3988
 4534SOL     OW25234   1.667   0.903  11.804 -0.0766  0.2123  0.0271
 4534SOL    HW125235   1.674   0.998  11.799 -1.1950  0.4182  1.9954
 4534SOL    HW225236   1.628   0.876  11.721  0.7793 -0.6811 -0.0807
 4535SOL     OW25237   3.253   1.225   8.284  0.3061 -0.1903 -0.1883
 4535SOL    HW125238   3.216   1.283   8.351 -0.2409 -1.6185  0.7473
 4535SOL    HW225239   3.178   1.220   8.226  0.7051  0.4974 -0.7712
 4536SOL     OW25240   2.860   4.351   2.776  0.0264 -0.6424 -1.1647
 4536SOL    HW125241   2.938   4.404   2.756  0.0287 -0.3094 -0.2631
 4536SOL    HW225242   2.850   4.353   2.871  2.5046  1.7840 -0.9209
 4537SOL     OW25243   3.589   4.328   9.170 -0.4079  0.4966 -0.1069
 4537SOL    HW125244   3.578   4.400   9.233 -1.5578  1.0177 -0.9158
 4537SOL    HW225245   3.669   4.279   9.189 -1.3672 -0.2400  2.1477
 4538SOL     OW25246   1.001   2.732   5.940 -0.4569 -0.0185  0.1376
 4538SOL    HW125247   0.988   2.651   5.891  0.9012  0.6970 -1.3935
 4538SOL    HW225248   1.092   2.757   5.928 -0.1030 -1.6169 -0.5235
 4539SOL     OW25249   0.339   2.751   7.144  0.1432  0.7797 -0.0272
 4539SOL    HW125250   0.246   2.768   7.157  0.0994 -0.2388  1.0101
 4539SOL    HW225251   0.356   2.802   7.065 -1.0311  3.4582  1.4491
 4540SOL     OW25252   3.821   3.487   5.810 -0.1176 -0.2743 -0.3109
 4540SOL    HW125253   3.828   3.579   5.836  1.1159 -0.0313 -1.4907
 4540SOL    HW225254   3.814   3.452   5.898  0.9140  1.6393  0.5415
 4541SOL     OW25255   3.798   4.088   6.836 -0.1938 -0.5054 -0.0471
 4541SOL    HW125256   3.786   4.129   6.921 -1.1271  1.6213 -1.2041
 4541SOL    HW225257   3.720   4.109   6.784 -0.7385 -1.9332  0.1907
 4542SOL     OW25258   2.587   2.866  16.318  0.1606  0.0446  0.4837
 4542SOL    HW125259   2.556   2.805  16.251  1.4535 -0.3927  0.2696
 4542SOL    HW225260   2.624   2.931  16.257 -3.6694  2.6894  1.0095
 4543SOL     OW25261   4.555   1.482  11.683 -0.0552 -0.1858 -0.2477
 4543SOL    HW125262   4.591   1.395  11.664  0.8126 -0.2735  1.8416
 4543SOL    HW225263   4.465   1.450  11.696 -0.3356  0.5027 -0.5052
 4544SOL     OW25264   3.962   2.643  14.501 -0.5798 -0.0203  0.2797
 4544SOL    HW125265   3.922   2.696  14.570  0.8052  1.3222  0.0533
 4544SOL    HW225266   3.898   2.652  14.430 -1.8173 -0.8159  1.2818
 4545SOL     OW25267   2.130   0.091   8.113 -0.0839 -0.1292  0.4038
 4545SOL    HW125268   2.133   0.102   8.017  2.4702 -1.4979  0.3239
 4545SOL    HW225269   2.047   0.047   8.130  0.6364 -1.7008 -0.1368
 4546SOL     OW25270   4.259   3.203  16.241  0.3915  0.4704 -0.4387
 4546SOL    HW125271   4.316   3.126  16.237 -0.7890 -0.5561  2.9829
 4546SOL    HW225272   4.291   3.242  16.322  0.3464 -0.4695  0.0261
 4547SOL     OW25273   0.812   0.253   2.119 -0.4273 -0.4691 -0.3090
 4547SOL    HW125274   0.741   0.313   2.146 -3.7187 -3.9985 -1.1066
 4547SOL    HW225275   0.809   0.276   2.026  1.1646 -1.7780 -0.6674
 4548SOL     OW25276   1.836   4.262  12.099 -0.2089 -0.4983 -0.0178
 4548SOL    HW125277   1.821   4.188  12.040  0.3721  0.4027 -1.2941
 4548SOL    HW225278   1.753   4.308  12.088 -0.8035 -1.7192 -0.6303
 4549SOL     OW25279   1.017   3.220  11.008  0.1752 -0.3240  0.8374
 4549SOL    HW125280   0.954   3.175  11.064 -0.7579 -2.1560 -1.6716
 4549SOL    HW225281   0.957   3.287  10.975  0.6560  0.3245  1.2853
 4550SOL     OW25282   0.483   4.572   2.609 -0.3461  0.3705  0.2773
 4550SOL    HW125283   0.403   4.624   2.621 -0.5037  0.2966 -0.4275
 4550SOL    HW225284   0.536   4.618   2.674 -1.0575 -0.2441  1.2887
 4551SOL     OW25285   4.701   4.076   6.384  0.0421 -0.1490 -0.1387
 4551SOL    HW125286   0.041   4.077   6.326  1.9989  0.0048  2.3753
 4551SOL    HW225287   4.697   3.981   6.397  0.4423 -0.1905 -0.2968
 4552SOL     OW25288   1.405   1.308   4.293 -0.0686 -0.2099  0.0951
 4552SOL    HW125289   1.428   1.267   4.210  1.5773  0.2247  0.3349
 4552SOL    HW225290   1.453   1.247   4.349 -0.5999 -0.2357  0.5232
 4553SOL     OW25291   4.393   3.253   3.670 -0.0309  0.3944  0.6923
 4553SOL    HW125292   4.449   3.297   3.607 -1.9054 -1.3769 -2.1694
 4553SOL    HW225293   4.325   3.320   3.678  1.2406  1.9378 -1.5298
 4554SOL     OW25294   4.662   2.888  10.626 -1.0918  0.1435 -0.0356
 4554SOL    HW125295   4.685   2.812  10.573 -0.8823 -0.7975  1.4087
 4554SOL    HW225296   4.589   2.853  10.678 -1.2778  0.6263  0.0361
 4555SOL     OW25297   1.532   0.195   3.964 -0.3933  0.3369 -0.3126
 4555SOL    HW125298   1.483   0.274   3.943 -2.5502 -0.6881  0.8510
 4555SOL    HW225299   1.468   0.137   4.007  0.4799 -0.1065  0.3826
 4556SOL     OW25300   0.415   2.998   6.026  0.4126  0.0945  0.1460
 4556SOL    HW125301   0.441   3.045   5.947  0.1108  1.2777  0.7560
 4556SOL    HW225302   0.493   3.021   6.078 -0.9013  1.7102  1.4103
 4557SOL     OW25303   0.899   4.154   1.021  0.7411 -0.4185  1.1251
 4557SOL    HW125304   0.903   4.248   1.040 -0.8399 -0.1300 -0.0511
 4557SOL    HW225305   0.809   4.131   1.002  0.9114 -1.2448  1.3016
 4558SOL     OW25306   1.876   3.957  10.071 -0.0628  0.1878  0.0509
 4558SOL    HW125307   1.869   3.941  10.165 -0.6503  0.0167 -0.0218
 4558SOL    HW225308   1.897   3.871  10.034 -2.3183 -0.7039  0.8770
 4559SOL     OW25309   1.913   3.325   2.749 -0.8953 -0.2141  0.2252
 4559SOL    HW125310   1.886   3.306   2.839  2.3698  0.0919  1.2922
 4559SOL    HW225311   2.006   3.338   2.770  0.1472 -4.2054 -1.9676
 4560SOL     OW25312   1.900   0.276   4.540  0.4573  0.3685 -0.4927
 4560SOL    HW125313   1.921   0.369   4.535 -1.4873  0.9784  3.0439
 4560SOL    HW225314   1.821   0.272   4.593  0.2635 -3.3133 -1.0618
 4561SOL     OW25315   3.999   1.090   6.138 -0.3062 -0.2468 -0.2701
 4561SOL    HW125316   4.077   1.037   6.119  0.4267  1.2159 -1.3037
 4561SOL    HW225317   4.038   1.150   6.201 -1.0513 -0.1220  0.0763
 4562SOL     OW25318   3.728   2.053   2.721 -0.4126 -0.3065 -0.5803
 4562SOL    HW125319   3.641   2.065   2.759 -0.1241 -0.5727  0.1774
 4562SOL    HW225320   3.770   1.992   2.781  1.8507  0.7140 -1.1176
 4563SOL     OW25321   1.466   0.703   6.830 -0.1095  0.1045  0.1505
 4563SOL    HW125322   1.417   0.708   6.912  1.7179 -0.8555  1.2713
 4563SOL    HW225323   1.393   0.718   6.769  0.2174 -1.0051 -0.5135
 4564SOL     OW25324   4.221   4.269   4.175 -0.4292 -0.3535  0.0320
 4564SOL    HW125325   4.129   4.265   4.202 -0.0774 -1.1313  1.0921
 4564SOL    HW225326   4.212   4.221   4.092  1.8509 -2.3063  0.9120
 4565SOL     OW25327   1.564   1.232   0.029 -0.3952  0.0106 -0.2852
 4565SOL    HW125328   1.530   1.168  17.711  1.9111  0.6593 -2.2159
 4565SOL    HW225329   1.585   1.182   0.108  1.2788  0.8400 -0.2131
 4566SOL     OW25330   2.124   2.734  15.971  0.7842 -0.1260 -0.4803
 4566SOL    HW125331   2.029   2.731  15.983  0.8742 -2.7650 -0.4704
 4566SOL    HW225332   2.132   2.809  15.911  1.1309  1.4166  1.4890
 4567SOL     OW25333   1.876   4.481   1.734  0.5738 -0.2514  0.1187
 4567SOL    HW125334   1.856   4.545   1.802  1.2191 -1.5695  1.5472
 4567SOL    HW225335   1.830   4.516   1.657 -1.3453 -0.8106  1.0170
 4568SOL     OW25336   1.369   4.178   3.771  0.2607 -0.0789 -0.0162
 4568SOL    HW125337   1.425   4.101   3.764  1.6376  1.0665 -1.6895
 4568SOL    HW225338   1.299   4.146   3.828  0.8095 -1.3014 -0.0246
 4569SOL     OW25339   4.233   0.002   7.605 -0.0623  0.4559  1.4524
 4569SOL    HW125340   4.234   4.683   7.527 -2.6987  2.4418  0.0023
 4569SOL    HW225341   4.311   0.052   7.581 -1.1049  0.8998 -0.9881
 4570SOL     OW25342   0.920   3.081   6.664 -0.2883 -0.1719  0.1448
 4570SOL    HW125343   0.973   3.029   6.724 -1.3619  0.3137  1.5235
 4570SOL    HW225344   0.981   3.090   6.591 -1.2853  0.0034 -0.6799
 4571SOL     OW25345   0.536   4.513  12.743  0.3506  0.2275  0.3899
 4571SOL    HW125346   0.468   4.557  12.792 -1.2435 -1.9272  0.1144
 4571SOL    HW225347   0.611   4.567  12.767 -0.5647  0.4138  2.7894
 4572SOL     OW25348   1.677   2.253   5.313  0.2946 -0.7824 -0.3950
 4572SOL    HW125349   1.718   2.246   5.399 -0.1302  1.9967  0.0172
 4572SOL    HW225350   1.630   2.336   5.318  0.1716 -0.9368  0.9355
 4573SOL     OW25351   2.733   2.867   9.060 -0.1495 -0.4088  0.2908
 4573SOL    HW125352   2.722   2.960   9.081 -1.9785 -0.9718  1.8655
 4573SOL    HW225353   2.816   2.859   9.012 -0.4827  0.2599 -0.3967
 4574SOL     OW25354   2.952   1.518  15.145 -0.0322  0.7172 -0.2947
 4574SOL    HW125355   2.945   1.437  15.195 -4.1280  1.7554  0.8215
 4574SOL    HW225356   2.872   1.563  15.174  0.2509 -0.0362  1.5921
 4575SOL     OW25357   0.159   0.317  12.053  1.0289 -0.0085  0.0287
 4575SOL    HW125358   0.172   0.228  12.020 -0.4636 -0.0803 -0.3733
 4575SOL    HW225359   0.088   0.292  12.113  0.4490  0.1849 -0.5865
 4576SOL     OW25360   2.861   2.607   9.072 -0.6241 -0.3660 -0.7590
 4576SOL    HW125361   2.934   2.583   9.129 -0.5663 -1.4061 -1.2596
 4576SOL    HW225362   2.807   2.640   9.143  0.5224  0.0714 -0.0827
 4577SOL     OW25363   3.816   1.823   4.851  0.2327 -0.6313 -0.0054
 4577SOL    HW125364   3.740   1.850   4.801 -0.7466  1.3593  2.5650
 4577SOL    HW225365   3.777   1.746   4.890 -0.8561  0.2195  0.5883
 4578SOL     OW25366   4.119   4.307  11.290 -0.1343  0.4842  0.4339
 4578SOL    HW125367   4.035   4.260  11.291  0.3471 -0.3682  1.3472
 4578SOL    HW225368   4.182   4.243  11.323  0.3716  0.2094 -1.0607
 4579SOL     OW25369   0.227   3.698   5.608  0.1997 -0.3783 -0.3928
 4579SOL    HW125370   0.275   3.665   5.532  1.3544 -1.8064  0.9387
 4579SOL    HW225371   0.235   3.792   5.598 -0.7017 -0.4603 -1.7834
 4580SOL     OW25372   2.378   3.567   0.555  0.3911  0.1635 -0.4033
 4580SOL    HW125373   2.401   3.614   0.475  1.9786  2.0067  1.1483
 4580SOL    HW225374   2.379   3.475   0.529 -0.7407  0.0063  0.1134
 4581SOL     OW25375   1.317   3.202   4.093  0.6249  0.1237  0.1981
 4581SOL    HW125376   1.260   3.279   4.097 -1.2363 -1.2349  0.0044
 4581SOL    HW225377   1.395   3.247   4.061  1.0564 -1.1917 -0.5550
 4582SOL     OW25378   2.850   2.138  17.651  0.3810 -0.2499  0.0518
 4582SOL    HW125379   2.852   2.195  17.728  0.5747  0.1412 -0.2428
 4582SOL    HW225380   2.760   2.106  17.656  0.5144 -0.4492  1.2875
 4583SOL     OW25381   2.539   1.675  12.915  0.4080  0.0066  0.2026
 4583SOL    HW125382   2.538   1.581  12.899 -0.4361 -0.0135  0.3526
 4583SOL    HW225383   2.501   1.711  12.835  1.3760  1.9100  0.6025
 4584SOL     OW25384   1.362   4.028   4.997 -0.2657 -0.3974  0.0890
 4584SOL    HW125385   1.399   4.079   4.924 -1.8662  1.0382  0.2939
 4584SOL    HW225386   1.300   3.975   4.948  2.4177 -3.7350  0.3041
 4585SOL     OW25387   0.738   0.769   2.236 -0.4060 -0.4719 -0.0511
 4585SOL    HW125388   0.735   0.807   2.148 -0.4731  0.6081  0.4136
 4585SOL    HW225389   0.648   0.738   2.232 -0.0926 -1.2782 -0.8401
 4586SOL     OW25390   1.888   2.877   9.585  0.4305  0.4891 -0.1249
 4586SOL    HW125391   1.831   2.926   9.526  0.7939  0.5247 -0.4399
 4586SOL    HW225392   1.968   2.855   9.538  0.4987  0.8125 -0.1565
 4587SOL     OW25393   1.357   4.214  15.926  0.4852  1.0783 -0.0781
 4587SOL    HW125394   1.326   4.230  16.015 -1.6522 -1.4781 -0.3877
 4587SOL    HW225395   1.392   4.299  15.899  0.1813  0.8251 -1.2447
 4588SOL     OW25396   4.430   0.422   3.608  0.2710  0.4161  0.0940
 4588SOL    HW125397   4.453   0.399   3.518 -0.9509  2.0033 -0.6120
 4588SOL    HW225398   4.368   0.350   3.619  2.4061 -1.1652  1.9209
 4589SOL     OW25399   4.550   0.059   5.839  0.0622 -0.1425 -0.3035
 4589SOL    HW125400   4.569   0.127   5.774 -1.7795 -0.7376 -1.4718
 4589SOL    HW225401   4.519   4.715   5.797 -1.9506 -0.2185  1.3054
 4590SOL     OW25402   2.220   3.773   7.779  0.6910 -0.0385 -0.0920
 4590SOL    HW125403   2.136   3.813   7.756 -0.0952 -0.5614  1.9473
 4590SOL    HW225404   2.209   3.680   7.761  1.5687 -0.1765  0.0644
 4591SOL     OW25405   3.396   2.958  15.470 -0.1819  0.5362 -0.0841
 4591SOL    HW125406   3.301   2.959  15.462 -0.2083 -2.9284  0.1264
 4591SOL    HW225407   3.424   2.967  15.379 -0.5659 -1.0466 -0.3516
 4592SOL     OW25408   1.797   1.149   2.134 -0.0753 -0.4295 -0.0895
 4592SOL    HW125409   1.743   1.133   2.056  0.2035  2.1871 -0.8291
 4592SOL    HW225410   1.888   1.150   2.103 -0.1029  0.6970 -0.1546
 4593SOL     OW25411   4.724   4.684   7.283 -0.5057  0.6644  0.2898
 4593SOL    HW125412   0.048   4.643   7.222 -1.8193 -0.8381  0.0104
 4593SOL    HW225413   4.639   4.660   7.247 -0.1367 -0.2331  0.0489
 4594SOL     OW25414   3.351   0.644   4.720  0.0624  0.8027  0.4394
 4594SOL    HW125415   3.390   0.629   4.806 -1.0392  2.8343  1.2933
 4594SOL    HW225416   3.392   0.716   4.672  0.1142  0.9199  0.6574
 4595SOL     OW25417   4.705   2.375  15.294  0.1599 -0.5947 -0.2196
 4595SOL    HW125418   4.735   2.302  15.348 -1.9460 -0.3983  1.1974
 4595SOL    HW225419   4.611   2.362  15.282  0.1578 -0.5330 -0.2671
 4596SOL     OW25420   0.051   1.037  16.943  0.0183  0.3716 -0.6791
 4596SOL    HW125421   0.074   1.091  16.868  2.3156  0.4965  0.0963
 4596SOL    HW225422   0.065   0.954  16.897  1.1308 -0.2492  0.7789
 4597SOL     OW25423   0.605   2.008   6.212  0.9925 -0.6829  1.2690
 4597SOL    HW125424   0.519   2.049   6.201 -0.3595 -4.5980 -2.4978
 4597SOL    HW225425   0.592   1.915   6.227 -2.3184 -0.3592  0.2829
 4598SOL     OW25426   2.633   0.631   7.803 -0.5221 -0.1492 -0.2964
 4598SOL    HW125427   2.663   0.618   7.713  0.9864 -1.0797  0.3439
 4598SOL    HW225428   2.544   0.629   7.768  0.0576 -1.2961 -1.7195
 4599SOL     OW25429   0.904   3.439   5.320  0.3997  0.2195 -0.3210
 4599SOL    HW125430   0.910   3.439   5.415  0.3605 -0.0040 -0.3192
 4599SOL    HW225431   0.910   3.347   5.296  0.3763 -0.0271  0.6389
 4600SOL     OW25432   1.101   3.256   2.762 -0.9904  0.3650  0.6949
 4600SOL    HW125433   1.064   3.316   2.827  0.8693  0.3282  1.7777
 4600SOL    HW225434   1.144   3.321   2.706 -2.3180 -2.0485 -3.0616
 4601SOL     OW25435   0.645   3.397   3.308  0.2503 -0.1153  0.0692
 4601SOL    HW125436   0.618   3.489   3.316 -0.0371 -0.1632 -0.3003
 4601SOL    HW225437   0.733   3.408   3.272  0.7434  0.8546  1.5907
 4602SOL     OW25438   4.198   0.116  12.463 -0.8526  0.3413 -0.6845
 4602SOL    HW125439   4.289   0.095  12.482 -1.2706 -0.6446  0.1930
 4602SOL    HW225440   4.155   0.096  12.546 -0.6233 -0.8187 -0.8516
 4603SOL     OW25441   2.966   3.122   2.095 -0.4861  0.4703  0.2907
 4603SOL    HW125442   2.892   3.081   2.139 -0.1467  0.5818  0.9647
 4603SOL    HW225443   2.959   3.085   2.007 -2.1588  1.6517 -0.0791
 4604SOL     OW25444   2.200   1.526   2.135  0.2234  0.1099  0.2717
 4604SOL    HW125445   2.226   1.609   2.095  2.3309 -1.5819 -1.8811
 4604SOL    HW225446   2.111   1.543   2.166  0.1634  2.4606 -1.1675
 4605SOL     OW25447   1.040   3.529   8.808  0.5413  0.1387  0.2742
 4605SOL    HW125448   1.058   3.502   8.718 -1.1330 -0.6529  0.1695
 4605SOL    HW225449   1.077   3.455   8.857  1.2290 -0.8422 -1.7208
 4606SOL     OW25450   1.367   1.744   6.093 -0.2988 -0.1005 -0.2994
 4606SOL    HW125451   1.369   1.769   6.001 -3.2509  2.3391  0.2753
 4606SOL    HW225452   1.435   1.801   6.129  0.6948 -1.1568 -0.5268
 4607SOL     OW25453   3.599   1.341   1.066  0.3780  0.4992  0.2486
 4607SOL    HW125454   3.669   1.275   1.072  1.5392  1.7204  0.0966
 4607SOL    HW225455   3.594   1.377   1.154  0.5995 -2.3127  1.4390
 4608SOL     OW25456   4.449   3.332   4.828  0.4784 -0.3413  0.1778
 4608SOL    HW125457   4.381   3.266   4.819  0.2836 -0.0728 -0.3495
 4608SOL    HW225458   4.474   3.331   4.920  0.8547  0.5545  0.0890
 4609SOL     OW25459   0.053   4.258   2.032  0.2540 -0.2806  0.1050
 4609SOL    HW125460   0.017   4.192   2.091 -2.3414  1.4794  0.4859
 4609SOL    HW225461   0.141   4.275   2.067 -0.1991  1.5837  0.3574
 4610SOL     OW25462   4.615   4.606  14.962 -0.4100  0.5490 -0.0745
 4610SOL    HW125463   4.668   4.663  15.018  2.1919 -1.1500 -0.7976
 4610SOL    HW225464   4.535   4.659  14.957 -0.6666  0.2813  1.2862
 4611SOL     OW25465   3.454   1.062   4.913 -0.3677 -0.0220 -0.5054
 4611SOL    HW125466   3.386   1.071   4.847 -1.5719 -1.8211  0.5038
 4611SOL    HW225467   3.416   1.086   4.998  0.6450  0.0778 -0.0830
 4612SOL     OW25468   1.895   3.872   7.998 -0.2914 -0.3778  0.2642
 4612SOL    HW125469   1.839   3.920   8.059  0.5749  0.6644  0.2267
 4612SOL    HW225470   1.952   3.815   8.049 -0.6893 -0.3186  0.7688
 4613SOL     OW25471   3.648   4.013   4.752 -0.2457  0.4208  0.1346
 4613SOL    HW125472   3.661   4.073   4.679 -0.3499 -2.7151 -2.4704
 4613SOL    HW225473   3.728   3.961   4.746  1.4383  2.9543  0.8921
 4614SOL     OW25474   4.609   1.393  17.110 -0.0563 -0.1616 -0.6070
 4614SOL    HW125475   4.693   1.423  17.077 -0.4190  1.6884  0.1570
 4614SOL    HW225476   4.610   1.400  17.205 -0.5537 -0.8773 -0.5425
 4615SOL     OW25477   2.885   2.013   3.764 -0.2288  0.5934 -0.1890
 4615SOL    HW125478   2.871   2.054   3.678 -0.0800 -1.3165 -1.1277
 4615SOL    HW225479   2.815   2.048   3.819 -0.3109 -0.7272  0.5444
 4616SOL     OW25480   3.731   1.679   1.753 -0.3072  0.0256 -0.2714
 4616SOL    HW125481   3.653   1.660   1.805 -0.0410 -1.4990 -0.4039
 4616SOL    HW225482   3.745   1.594   1.711 -1.1394 -0.9161  1.3616
 4617SOL     OW25483   1.120   2.050  15.002  0.9874  0.5799 -0.1179
 4617SOL    HW125484   1.099   2.127  14.949  1.8226  0.9605  0.0935
 4617SOL    HW225485   1.040   2.040  15.054  1.2228 -1.9343 -0.2432
 4618SOL     OW25486   4.156   3.224   3.238  0.0197 -0.3613  0.3219
 4618SOL    HW125487   4.249   3.249   3.241 -0.1449  0.0468  1.9011
 4618SOL    HW225488   4.153   3.173   3.157  0.0962  2.3902 -1.4240
 4619SOL     OW25489   4.158   1.835   4.351  0.6996  0.0215 -0.0252
 4619SOL    HW125490   4.202   1.900   4.407 -1.0995  2.4584 -1.4206
 4619SOL    HW225491   4.071   1.868   4.373  0.0012 -0.9564 -1.3195
 4620SOL     OW25492   4.387   1.750   1.165  0.5458  0.4055  0.0172
 4620SOL    HW125493   4.334   1.744   1.085  0.6651 -0.4285 -0.0074
 4620SOL    HW225494   4.313   1.748   1.225  0.7196  2.0660  0.2658
 4621SOL     OW25495   1.341   2.743  15.824  0.8401  0.1303  0.6716
 4621SOL    HW125496   1.359   2.833  15.795 -2.5785  0.3868 -0.6751
 4621SOL    HW225497   1.356   2.691  15.745 -0.2231  0.7878  0.0213
 4622SOL     OW25498   3.649   4.459   3.066  0.2705 -0.0416  0.2172
 4622SOL    HW125499   3.710   4.391   3.038 -1.8624 -2.5572  1.6113
 4622SOL    HW225500   3.601   4.413   3.136  0.8811  0.5434  1.0169
 4623SOL     OW25501   2.885   2.814   7.892  0.6670  0.2934 -0.5159
 4623SOL    HW125502   2.813   2.751   7.887  1.1607 -0.5874  3.4796
 4623SOL    HW225503   2.900   2.814   7.986  0.5942 -0.0180 -0.5021
 4624SOL     OW25504   1.172   3.984  13.236  0.3852  0.3218  0.1771
 4624SOL    HW125505   1.250   4.037  13.247  0.8405  0.4046 -3.5402
 4624SOL    HW225506   1.177   3.966  13.142 -2.0157 -1.2178  0.3268
 4625SOL     OW25507   2.624   2.942   4.947 -0.0251 -0.0701  0.4667
 4625SOL    HW125508   2.708   2.922   4.990 -0.6575 -0.2703  1.6113
 4625SOL    HW225509   2.573   2.996   5.007 -2.0317 -0.2847 -1.0717
 4626SOL     OW25510   1.455   1.794   1.906  0.1081 -0.5807  0.3744
 4626SOL    HW125511   1.550   1.805   1.901 -0.0812 -0.3583 -2.3027
 4626SOL    HW225512   1.451   1.704   1.939 -0.6000 -0.0772  1.7020
 4627SOL     OW25513   1.147   3.223  14.682  0.8283 -0.1258  0.3417
 4627SOL    HW125514   1.096   3.303  14.667  1.4197 -0.0708 -1.2813
 4627SOL    HW225515   1.126   3.214  14.776  0.6571 -0.9688  0.2260
 4628SOL     OW25516   2.905   1.145   2.485 -0.6778  0.2218  0.0002
 4628SOL    HW125517   2.819   1.110   2.505 -0.7219 -0.8636 -2.1270
 4628SOL    HW225518   2.931   1.070   2.432 -2.7228  0.1182 -0.8449
 4629SOL     OW25519   0.429   1.093   6.833  0.1810  0.4510  0.3209
 4629SOL    HW125520   0.485   1.136   6.897 -0.0611 -0.7974  1.3618
 4629SOL    HW225521   0.339   1.090   6.865 -0.1181  1.6317 -0.4219
 4630SOL     OW25522   1.023   4.611  11.291  0.2409  0.0892  0.2081
 4630SOL    HW125523   0.934   4.624  11.325  0.6426  0.2699  1.2022
 4630SOL    HW225524   1.014   4.587  11.199 -0.2649  0.1374  0.2449
 4631SOL     OW25525   3.538   2.726   0.909  0.1787  0.1871 -0.2395
 4631SOL    HW125526   3.536   2.732   1.004 -0.5721  0.3475 -0.2659
 4631SOL    HW225527   3.447   2.750   0.892  0.7823  2.6806  0.1129
 4632SOL     OW25528   3.330   2.365   3.452 -0.5972  0.0156  0.1039
 4632SOL    HW125529   3.369   2.300   3.394  0.0574 -0.8891  1.5794
 4632SOL    HW225530   3.283   2.415   3.385 -0.3230 -1.4435 -1.1661
 4633SOL     OW25531   1.340   3.666   3.971  0.0123 -0.3607  0.0378
 4633SOL    HW125532   1.303   3.714   3.897 -0.0541  0.8300  0.8501
 4633SOL    HW225533   1.354   3.738   4.032 -2.8744  2.0974 -2.1990
 4634SOL     OW25534   1.897   0.918  16.600  0.3775  0.5160 -0.3589
 4634SOL    HW125535   1.811   0.957  16.613 -0.6378 -2.5853  2.1205
 4634SOL    HW225536   1.872   0.849  16.538 -0.6527  0.9531 -0.4353
 4635SOL     OW25537   4.205   1.182   0.884  0.3933 -0.4934 -0.1243
 4635SOL    HW125538   4.277   1.185   0.948  0.8935  1.0042 -0.7538
 4635SOL    HW225539   4.242   1.226   0.808 -0.4031  0.0205 -0.2086
 4636SOL     OW25540   2.085   4.353  12.953 -0.0305  0.2409  0.6736
 4636SOL    HW125541   2.059   4.439  12.987  1.0496 -0.5582  3.5984
 4636SOL    HW225542   2.133   4.329  13.033  0.4362 -0.8694  0.0568
 4637SOL     OW25543   2.356   0.510   3.451  0.6732 -0.3438 -0.0437
 4637SOL    HW125544   2.401   0.442   3.401 -0.0710 -1.0111  0.2025
 4637SOL    HW225545   2.290   0.455   3.492  0.7711 -0.9404 -0.6791
 4638SOL     OW25546   4.531   2.132   3.024  0.4240  0.2400  0.2385
 4638SOL    HW125547   4.445   2.173   3.034 -1.3908 -3.6498  0.5039
 4638SOL    HW225548   4.517   2.069   3.095  1.5214 -0.4405 -0.1479
 4639SOL     OW25549   2.030   3.597   5.981  0.5481 -0.4696  0.3015
 4639SOL    HW125550   2.023   3.667   5.916 -2.5153 -0.6275  0.4299
 4639SOL    HW225551   2.064   3.647   6.056 -0.5212 -0.9121  1.0891
 4640SOL     OW25552   1.746   0.114   5.194 -0.0737  0.3782  0.0520
 4640SOL    HW125553   1.701   0.105   5.279  0.2995 -2.4209 -0.0422
 4640SOL    HW225554   1.818   0.052   5.203  0.4303  1.2452  2.1537
 4641SOL     OW25555   0.004   2.081  11.552 -0.8803  0.0227  0.0764
 4641SOL    HW125556   4.708   2.125  11.631 -1.4556 -1.5708  0.7308
 4641SOL    HW225557   4.711   2.149  11.492  1.1701  0.6200 -0.2491
 4642SOL     OW25558   2.113   3.546   2.975  0.1233 -0.0780  0.4929
 4642SOL    HW125559   2.113   3.497   3.057  0.4532  2.2473  1.8811
 4642SOL    HW225560   2.143   3.474   2.920  1.8090  1.2018 -0.2542
 4643SOL     OW25561   1.429   2.951   4.154  0.2978 -0.0511  0.2164
 4643SOL    HW125562   1.415   3.042   4.129  2.7930  0.8904  2.1668
 4643SOL    HW225563   1.516   2.953   4.194  0.2968 -0.0080  0.2158
 4644SOL     OW25564   4.329   3.337   8.930 -0.6830 -0.4316  0.0197
 4644SOL    HW125565   4.304   3.268   8.867  0.8583 -0.7088 -0.3031
 4644SOL    HW225566   4.257   3.356   8.989  1.1704 -0.2032  2.2365
 4645SOL     OW25567   1.530   4.401  10.177  0.0298  0.3372 -0.4466
 4645SOL    HW125568   1.600   4.386  10.113  0.1373 -0.4032 -0.1528
 4645SOL    HW225569   1.589   4.391  10.251 -0.2014  2.5739  0.0455
 4646SOL     OW25570   4.264   2.573   2.119  0.1350  0.0008  0.5176
 4646SOL    HW125571   4.188   2.588   2.063  0.1584 -0.6646  0.3076
 4646SOL    HW225572   4.306   2.658   2.107  0.5415 -0.5908 -2.1047
 4647SOL     OW25573   1.326   2.966   9.959 -0.1048 -0.1462 -0.0650
 4647SOL    HW125574   1.330   3.040  10.020  2.5691 -0.5166  0.2084
 4647SOL    HW225575   1.391   2.907   9.996 -0.9900 -0.6762  0.6420
 4648SOL     OW25576   3.032   2.927   8.105 -0.4859  0.4892 -0.1970
 4648SOL    HW125577   3.070   2.991   8.165  0.1556 -1.3666  1.3817
 4648SOL    HW225578   2.942   2.955   8.116 -0.9896 -0.6881 -1.2236
 4649SOL     OW25579   3.587   2.441   2.543  0.6960 -0.0104  0.7946
 4649SOL    HW125580   3.596   2.356   2.499 -1.7178  0.6160 -0.8795
 4649SOL    HW225581   3.680   2.461   2.544  1.1029 -1.7722 -2.5731
 4650SOL     OW25582   1.132   4.305   6.041  0.2604  0.2742 -0.0856
 4650SOL    HW125583   1.117   4.217   6.005 -0.2712 -0.3067  1.5577
 4650SOL    HW225584   1.067   4.295   6.110 -2.3294 -0.0516 -2.5472
 4651SOL     OW25585   2.107   3.904   6.346 -0.1894 -0.4120 -0.6618
 4651SOL    HW125586   2.164   3.953   6.406  3.0052 -3.4360 -1.2586
 4651SOL    HW225587   2.034   3.880   6.403 -0.3295 -0.3152 -0.7998
 4652SOL     OW25588   1.174   2.499  10.735 -0.1385 -0.5060  0.6261
 4652SOL    HW125589   1.126   2.567  10.688 -2.7330 -1.5911  1.6979
 4652SOL    HW225590   1.211   2.445  10.664 -0.2671  1.2251 -0.7546
 4653SOL     OW25591   0.117   3.355   2.619 -0.3808  0.1879  0.1607
 4653SOL    HW125592   0.146   3.376   2.708 -0.1073 -1.4291  0.4502
 4653SOL    HW225593   0.042   3.413   2.613  1.0170  2.0205  0.2073
 4654SOL     OW25594   1.112   0.620  13.582 -0.0188 -0.0426  0.0020
 4654SOL    HW125595   1.161   0.697  13.610  1.0679 -0.9891  0.7250
 4654SOL    HW225596   1.036   0.653  13.535 -1.1284 -3.4786 -0.6345
 4655SOL     OW25597   0.156   4.558   1.738 -0.1822  0.2920  0.7381
 4655SOL    HW125598   0.178   4.517   1.655  0.8628  1.0502  0.6343
 4655SOL    HW225599   0.158   4.651   1.714  0.4568 -0.4662 -2.1314
 4656SOL     OW25600   0.673   2.658   2.908  0.2771 -0.4431 -0.4724
 4656SOL    HW125601   0.703   2.577   2.950  0.1728 -1.1056 -1.6668
 4656SOL    HW225602   0.582   2.630   2.917 -0.2054  1.0791 -0.6014
 4657SOL     OW25603   4.557   1.693   6.145  0.0576  0.4937  0.0217
 4657SOL    HW125604   4.499   1.712   6.218 -1.2379 -1.5710 -0.4673
 4657SOL    HW225605   4.606   1.775   6.135  0.6862  0.1225  0.0301
 4658SOL     OW25606   3.635   0.265  15.940 -0.2808  0.1579  0.3936
 4658SOL    HW125607   3.645   0.220  16.024  2.5895  0.6089  0.3202
 4658SOL    HW225608   3.725   0.292  15.922 -0.5100 -0.7087 -1.9478
 4659SOL     OW25609   4.402   0.751  12.378  0.4456 -0.1820  0.6895
 4659SOL    HW125610   4.488   0.744  12.420 -0.1282 -0.7363  1.7689
 4659SOL    HW225611   4.346   0.776  12.451  1.0454  1.4463  0.5915
 4660SOL     OW25612   0.014   0.049   1.473 -0.5353  0.1770 -0.2100
 4660SOL    HW125613   4.668   0.015   1.509  1.0101 -1.7713  1.4575
 4660SOL    HW225614   4.714   0.051   1.384 -0.6481 -0.0629 -0.1702
 4661SOL     OW25615   0.801   2.746   1.118  0.1557 -0.3414  0.3378
 4661SOL    HW125616   0.773   2.670   1.168  0.7794  0.9159  2.6022
 4661SOL    HW225617   0.769   2.726   1.030  1.2679 -3.2328  0.5769
 4662SOL     OW25618   1.734   4.059   7.317 -0.3615 -0.4449  0.2385
 4662SOL    HW125619   1.824   4.093   7.318 -0.6141  0.2784 -1.1788
 4662SOL    HW225620   1.750   3.971   7.282 -2.0316 -0.4187 -0.5808
 4663SOL     OW25621   3.393   2.283  10.370 -0.5552 -0.0644 -0.0886
 4663SOL    HW125622   3.394   2.369  10.412 -1.7571 -0.0402 -0.1042
 4663SOL    HW225623   3.457   2.296  10.301  1.2881  0.6009  1.7287
 4664SOL     OW25624   1.021   2.812   2.937  0.0604 -0.0291  0.6718
 4664SOL    HW125625   1.006   2.783   3.027  0.8009 -1.9839  0.1767
 4664SOL    HW225626   1.042   2.903   2.954 -1.8980  0.6791 -0.7754
 4665SOL     OW25627   0.442   1.631   9.399  0.0278 -0.1849 -0.1708
 4665SOL    HW125628   0.526   1.620   9.444 -0.1578 -1.9227 -0.2474
 4665SOL    HW225629   0.395   1.557   9.437 -0.0787  0.4966  1.0405
 4666SOL     OW25630   3.553   0.215   4.060  0.4528  0.5193 -0.0633
 4666SOL    HW125631   3.534   0.287   4.121 -0.2270  0.7777 -0.5780
 4666SOL    HW225632   3.521   0.140   4.109 -0.0283 -0.0915 -1.3048
 4667SOL     OW25633   3.566   2.795   3.180 -0.2361 -0.9398  0.0785
 4667SOL    HW125634   3.659   2.794   3.203  0.2073  4.1774 -1.4804
 4667SOL    HW225635   3.548   2.888   3.167  2.3845 -0.5217 -0.5099
 4668SOL     OW25636   2.140   2.490   1.084 -0.0091  0.0489 -0.0673
 4668SOL    HW125637   2.149   2.482   0.989  0.4049 -1.5358  0.1027
 4668SOL    HW225638   2.083   2.416   1.105 -0.8589  1.0820  1.2330
 4669SOL     OW25639   0.865   1.265   8.434  0.3797  0.1292 -0.4507
 4669SOL    HW125640   0.925   1.203   8.477 -0.2610 -1.0839 -1.3152
 4669SOL    HW225641   0.919   1.344   8.430 -3.2680  2.7911  2.6834
 4670SOL     OW25642   2.145   0.611   4.779  0.1971 -0.5030 -0.0560
 4670SOL    HW125643   2.127   0.674   4.709  0.2706  0.6919  1.0059
 4670SOL    HW225644   2.091   0.641   4.852 -0.3096 -0.5838 -0.3960
 4671SOL     OW25645   1.446   0.675   1.859 -0.5183  0.1044  0.4539
 4671SOL    HW125646   1.457   0.701   1.950 -0.2190  0.1939  0.3903
 4671SOL    HW225647   1.508   0.738   1.823  1.8604 -1.8331  1.2363
 4672SOL     OW25648   2.849   0.967   2.025 -0.4747  0.5503 -0.4131
 4672SOL    HW125649   2.843   1.060   2.002  1.6745  0.3805 -1.6756
 4672SOL    HW225650   2.896   0.977   2.107 -0.5794  2.6188 -0.6014
 4673SOL     OW25651   3.987   0.414  12.084  0.2186  0.7328  0.1255
 4673SOL    HW125652   4.069   0.366  12.071  0.6838  1.0791  1.8868
 4673SOL    HW225653   3.925   0.357  12.039 -0.1318  1.2682 -0.0719
 4674SOL     OW25654   1.261   0.170   2.094 -0.5415  0.0848 -0.1890
 4674SOL    HW125655   1.219   0.230   2.032  0.2204 -1.1904 -1.9296
 4674SOL    HW225656   1.335   0.224   2.122 -0.1643  0.1492 -1.3136
 4675SOL     OW25657   2.086   0.791   7.563  0.0601  0.0819 -0.0282
 4675SOL    HW125658   2.039   0.862   7.520 -2.2214 -1.5815 -0.3017
 4675SOL    HW225659   2.173   0.829   7.559  0.4974 -0.7384  2.0866
 4676SOL     OW25660   1.691   2.952   4.246 -0.0984 -0.2417  0.0800
 4676SOL    HW125661   1.735   3.034   4.225 -0.9071 -0.0097 -0.7624
 4676SOL    HW225662   1.745   2.920   4.318 -0.6339 -0.5828  0.3318
 4677SOL     OW25663   0.755   2.562  14.109 -0.3862 -0.8129  0.2315
 4677SOL    HW125664   0.724   2.652  14.123  0.9805  0.2666 -3.5720
 4677SOL    HW225665   0.700   2.512  14.169 -1.2191 -0.7529 -0.4810
 4678SOL     OW25666   3.826   3.370   6.549  0.2614 -0.2119 -0.1652
 4678SOL    HW125667   3.847   3.417   6.630  1.1936 -0.3807 -0.3047
 4678SOL    HW225668   3.769   3.434   6.507  1.9684  1.3617 -0.1113
 4679SOL     OW25669   2.477   3.960   3.580  0.4338  0.0855 -0.2233
 4679SOL    HW125670   2.449   4.050   3.598  1.2338  0.8770 -2.9064
 4679SOL    HW225671   2.543   3.970   3.511 -0.9221  0.1769 -1.5005
 4680SOL     OW25672   0.263   0.892   5.631  0.2284 -0.1638  0.5256
 4680SOL    HW125673   0.286   0.928   5.716 -2.4621  1.7547  0.4361
 4680SOL    HW225674   0.219   0.812   5.659 -2.5550  1.2038  0.1024
 4681SOL     OW25675   1.496   3.537   5.007 -0.3158 -0.1914  0.3152
 4681SOL    HW125676   1.416   3.576   4.974 -0.3415 -0.7011 -0.2170
 4681SOL    HW225677   1.474   3.445   5.000  1.3774 -0.5746 -0.0343
 4682SOL     OW25678   3.600   2.077   8.876  0.9794  0.5057  0.3840
 4682SOL    HW125679   3.566   2.112   8.958  0.5443  1.9007 -0.4022
 4682SOL    HW225680   3.648   2.000   8.909 -1.6058 -0.9678  0.6511
 4683SOL     OW25681   2.713   1.760  15.867 -0.0734  0.2324  0.1383
 4683SOL    HW125682   2.712   1.844  15.821 -1.4529 -0.1958 -0.5946
 4683SOL    HW225683   2.636   1.771  15.922 -1.5064 -1.9801 -1.4253
 4684SOL     OW25684   1.148   2.270   7.437  0.2349 -0.1159  0.1065
 4684SOL    HW125685   1.185   2.225   7.361 -0.2829  0.2994 -0.3911
 4684SOL    HW225686   1.146   2.196   7.499 -2.5880 -0.6100 -0.5656
 4685SOL     OW25687   4.390   4.492   2.091  0.5421  0.7125 -0.1395
 4685SOL    HW125688   4.400   4.529   2.179  1.5776 -0.4309  0.2379
 4685SOL    HW225689   4.479   4.510   2.061  1.0342 -0.6782  0.4867
 4686SOL     OW25690   2.210   1.083  17.673 -0.0626  0.0530 -0.0932
 4686SOL    HW125691   2.136   1.143  17.661  1.8317  2.7569  1.7517
 4686SOL    HW225692   2.176   1.014  17.730  0.5837  0.0654  0.3039
 4687SOL     OW25693   1.340   1.650  13.889  0.4263  0.1839  0.2886
 4687SOL    HW125694   1.320   1.626  13.979  1.4477  1.8585  0.9679
 4687SOL    HW225695   1.330   1.571  13.835 -0.6869  0.5566 -0.0465
 4688SOL     OW25696   1.299   0.945   1.456  0.3909  0.0485  0.0168
 4688SOL    HW125697   1.383   0.901   1.469  1.7427  1.9578 -2.0582
 4688SOL    HW225698   1.306   0.960   1.361 -2.1055  1.3443  0.0341
 4689SOL     OW25699   2.743   0.383  13.456 -0.1473 -0.0536 -0.3863
 4689SOL    HW125700   2.822   0.435  13.471  1.0836 -1.9624 -0.1755
 4689SOL    HW225701   2.781   0.307  13.411 -1.4148 -1.0690  0.2247
 4690SOL     OW25702   4.425   0.926   3.989 -0.4191 -0.0971  0.4857
 4690SOL    HW125703   4.369   0.868   3.938 -0.3550  1.9933 -1.9498
 4690SOL    HW225704   4.492   0.870   4.028  0.1668 -0.0108 -0.3899
 4691SOL     OW25705   3.870   4.300   5.449 -0.6332  0.6302  0.1426
 4691SOL    HW125706   3.779   4.302   5.419 -0.2602  1.1130 -0.9526
 4691SOL    HW225707   3.907   4.229   5.395  2.1963  1.8003  0.5391
 4692SOL     OW25708   2.869   4.700  16.635 -0.3229  0.1915 -0.1140
 4692SOL    HW125709   2.896   0.051  16.665  2.4874 -0.3271 -1.1674
 4692SOL    HW225710   2.775   4.715  16.641 -0.4737 -0.5133 -0.8506
 4693SOL     OW25711   1.592   3.020   7.500 -0.2561 -0.2468 -0.3215
 4693SOL    HW125712   1.601   2.931   7.533 -2.0538 -0.7555 -1.1930
 4693SOL    HW225713   1.546   3.058   7.575 -0.7349 -1.5487  0.0483
 4694SOL     OW25714   2.963   1.615   7.391 -0.0198  0.3521 -0.0415
 4694SOL    HW125715   3.043   1.571   7.419 -0.3247  0.3847  0.8734
 4694SOL    HW225716   2.993   1.649   7.307 -2.1931 -0.0335 -0.9887
 4695SOL     OW25717   3.164   3.449   2.385 -0.3892 -0.0715 -0.4420
 4695SOL    HW125718   3.163   3.413   2.296 -1.1366  0.1955 -0.5411
 4695SOL    HW225719   3.255   3.434   2.413 -1.0254 -0.8756  1.2062
 4696SOL     OW25720   2.074   0.588   7.948  0.2921 -0.0423 -0.1637
 4696SOL    HW125721   1.979   0.591   7.933  0.1788  0.5200  0.6595
 4696SOL    HW225722   2.099   0.499   7.924  0.6526 -0.4280  1.6301
 4697SOL     OW25723   1.447   3.133   2.542  0.3335 -0.4735  0.4408
 4697SOL    HW125724   1.404   3.199   2.488 -2.1006 -3.6027 -1.4268
 4697SOL    HW225725   1.521   3.190   2.562  0.1354  0.5753 -1.8541
 4698SOL     OW25726   1.996   2.881   3.200  0.1331 -0.2278 -0.1929
 4698SOL    HW125727   1.977   2.788   3.216 -1.0118 -0.0557 -0.4913
 4698SOL    HW225728   2.090   2.871   3.192  0.0522  1.4164 -3.1036
 4699SOL     OW25729   3.090   2.930   1.046  0.1436 -0.0857  0.2678
 4699SOL    HW125730   3.146   2.991   1.094 -0.6108  0.2660  0.7101
 4699SOL    HW225731   3.037   2.895   1.117  1.1806 -0.0987  1.0357
 4700SOL     OW25732   4.715   3.678   8.142 -0.7080 -0.3571  0.8251
 4700SOL    HW125733   4.694   3.601   8.089 -0.6088  0.1718  0.0200
 4700SOL    HW225734   4.677   3.754   8.099 -0.3530  0.2547  1.5978
 4701SOL     OW25735   4.715   1.154  11.105  0.0382  0.2879 -0.0837
 4701SOL    HW125736   0.054   1.144  11.046  0.2520  2.1007 -0.1107
 4701SOL    HW225737   0.001   1.100  11.181  0.4664 -1.7605 -1.6689
 4702SOL     OW25738   3.642   1.054   8.596  0.3292  0.4730 -0.5881
 4702SOL    HW125739   3.583   1.023   8.528  0.2749  1.1160 -0.8344
 4702SOL    HW225740   3.585   1.046   8.673  0.4123 -0.9030 -0.6622
 4703SOL     OW25741   4.028   4.409  11.032 -0.1969  0.2050 -0.0734
 4703SOL    HW125742   4.039   4.348  11.104 -1.8167  1.0421  0.8941
 4703SOL    HW225743   4.014   4.485  11.089  0.6326 -0.0234  0.4316
 4704SOL     OW25744   3.809   3.421  16.291 -0.3194  0.2963  0.6164
 4704SOL    HW125745   3.714   3.414  16.296 -0.1640 -1.4687  1.0498
 4704SOL    HW225746   3.830   3.400  16.382  2.5877  1.6523  0.2791
 4705SOL     OW25747   4.142   0.337   2.617 -0.9130 -0.3968  0.0142
 4705SOL    HW125748   4.124   0.424   2.580 -0.3369 -1.0526 -1.7993
 4705SOL    HW225749   4.098   0.278   2.556  0.8842 -0.7244 -0.9681
 4706SOL     OW25750   2.233   1.023   3.553 -0.2607 -0.1530 -0.1732
 4706SOL    HW125751   2.269   1.035   3.465  1.3788  1.2457  0.6975
 4706SOL    HW225752   2.207   0.931   3.555  0.3519 -0.2810  2.0215
 4707SOL     OW25753   2.633   3.550   5.178 -0.1153  0.1802 -0.4307
 4707SOL    HW125754   2.604   3.472   5.225  0.0689  0.9420  0.9474
 4707SOL    HW225755   2.636   3.612   5.251  0.0762  2.3889 -2.3083
 4708SOL     OW25756   4.540   2.883  13.283 -0.2985 -0.4664  0.4140
 4708SOL    HW125757   4.546   2.971  13.320 -1.4184  0.1367 -0.8222
 4708SOL    HW225758   4.595   2.886  13.205  0.2757  1.0851  0.8743
 4709SOL     OW25759   1.712   0.209  11.691  0.2456 -0.1246 -0.3631
 4709SOL    HW125760   1.803   0.188  11.670  0.8457  2.2589 -0.1342
 4709SOL    HW225761   1.653   0.178  11.623 -0.6491  1.2649 -0.2261
 4710SOL     OW25762   4.658   2.820   4.691  0.2371 -0.0990 -0.0692
 4710SOL    HW125763   4.661   2.904   4.737  3.3636 -0.2366  0.0026
 4710SOL    HW225764   4.573   2.786   4.717  1.4040 -2.3595  0.7464
 4711SOL     OW25765   1.651   1.758   3.680 -0.5352 -0.0755 -0.2664
 4711SOL    HW125766   1.577   1.816   3.660 -0.8221 -0.7011 -1.0033
 4711SOL    HW225767   1.722   1.821   3.664 -0.3941  0.0012  0.6466
 4712SOL     OW25768   1.084   2.710   2.617 -0.2829  0.1509 -0.1506
 4712SOL    HW125769   1.143   2.669   2.680 -0.0702  0.3940 -0.1897
 4712SOL    HW225770   1.106   2.801   2.636 -0.1695 -0.0017  0.4326
 4713SOL     OW25771   2.041   4.388   4.846  0.0661 -0.5726 -0.0496
 4713SOL    HW125772   2.073   4.471   4.810  1.2647 -0.0333  2.2390
 4713SOL    HW225773   2.111   4.370   4.909  0.0269  0.7638  0.3785
 4714SOL     OW25774   0.526   1.201   0.295 -0.2911 -0.0234  0.5683
 4714SOL    HW125775   0.476   1.280   0.320  0.0050  0.2984  0.1508
 4714SOL    HW225776   0.496   1.139   0.360 -0.3577  1.6789  2.1654
 4715SOL     OW25777   2.184   2.854   8.531  0.7660 -0.3563  0.0131
 4715SOL    HW125778   2.151   2.825   8.446  2.7597 -0.5858 -0.6656
 4715SOL    HW225779   2.276   2.830   8.527  1.0679  0.6751  0.7990
 4716SOL     OW25780   0.741   0.610  11.775  0.4959 -0.2316 -0.9609
 4716SOL    HW125781   0.724   0.696  11.736  0.2586 -0.8683 -2.2618
 4716SOL    HW225782   0.740   0.632  11.868  1.3853 -1.8382 -0.5663
 4717SOL     OW25783   4.061   3.608   7.269  0.3051  0.1518 -0.3498
 4717SOL    HW125784   4.135   3.570   7.316 -0.8806 -0.4916  0.9747
 4717SOL    HW225785   4.078   3.573   7.181  0.3993 -0.9582  0.1085
 4718SOL     OW25786   4.394   2.060  17.476  0.5287  0.0472  0.0977
 4718SOL    HW125787   4.386   1.972  17.512  1.4759 -0.3212 -0.6055
 4718SOL    HW225788   4.343   2.061  17.395  0.7729  0.4749 -0.0493
 4719SOL     OW25789   2.809   4.331  16.396 -0.9148 -0.0389 -0.2214
 4719SOL    HW125790   2.811   4.427  16.396 -0.4340 -0.0479 -1.5604
 4719SOL    HW225791   2.739   4.314  16.333 -2.5833 -1.2671  1.9897
 4720SOL     OW25792   1.823   0.814  16.325  0.2998 -0.0782 -0.1802
 4720SOL    HW125793   1.843   0.721  16.317  0.0895 -0.0366 -1.2334
 4720SOL    HW225794   1.728   0.808  16.319  0.0777  0.5729  2.7012
 4721SOL     OW25795   4.162   3.808   5.321 -0.5273  0.9965  0.7018
 4721SOL    HW125796   4.232   3.863   5.356  0.7153  0.5309 -1.0256
 4721SOL    HW225797   4.166   3.727   5.373 -3.1932  0.4060 -0.0094
 4722SOL     OW25798   3.284   0.809   8.102  0.1303  0.3392 -0.4313
 4722SOL    HW125799   3.209   0.853   8.141  0.1907 -0.3368  0.4432
 4722SOL    HW225800   3.349   0.819   8.171 -2.5251 -1.2639  2.2621
 4723SOL     OW25801   2.328   2.636   6.578 -0.3086  0.3516 -0.0841
 4723SOL    HW125802   2.329   2.613   6.671  0.5536 -1.0992 -0.4617
 4723SOL    HW225803   2.300   2.563   6.524  0.8192  0.1637 -0.4040
 4724SOL     OW25804   2.806   0.578   8.732  0.0768  0.0227 -0.0873
 4724SOL    HW125805   2.782   0.670   8.720  1.3812  0.1951 -1.3646
 4724SOL    HW225806   2.719   0.546   8.755 -0.6026  0.0587 -2.5198
 4725SOL     OW25807   0.024   3.624   5.064  0.0258  0.2846 -0.3823
 4725SOL    HW125808   0.028   3.530   5.049  0.1330  0.1157  0.6710
 4725SOL    HW225809   0.058   3.669   4.986  0.4029 -0.0021 -0.3797
 4726SOL     OW25810   1.196   2.906   8.178 -0.4350 -0.6463  0.2725
 4726SOL    HW125811   1.181   2.985   8.126 -0.3526  0.6257  2.1711
 4726SOL    HW225812   1.111   2.864   8.165 -2.0244  2.2603  1.0354
 4727SOL     OW25813   2.885   0.749  17.238  0.7293 -0.0683 -0.3706
 4727SOL    HW125814   2.800   0.757  17.280  2.2491  4.0247  1.9321
 4727SOL    HW225815   2.922   0.685  17.299 -0.2624  1.3193  1.6591
 4728SOL     OW25816   2.370   1.348  13.777 -0.0813  0.2097  0.2932
 4728SOL    HW125817   2.373   1.253  13.765 -2.4625  0.1646  0.0115
 4728SOL    HW225818   2.286   1.351  13.823 -0.3884  0.5007 -0.2915
 4729SOL     OW25819   2.542   1.654  16.355 -0.4930  0.3395 -0.3761
 4729SOL    HW125820   2.506   1.742  16.357  2.9779  1.7963 -1.0988
 4729SOL    HW225821   2.581   1.642  16.441  1.0876 -0.7826 -1.2362
 4730SOL     OW25822   0.595   2.999   7.313 -0.1852  0.7673 -0.1572
 4730SOL    HW125823   0.533   3.072   7.306 -1.2179 -0.2569 -1.4957
 4730SOL    HW225824   0.605   2.960   7.227  2.2872  3.0776 -0.9155
 4731SOL     OW25825   1.427   3.653  14.087  0.1027  0.5728 -0.4654
 4731SOL    HW125826   1.382   3.574  14.119 -0.1779  1.6373  1.7453
 4731SOL    HW225827   1.354   3.699  14.047 -0.9751 -2.0323 -1.4576
 4732SOL     OW25828   1.568   0.731   8.635  0.0479 -0.0955  0.3621
 4732SOL    HW125829   1.656   0.769   8.642  0.5100 -1.1859  0.4309
 4732SOL    HW225830   1.567   0.687   8.550 -0.9392  0.9384 -0.1606
 4733SOL     OW25831   3.057   2.348   6.611 -0.5118  0.0320 -0.0750
 4733SOL    HW125832   3.039   2.273   6.555 -2.3884  0.2666  0.2001
 4733SOL    HW225833   3.000   2.416   6.573  0.2987  1.6320  1.5727
 4734SOL     OW25834   2.195   1.350   2.779  0.5999  0.5482 -0.6615
 4734SOL    HW125835   2.169   1.442   2.785 -2.0111 -0.1626 -1.0321
 4734SOL    HW225836   2.277   1.356   2.730 -0.5272 -0.9037 -2.7156
 4735SOL     OW25837   2.452   3.794   5.605  0.1419  0.6675  0.1162
 4735SOL    HW125838   2.427   3.882   5.632  1.5274  1.0532  0.1874
 4735SOL    HW225839   2.369   3.763   5.568  0.2722 -0.7712  1.0369
 4736SOL     OW25840   3.988   0.911   0.281  0.4886 -0.2544  0.4193
 4736SOL    HW125841   3.910   0.870   0.318  0.9293 -1.2071  0.2900
 4736SOL    HW225842   3.973   1.005   0.287 -1.0871 -0.4971  0.3461
 4737SOL     OW25843   3.179   2.545   6.772  0.1272 -1.0821 -0.0130
 4737SOL    HW125844   3.098   2.575   6.813  1.3164  0.2916  1.2963
 4737SOL    HW225845   3.141   2.473   6.721 -0.6183 -1.1204  0.6076
 4738SOL     OW25846   1.508   4.260   4.469 -0.3761 -0.0870  0.1390
 4738SOL    HW125847   1.531   4.315   4.394  1.9781  0.3639  1.2016
 4738SOL    HW225848   1.585   4.274   4.525  0.4633  0.6956 -1.1984
 4739SOL     OW25849   1.693   0.121   8.731 -1.2051 -0.5804 -0.4699
 4739SOL    HW125850   1.706   0.088   8.820 -2.7853 -1.2681 -0.4988
 4739SOL    HW225851   1.719   0.041   8.684 -0.4224 -0.0408 -0.9468
 4740SOL     OW25852   2.741   3.530   9.789 -0.2328 -0.3189 -0.0329
 4740SOL    HW125853   2.656   3.552   9.830 -0.9827 -0.3776 -1.5663
 4740SOL    HW225854   2.784   3.458   9.835 -0.8330 -0.3417  0.5039
 4741SOL     OW25855   4.393   1.869   4.702 -0.1481  0.2296 -0.0081
 4741SOL    HW125856   4.324   1.900   4.762  0.7940 -1.2701  1.8510
 4741SOL    HW225857   4.380   1.774   4.704  0.2732  0.1435 -1.4901
 4742SOL     OW25858   4.010   1.954   4.997  0.4520 -0.1129 -0.1037
 4742SOL    HW125859   3.945   1.914   4.939  0.1298  1.5437 -0.8923
 4742SOL    HW225860   4.088   1.969   4.943  0.0105  0.2397 -0.6489
 4743SOL     OW25861   3.371   1.896   5.642 -0.1736 -0.1027 -0.4710
 4743SOL    HW125862   3.378   1.841   5.720 -0.2536 -1.0145 -1.0959
 4743SOL    HW225863   3.303   1.848   5.594 -0.2102 -0.1880 -0.3348
 4744SOL     OW25864   2.692   2.136  15.015  0.1596 -0.2783 -0.1908
 4744SOL    HW125865   2.615   2.190  14.998 -0.9522 -1.8630 -0.2363
 4744SOL    HW225866   2.752   2.208  15.031  0.0972  0.2036 -2.0677
 4745SOL     OW25867   4.474   1.019  11.246  0.7524  0.1701 -0.1482
 4745SOL    HW125868   4.419   0.992  11.173  0.3555 -0.5242  0.4024
 4745SOL    HW225869   4.526   1.094  11.217 -1.7551  1.7468 -0.5669
 4746SOL     OW25870   1.963   2.102   9.531 -0.0269  0.3193 -0.2409
 4746SOL    HW125871   1.877   2.135   9.507 -0.0317 -0.1491 -0.8784
 4746SOL    HW225872   1.979   2.163   9.603 -1.7164 -0.1433  0.5116
 4747SOL     OW25873   1.828   3.944   5.575  0.0501  0.0713 -0.0213
 4747SOL    HW125874   1.739   3.944   5.609 -0.4847 -1.0521 -1.3989
 4747SOL    HW225875   1.879   3.914   5.651 -2.1759  0.3721  1.5789
 4748SOL     OW25876   0.994   1.092  11.183 -0.4258 -0.3525 -0.4394
 4748SOL    HW125877   1.054   1.150  11.230  1.9236 -3.3310  0.2620
 4748SOL    HW225878   0.945   1.168  11.153 -0.8446 -0.6446 -0.4894
 4749SOL     OW25879   0.701   0.112  12.381  0.5671  0.0981 -0.1307
 4749SOL    HW125880   0.689   0.206  12.399 -0.1614  0.0059 -0.1185
 4749SOL    HW225881   0.774   0.088  12.438  0.8540  0.9014 -0.1542
 4750SOL     OW25882   1.921   1.426   8.848 -0.4724  0.1928 -0.6570
 4750SOL    HW125883   1.996   1.436   8.789 -0.3135  1.1309 -0.2998
 4750SOL    HW225884   1.888   1.345   8.810  0.6232 -0.1028 -0.9865
 4751SOL     OW25885   2.918   1.380   8.855 -0.4258 -0.0947  0.5355
 4751SOL    HW125886   2.950   1.293   8.830  0.7260  0.1188  1.2543
 4751SOL    HW225887   2.828   1.356   8.880  0.2538 -2.1522  1.0030
 4752SOL     OW25888   0.828   1.789   8.944 -0.6993  0.3424 -0.0500
 4752SOL    HW125889   0.866   1.834   8.868  0.2590  1.5350  1.1367
 4752SOL    HW225890   0.753   1.848   8.953 -0.3668  1.0657 -1.8385
 4753SOL     OW25891   1.480   1.734   5.070  0.0472  0.0819  0.4688
 4753SOL    HW125892   1.501   1.661   5.129 -0.9349 -1.3030 -0.8834
 4753SOL    HW225893   1.408   1.697   5.018  0.2894 -1.7239  1.4048
 4754SOL     OW25894   0.754   4.730   3.706  0.4119 -0.2579 -0.1493
 4754SOL    HW125895   0.839   4.707   3.743  0.7766 -0.1635 -0.9146
 4754SOL    HW225896   0.698   4.727   3.783  2.4630  0.0800  1.3616
 4755SOL     OW25897   2.220   1.199   0.905  0.1900  0.2693 -0.2487
 4755SOL    HW125898   2.201   1.175   0.996  0.9779 -1.7860 -0.6303
 4755SOL    HW225899   2.219   1.112   0.865  0.4322 -1.0763  2.6519
 4756SOL     OW25900   2.615   1.341  17.592  0.0766  0.3252  0.5592
 4756SOL    HW125901   2.701   1.299  17.596 -0.6109 -1.2057 -0.5790
 4756SOL    HW225902   2.559   1.265  17.608  0.6509 -0.1951  0.1108
 4757SOL     OW25903   0.759   1.661   4.105  0.4020  0.6374 -0.1327
 4757SOL    HW125904   0.710   1.583   4.080 -0.3954  1.0124  0.2619
 4757SOL    HW225905   0.774   1.700   4.019 -1.5566  2.8328  0.5167
 4758SOL     OW25906   2.093   1.955   1.851  0.1765 -0.3409  0.3885
 4758SOL    HW125907   2.044   2.030   1.883  1.4839  0.0755  1.4147
 4758SOL    HW225908   2.181   1.989   1.866 -0.1540  0.9085 -0.5383
 4759SOL     OW25909   1.933   0.938   7.402  0.5264 -0.1084  0.2401
 4759SOL    HW125910   1.976   0.964   7.321  0.0573 -0.8002 -0.2334
 4759SOL    HW225911   1.863   1.000   7.380 -0.2194 -1.1102 -0.2157
 4760SOL     OW25912   0.351   1.585   2.890 -0.3860 -0.6733 -0.0488
 4760SOL    HW125913   0.276   1.596   2.949  1.2171  2.2862  1.4167
 4760SOL    HW225914   0.337   1.647   2.818 -2.6328  1.2004  1.9881
 4761SOL     OW25915   1.272   2.914   0.232  0.0222 -1.0665 -0.3267
 4761SOL    HW125916   1.293   2.986   0.292 -0.0720  0.1047 -1.6924
 4761SOL    HW225917   1.278   2.840   0.293 -0.1330 -2.5451 -2.1206
 4762SOL     OW25918   3.253   4.587   8.633  0.2652  0.0273  0.4925
 4762SOL    HW125919   3.160   4.594   8.653  0.0089 -0.7859 -0.4393
 4762SOL    HW225920   3.303   4.577   8.714  0.3509  1.2861  0.5955
 4763SOL     OW25921   3.319   2.928   3.313  0.2309  0.1404 -0.3520
 4763SOL    HW125922   3.367   2.929   3.231  0.4863 -4.3945 -0.2909
 4763SOL    HW225923   3.310   3.022   3.324  2.0830  0.5105 -2.0412
 4764SOL     OW25924   3.229   1.810   8.075  0.5528 -0.1691  0.0253
 4764SOL    HW125925   3.269   1.895   8.053  0.9745 -0.4975 -0.4636
 4764SOL    HW225926   3.170   1.836   8.146  0.4905 -0.6346  0.1435
 4765SOL     OW25927   4.005   4.081   5.300 -0.2036  0.0638  0.3765
 4765SOL    HW125928   4.019   4.104   5.208  0.7016  0.1935  0.5529
 4765SOL    HW225929   3.967   3.993   5.292 -1.8221  0.5368  2.8924
 4766SOL     OW25930   3.259   0.267   8.915 -0.5992  0.0523  0.3156
 4766SOL    HW125931   3.285   0.179   8.942 -0.2310  0.5188  1.4759
 4766SOL    HW225932   3.257   0.304   9.003 -0.7667  2.0217 -0.5196
 4767SOL     OW25933   2.669   0.900   4.880 -0.7384 -0.8741  0.1129
 4767SOL    HW125934   2.734   0.957   4.840 -1.6186 -0.7482 -1.1435
 4767SOL    HW225935   2.722   0.821   4.875 -1.2124 -1.3150  1.8275
 4768SOL     OW25936   3.165   2.278  15.178  0.0620 -0.1888  0.0503
 4768SOL    HW125937   3.071   2.288  15.162  0.1977 -1.9192 -1.9315
 4768SOL    HW225938   3.201   2.340  15.115  2.3638  1.8980  3.4256
 4769SOL     OW25939   1.997   4.318   9.240 -0.2951 -0.4547  0.4494
 4769SOL    HW125940   2.014   4.379   9.312 -1.1982  1.7559 -1.2157
 4769SOL    HW225941   1.999   4.231   9.279 -0.7646 -0.2787  0.8685
 4770SOL     OW25942   2.500   3.994   5.003 -0.7303  0.0801 -0.0464
 4770SOL    HW125943   2.555   4.031   4.935 -2.6734  0.0796 -1.6200
 4770SOL    HW225944   2.552   3.918   5.027  0.0481  0.5362 -0.2883
 4771SOL     OW25945   4.736   3.426   8.852 -0.3103 -0.4919  0.1668
 4771SOL    HW125946   4.680   3.488   8.804 -1.3926 -1.4968  0.1354
 4771SOL    HW225947   4.679   3.394   8.922  0.7266 -2.7386 -0.0568
 4772SOL     OW25948   4.686   2.122   4.098 -0.2334 -0.2964  0.2005
 4772SOL    HW125949   4.613   2.130   4.159 -1.3969 -2.4084 -0.9059
 4772SOL    HW225950   0.017   2.094   4.161  0.5451  0.0520 -0.4666
 4773SOL     OW25951   1.734   2.225  14.582  0.0127  0.2865  0.7353
 4773SOL    HW125952   1.796   2.229  14.509 -0.7929  0.0571  0.0421
 4773SOL    HW225953   1.753   2.141  14.624  0.2532  0.4274  0.9077
 4774SOL     OW25954   1.955   1.166   1.704  0.3042  0.7169 -0.1693
 4774SOL    HW125955   2.041   1.199   1.731  0.0182  0.9164  0.5016
 4774SOL    HW225956   1.915   1.253   1.707 -1.8936 -0.2815 -0.2728
 4775SOL     OW25957   3.252   4.207  14.738  0.2980  0.1212 -0.3331
 4775SOL    HW125958   3.315   4.254  14.683  0.8361 -0.7475 -0.4483
 4775SOL    HW225959   3.207   4.150  14.676 -2.0907  1.5098  0.1341
 4776SOL     OW25960   4.138   4.511  15.226 -0.0768 -0.7274  0.0145
 4776SOL    HW125961   4.046   4.517  15.199  0.5112  1.0174 -1.6092
 4776SOL    HW225962   4.163   4.603  15.224 -0.7952 -0.4831  1.8199
 4777SOL     OW25963   1.340   4.038   3.048  0.3751  0.1819  0.0024
 4777SOL    HW125964   1.347   4.064   2.956 -1.3784 -0.7663 -0.4067
 4777SOL    HW225965   1.418   3.984   3.062  1.6200  1.4092 -2.3268
 4778SOL     OW25966   3.567   0.324   2.779 -0.5375  0.0652 -0.1021
 4778SOL    HW125967   3.528   0.376   2.849  0.0679 -0.4801  0.6289
 4778SOL    HW225968   3.605   0.391   2.721  0.0293 -1.7549 -1.8520
 4779SOL     OW25969   1.058   1.629   3.798  0.7670  0.0878 -0.3570
 4779SOL    HW125970   1.014   1.707   3.831 -1.5401 -0.6091 -1.7720
 4779SOL    HW225971   0.994   1.560   3.817 -2.1621  3.2678  1.4316
 4780SOL     OW25972   1.533   4.255  12.865  0.1885 -0.6453 -0.5389
 4780SOL    HW125973   1.608   4.292  12.818 -0.3507  1.7541  0.4641
 4780SOL    HW225974   1.577   4.186  12.914  2.1464  1.9737  1.4282
 4781SOL     OW25975   3.022   0.341   6.074 -0.4367  1.0062 -0.2186
 4781SOL    HW125976   3.093   0.368   6.132 -0.5593 -1.0730  0.8720
 4781SOL    HW225977   2.944   0.341   6.129 -0.8929 -1.7419 -0.9060
 4782SOL     OW25978   4.019   0.966   2.518  0.4783 -0.2099 -0.4460
 4782SOL    HW125979   3.947   0.916   2.479  0.2722 -0.0256 -0.3014
 4782SOL    HW225980   4.096   0.935   2.470  1.0774  3.6459 -1.9860
 4783SOL     OW25981   2.803   2.332  12.012  0.3666  0.2028 -0.0109
 4783SOL    HW125982   2.791   2.364  12.101  0.6922 -1.4385  0.6154
 4783SOL    HW225983   2.784   2.239  12.030  0.5171  0.2952  0.6147
 4784SOL     OW25984   3.305   1.966  14.040  0.0321 -0.1396  0.0397
 4784SOL    HW125985   3.284   1.957  13.947 -2.5318 -0.7125  0.6665
 4784SOL    HW225986   3.288   2.060  14.047  1.2516  0.0027  1.0156
 4785SOL     OW25987   2.607   0.908   1.411 -0.1128  0.6939  0.5087
 4785SOL    HW125988   2.585   0.997   1.386 -0.4033  0.6718  0.6853
 4785SOL    HW225989   2.544   0.884   1.479  0.6245 -0.2954  0.8499
 4786SOL     OW25990   2.065   0.864   8.021  0.8178  0.0839 -0.3716
 4786SOL    HW125991   2.074   0.776   7.984  0.0791  0.2148 -0.8728
 4786SOL    HW225992   2.094   0.908   7.940  1.2106  1.1735  0.3656
 4787SOL     OW25993   2.429   2.092   1.027  0.0194 -0.1371  0.0629
 4787SOL    HW125994   2.405   2.147   0.952  1.4432 -0.7070 -0.8085
 4787SOL    HW225995   2.400   2.148   1.100  0.1203  0.2538 -0.1954
 4788SOL     OW25996   2.744   3.520  13.115  0.4143  0.0151 -0.0654
 4788SOL    HW125997   2.725   3.611  13.093  0.6577 -0.4835 -2.3271
 4788SOL    HW225998   2.805   3.491  13.047 -0.5406  1.5244 -1.5593
 4789SOL     OW25999   4.729   3.877   3.556 -0.7268  0.0753  0.0226
 4789SOL    HW126000   4.722   3.969   3.532  2.4596 -0.1096 -1.7343
 4789SOL    HW226001   0.072   3.882   3.609 -0.9030  0.0001  0.2905
 4790SOL     OW26002   1.235   2.785  17.598 -0.2221 -0.0680  0.0458
 4790SOL    HW126003   1.167   2.735  17.642  1.3952 -2.0957  0.2401
 4790SOL    HW226004   1.283   2.713  17.557 -0.1700 -0.3851  0.6585
 4791SOL     OW26005   4.191   4.190   3.575  0.2860 -0.8034  0.5795
 4791SOL    HW126006   4.171   4.113   3.629  1.4632 -1.7298 -0.2985
 4791SOL    HW226007   4.132   4.258   3.608  1.8837  0.5622  0.6442
 4792SOL     OW26008   4.080   2.973   8.260 -0.5638  0.0932 -0.2661
 4792SOL    HW126009   4.010   3.037   8.270  0.7654  1.1857  1.9310
 4792SOL    HW226010   4.065   2.909   8.329  0.6797  1.2695  1.0842
 4793SOL     OW26011   2.704   2.983   0.285 -0.2462 -0.2098  0.0173
 4793SOL    HW126012   2.634   3.015   0.229 -0.7487  1.4151  1.5659
 4793SOL    HW226013   2.669   2.903   0.323  0.5062 -0.7643 -0.4470
 4794SOL     OW26014   2.611   0.245   2.663 -0.2222 -0.2263 -0.5222
 4794SOL    HW126015   2.566   0.324   2.632  0.5055  0.4123  0.0410
 4794SOL    HW226016   2.541   0.203   2.712 -0.9693  2.1083  0.4091
 4795SOL     OW26017   1.607   4.453   3.595 -0.2497  0.2062 -0.3170
 4795SOL    HW126018   1.658   4.484   3.671 -0.5415  1.6848 -0.7381
 4795SOL    HW226019   1.634   4.362   3.608 -0.3828  0.2695  0.4265
 4796SOL     OW26020   2.838   1.557   5.900 -0.2690 -0.0597 -0.2518
 4796SOL    HW126021   2.778   1.586   5.831  1.8001  0.9340 -1.6338
 4796SOL    HW226022   2.838   1.637   5.953  1.2030 -0.9261  1.0744
 4797SOL     OW26023   4.614   1.430   6.712  0.2849 -0.3745 -0.0222
 4797SOL    HW126024   4.679   1.481   6.760 -1.4404  1.7817  0.0195
 4797SOL    HW226025   4.598   1.356   6.771 -2.7448 -0.3085 -0.7380
 4798SOL     OW26026   3.210   2.536   6.337  0.2545  0.1608  0.4163
 4798SOL    HW126027   3.227   2.460   6.281  1.3634  1.3985 -0.9482
 4798SOL    HW226028   3.115   2.527   6.336  0.5964 -3.4776  1.6184
 4799SOL     OW26029   0.116   1.870  12.322  0.2197 -0.5773  0.0183
 4799SOL    HW126030   0.206   1.900  12.338 -0.9737  2.3342  1.1413
 4799SOL    HW226031   0.119   1.786  12.367 -1.5955 -0.6860 -0.0999
 4800SOL     OW26032   2.076   1.603   2.472 -0.2585 -0.0684 -0.0277
 4800SOL    HW126033   2.018   1.671   2.440  0.0593 -0.0880 -0.6587
 4800SOL    HW226034   2.059   1.601   2.566 -0.1811 -0.2731 -0.0184
 4801SOL     OW26035   4.255   0.903   3.038 -0.1046  0.4084 -0.1072
 4801SOL    HW126036   4.210   0.949   2.967 -2.4677 -0.2704  0.9647
 4801SOL    HW226037   4.311   0.853   2.979  1.0873 -1.3917  2.5254
 4802SOL     OW26038   2.263   3.808   3.488 -0.4682 -0.1640  0.1266
 4802SOL    HW126039   2.298   3.843   3.406 -0.8941  0.2335  0.1155
 4802SOL    HW226040   2.348   3.809   3.532 -1.3457  0.1132  1.8376
 4803SOL     OW26041   2.841   0.225   8.639 -0.3051 -0.2777 -0.0726
 4803SOL    HW126042   2.860   0.288   8.570 -0.3933 -0.6443 -0.4331
 4803SOL    HW226043   2.923   0.237   8.688  1.1965 -0.5748 -2.5091
 4804SOL     OW26044   2.607   2.087   2.597 -0.7081  0.4029 -0.2777
 4804SOL    HW126045   2.511   2.079   2.596 -0.6897 -0.0070  1.3144
 4804SOL    HW226046   2.627   2.059   2.508 -1.0998 -0.3756 -0.1228
 4805SOL     OW26047   3.855   1.805  16.944  0.2516 -0.0119 -0.3761
 4805SOL    HW126048   3.774   1.855  16.934  1.1689  1.3652 -0.8687
 4805SOL    HW226049   3.866   1.794  16.850 -0.5282  0.4076 -0.5187
 4806SOL     OW26050   3.056   2.937   5.477 -0.4564  0.1615 -0.1026
 4806SOL    HW126051   3.034   2.847   5.453 -0.2896 -0.4851  2.2307
 4806SOL    HW226052   3.068   2.929   5.571  1.4055 -1.1175 -0.4540
 4807SOL     OW26053   1.370   4.471  12.301 -0.1264  0.0660 -0.5282
 4807SOL    HW126054   1.425   4.530  12.352  0.6429 -0.9372 -0.1931
 4807SOL    HW226055   1.327   4.417  12.367  1.1536 -0.2730  0.0275
 4808SOL     OW26056   3.246   1.246   4.483 -0.8810 -0.1299 -0.3624
 4808SOL    HW126057   3.274   1.282   4.399  0.5887  0.4157  0.3696
 4808SOL    HW226058   3.196   1.321   4.516  1.1216  1.8838 -1.8538
 4809SOL     OW26059   2.246   0.161  11.362  0.8701 -0.1837  0.0103
 4809SOL    HW126060   2.237   0.243  11.411 -1.3831 -0.8952  0.7700
 4809SOL    HW226061   2.181   0.111  11.411 -0.8889  2.0162 -0.0343
 4810SOL     OW26062   0.407   0.682  10.583 -0.4399  0.0176  0.1839
 4810SOL    HW126063   0.416   0.691  10.489  0.1074  0.6887  0.3037
 4810SOL    HW226064   0.477   0.618  10.598 -0.2933  0.3543  0.9832
 4811SOL     OW26065   0.899   1.750   4.689 -0.3928  0.1210  0.3592
 4811SOL    HW126066   0.995   1.748   4.685 -0.3425 -0.1186  1.8005
 4811SOL    HW226067   0.878   1.780   4.601 -1.7617 -0.1579  0.5811
 4812SOL     OW26068   3.881   0.581   5.692 -0.8952 -0.0417 -0.0969
 4812SOL    HW126069   3.906   0.513   5.754 -1.7824 -1.1653 -0.9839
 4812SOL    HW226070   3.970   0.612   5.676 -0.7031 -1.3692 -1.5330
 4813SOL     OW26071   2.620   3.136   2.819 -0.0136  0.5092  0.3660
 4813SOL    HW126072   2.580   3.098   2.741  2.2146  0.4712 -0.7419
 4813SOL    HW226073   2.574   3.091   2.890  0.3965 -0.3876  0.0483
 4814SOL     OW26074   1.179   2.716   2.195  0.3364 -0.7690  0.4039
 4814SOL    HW126075   1.220   2.786   2.144  0.4860 -1.3273 -0.2422
 4814SOL    HW226076   1.231   2.712   2.275  0.3076 -2.1976  0.3475
 4815SOL     OW26077   1.807   3.951   9.270 -0.7076 -0.5772 -0.2051
 4815SOL    HW126078   1.741   4.004   9.227  2.7738  3.5021 -0.5004
 4815SOL    HW226079   1.752   3.895   9.325  0.8001 -1.8026  0.0781
 4816SOL     OW26080   4.637   1.980   0.372  0.3810  0.4146 -0.1763
 4816SOL    HW126081   4.600   2.014   0.454 -0.0259 -0.8539  0.1655
 4816SOL    HW226082   4.606   1.891   0.382 -1.1767  1.1931  2.0203
 4817SOL     OW26083   4.026   3.828   9.076 -0.0470  0.6243  0.0759
 4817SOL    HW126084   4.038   3.766   9.004 -0.5672  0.7015 -0.0802
 4817SOL    HW226085   3.931   3.838   9.075 -0.1162  0.1387  0.9579
 4818SOL     OW26086   3.480   0.312   6.369 -0.1563  0.4426  0.3874
 4818SOL    HW126087   3.530   0.361   6.304  0.2614 -0.3551  0.1110
 4818SOL    HW226088   3.553   0.272   6.416  3.1520  0.7874 -4.5403
 4819SOL     OW26089   4.084   0.353   6.844 -0.1059 -0.3767  0.0546
 4819SOL    HW126090   4.070   0.359   6.938 -1.3772  1.1796 -0.2341
 4819SOL    HW226091   4.148   0.422   6.827 -1.3539  1.0965  1.4357
 4820SOL     OW26092   3.668   3.455   3.657  0.4146  0.5176 -0.5202
 4820SOL    HW126093   3.660   3.434   3.750 -0.9963  0.6029 -0.6293
 4820SOL    HW226094   3.586   3.433   3.614 -0.5651  0.9841  1.1223
 4821SOL     OW26095   3.023   3.882   6.105 -0.2080 -0.2789 -0.3161
 4821SOL    HW126096   2.981   3.802   6.074  0.8825 -0.9073 -0.1565
 4821SOL    HW226097   2.974   3.896   6.186  0.5426 -1.5197  0.3478
 4822SOL     OW26098   0.635   1.399   4.078  0.3192 -0.4388 -0.2988
 4822SOL    HW126099   0.621   1.355   3.994  0.5442  0.6820 -0.9206
 4822SOL    HW226100   0.676   1.324   4.122 -1.3737 -1.5444 -0.6416
 4823SOL     OW26101   2.592   3.701   3.115  0.4333  0.5515 -0.5848
 4823SOL    HW126102   2.543   3.748   3.047 -0.0770  0.9206  0.0330
 4823SOL    HW226103   2.548   3.616   3.113  1.8563 -0.2237  1.6164
 4824SOL     OW26104   0.431   3.300   6.227 -0.3823 -0.0355  0.1337
 4824SOL    HW126105   0.342   3.311   6.261  0.3701  0.1954  2.0371
 4824SOL    HW226106   0.452   3.392   6.207  0.2557 -0.1066  0.4876
 4825SOL     OW26107   2.643   2.676   3.841  0.2281 -0.0943  0.4431
 4825SOL    HW126108   2.654   2.591   3.884  1.8574  1.6529  3.4489
 4825SOL    HW226109   2.559   2.702   3.878  0.4852  1.4663 -0.0740
 4826SOL     OW26110   3.780   2.205   7.187  0.1978 -0.4638  0.4043
 4826SOL    HW126111   3.709   2.200   7.251 -0.0695 -2.3345 -0.0456
 4826SOL    HW226112   3.829   2.284   7.211  0.6590 -0.1108 -1.6690
 4827SOL     OW26113   3.654   1.782   6.670 -0.2572 -0.7863  0.5368
 4827SOL    HW126114   3.727   1.843   6.659 -2.3047  1.9027  2.0174
 4827SOL    HW226115   3.582   1.827   6.627  0.4097  0.4054  0.6879
 4828SOL     OW26116   4.681   1.843   3.345  0.0297 -0.1019 -0.1763
 4828SOL    HW126117   4.599   1.887   3.319 -0.4419 -2.0314 -1.8518
 4828SOL    HW226118   4.723   1.862   3.262  0.8403 -1.1247  0.0044
 4829SOL     OW26119   1.536   1.685   8.304 -0.3719 -0.5039  0.1939
 4829SOL    HW126120   1.499   1.758   8.255  0.2771  1.2032  2.2134
 4829SOL    HW226121   1.585   1.733   8.372  0.7759 -0.6158 -0.5466
 4830SOL     OW26122   3.480   0.388  10.021  0.2630  0.4796  0.4538
 4830SOL    HW126123   3.536   0.323  10.063  0.6832 -0.9356 -2.2885
 4830SOL    HW226124   3.544   0.431   9.964 -0.9804  1.2897 -0.3250
 4831SOL     OW26125   2.105   2.240   4.787  0.2155 -0.3510 -0.0851
 4831SOL    HW126126   2.144   2.313   4.740 -0.1001 -0.7394 -0.9562
 4831SOL    HW226127   2.171   2.171   4.783  1.9573  1.4425 -2.2207
 4832SOL     OW26128   2.467   3.255   5.604  0.2386  0.2306  0.7361
 4832SOL    HW126129   2.472   3.169   5.563 -2.1411 -0.2590  1.4483
 4832SOL    HW226130   2.374   3.267   5.624 -0.4572  1.8436 -3.4015
 4833SOL     OW26131   2.339   1.827  11.856 -0.5913 -0.0307 -0.0402
 4833SOL    HW126132   2.340   1.896  11.922  0.7477 -0.5624  0.4922
 4833SOL    HW226133   2.365   1.874  11.777  1.9284 -0.4188  0.5590
 4834SOL     OW26134   2.649   3.699   2.587  0.6813  0.5356 -0.1278
 4834SOL    HW126135   2.644   3.648   2.507 -1.7433 -2.3806  1.8988
 4834SOL    HW226136   2.576   3.759   2.573 -0.0976 -0.6915 -1.2700
 4835SOL     OW26137   2.850   3.590   6.905  0.3690 -0.3510 -0.2071
 4835SOL    HW126138   2.796   3.591   6.826  1.6076 -0.2155 -1.0728
 4835SOL    HW226139   2.932   3.596   6.855  0.4312  0.1000 -0.0493
 4836SOL     OW26140   2.072   2.537  10.458 -0.3046 -0.1956  0.9799
 4836SOL    HW126141   2.035   2.488  10.532 -2.0439  0.1222  0.3380
 4836SOL    HW226142   2.003   2.601  10.441  0.7720  1.3656  2.5122
 4837SOL     OW26143   3.734   4.357   6.351 -0.0710  0.3238 -0.4382
 4837SOL    HW126144   3.766   4.439   6.315  2.3383 -0.8629 -0.9788
 4837SOL    HW226145   3.641   4.369   6.330  0.0215  0.6138 -0.6804
 4838SOL     OW26146   4.646   1.253   5.694  0.1268  0.4911  0.0135
 4838SOL    HW126147   4.574   1.316   5.697 -0.4523 -0.1344 -0.4878
 4838SOL    HW226148   4.658   1.259   5.599  1.0375  2.0290  0.2425
 4839SOL     OW26149   1.328   3.248   6.885 -0.2361 -0.2776 -0.2564
 4839SOL    HW126150   1.277   3.247   6.966 -2.3496 -2.3363 -1.6063
 4839SOL    HW226151   1.269   3.303   6.834 -0.4359 -1.4504 -1.3123
 4840SOL     OW26152   4.140   0.239   9.151 -0.0867  0.5982  0.2244
 4840SOL    HW126153   4.104   0.262   9.236  0.4510 -0.4735  0.7446
 4840SOL    HW226154   4.230   0.268   9.167 -0.3968 -0.9109  4.6478
 4841SOL     OW26155   2.327   4.598   3.217  0.0417  0.9951 -0.4749
 4841SOL    HW126156   2.401   4.591   3.157 -1.2139  0.0412 -1.9132
 4841SOL    HW226157   2.263   4.618   3.149 -1.6200 -0.0541  0.7732
 4842SOL     OW26158   3.907   4.694   7.104  0.0541  0.3059  0.0261
 4842SOL    HW126159   3.976   4.687   7.037  1.2104  1.4176  1.0969
 4842SOL    HW226160   3.840   4.663   7.042 -0.2014  1.8803 -0.4803
 4843SOL     OW26161   3.305   1.437   0.761 -0.7400  0.2220  0.3374
 4843SOL    HW126162   3.226   1.488   0.741 -1.6099 -1.2329  0.0550
 4843SOL    HW226163   3.270   1.357   0.800  2.2979 -1.0980  0.3123
 4844SOL     OW26164   3.353   2.659   5.562 -0.4838 -0.3730  0.1418
 4844SOL    HW126165   3.276   2.603   5.574 -0.8977  0.4809  1.3867
 4844SOL    HW226166   3.365   2.697   5.649  0.1774  0.0560 -0.1308
 4845SOL     OW26167   3.557   1.756   2.992  0.0298  0.2999 -0.3314
 4845SOL    HW126168   3.498   1.699   2.943  0.8060  1.4679 -2.6257
 4845SOL    HW226169   3.641   1.731   2.953  0.1779  0.4182 -0.0850
 4846SOL     OW26170   1.714   3.240   1.793  0.2545 -0.2342  0.0149
 4846SOL    HW126171   1.725   3.208   1.883 -1.4174 -0.5069  0.1340
 4846SOL    HW226172   1.683   3.155   1.760 -1.4767  0.4849 -0.2151
 4847SOL     OW26173   4.497   4.505   6.766  0.6107  0.4672  0.8284
 4847SOL    HW126174   4.470   4.592   6.795 -0.6382  0.7979 -1.2711
 4847SOL    HW226175   4.432   4.451   6.811  0.5226  0.7512  1.0407
 4848SOL     OW26176   3.068   1.381   8.483  0.1490 -0.2049  0.0398
 4848SOL    HW126177   3.028   1.419   8.405 -0.3162 -0.3874  0.1953
 4848SOL    HW226178   3.039   1.290   8.488  1.9419 -0.6994  1.7246
 4849SOL     OW26179   2.993   1.070   5.859 -0.2068 -0.1289 -0.0691
 4849SOL    HW126180   2.950   1.151   5.885  1.7432  0.3169  1.7614
 4849SOL    HW226181   3.083   1.104   5.858 -0.2946  0.1079  0.0700
 4850SOL     OW26182   0.123   0.849   3.575 -0.1742 -0.4790  0.1211
 4850SOL    HW126183   0.075   0.784   3.524 -2.4993  1.4600 -0.1498
 4850SOL    HW226184   0.094   0.823   3.663  0.9192 -1.2786  0.2509
 4851SOL     OW26185   3.202   4.012   3.936  0.0218  0.4120 -0.4737
 4851SOL    HW126186   3.179   4.103   3.918  1.0421  0.6616 -0.5440
 4851SOL    HW226187   3.166   3.997   4.023  0.5761 -2.0698 -0.6519
 4852SOL     OW26188   1.601   2.377   6.922 -0.8242 -0.6057  0.0734
 4852SOL    HW126189   1.671   2.355   6.984 -1.0392  0.4844  0.6819
 4852SOL    HW226190   1.635   2.326   6.848 -0.3811 -2.1497  1.3245
 4853SOL     OW26191   2.224   2.489   3.963  0.5179 -0.2584  0.1364
 4853SOL    HW126192   2.252   2.517   3.876  2.7355 -0.4884  0.7753
 4853SOL    HW226193   2.274   2.551   4.016 -1.8601  1.4328  0.4049
 4854SOL     OW26194   3.876   4.731   6.604  0.3024 -0.1371  0.3068
 4854SOL    HW126195   3.877   4.636   6.612 -0.0247 -0.1528  0.1383
 4854SOL    HW226196   3.943   0.018   6.669  1.0780  0.4635 -0.7162
 4855SOL     OW26197   3.946   0.998  11.912  0.0947 -0.1111  0.0744
 4855SOL    HW126198   3.987   0.914  11.934 -0.2691 -0.3606 -0.1873
 4855SOL    HW226199   3.982   1.021  11.827  0.4564 -0.0352  0.2505
 4856SOL     OW26200   3.811   3.444  17.109  0.2206 -0.2877 -0.5748
 4856SOL    HW126201   3.721   3.475  17.092  0.1736  0.5732  1.2689
 4856SOL    HW226202   3.835   3.499  17.183  0.5907 -0.7571 -0.3501
 4857SOL     OW26203   4.245   0.261   4.823  0.0927 -0.5346 -0.6651
 4857SOL    HW126204   4.234   0.301   4.909 -2.2300  1.2149 -1.7814
 4857SOL    HW226205   4.204   0.328   4.769 -2.4992 -0.5426  1.3351
 4858SOL     OW26206   1.828   2.151  13.912 -0.2172  0.0311  0.2191
 4858SOL    HW126207   1.817   2.113  13.825  0.2908  0.8314 -0.1980
 4858SOL    HW226208   1.910   2.109  13.937 -1.6341 -2.6860  0.3202
 4859SOL     OW26209   1.188   3.428   3.371  0.4723  0.0589 -0.4123
 4859SOL    HW126210   1.236   3.374   3.434  0.7604  0.4467 -0.2981
 4859SOL    HW226211   1.180   3.371   3.294 -0.1694  0.2714 -0.4999
 4860SOL     OW26212   4.517   4.734  10.582 -0.1892 -0.3328 -0.4053
 4860SOL    HW126213   4.573   4.662  10.612 -0.2737  0.7753  2.3730
 4860SOL    HW226214   4.465   0.010  10.661  1.8523  0.5121  0.8077
 4861SOL     OW26215   2.595   0.671   5.375 -0.3025 -0.2902  0.0319
 4861SOL    HW126216   2.672   0.699   5.327  0.4741 -2.4748  0.0090
 4861SOL    HW226217   2.593   0.581   5.340 -0.5438 -0.5776  0.7820
 4862SOL     OW26218   0.991   0.836   0.020 -0.1449 -0.2227 -0.6445
 4862SOL    HW126219   1.034   0.773   0.078 -2.5811  0.2801  1.6429
 4862SOL    HW226220   1.072   0.874  17.729  0.9913 -1.5901  0.5294
 4863SOL     OW26221   4.540   3.036   8.234 -0.0325  0.4868  0.5128
 4863SOL    HW126222   4.564   2.944   8.227 -0.0636  0.6154 -1.3787
 4863SOL    HW226223   4.473   3.038   8.166  0.3517 -0.1507  0.1191
 4864SOL     OW26224   4.346   2.666   0.869  0.3521  0.3495 -0.5422
 4864SOL    HW126225   4.332   2.573   0.853  2.2144 -0.4514  2.5511
 4864SOL    HW226226   4.389   2.661   0.954 -0.5243 -0.6438 -0.1582
 4865SOL     OW26227   0.884   1.062   5.100  0.5293  0.4120  0.4177
 4865SOL    HW126228   0.883   1.030   5.191 -1.2693  2.3268  1.0683
 4865SOL    HW226229   0.796   1.094   5.081  1.0044  1.4985  0.0842
 4866SOL     OW26230   4.272   0.691  17.220 -0.4608  0.0095  0.1331
 4866SOL    HW126231   4.239   0.780  17.213 -0.3346 -0.1511 -2.3878
 4866SOL    HW226232   4.205   0.653  17.163  0.8701 -1.0968 -0.6914
 4867SOL     OW26233   0.422   1.070   7.134 -0.3813  0.2530 -0.5327
 4867SOL    HW126234   0.481   1.136   7.097 -0.3864 -0.6450 -2.1525
 4867SOL    HW226235   0.352   1.131   7.158 -1.7756 -0.2775 -3.2556
 4868SOL     OW26236   4.408   0.666   5.019  0.1520 -0.1799  0.5256
 4868SOL    HW126237   4.486   0.612   5.015  1.4753  1.8077 -0.0625
 4868SOL    HW226238   4.334   0.607   5.036 -0.6701  0.1649 -1.8333
 4869SOL     OW26239   0.162   0.268  15.489 -0.4175 -0.3761 -0.2933
 4869SOL    HW126240   0.255   0.292  15.484 -0.6202  0.7061  1.2286
 4869SOL    HW226241   0.171   0.174  15.475  0.2202 -0.2196 -0.9402
 4870SOL     OW26242   3.225   4.213   7.725 -0.1772 -0.1823  0.3060
 4870SOL    HW126243   3.282   4.219   7.649  0.1154  1.5567  0.6650
 4870SOL    HW226244   3.167   4.288   7.713 -0.7939 -0.7215 -0.0658
 4871SOL     OW26245   4.488   4.505  11.642  0.7290 -0.5514  0.2462
 4871SOL    HW126246   4.509   4.458  11.561 -0.7486  1.2363 -1.1550
 4871SOL    HW226247   4.568   4.558  11.643  1.1442 -1.1660  0.4828
 4872SOL     OW26248   3.410   0.806   3.633 -0.6137  0.2066 -0.2678
 4872SOL    HW126249   3.404   0.891   3.675 -0.0312 -0.0164  0.2736
 4872SOL    HW226250   3.463   0.765   3.701  2.4242 -0.1139 -2.8084
 4873SOL     OW26251   3.428   4.213   6.776 -0.0421 -0.3114 -0.0510
 4873SOL    HW126252   3.340   4.230   6.742  0.4154 -0.8323 -1.5067
 4873SOL    HW226253   3.431   4.288   6.835 -1.4609 -1.0365  0.9330
 4874SOL     OW26254   4.537   3.823   7.006 -0.2767  0.0753 -0.0134
 4874SOL    HW126255   4.629   3.833   7.029 -0.5113  0.0429  0.9339
 4874SOL    HW226256   4.525   3.736   6.969 -2.6729  0.0862  0.7707
 4875SOL     OW26257   3.150   2.031  12.677 -0.1072 -0.4504  0.2957
 4875SOL    HW126258   3.082   1.978  12.720 -0.9042  0.5308  0.2339
 4875SOL    HW226259   3.108   2.056  12.595  0.1097  0.5442  0.4935
 4876SOL     OW26260   4.687   2.358   1.552  0.2923 -0.0801  0.1852
 4876SOL    HW126261   4.617   2.407   1.595 -0.5298  0.5558 -1.8479
 4876SOL    HW226262   0.022   2.414   1.583  0.8221 -0.7799  0.2120
 4877SOL     OW26263   3.679   1.500  16.494  0.2789 -0.0897 -0.1441
 4877SOL    HW126264   3.742   1.464  16.432 -0.9035 -0.2800 -1.2206
 4877SOL    HW226265   3.594   1.480  16.455  0.8921 -4.0099  0.4591
 4878SOL     OW26266   0.783   3.658  11.091  0.4873 -0.2833 -0.3039
 4878SOL    HW126267   0.692   3.654  11.120  1.4037  2.2434  3.0150
 4878SOL    HW226268   0.819   3.604  11.161  1.0863  2.7542  1.7745
 4879SOL     OW26269   0.515   3.776   5.918  0.3823 -0.2423 -0.2094
 4879SOL    HW126270   0.603   3.812   5.906 -0.3090  2.0779  1.7761
 4879SOL    HW226271   0.515   3.776   6.014 -0.9915 -3.7018 -0.2092
 4880SOL     OW26272   1.642   1.505  14.541  0.0358  0.6800 -0.1358
 4880SOL    HW126273   1.680   1.490  14.628  0.9535 -0.4162 -0.7296
 4880SOL    HW226274   1.620   1.598  14.550 -0.8082  0.5970 -1.3548
 4881SOL     OW26275   4.420   4.518   8.497 -0.2063 -0.4077 -0.2400
 4881SOL    HW126276   4.511   4.545   8.505  0.1011 -1.6734  0.4195
 4881SOL    HW226277   4.398   4.549   8.409 -1.2542  1.0673  0.5371
 4882SOL     OW26278   1.648   1.233   6.865  0.4603  0.0907 -0.6127
 4882SOL    HW126279   1.559   1.199   6.873  0.7346 -1.3058 -3.5104
 4882SOL    HW226280   1.639   1.258   6.773 -3.6162  2.6554  0.4594
 4883SOL     OW26281   1.773   3.802   7.562  0.4949  0.0826  0.2012
 4883SOL    HW126282   1.699   3.808   7.621 -0.3316 -0.4698 -0.7668
 4883SOL    HW226283   1.756   3.725   7.506  0.4931  1.2355 -1.3848
 4884SOL     OW26284   2.910   3.037   7.742  0.6509  0.0197  0.2233
 4884SOL    HW126285   2.959   2.993   7.672  1.6407  1.4807 -0.0225
 4884SOL    HW226286   2.890   2.959   7.793  0.5334 -0.2445 -0.2190
 4885SOL     OW26287   4.481   4.615   6.512  0.1114 -0.9508  0.1272
 4885SOL    HW126288   4.499   4.580   6.600  0.1832  1.4294  1.0433
 4885SOL    HW226289   4.497   4.532   6.465 -1.3559 -0.4594 -1.2384
 4886SOL     OW26290   0.864   4.270   2.000  0.5449 -0.3137 -0.1315
 4886SOL    HW126291   0.777   4.309   1.996  1.0006  1.0485  3.1140
 4886SOL    HW226292   0.911   4.326   2.061 -0.3923  0.1325  0.1740
 4887SOL     OW26293   2.956   3.218   7.346  0.1025 -0.0774 -0.5511
 4887SOL    HW126294   2.962   3.221   7.251  0.7170  1.1142 -0.4717
 4887SOL    HW226295   2.900   3.141   7.354 -0.4711  0.2186 -1.7548
 4888SOL     OW26296   1.543   0.121   2.219 -0.4051 -0.3351 -0.3371
 4888SOL    HW126297   1.527   0.184   2.148 -1.4885 -1.4222 -1.0578
 4888SOL    HW226298   1.524   0.044   2.165  2.8752 -0.5101 -1.2336
 4889SOL     OW26299   2.017   2.391   0.796 -0.1108  1.0424  0.2145
 4889SOL    HW126300   2.087   2.382   0.731 -0.4933  0.0995 -0.0723
 4889SOL    HW226301   1.937   2.348   0.764  2.2393 -2.6267 -0.6577
 4890SOL     OW26302   1.743   1.739  10.024 -0.2337  0.1516  0.1658
 4890SOL    HW126303   1.723   1.682   9.950  1.5760  1.1702 -1.1130
 4890SOL    HW226304   1.805   1.684  10.073 -2.4994 -1.6988  0.9675
 4891SOL     OW26305   0.465   4.592   1.213 -0.2821 -0.1122 -0.1840
 4891SOL    HW126306   0.437   4.598   1.305  0.2804  0.9141 -0.0761
 4891SOL    HW226307   0.511   4.676   1.201  0.3341 -0.2612  1.0886
 4892SOL     OW26308   4.372   1.247   8.411  0.2865 -0.6118 -0.1277
 4892SOL    HW126309   4.307   1.240   8.341 -0.0301 -0.9370  0.2013
 4892SOL    HW226310   4.335   1.308   8.475 -0.9881 -2.1674  0.6067
 4893SOL     OW26311   0.683   0.622   6.357  0.9413  0.3543  0.5713
 4893SOL    HW126312   0.691   0.572   6.439 -0.3865  0.4873  0.7947
 4893SOL    HW226313   0.589   0.641   6.349  0.4956 -1.5832  1.0098
 4894SOL     OW26314   2.173   1.732   0.603 -0.6153  0.2564  0.1129
 4894SOL    HW126315   2.153   1.641   0.582  2.3572 -0.4452  0.3753
 4894SOL    HW226316   2.266   1.743   0.588 -0.7906  2.0540  0.2684
 4895SOL     OW26317   3.589   0.850   3.035  0.1265  0.1925  0.0415
 4895SOL    HW126318   3.509   0.890   3.001 -1.2366 -1.6109  1.1446
 4895SOL    HW226319   3.629   0.930   3.068  0.2618  0.4259 -0.6948
 4896SOL     OW26320   4.327   1.162  16.831  0.2352  0.0427 -0.2106
 4896SOL    HW126321   4.299   1.108  16.905 -1.0698  0.0244 -0.7288
 4896SOL    HW226322   4.420   1.161  16.856  0.7543  4.2861 -1.9580
 4897SOL     OW26323   3.453   2.934   3.777 -0.0330 -0.3086  0.4250
 4897SOL    HW126324   3.454   2.873   3.850  2.0353  0.6012  1.1498
 4897SOL    HW226325   3.419   2.877   3.707  0.2451 -1.1386  0.9671
 4898SOL     OW26326   0.422   1.545   0.562  0.0327  0.5811 -0.2504
 4898SOL    HW126327   0.470   1.621   0.593  0.2173  0.2481  0.2699
 4898SOL    HW226328   0.437   1.537   0.468  1.0277 -1.7353  0.1054
 4899SOL     OW26329   1.632   2.857   3.494  0.0862  0.1084  0.5108
 4899SOL    HW126330   1.578   2.861   3.573  0.8933  1.1845  0.9985
 4899SOL    HW226331   1.682   2.778   3.515  1.8425  1.3843  1.1342
 4900SOL     OW26332   4.725   2.616   1.052 -0.5348  0.6321  0.4600
 4900SOL    HW126333   4.720   2.541   0.993 -1.0228 -0.2453  1.6225
 4900SOL    HW226334   4.650   2.604   1.111 -2.1047 -1.8266 -2.0128
 4901SOL     OW26335   2.242   2.351   9.635  0.0546 -0.5548  0.2261
 4901SOL    HW126336   2.171   2.302   9.678  0.7874 -1.6079  0.2523
 4901SOL    HW226337   2.234   2.432   9.685  0.3295 -0.7507  0.5896
 4902SOL     OW26338   0.746   1.524   0.721 -0.0597 -0.4492 -0.6419
 4902SOL    HW126339   0.666   1.478   0.746  0.8693 -0.0909  3.0058
 4902SOL    HW226340   0.728   1.614   0.750 -1.1394 -0.9391  0.2252
 4903SOL     OW26341   3.865   0.252   3.324 -0.3256 -0.9671 -0.1741
 4903SOL    HW126342   3.954   0.230   3.299  0.3678  0.7248  0.7782
 4903SOL    HW226343   3.818   0.246   3.241 -1.2631  0.3539  0.2563
 4904SOL     OW26344   1.032   2.768   3.631  0.2111 -0.3222  1.0134
 4904SOL    HW126345   0.986   2.837   3.680  0.6328  0.5185  0.2221
 4904SOL    HW226346   0.989   2.757   3.546  0.1004  0.3965  0.9799
 4905SOL     OW26347   1.852   1.370   6.406  0.2036 -0.0485 -0.3822
 4905SOL    HW126348   1.768   1.341   6.441 -0.6139  0.8703 -1.5675
 4905SOL    HW226349   1.893   1.393   6.490  0.0018  0.0227 -0.3041
 4906SOL     OW26350   1.785   3.016   9.126 -0.5925  0.8483 -0.2575
 4906SOL    HW126351   1.727   3.039   9.054  2.0368 -0.6510 -2.8472
 4906SOL    HW226352   1.794   2.922   9.115 -0.3048  0.8241  0.2048
 4907SOL     OW26353   3.701   2.931   0.814 -0.2379 -0.0538  0.1287
 4907SOL    HW126354   3.649   2.873   0.870  0.1923 -2.6166 -2.1718
 4907SOL    HW226355   3.769   2.876   0.776  0.3064 -0.2537  1.3865
 4908SOL     OW26356   1.095   2.053   3.276 -0.3228  0.3278  0.0034
 4908SOL    HW126357   1.152   1.976   3.276 -0.2097  0.4218 -0.8679
 4908SOL    HW226358   1.032   2.040   3.347 -0.3396  0.7982  0.0731
 4909SOL     OW26359   1.187   2.938   7.873 -0.8610 -0.3725 -0.5996
 4909SOL    HW126360   1.174   2.987   7.793  0.2911 -0.1873 -0.6814
 4909SOL    HW226361   1.189   2.999   7.946 -0.1333  0.1277 -1.0376
 4910SOL     OW26362   1.883   1.113   6.909 -0.3258 -0.0209  0.6377
 4910SOL    HW126363   1.797   1.153   6.897 -1.1220 -1.1556  2.6635
 4910SOL    HW226364   1.865   1.059   6.986 -0.2714 -0.9546 -0.0143
 4911SOL     OW26365   2.247   3.080   3.776 -0.0205 -0.2134 -0.6912
 4911SOL    HW126366   2.328   3.126   3.755 -0.3011 -0.5959 -2.6190
 4911SOL    HW226367   2.264   3.073   3.870  1.1289 -0.8188 -0.9439
 4912SOL     OW26368   2.434   3.494   1.411 -0.2745  0.7071 -0.4469
 4912SOL    HW126369   2.385   3.439   1.349 -1.7566  0.9067  0.5633
 4912SOL    HW226370   2.510   3.436   1.416 -0.8324 -0.1567 -1.9664
 4913SOL     OW26371   1.897   0.938   4.316 -0.2603 -0.2478  0.3919
 4913SOL    HW126372   1.940   0.852   4.315 -0.1513 -0.1864 -0.7812
 4913SOL    HW226373   1.881   0.943   4.410  1.3358 -0.2507  0.6689
 4914SOL     OW26374   2.468   0.491   4.771 -0.6758  0.5340  0.0082
 4914SOL    HW126375   2.389   0.457   4.729  1.2197 -1.3469 -2.0317
 4914SOL    HW226376   2.430   0.573   4.803 -0.9936 -0.0693  1.1678
 4915SOL     OW26377   3.636   1.564   0.219 -0.0441  0.4476  0.5373
 4915SOL    HW126378   3.635   1.612   0.136  0.7860 -1.6365 -0.6722
 4915SOL    HW226379   3.575   1.492   0.205 -0.5369  0.6337  1.7091
 4916SOL     OW26380   2.036   1.564   2.759  0.6122  0.2384  0.2805
 4916SOL    HW126381   2.025   1.566   2.854  1.3385 -0.1970  0.3658
 4916SOL    HW226382   1.944   1.568   2.733  0.0510  0.2256  2.2249
 4917SOL     OW26383   1.277   0.031   7.185 -0.8868 -0.1445 -0.2436
 4917SOL    HW126384   1.328   0.004   7.262 -2.7196  1.0512  1.3959
 4917SOL    HW226385   1.222   0.093   7.234  1.3635  1.8102 -0.1236
 4918SOL     OW26386   4.095   0.921   4.819 -0.1520 -0.1942 -0.6715
 4918SOL    HW126387   4.106   1.008   4.859 -0.3495 -0.9235  0.9777
 4918SOL    HW226388   4.185   0.887   4.812 -0.7405 -1.1489 -3.5275
 4919SOL     OW26389   0.775   4.735   2.433  0.6574 -0.3484  0.4515
 4919SOL    HW126390   0.704   0.042   2.482  0.8478 -0.2500  0.6396
 4919SOL    HW226391   0.805   0.059   2.365  0.9413  0.5060  1.3295
 4920SOL     OW26392   0.655   4.586   5.672 -0.2285  0.7844  0.5068
 4920SOL    HW126393   0.617   4.673   5.682 -0.2707  0.5780  2.1246
 4920SOL    HW226394   0.744   4.604   5.702  2.2648 -4.0268 -3.9640
 4921SOL     OW26395   0.327   4.230   5.627 -0.2024 -0.3935  0.4576
 4921SOL    HW126396   0.386   4.212   5.700 -1.7612 -1.2498  1.4998
 4921SOL    HW226397   0.348   4.323   5.623  1.0159 -0.6963 -0.0175
 4922SOL     OW26398   2.462   0.328   7.316  0.2627 -0.1682 -0.0756
 4922SOL    HW126399   2.427   0.417   7.308  1.4623  0.1876 -1.5006
 4922SOL    HW226400   2.397   0.289   7.258  1.1866  1.6979 -2.4085
 4923SOL     OW26401   4.579   1.838   7.026 -0.3055 -0.6019 -0.7179
 4923SOL    HW126402   4.657   1.790   7.053 -0.7339 -0.2646  1.1004
 4923SOL    HW226403   4.526   1.761   7.006 -0.1017 -0.3015 -2.3936
 4924SOL     OW26404   2.323   2.762  16.136  0.2908 -0.3144 -0.1504
 4924SOL    HW126405   2.249   2.749  16.076  0.5566 -1.9125 -0.1413
 4924SOL    HW226406   2.274   2.734  16.213  2.5700 -0.4849  1.2305
 4925SOL     OW26407   3.675   1.088  11.992 -0.0438  0.0057 -0.3122
 4925SOL    HW126408   3.706   1.169  12.033 -0.7851 -0.8304  1.8885
 4925SOL    HW226409   3.757   1.059  11.952  1.4148  0.6835  2.2234
 4926SOL     OW26410   0.861   4.550  11.853 -0.5287 -0.0787  0.2501
 4926SOL    HW126411   0.814   4.630  11.829  1.6972  1.3615  0.7193
 4926SOL    HW226412   0.830   4.537  11.943  0.6820  1.6807  0.9237
 4927SOL     OW26413   2.651   3.359   3.608 -0.3878  0.7239  0.2753
 4927SOL    HW126414   2.716   3.320   3.550  0.0249  3.4924 -1.1523
 4927SOL    HW226415   2.691   3.447   3.609 -0.1459  0.6225 -0.9606
 4928SOL     OW26416   0.382   0.438   6.349  0.0053 -0.1936 -0.3873
 4928SOL    HW126417   0.394   0.388   6.269 -2.9258 -0.4284 -0.6969
 4928SOL    HW226418   0.379   0.375   6.420 -0.9198 -0.2910 -0.5102
 4929SOL     OW26419   0.596   1.353   3.738  0.0112  0.2816 -0.7706
 4929SOL    HW126420   0.614   1.262   3.761 -0.9617  0.2564 -0.1113
 4929SOL    HW226421   0.595   1.347   3.642  0.2867 -2.6818 -0.5900
 4930SOL     OW26422   1.491   2.386   9.299  0.4004 -0.6622 -0.1500
 4930SOL    HW126423   1.575   2.416   9.263  0.5003  0.4479  0.9832
 4930SOL    HW226424   1.511   2.393   9.392  1.4351  0.6359 -0.4637
 4931SOL     OW26425   2.576   1.001   5.488  0.0255 -0.0523 -0.2366
 4931SOL    HW126426   2.665   0.994   5.454  0.2032  0.1430  0.1843
 4931SOL    HW226427   2.530   0.951   5.421 -0.8912  1.9405 -1.1032
 4932SOL     OW26428   1.517   0.659   6.200  0.1153 -0.5445 -0.0490
 4932SOL    HW126429   1.521   0.690   6.109  0.6738  0.0391  0.1785
 4932SOL    HW226430   1.425   0.673   6.225  0.4029  1.2814 -0.0775
 4933SOL     OW26431   3.972   0.082   1.517  0.3316  0.7107 -0.2774
 4933SOL    HW126432   3.911   0.122   1.578 -1.3180 -0.1668 -1.3462
 4933SOL    HW226433   3.918   0.067   1.440  0.0098 -0.2504  0.1387
 4934SOL     OW26434   3.496   1.006  14.127  0.2104 -0.5165  0.2171
 4934SOL    HW126435   3.577   0.957  14.115  1.3495  2.1642 -3.0598
 4934SOL    HW226436   3.496   1.004  14.222  0.0223 -1.0421  0.2085
 4935SOL     OW26437   3.085   4.434   6.170 -0.3738  0.1916  0.1167
 4935SOL    HW126438   3.046   4.479   6.245 -2.0003  2.4364 -2.0548
 4935SOL    HW226439   3.162   4.489   6.155 -0.0908  0.0931  1.1998
 4936SOL     OW26440   0.615   4.569   8.718  0.5634  0.3160 -0.3210
 4936SOL    HW126441   0.588   4.544   8.629 -0.6411 -0.4671  0.2579
 4936SOL    HW226442   0.554   4.515   8.768  0.3508 -0.2595 -1.1980
 4937SOL     OW26443   2.459   4.118   7.431 -0.8242 -0.0229 -0.4272
 4937SOL    HW126444   2.528   4.074   7.479 -1.0160  1.1104  0.8974
 4937SOL    HW226445   2.406   4.041   7.411 -0.6212 -0.0241 -0.9543
 4938SOL     OW26446   1.578   2.622   3.881 -0.4097 -0.3948  0.1713
 4938SOL    HW126447   1.490   2.660   3.885  0.1411  0.9801 -0.7850
 4938SOL    HW226448   1.617   2.658   3.961 -2.0749  0.6937  0.4862
 4939SOL     OW26449   3.086   2.121   0.950  0.3734 -0.3816  0.2419
 4939SOL    HW126450   3.133   2.092   1.029  0.6185 -0.3867  0.0950
 4939SOL    HW226451   3.029   2.045   0.938  0.7039 -0.5427 -0.3125
 4940SOL     OW26452   0.269   3.649   9.438  0.4002  0.4846 -0.2956
 4940SOL    HW126453   0.218   3.728   9.419  3.0583  2.0652 -0.9405
 4940SOL    HW226454   0.261   3.647   9.533 -1.6038  2.8502 -0.3911
 4941SOL     OW26455   2.833   3.374   3.054  0.0110  0.4102 -0.3022
 4941SOL    HW126456   2.926   3.357   3.064  0.0322  1.1567  0.7624
 4941SOL    HW226457   2.825   3.375   2.959  0.0965 -1.1298 -0.3130
 4942SOL     OW26458   3.383   3.993   5.353 -0.0297  0.1375 -0.2366
 4942SOL    HW126459   3.350   4.063   5.408  2.3900 -0.0676  1.4896
 4942SOL    HW226460   3.330   4.008   5.275 -2.7923 -0.3477  1.5737
 4943SOL     OW26461   4.349   3.631  16.780 -0.5054  0.5236  0.0634
 4943SOL    HW126462   4.291   3.575  16.831  0.1186 -1.2245 -1.1568
 4943SOL    HW226463   4.418   3.661  16.839 -1.2449 -0.0249  1.2128
 4944SOL     OW26464   0.205   0.933  17.721  0.1359  0.0804  0.3309
 4944SOL    HW126465   0.189   0.877  17.646  0.4740 -0.0486  0.3533
 4944SOL    HW226466   0.198   0.879   0.056  2.9068 -0.2831  0.3138
 4945SOL     OW26467   1.515   2.073   8.702 -0.4151  0.2700  0.1639
 4945SOL    HW126468   1.441   2.028   8.743  0.1216 -0.6536  0.1280
 4945SOL    HW226469   1.570   2.083   8.780  0.3605  0.7464 -0.4408
 4946SOL     OW26470   1.746   4.343   5.910 -0.5796  0.0324  0.4924
 4946SOL    HW126471   1.658   4.359   5.945 -0.5668 -1.6743  1.2974
 4946SOL    HW226472   1.785   4.302   5.987  0.1107 -0.3431 -0.0585
 4947SOL     OW26473   1.775   0.559  14.182 -0.1807  0.5761 -0.0522
 4947SOL    HW126474   1.836   0.575  14.110  0.9206 -1.9248  0.3292
 4947SOL    HW226475   1.835   0.528  14.251  0.5017  0.0099 -0.9033
 4948SOL     OW26476   0.886   2.774   1.418  0.2026 -0.4094 -0.3863
 4948SOL    HW126477   0.922   2.862   1.409 -3.6994  1.5094  2.4879
 4948SOL    HW226478   0.878   2.754   1.325 -4.9270 -0.3188  0.0336
 4949SOL     OW26479   0.100   3.731   6.201  0.2412  0.1221  0.2273
 4949SOL    HW126480   0.038   3.760   6.267  0.3927 -1.3429  1.0122
 4949SOL    HW226481   0.037   3.697   6.137  0.3948  0.3140 -0.0282
 4950SOL     OW26482   1.312   2.401  15.705 -0.3563 -0.0562 -0.1438
 4950SOL    HW126483   1.221   2.385  15.683 -1.0152  1.0851  1.7881
 4950SOL    HW226484   1.351   2.401  15.617  0.7511  2.7225  0.3492
 4951SOL     OW26485   3.592   3.560   8.291 -0.1444 -0.2759 -0.0954
 4951SOL    HW126486   3.503   3.546   8.323 -0.1866 -0.0649 -0.1200
 4951SOL    HW226487   3.566   3.594   8.205 -1.7992  1.5237  1.1304
 4952SOL     OW26488   2.695   0.470  15.513 -0.6200  0.0244 -0.3654
 4952SOL    HW126489   2.743   0.475  15.596  2.6284 -2.3209 -2.1448
 4952SOL    HW226490   2.756   0.499  15.446 -0.5661  1.4650  0.3075
 4953SOL     OW26491   3.254   2.798   0.865  0.1796 -0.1561  0.0909
 4953SOL    HW126492   3.186   2.770   0.804  1.0669  2.2525 -2.0156
 4953SOL    HW226493   3.191   2.830   0.929  0.4008  0.2184  0.1226
 4954SOL     OW26494   0.936   3.778   6.702  0.2541 -0.1194 -0.0750
 4954SOL    HW126495   0.923   3.803   6.794  0.4492 -0.5192  0.0615
 4954SOL    HW226496   0.849   3.781   6.663  1.2930 -1.0797 -2.4552
 4955SOL     OW26497   1.672   3.014   6.444 -0.1432  0.2885  0.3334
 4955SOL    HW126498   1.708   2.985   6.528 -1.4737  2.4372  1.6269
 4955SOL    HW226499   1.638   3.099   6.470 -0.4655  0.3123 -0.1679
 4956SOL     OW26500   1.675   4.021   2.164  0.1560  0.7434  0.1044
 4956SOL    HW126501   1.641   4.067   2.088 -0.7324  0.3369  0.2565
 4956SOL    HW226502   1.642   4.090   2.221  1.9975  0.9975  0.8693
 4957SOL     OW26503   4.592   2.853   7.225  0.5975  0.1830  0.4150
 4957SOL    HW126504   4.678   2.812   7.219 -0.8986 -2.4955 -3.2174
 4957SOL    HW226505   4.529   2.784   7.206  0.3834  0.7904 -1.0756
 4958SOL     OW26506   2.303   4.316   5.541 -0.0444  0.0085 -0.2084
 4958SOL    HW126507   2.291   4.411   5.542 -2.0223 -0.2604  1.1722
 4958SOL    HW226508   2.395   4.330   5.564  0.3380 -2.6845 -0.1452
 4959SOL     OW26509   1.964   2.866   0.843  0.1155 -0.3340 -0.7948
 4959SOL    HW126510   1.938   2.785   0.887 -0.1716  0.2678  0.1356
 4959SOL    HW226511   1.967   2.832   0.753  0.5784 -0.3888 -0.7570
 4960SOL     OW26512   2.402   4.625   2.905  0.0654  0.0164  0.3482
 4960SOL    HW126513   2.430   4.542   2.944  2.7096  0.4169 -0.7101
 4960SOL    HW226514   2.329   4.597   2.850  1.0372  0.9469 -1.4089
 4961SOL     OW26515   3.423   1.987   2.991  0.2393 -0.3168 -0.0394
 4961SOL    HW126516   3.443   1.893   2.988  0.7742 -0.1355 -1.7703
 4961SOL    HW226517   3.335   2.005   3.026  0.6619  0.9853  0.3156
 4962SOL     OW26518   4.349   0.511  10.665  0.4427 -0.3383  0.0701
 4962SOL    HW126519   4.265   0.556  10.659  0.8400  0.6430  2.0975
 4962SOL    HW226520   4.395   0.565  10.729  4.1662 -2.6585 -0.6802
 4963SOL     OW26521   4.263   2.233   6.958  0.6845  0.1547 -0.3590
 4963SOL    HW126522   4.341   2.260   7.007  0.6712  0.5979 -0.5806
 4963SOL    HW226523   4.191   2.268   7.011  1.2096  0.7024 -0.0149
 4964SOL     OW26524   1.764   4.616   2.811 -0.3683 -0.2780 -0.4071
 4964SOL    HW126525   1.697   4.601   2.744  0.5764 -0.1705 -1.3838
 4964SOL    HW226526   1.819   4.539   2.804  0.0214 -0.0377  0.0221
 4965SOL     OW26527   2.172   2.276   8.996  0.4785  0.2131 -0.0552
 4965SOL    HW126528   2.218   2.193   8.985  1.7584  0.8659  0.3398
 4965SOL    HW226529   2.085   2.240   9.014  0.6207  1.0767  2.3563
 4966SOL     OW26530   1.920   4.372  16.624 -0.9295 -0.1641  0.2833
 4966SOL    HW126531   1.906   4.465  16.645  2.8261  0.9778 -2.1833
 4966SOL    HW226532   1.923   4.386  16.529 -3.1233  2.9467  0.6700
 4967SOL     OW26533   4.203   1.850   2.241  0.3172 -0.9293 -0.4127
 4967SOL    HW126534   4.205   1.770   2.293 -0.2723 -0.2101  0.7137
 4967SOL    HW226535   4.238   1.818   2.158  0.0772  1.1340 -1.2946
 4968SOL     OW26536   4.457   2.285   1.230  0.2013 -0.1104 -0.2747
 4968SOL    HW126537   4.535   2.259   1.279 -1.1215 -1.9779  0.8162
 4968SOL    HW226538   4.499   2.343   1.167  0.3253 -1.4189 -1.4003
 4969SOL     OW26539   3.113   4.454   7.853  0.0010 -0.7260  0.2460
 4969SOL    HW126540   3.030   4.465   7.808 -0.9986 -1.8086  1.8092
 4969SOL    HW226541   3.094   4.500   7.935 -0.4885  0.7283 -0.6761
 4970SOL     OW26542   4.479   3.897  15.253  0.4911 -0.0426  0.0759
 4970SOL    HW126543   4.391   3.862  15.265 -0.0906  0.4122 -2.8752
 4970SOL    HW226544   4.522   3.819  15.217  0.4659 -0.2306  0.4499
 4971SOL     OW26545   1.179   4.466   3.773  1.0963 -0.1309 -0.2093
 4971SOL    HW126546   1.230   4.404   3.720 -0.0538 -0.8284 -0.5144
 4971SOL    HW226547   1.092   4.445   3.738  0.8463  1.2559 -0.3841
 4972SOL     OW26548   0.894   4.164   6.400  0.0794 -0.2022 -0.2037
 4972SOL    HW126549   0.907   4.072   6.376  0.6005 -0.3916  0.8192
 4972SOL    HW226550   0.813   4.194   6.358 -0.3239 -1.2662 -0.1954
 4973SOL     OW26551   3.475   1.391  13.599 -0.7878  0.2415 -0.7406
 4973SOL    HW126552   3.484   1.445  13.677 -0.8276 -1.8647  0.6961
 4973SOL    HW226553   3.430   1.310  13.621 -1.4287  1.1147  1.1113
 4974SOL     OW26554   2.441   0.908   1.659 -0.1873 -0.3416  0.0458
 4974SOL    HW126555   2.493   0.880   1.735 -2.2317 -0.3702  1.4272
 4974SOL    HW226556   2.399   0.983   1.700 -0.6983  0.2086 -1.4772
 4975SOL     OW26557   2.757   2.011   3.281  0.5731 -0.2629  0.6532
 4975SOL    HW126558   2.751   1.936   3.222 -1.5007 -0.8850  1.6707
 4975SOL    HW226559   2.707   2.072   3.227  0.3388 -0.5548  0.5429
 4976SOL     OW26560   2.689   2.818  17.302 -0.2079  0.0058  0.1056
 4976SOL    HW126561   2.680   2.867  17.220 -4.5747  1.3282  1.4255
 4976SOL    HW226562   2.777   2.792  17.275 -0.3923  1.1842 -1.6327
 4977SOL     OW26563   1.006   3.969   2.579 -0.1280 -0.1234  0.4148
 4977SOL    HW126564   0.991   3.944   2.670  0.6336 -1.3633  0.1912
 4977SOL    HW226565   0.983   4.062   2.587  0.4964  0.0549  0.1003
 4978SOL     OW26566   2.731   3.977   1.619 -0.0552  0.5544 -0.0357
 4978SOL    HW126567   2.665   3.913   1.593  0.6781 -1.0030  1.9532
 4978SOL    HW226568   2.710   3.978   1.712 -1.3495  1.3692 -0.3430
 4979SOL     OW26569   2.557   4.006   1.844 -0.2962 -0.1988  0.6109
 4979SOL    HW126570   2.470   3.966   1.849 -0.6843  0.4164 -1.2753
 4979SOL    HW226571   2.611   3.958   1.907  1.4756  0.0208 -0.7608
 4980SOL     OW26572   2.662   0.342  13.121 -0.1625 -0.0853 -0.6353
 4980SOL    HW126573   2.650   0.366  13.029  4.2912 -0.6915 -1.3268
 4980SOL    HW226574   2.731   0.402  13.150 -1.1125  0.8308 -0.2601
 4981SOL     OW26575   4.578   4.243   5.561 -0.7896 -0.1314 -0.2049
 4981SOL    HW126576   4.539   4.280   5.482  1.3806 -1.1144 -1.7578
 4981SOL    HW226577   4.666   4.235   5.524 -0.3667  1.0102  0.5277
 4982SOL     OW26578   1.022   4.467  10.593 -0.6038  0.0458  0.1838
 4982SOL    HW126579   0.981   4.516  10.522 -1.4835 -0.4299  0.3580
 4982SOL    HW226580   1.112   4.499  10.597  0.1983 -2.1674 -0.3222
 4983SOL     OW26581   3.223   4.456   0.759 -0.3499 -0.3340  0.0242
 4983SOL    HW126582   3.132   4.430   0.748 -0.1837 -0.7872 -0.2969
 4983SOL    HW226583   3.268   4.372   0.744 -0.8808 -0.2712 -1.8673
 4984SOL     OW26584   1.603   1.137   4.432  0.3806  0.0730  0.4021
 4984SOL    HW126585   1.628   1.054   4.473  2.2596  0.6921  0.5124
 4984SOL    HW226586   1.559   1.179   4.505 -0.8862 -1.7318  0.6679
 4985SOL     OW26587   4.400   3.649   6.232  0.4346 -0.0376  0.0497
 4985SOL    HW126588   4.323   3.591   6.235 -0.6428  1.4502  1.4843
 4985SOL    HW226589   4.357   3.735   6.226  0.4449 -0.3313 -3.9831
 4986SOL     OW26590   0.193   4.319  13.338  0.0377  0.4894 -0.3442
 4986SOL    HW126591   0.239   4.337  13.420 -2.1723 -0.6805  1.1471
 4986SOL    HW226592   0.184   4.406  13.299 -0.5724  0.1488 -0.9520
 4987SOL     OW26593   3.666   2.452   7.743 -0.1640 -0.0660 -1.2605
 4987SOL    HW126594   3.638   2.363   7.720 -1.2197 -0.2851  0.9242
 4987SOL    HW226595   3.620   2.459   7.827  1.6464  2.4341 -0.4856
 4988SOL     OW26596   0.346   1.557   6.333 -0.4607  0.3190 -0.0515
 4988SOL    HW126597   0.314   1.580   6.245 -1.2448  3.0193  0.9686
 4988SOL    HW226598   0.267   1.542   6.384  0.0555 -0.7319  0.4268
 4989SOL     OW26599   1.493   2.860   2.526 -0.5057 -0.0451  0.0923
 4989SOL    HW126600   1.474   2.953   2.515 -2.9720 -0.4277  1.0556
 4989SOL    HW226601   1.405   2.822   2.533 -0.6647  0.0699 -1.2672
 4990SOL     OW26602   0.941   3.572  11.307  0.1051  0.7044  0.1171
 4990SOL    HW126603   0.973   3.538  11.391 -0.0103 -0.3888 -0.2819
 4990SOL    HW226604   0.979   3.659  11.314 -1.0182  1.3344 -1.5531
 4991SOL     OW26605   2.844   0.516   2.520  0.1776  0.2456 -0.8146
 4991SOL    HW126606   2.911   0.551   2.460  1.6234 -0.5746  0.3256
 4991SOL    HW226607   2.786   0.467   2.462 -0.1678 -2.5968  1.9382
 4992SOL     OW26608   1.985   2.951   2.300  0.3311 -0.3095  0.2543
 4992SOL    HW126609   1.925   3.024   2.315 -0.4177  0.0424 -4.4615
 4992SOL    HW226610   2.000   2.936   2.394  0.2616  1.3067  0.5223
 4993SOL     OW26611   2.548   2.719   4.772  0.0959 -0.5207  0.2923
 4993SOL    HW126612   2.458   2.751   4.767  0.2576 -0.1528 -0.2844
 4993SOL    HW226613   2.578   2.773   4.845 -3.3313  0.7885  0.7189
 4994SOL     OW26614   3.255   0.374   3.703 -0.2590 -0.3977 -0.2770
 4994SOL    HW126615   3.302   0.426   3.639 -1.0938  1.2648  0.4491
 4994SOL    HW226616   3.312   0.393   3.778  0.2772 -2.0190 -0.2801
 4995SOL     OW26617   1.702   4.536   9.579 -0.0214  0.1471  0.2894
 4995SOL    HW126618   1.791   4.547   9.613  1.2479 -1.6577 -2.3372
 4995SOL    HW226619   1.720   4.531   9.485  2.9160 -0.8692  0.8968
 4996SOL     OW26620   1.096   1.213   5.611  0.3094 -0.0446  0.1992
 4996SOL    HW126621   1.043   1.150   5.660  1.2571 -1.1714 -0.2176
 4996SOL    HW226622   1.036   1.230   5.538 -0.2009  0.2932  0.6923
 4997SOL     OW26623   2.319   3.557   8.136  0.9088 -0.3313  0.2541
 4997SOL    HW126624   2.389   3.570   8.072 -0.7894 -1.5272 -1.8293
 4997SOL    HW226625   2.287   3.471   8.111  3.7671 -1.6623  1.2681
 4998SOL     OW26626   4.046   3.799   0.443 -0.6113 -0.7192  0.2558
 4998SOL    HW126627   4.120   3.773   0.388 -0.3101 -0.6137  0.6063
 4998SOL    HW226628   4.094   3.853   0.506 -0.9072  0.5384 -0.5835
 4999SOL     OW26629   2.995   1.052   7.582 -0.5326 -0.2356  0.2867
 4999SOL    HW126630   2.950   0.975   7.617  1.4817 -0.2924  2.7270
 4999SOL    HW226631   3.077   1.061   7.630 -0.0821  1.1150 -0.7406
 5000SOL     OW26632   0.049   4.329   3.808  0.2402  0.2354  0.7694
 5000SOL    HW126633   0.101   4.404   3.781  1.2969 -0.9963 -0.6305
 5000SOL    HW226634   4.711   4.373   3.850 -1.0230  0.0175 -1.2496
 5001SOL     OW26635   2.291   4.463   2.127  0.1335  0.7683  0.4952
 5001SOL    HW126636   2.228   4.391   2.132  0.8425  0.0837 -0.5684
 5001SOL    HW226637   2.262   4.505   2.046  1.2168  2.0702  0.7668
 5002SOL     OW26638   0.948   4.412   2.226  0.0843  0.4683 -0.1313
 5002SOL    HW126639   1.038   4.440   2.242  0.5501 -0.2394 -1.5837
 5002SOL    HW226640   0.910   4.500   2.221 -0.9182  0.0041 -0.5356
 5003SOL     OW26641   1.081   4.481   8.404  0.0866  0.0473  0.5780
 5003SOL    HW126642   1.038   4.397   8.419 -0.2868  0.1335 -0.0087
 5003SOL    HW226643   1.156   4.471   8.463 -0.7599  2.0570  1.9800
 5004SOL     OW26644   3.541   1.351  17.617 -0.5150 -0.5867 -0.0769
 5004SOL    HW126645   3.593   1.292  17.563 -0.1158 -1.0699  0.8320
 5004SOL    HW226646   3.474   1.390  17.561  1.5570 -0.3863 -2.4110
 5005SOL     OW26647   0.262   1.674  12.707 -0.1519 -0.0871  0.3116
 5005SOL    HW126648   0.265   1.627  12.791 -0.6597 -1.3499 -0.3703
 5005SOL    HW226649   0.168   1.685  12.700  0.0805  1.6789  0.0099
 5006SOL     OW26650   1.327   1.521   1.985 -0.3888  0.4405  0.5026
 5006SOL    HW126651   1.235   1.547   1.994 -0.5037  0.3090 -0.2725
 5006SOL    HW226652   1.310   1.443   1.932 -1.4684  1.5546 -0.7779
 5007SOL     OW26653   3.604   4.393   0.011 -0.1370  0.3128  0.1798
 5007SOL    HW126654   3.592   4.487   0.025  2.1519  0.5139  0.9303
 5007SOL    HW226655   3.681   4.373   0.065  0.1826  0.5809 -0.1784
 5008SOL     OW26656   0.467   0.759  16.485 -0.2847 -0.2498  0.4153
 5008SOL    HW126657   0.514   0.805  16.556 -1.2138  0.0156  0.8566
 5008SOL    HW226658   0.413   0.828  16.446 -1.5478 -1.3781  0.1906
 5009SOL     OW26659   0.640   4.302   3.282  0.0231 -0.3883  0.1210
 5009SOL    HW126660   0.597   4.363   3.222 -2.1793 -0.7297  1.3779
 5009SOL    HW226661   0.729   4.315   3.248  0.6909  1.1690  2.4113
 5010SOL     OW26662   1.648   4.047   7.904  0.3222  0.3776 -0.6397
 5010SOL    HW126663   1.719   4.079   7.848 -0.4451  2.0907 -0.6558
 5010SOL    HW226664   1.691   4.046   7.989  1.7762  0.5669 -1.3699
 5011SOL     OW26665   0.605   4.260   1.836  0.5622 -0.4342 -0.5096
 5011SOL    HW126666   0.630   4.179   1.791 -0.4468 -1.0378  0.0191
 5011SOL    HW226667   0.566   4.306   1.762  0.5266 -0.7426 -0.6860
 5012SOL     OW26668   3.769   3.110   3.449  0.2829 -0.3900 -0.0660
 5012SOL    HW126669   3.779   3.055   3.371 -2.0483  0.2750 -0.8200
 5012SOL    HW226670   3.734   3.048   3.512 -2.1077 -0.4655 -1.4585
 5013SOL     OW26671   4.599   0.460   2.720 -0.1510  0.1597 -0.0260
 5013SOL    HW126672   4.549   0.441   2.640 -0.5458  0.2321  0.2048
 5013SOL    HW226673   4.603   0.369   2.749 -0.1635  0.6377  1.4863
 5014SOL     OW26674   3.781   0.367  11.870 -0.3564 -0.5700 -0.1514
 5014SOL    HW126675   3.843   0.349  11.799  0.1984 -0.3066  0.2606
 5014SOL    HW226676   3.710   0.309  11.842 -0.5645 -0.3042 -0.1666
 5015SOL     OW26677   0.382   4.306   2.440 -0.0718 -0.0596 -0.8518
 5015SOL    HW126678   0.333   4.376   2.397 -0.8376 -0.7759 -1.1516
 5015SOL    HW226679   0.308   4.255   2.473 -1.4517  1.5573 -1.4740
 5016SOL     OW26680   2.005   1.679   7.688  0.2313 -0.5172 -0.2371
 5016SOL    HW126681   1.923   1.639   7.714  1.1004 -1.0177  1.7187
 5016SOL    HW226682   1.975   1.743   7.623  1.0898 -2.1612 -2.2826
 5017SOL     OW26683   0.866   3.516   2.673  0.5849  0.1677 -0.4399
 5017SOL    HW126684   0.950   3.494   2.633 -0.2394 -1.1377 -1.4409
 5017SOL    HW226685   0.838   3.434   2.714  1.1995 -0.3703 -1.0992
 5018SOL     OW26686   4.609   1.760   4.949 -0.5019  0.2505 -0.5205
 5018SOL    HW126687   4.611   1.849   4.985  0.3057 -0.4015  1.0480
 5018SOL    HW226688   4.671   1.764   4.877 -1.0717  0.6035 -0.9971
 5019SOL     OW26689   0.818   1.042   0.097 -0.2737 -0.3604 -0.2024
 5019SOL    HW126690   0.751   1.081   0.042 -1.3943 -1.5926  0.2593
 5019SOL    HW226691   0.844   0.964   0.047  1.5816 -0.1115  0.3735
 5020SOL     OW26692   3.165   2.114  12.112 -0.4694 -0.3787  0.4516
 5020SOL    HW126693   3.095   2.158  12.159 -1.6080 -0.1013 -1.4989
 5020SOL    HW226694   3.233   2.097  12.176 -0.1842  0.8172  0.4648
 5021SOL     OW26695   0.140   2.651   8.853  0.0246 -0.9216  0.2590
 5021SOL    HW126696   0.100   2.669   8.938  0.4712 -0.0610  0.2942
 5021SOL    HW226697   0.129   2.737   8.811 -1.2188 -0.7174  0.9969
 5022SOL     OW26698   3.381   0.647   8.964 -0.4189  0.5016  0.3277
 5022SOL    HW126699   3.465   0.615   8.934 -1.1955 -3.6763  2.6573
 5022SOL    HW226700   3.386   0.631   9.058 -0.4487 -1.7735 -0.0581
 5023SOL     OW26701   4.472   0.003   3.563 -0.2476  0.2408  0.0951
 5023SOL    HW126702   4.502   0.042   3.480  0.0856 -1.1766 -0.4484
 5023SOL    HW226703   4.541   0.032   3.623 -0.9446 -0.4241  1.2136
 5024SOL     OW26704   4.397   4.297  15.845 -0.0578 -0.1096  0.0136
 5024SOL    HW126705   4.421   4.346  15.923  2.0782 -0.6972 -0.2465
 5024SOL    HW226706   4.442   4.214  15.864 -0.9819 -0.4873  0.5063
 5025SOL     OW26707   0.570   1.975  16.765  0.1642  0.3457 -0.4622
 5025SOL    HW126708   0.514   1.904  16.798 -0.4358  0.0787 -2.0856
 5025SOL    HW226709   0.515   2.002  16.692 -0.4903  1.0063  0.2838
 5026SOL     OW26710   2.052   3.447  17.372 -0.4312 -0.2731  0.1953
 5026SOL    HW126711   2.092   3.499  17.441  0.8567 -1.2806  0.2116
 5026SOL    HW226712   2.126   3.419  17.319 -1.4447  1.4674 -2.1601
 5027SOL     OW26713   4.680   2.188   5.725 -0.5025  0.1053 -0.2084
 5027SOL    HW126714   0.035   2.180   5.700 -0.2670  1.2556  0.2966
 5027SOL    HW226715   4.677   2.229   5.812  0.9314  1.1707 -0.6728
 5028SOL     OW26716   3.040   3.831   8.235  0.2693 -0.1092 -0.1117
 5028SOL    HW126717   3.015   3.893   8.166 -1.5435  0.2800  0.8662
 5028SOL    HW226718   3.013   3.753   8.187  0.1957  0.7655 -1.4954
 5029SOL     OW26719   2.057   0.490   9.015 -0.4836  0.0846  0.2215
 5029SOL    HW126720   2.008   0.570   9.033 -0.2508  0.6249 -1.5784
 5029SOL    HW226721   1.982   0.437   8.989 -1.2144  0.0106  2.5106
 5030SOL     OW26722   4.198   3.595   6.447  0.2583 -0.2766  0.9484
 5030SOL    HW126723   4.254   3.672   6.454 -0.8379  0.6112 -0.0544
 5030SOL    HW226724   4.174   3.580   6.538 -2.4120  1.0281  0.4540
 5031SOL     OW26725   2.164   1.179  16.335 -0.3502  0.2724  0.1847
 5031SOL    HW126726   2.109   1.182  16.413 -0.6374 -1.3157  0.0357
 5031SOL    HW226727   2.165   1.274  16.322  1.4286  0.4563  1.6574
 5032SOL     OW26728   3.624   3.399   3.933 -0.1444  0.4393 -0.1138
 5032SOL    HW126729   3.600   3.313   3.968 -3.1722  0.5834 -1.8613
 5032SOL    HW226730   3.711   3.412   3.972 -0.4147 -0.0920  0.6642
 5033SOL     OW26731   0.528   3.092   6.386  0.0498 -0.0214  0.2904
 5033SOL    HW126732   0.566   3.057   6.305  0.5680  2.0991 -0.3697
 5033SOL    HW226733   0.516   3.184   6.364  2.1040 -0.1924 -1.5444
 5034SOL     OW26734   4.413   2.686   8.130  0.0170  0.7860 -0.4563
 5034SOL    HW126735   4.330   2.706   8.171 -1.1991  0.3894 -2.7152
 5034SOL    HW226736   4.407   2.590   8.131  0.9782  0.7165 -1.1565
 5035SOL     OW26737   4.012   3.260   5.585 -0.7504  0.4069 -0.2103
 5035SOL    HW126738   4.040   3.184   5.636  0.7447  1.5023  0.5890
 5035SOL    HW226739   4.093   3.310   5.583  0.1131 -0.9250  1.4984
 5036SOL     OW26740   4.733   3.434  16.979 -0.2744 -0.0132  0.1593
 5036SOL    HW126741   4.695   3.438  17.067 -2.4310 -0.1124 -0.7726
 5036SOL    HW226742   4.702   3.510  16.931 -0.2940  0.3599  0.7628
 5037SOL     OW26743   1.870   0.623  11.558 -0.2028  0.1652 -0.0123
 5037SOL    HW126744   1.831   0.569  11.490 -0.0612  0.3717 -0.2571
 5037SOL    HW226745   1.914   0.562  11.618  0.8795 -0.7699 -1.7554
 5038SOL     OW26746   4.541   1.168   0.863 -0.1633 -0.6489 -0.0608
 5038SOL    HW126747   4.516   1.150   0.772  1.3652  0.0341 -0.6111
 5038SOL    HW226748   4.633   1.143   0.852  0.3352  1.5186 -0.8745
 5039SOL     OW26749   0.947   1.926   6.130  0.8127  0.2287  0.6302
 5039SOL    HW126750   0.945   1.836   6.162  2.7720  1.2666  3.6702
 5039SOL    HW226751   0.912   1.980   6.201  1.3498 -0.4099  1.3793
 5040SOL     OW26752   3.573   3.298   4.592  0.4874 -0.5490 -0.1813
 5040SOL    HW126753   3.546   3.266   4.505 -0.3061  0.7344 -0.4051
 5040SOL    HW226754   3.512   3.371   4.603  2.6319  1.1457  0.3055
 5041SOL     OW26755   4.189   1.554   2.690  0.1954  0.3528 -0.1220
 5041SOL    HW126756   4.200   1.556   2.785 -2.1860  1.6272  0.1378
 5041SOL    HW226757   4.136   1.633   2.677  1.2414  1.2853  1.3252
 5042SOL     OW26758   1.086   0.845   4.681 -0.1563 -0.2211 -0.1717
 5042SOL    HW126759   1.059   0.757   4.706  0.8829 -0.1399  1.2193
 5042SOL    HW226760   1.177   0.828   4.659 -0.4178  1.4886 -2.5592
 5043SOL     OW26761   3.582   3.757  16.212  0.4056 -0.2631 -0.1045
 5043SOL    HW126762   3.664   3.800  16.189  0.9176 -1.2594 -0.1475
 5043SOL    HW226763   3.598   3.741  16.305  3.7057 -0.1219 -0.6360
 5044SOL     OW26764   2.542   2.037   6.450  0.1015  0.7202  0.6040
 5044SOL    HW126765   2.455   2.012   6.480  0.1186  1.1769  1.0376
 5044SOL    HW226766   2.555   2.002   6.362  3.0665  0.2241  1.2198
 5045SOL     OW26767   0.188   1.389   6.957  0.7201  0.3115  0.3133
 5045SOL    HW126768   0.135   1.466   6.938  0.9708  0.3077 -0.4213
 5045SOL    HW226769   0.277   1.425   6.955  0.6612  0.2822 -2.7684
 5046SOL     OW26770   0.225   2.216  14.370 -0.1626  0.5455 -0.4042
 5046SOL    HW126771   0.203   2.263  14.450  2.8513  0.8394  0.2536
 5046SOL    HW226772   0.281   2.149  14.410  0.6814  1.0725 -0.7077
 5047SOL     OW26773   0.032   2.379   0.473 -0.3190  0.2644 -0.3987
 5047SOL    HW126774   0.122   2.360   0.444  0.2153  2.6296 -0.2694
 5047SOL    HW226775   4.721   2.373   0.390  0.2384 -0.6843 -0.6513
 5048SOL     OW26776   3.622   2.354   8.372 -0.0657  0.3187 -0.1501
 5048SOL    HW126777   3.619   2.341   8.466  0.0454  1.9257  0.0811
 5048SOL    HW226778   3.711   2.346   8.338  0.9798  1.8533  2.3158
 5049SOL     OW26779   4.192   3.075   1.837  0.6858 -0.2235 -0.2195
 5049SOL    HW126780   4.198   3.065   1.932  2.6853  1.2086 -0.2063
 5049SOL    HW226781   4.113   3.128   1.829  0.5625 -0.5765 -1.3194
 5050SOL     OW26782   2.569   1.317   1.932 -0.5058 -1.0677  0.6698
 5050SOL    HW126783   2.579   1.231   1.973 -3.3729 -1.4777  0.5173
 5050SOL    HW226784   2.477   1.329   1.954 -0.5183  0.8382 -0.4043
 5051SOL     OW26785   0.261   2.572  15.909  0.2360  0.4561  0.4890
 5051SOL    HW126786   0.245   2.654  15.956  1.5057 -0.7981  3.0636
 5051SOL    HW226787   0.267   2.600  15.817  1.3271 -0.1990  0.3525
 5052SOL     OW26788   3.797   0.859   0.691 -0.1199 -0.3596  0.0423
 5052SOL    HW126789   3.835   0.946   0.705 -1.9617  0.4074  0.2749
 5052SOL    HW226790   3.877   0.808   0.678  1.3702  1.3510  2.4523
 5053SOL     OW26791   1.935   3.402  15.186 -0.4043 -0.0843  0.4963
 5053SOL    HW126792   1.936   3.319  15.139 -3.0894 -0.1309  0.4852
 5053SOL    HW226793   1.904   3.377  15.273  1.5025  1.3051  1.5720
 5054SOL     OW26794   3.926   0.957   8.283 -0.9323 -0.2525  0.0172
 5054SOL    HW126795   3.844   0.955   8.233  0.0465  2.6903 -1.6875
 5054SOL    HW226796   3.972   1.036   8.254 -0.2858 -1.2475 -1.6737
 5055SOL     OW26797   3.035   4.067   3.405  0.5906 -0.5062  0.1594
 5055SOL    HW126798   3.110   4.051   3.463  1.9614  2.2234 -0.8784
 5055SOL    HW226799   3.054   4.158   3.384 -0.0465  0.0097  1.7735
 5056SOL     OW26800   0.318   0.470  11.819  0.1809  0.0468 -0.0780
 5056SOL    HW126801   0.361   0.555  11.810  1.1484 -0.4988 -0.6418
 5056SOL    HW226802   0.228   0.487  11.846 -0.3549 -0.3581 -1.5982
 5057SOL     OW26803   0.767   2.954   4.211  0.1682 -0.2011  0.2143
 5057SOL    HW126804   0.726   2.871   4.235 -0.5205  0.2860  0.6777
 5057SOL    HW226805   0.709   2.981   4.140 -0.1785 -0.6606  0.3280
 5058SOL     OW26806   2.281   3.886   4.621  0.0682 -0.0459 -0.1657
 5058SOL    HW126807   2.213   3.852   4.678  1.4825 -2.0083  0.3734
 5058SOL    HW226808   2.356   3.854   4.672 -0.4800  0.1027  0.7214
 5059SOL     OW26809   4.357   3.171   8.707  0.2074 -0.8587  0.6721
 5059SOL    HW126810   4.424   3.236   8.688  0.1565 -1.2905 -0.9457
 5059SOL    HW226811   4.318   3.168   8.620  0.3182 -0.1381  0.5933
 5060SOL     OW26812   3.819   1.461   0.899 -0.0938  0.1052  0.2556
 5060SOL    HW126813   3.803   1.430   0.810 -2.0201 -1.5681  1.1782
 5060SOL    HW226814   3.729   1.487   0.918 -0.0794 -0.1587  0.6933
 5061SOL     OW26815   3.128   2.129   2.870 -0.3089 -0.2845 -0.4692
 5061SOL    HW126816   3.070   2.192   2.828 -1.0699 -0.3563  0.4523
 5061SOL    HW226817   3.078   2.048   2.876 -0.1676 -0.2832  0.7401
 5062SOL     OW26818   4.444   2.419   5.261 -0.1436 -0.2897  0.2099
 5062SOL    HW126819   4.486   2.374   5.188  2.2311  1.5603  0.4729
 5062SOL    HW226820   4.502   2.400   5.335  0.3514 -2.4533 -0.7243
 5063SOL     OW26821   0.189   4.400   6.226 -0.4921  0.1683  0.2775
 5063SOL    HW126822   0.102   4.381   6.191  0.9079 -4.4701 -0.6963
 5063SOL    HW226823   0.231   4.458   6.162  0.3249  0.1459  0.7986
 5064SOL     OW26824   3.175   3.150   9.535  0.3079  0.2756 -1.0344
 5064SOL    HW126825   3.233   3.227   9.531  1.2448 -0.3698  0.0546
 5064SOL    HW226826   3.085   3.181   9.536  0.3177  0.3583 -2.9178
 5065SOL     OW26827   2.728   0.435   7.977  0.2880 -0.0487 -0.8003
 5065SOL    HW126828   2.731   0.471   8.066  0.1776 -0.3201 -0.6862
 5065SOL    HW226829   2.701   0.511   7.926  1.7455  0.7724 -0.3638
 5066SOL     OW26830   1.151   3.686   3.378 -0.1224 -0.2187 -0.2746
 5066SOL    HW126831   1.064   3.647   3.367 -0.4370  0.2173  0.7243
 5066SOL    HW226832   1.194   3.601   3.368 -0.3056 -0.1951 -1.2609
 5067SOL     OW26833   3.113   3.145  11.519 -0.1301  0.4538  0.0929
 5067SOL    HW126834   3.175   3.218  11.519  0.1998  0.1699  1.4835
 5067SOL    HW226835   3.151   3.084  11.456  0.1008 -0.4130  1.0744
 5068SOL     OW26836   3.845   0.310  16.813  0.2259 -0.3528 -0.1545
 5068SOL    HW126837   3.892   0.372  16.758 -1.3735 -1.1858 -2.4427
 5068SOL    HW226838   3.816   0.246  16.748 -1.2693  0.6184 -0.4467
 5069SOL     OW26839   4.354   3.358   6.951 -0.0714  0.2742  0.2992
 5069SOL    HW126840   4.329   3.322   6.866 -0.3688 -1.2223  1.0190
 5069SOL    HW226841   4.364   3.281   7.006  1.3958 -0.1661 -0.5813
 5070SOL     OW26842   3.975   3.817   7.734  0.2536 -0.1057 -0.1402
 5070SOL    HW126843   3.926   3.864   7.667  1.5986 -0.4301 -1.3463
 5070SOL    HW226844   4.041   3.878   7.767  0.8428 -1.9249  2.1425
 5071SOL     OW26845   3.278   0.758   9.435  0.3623 -0.7160 -0.1929
 5071SOL    HW126846   3.213   0.688   9.435  0.6370 -0.9729 -0.3277
 5071SOL    HW226847   3.227   0.828   9.394  1.9638 -0.0737 -1.0847
 5072SOL     OW26848   0.421   0.455  12.156 -0.2875 -0.3962  0.5702
 5072SOL    HW126849   0.488   0.389  12.139 -0.8366 -1.4325  2.5427
 5072SOL    HW226850   0.359   0.439  12.085  1.5003  0.6034 -1.2072
 5073SOL     OW26851   1.955   1.871   3.039  0.7408 -0.0399 -0.0357
 5073SOL    HW126852   2.009   1.945   3.011 -1.1007  0.2147 -2.9508
 5073SOL    HW226853   1.911   1.910   3.115  0.3161 -3.4108  1.4257
 5074SOL     OW26854   0.883   1.475   5.608  0.1851 -0.2206 -0.3855
 5074SOL    HW126855   0.873   1.459   5.702  0.0506 -0.5366 -0.4530
 5074SOL    HW226856   0.811   1.536   5.592  0.6346  0.3355 -0.2989
 5075SOL     OW26857   3.493   3.482  11.429  0.0195 -0.0797 -0.0572
 5075SOL    HW126858   3.533   3.568  11.422 -0.1064 -0.0429 -0.3445
 5075SOL    HW226859   3.470   3.464  11.338 -0.3370 -0.5098  0.1099
 5076SOL     OW26860   3.061   3.384   2.105  0.1411  0.3660 -0.4534
 5076SOL    HW126861   3.036   3.292   2.107 -3.0158  1.2275 -0.4195
 5076SOL    HW226862   3.122   3.377   2.032 -0.5588  2.5269 -1.2413
 5077SOL     OW26863   3.271   3.454   6.916  0.0477  0.1802  0.2190
 5077SOL    HW126864   3.359   3.457   6.880 -1.3848  0.5478 -3.2467
 5077SOL    HW226865   3.222   3.486   6.840  0.8991  0.0213 -0.3942
 5078SOL     OW26866   4.440   1.031   5.191 -0.3771  0.2865  0.4631
 5078SOL    HW126867   4.497   1.009   5.117 -1.6461  1.5222 -0.8781
 5078SOL    HW226868   4.439   1.125   5.177  1.0610 -0.2532 -3.0653
 5079SOL     OW26869   3.373   0.181  12.982 -0.2744 -0.2893  0.3874
 5079SOL    HW126870   3.370   0.246  12.913  1.0603 -0.1116  0.4876
 5079SOL    HW226871   3.462   0.190  13.016 -1.9230  1.5113  4.2279
 5080SOL     OW26872   3.427   2.745   9.286  0.7317 -0.1628 -0.1110
 5080SOL    HW126873   3.439   2.837   9.265 -1.1610  0.5774  2.0308
 5080SOL    HW226874   3.469   2.734   9.371  0.8165 -0.6972 -0.2174
 5081SOL     OW26875   3.492   1.328   7.996  0.2433  0.4295 -0.1573
 5081SOL    HW126876   3.441   1.280   7.931 -0.2090 -2.3977  2.2973
 5081SOL    HW226877   3.467   1.421   7.990  0.4909  0.4009 -1.8271
 5082SOL     OW26878   2.290   2.425   0.068  0.1609 -0.3922  0.2016
 5082SOL    HW126879   2.201   2.458   0.058 -0.4965 -1.5075  2.5125
 5082SOL    HW226880   2.341   2.488   0.016 -1.5545 -0.5641 -1.6890
 5083SOL     OW26881   1.198   0.243   4.296 -0.3330 -0.6406 -0.2606
 5083SOL    HW126882   1.202   0.338   4.302  0.9949 -0.7530  0.6498
 5083SOL    HW226883   1.106   0.227   4.317 -0.1829 -3.6262 -1.8555
 5084SOL     OW26884   3.547   4.672   5.473 -1.1043 -0.2668 -0.2577
 5084SOL    HW126885   3.597   4.730   5.415 -1.3911  1.7310  1.4970
 5084SOL    HW226886   3.609   4.664   5.546 -0.7165 -0.3047 -0.5874
 5085SOL     OW26887   1.802   1.680   1.661  0.1104  1.1532  0.1865
 5085SOL    HW126888   1.764   1.705   1.745 -1.0875 -2.4779  0.7150
 5085SOL    HW226889   1.873   1.622   1.689 -1.1253  0.6075  2.1736
 5086SOL     OW26890   0.978   0.696  11.577  0.7228 -0.6120  0.5329
 5086SOL    HW126891   0.913   0.657  11.635 -0.9477  1.4343  0.0201
 5086SOL    HW226892   0.964   0.787  11.602  0.9845  0.2868 -2.6541
 5087SOL     OW26893   4.236   1.381   1.247  0.3658 -0.2443 -0.1582
 5087SOL    HW126894   4.303   1.361   1.182  1.4789  1.7924  0.3642
 5087SOL    HW226895   4.158   1.360   1.196 -0.4794 -0.1472  1.1020
 5088SOL     OW26896   2.276   0.284  17.486  0.5022 -0.3059  0.6005
 5088SOL    HW126897   2.338   0.346  17.525 -0.0835  0.4591  0.3044
 5088SOL    HW226898   2.299   0.208  17.540  0.7073  0.5928  1.7837
 5089SOL     OW26899   3.268   0.376   6.648 -0.1720 -0.1495 -0.1311
 5089SOL    HW126900   3.361   0.355   6.635  0.1155  1.3343 -0.4838
 5089SOL    HW226901   3.263   0.432   6.726 -1.4438  0.0244 -0.3433
 5090SOL     OW26902   2.998   2.308   5.358  0.0783 -0.3364 -0.2039
 5090SOL    HW126903   2.988   2.297   5.453 -0.9327  1.4952 -0.1119
 5090SOL    HW226904   3.040   2.223   5.340 -1.7738 -0.9251 -1.7428
 5091SOL     OW26905   3.950   4.688   7.367  0.0841 -0.6715  0.5787
 5091SOL    HW126906   4.042   4.665   7.370  0.1554 -0.3314  0.9977
 5091SOL    HW226907   3.930   4.696   7.274 -0.3647  2.4794  0.9406
 5092SOL     OW26908   1.702   1.399   4.574  0.1542  0.0276 -0.6244
 5092SOL    HW126909   1.697   1.304   4.587  2.5436  0.3364  2.4564
 5092SOL    HW226910   1.769   1.410   4.507 -0.7598  3.1182 -1.0536
 5093SOL     OW26911   1.272   1.880   6.627 -0.2295  0.6595  0.2436
 5093SOL    HW126912   1.309   1.847   6.545 -0.8937  1.3236 -0.3348
 5093SOL    HW226913   1.189   1.905   6.585  0.1830  0.9877 -0.3845
 5094SOL     OW26914   0.370   1.784   2.320 -0.0816 -0.7657  0.1229
 5094SOL    HW126915   0.465   1.770   2.311  0.1471  2.1454 -2.0585
 5094SOL    HW226916   0.347   1.793   2.227  1.2477 -0.3423 -0.1754
 5095SOL     OW26917   0.369   0.156   5.295 -0.8311 -0.2831 -0.1495
 5095SOL    HW126918   0.453   0.186   5.328 -0.9341 -0.0725 -0.0749
 5095SOL    HW226919   0.306   0.153   5.368 -0.8766  0.6466 -0.1500
 5096SOL     OW26920   0.317   3.894  13.249 -0.1437 -0.2927 -0.0107
 5096SOL    HW126921   0.277   3.819  13.292 -1.0758 -0.6529 -1.5294
 5096SOL    HW226922   0.277   3.905  13.164  0.6765  2.2153 -0.0755
 5097SOL     OW26923   4.669   1.760   2.722  0.3139  0.1536 -0.6391
 5097SOL    HW126924   4.575   1.741   2.727  0.2777  0.0264 -1.7265
 5097SOL    HW226925   4.704   1.684   2.768 -0.6685  1.0327  1.5516
 5098SOL     OW26926   0.169   3.545   2.337 -0.0440 -0.0940  0.0603
 5098SOL    HW126927   0.181   3.639   2.352  1.2290 -0.3798  0.8625
 5098SOL    HW226928   0.093   3.537   2.280 -0.9509  0.8468  1.1605
 5099SOL     OW26929   4.508   3.636   9.309  0.4446 -0.3888  0.3558
 5099SOL    HW126930   4.595   3.609   9.280  0.4855 -0.7818  0.8548
 5099SOL    HW226931   4.504   3.577   9.384 -1.9986 -0.7132 -0.0464
 5100SOL     OW26932   4.588   3.204  17.248 -0.3955 -0.7456 -0.3226
 5100SOL    HW126933   4.510   3.255  17.269  0.9556  2.1255 -2.3570
 5100SOL    HW226934   4.651   3.274  17.264 -0.1685 -0.8864 -0.6062
 5101SOL     OW26935   2.210   0.476   5.001 -0.3869  0.2188  0.1485
 5101SOL    HW126936   2.187   0.523   4.921  0.6784  1.0176  0.3081
 5101SOL    HW226937   2.229   0.553   5.055 -2.4096  1.2213 -0.5339
 5102SOL     OW26938   2.275   1.296  13.001  0.1833 -0.1371 -0.0698
 5102SOL    HW126939   2.347   1.239  13.028  0.8949  1.6182  1.7903
 5102SOL    HW226940   2.317   1.377  13.031  0.2383 -0.1657 -0.0688
 5103SOL     OW26941   0.437   2.841   8.551 -0.3091  0.3410 -0.5402
 5103SOL    HW126942   0.459   2.749   8.568 -0.7330  0.7452  2.1613
 5103SOL    HW226943   0.455   2.883   8.635  1.0832 -2.5499  0.6362
 5104SOL     OW26944   2.477   4.618   9.317  0.7272 -0.5123  0.2686
 5104SOL    HW126945   2.468   4.589   9.408  2.3861  0.3887  0.7137
 5104SOL    HW226946   2.564   4.585   9.293  1.1809  2.4982 -2.2894
 5105SOL     OW26947   1.614   3.315   5.663  0.1023  0.2942  0.1923
 5105SOL    HW126948   1.677   3.321   5.591  0.6257  1.6433  0.7542
 5105SOL    HW226949   1.579   3.404   5.662  0.2807  0.3623  0.1311
 5106SOL     OW26950   3.127   0.925   6.384 -0.1943 -0.1357 -0.3791
 5106SOL    HW126951   3.145   0.833   6.406 -0.1808  0.3805  1.7155
 5106SOL    HW226952   3.142   0.967   6.469 -1.8694 -0.1672 -0.0656
 5107SOL     OW26953   3.113   2.566   7.093  0.4742  0.1315 -0.4860
 5107SOL    HW126954   3.172   2.639   7.074  1.1790 -0.9941 -2.5939
 5107SOL    HW226955   3.053   2.572   7.018 -1.0277  1.0192  0.7913
 5108SOL     OW26956   1.029   3.452  14.362  0.2546  0.0234 -0.1927
 5108SOL    HW126957   0.983   3.410  14.290 -1.2982  0.8423  0.3246
 5108SOL    HW226958   1.052   3.536  14.322  1.1312  0.3829  1.0706
 5109SOL     OW26959   4.540   0.712   5.881  0.2800  0.0868  0.3059
 5109SOL    HW126960   4.531   0.721   5.976  2.1239 -0.8763  0.5700
 5109SOL    HW226961   4.502   0.794   5.850  1.4024  0.2160 -0.7115
 5110SOL     OW26962   1.778   2.839   2.060  0.5377  0.0388  0.4607
 5110SOL    HW126963   1.785   2.746   2.083  1.8120  0.4736  1.8035
 5110SOL    HW226964   1.735   2.871   2.139 -0.3780 -0.8964  0.3488
 5111SOL     OW26965   2.979   0.561   8.970  0.0344 -0.3935  0.4517
 5111SOL    HW126966   2.941   0.561   8.882  0.6195  0.9827  0.1994
 5111SOL    HW226967   3.066   0.535   8.941  1.8836  2.7140  3.2099
 5112SOL     OW26968   2.321   2.991   6.162 -0.1858 -0.2120 -0.3858
 5112SOL    HW126969   2.359   3.055   6.100  1.1134  0.1092  0.7418
 5112SOL    HW226970   2.390   2.985   6.227  1.6787  0.7553 -2.2628
 5113SOL     OW26971   3.174   0.666   3.579  0.0743 -0.1373  0.2925
 5113SOL    HW126972   3.236   0.738   3.594 -1.4756  1.6882 -2.2359
 5113SOL    HW226973   3.224   0.590   3.551 -2.0177 -1.2094 -0.5196
 5114SOL     OW26974   1.503   0.972  17.676  0.8253  0.1443 -0.5118
 5114SOL    HW126975   1.522   0.883  17.703  1.1350  0.7756  1.3190
 5114SOL    HW226976   1.479   0.948  17.586  0.6775  0.6691 -0.6134
 5115SOL     OW26977   3.570   2.392  14.834 -0.5679 -0.2075 -0.3348
 5115SOL    HW126978   3.625   2.386  14.756 -0.5433 -0.4190 -0.2994
 5115SOL    HW226979   3.621   2.455  14.885 -0.8472 -2.2320  2.4680
 5116SOL     OW26980   0.935   3.009   9.859  0.1018  0.1104 -0.4980
 5116SOL    HW126981   1.014   2.962   9.832 -0.3706 -1.4690  0.8879
 5116SOL    HW226982   0.872   2.939   9.846  2.1439 -1.5801 -1.3400
 5117SOL     OW26983   0.741   0.685  12.040 -0.7224 -0.4681 -0.3969
 5117SOL    HW126984   0.762   0.744  12.112 -1.3213  0.3848 -0.9246
 5117SOL    HW226985   0.649   0.706  12.023 -0.7309  1.0427  1.5196
 5118SOL     OW26986   0.037   4.422   6.828 -0.4104  0.2077  0.0569
 5118SOL    HW126987   0.023   4.333   6.797 -1.1459  0.7262 -1.1343
 5118SOL    HW226988   4.685   4.459   6.818 -0.5803  0.2082  1.5976
 5119SOL     OW26989   0.162   3.978  16.495  0.3326  0.5218 -0.1558
 5119SOL    HW126990   0.201   4.049  16.546  0.9837 -0.6505  0.9744
 5119SOL    HW226991   0.188   3.898  16.540  0.0678 -0.3874 -1.6350
 5120SOL     OW26992   4.262   2.422   0.763  0.8374 -0.5601  0.6650
 5120SOL    HW126993   4.266   2.383   0.676 -1.5640  1.9404 -0.5906
 5120SOL    HW226994   4.168   2.441   0.766  0.8932 -0.3910  1.2731
 5121SOL     OW26995   3.497   1.582  16.930 -0.0757 -0.4743  0.4193
 5121SOL    HW126996   3.551   1.569  16.852 -1.7215 -1.4816 -0.5499
 5121SOL    HW226997   3.443   1.658  16.907 -0.7522 -1.7449 -2.1464
 5122SOL     OW26998   1.752   2.565  17.162  0.3280 -0.1511 -0.1981
 5122SOL    HW126999   1.847   2.560  17.164  0.2814 -0.8242  0.5532
 5122SOL    HW227000   1.725   2.487  17.114  4.2203 -0.9689 -1.0251
 5123SOL     OW27001   2.982   2.229   8.998 -0.0954  0.2184  0.0762
 5123SOL    HW127002   2.991   2.248   8.904 -0.1433 -0.4406 -0.0618
 5123SOL    HW227003   2.887   2.222   8.998 -0.0044 -1.0224 -0.6197
 5124SOL     OW27004   4.203   1.237   1.824 -0.3747 -0.3657  0.3192
 5124SOL    HW127005   4.175   1.194   1.743  0.7967 -2.1831  0.8867
 5124SOL    HW227006   4.129   1.211   1.878 -0.5876  2.2453  1.2890
 5125SOL     OW27007   2.560   0.432   4.177  0.4900  0.3121  0.2522
 5125SOL    HW127008   2.496   0.361   4.178 -0.8315  1.4971 -0.1519
 5125SOL    HW227009   2.516   0.492   4.237  1.7374  0.2649  1.2066
 5126SOL     OW27010   4.424   2.305   3.695 -0.0663 -0.4703 -0.1730
 5126SOL    HW127011   4.464   2.333   3.778 -2.5896 -0.5868  1.0827
 5126SOL    HW227012   4.341   2.351   3.700  0.4575  0.1230  2.9241
 5127SOL     OW27013   3.156   0.193  17.067 -0.1156 -0.7987  0.0279
 5127SOL    HW127014   3.197   0.107  17.078  2.0319 -0.0737 -2.2802
 5127SOL    HW227015   3.177   0.198  16.973  1.5418  0.3186  0.4568
 5128SOL     OW27016   1.584   4.344  12.092 -0.4389  0.3855  0.2030
 5128SOL    HW127017   1.512   4.346  12.155 -1.0297 -1.0905 -0.4183
 5128SOL    HW227018   1.548   4.284  12.026  1.8691 -0.0539 -0.6693
 5129SOL     OW27019   4.485   1.097   0.600  0.0137 -0.5703  0.4276
 5129SOL    HW127020   4.531   1.024   0.559  0.3367 -0.7487  1.1051
 5129SOL    HW227021   4.393   1.087   0.575  0.2465  0.7931 -0.9592
 5130SOL     OW27022   3.545   2.132   1.569  0.2376 -0.1366 -0.5951
 5130SOL    HW127023   3.562   2.038   1.578  1.6771 -0.0349 -2.3178
 5130SOL    HW227024   3.453   2.134   1.594  0.0527  1.9727 -1.4654
 5131SOL     OW27025   1.231   1.830   6.969 -0.1567  0.6116 -0.1195
 5131SOL    HW127026   1.194   1.861   7.051 -0.3178  1.1572 -0.4007
 5131SOL    HW227027   1.232   1.906   6.910  1.4775  0.4933 -0.2503
 5132SOL     OW27028   0.025   4.089  17.630 -0.1008  0.3747 -0.9677
 5132SOL    HW127029   4.712   4.164  17.596  1.8488  1.5219 -1.2466
 5132SOL    HW227030   0.112   4.115  17.599 -0.5848  2.0505 -0.9301
 5133SOL     OW27031   4.149   0.095  15.188  0.0461  0.0962  0.6035
 5133SOL    HW127032   4.160   0.043  15.108 -0.1457  0.2816  0.4563
 5133SOL    HW227033   4.241   0.117  15.200  0.5591 -0.7155 -1.8836
 5134SOL     OW27034   1.109   3.222   6.412  0.3816 -0.1053 -0.1655
 5134SOL    HW127035   1.110   3.294   6.474  1.3044 -0.6726  0.4730
 5134SOL    HW227036   1.095   3.273   6.332 -1.1465 -0.0925  0.1044
 5135SOL     OW27037   4.158   3.297  15.976  0.6534 -0.2538  0.2039
 5135SOL    HW127038   4.224   3.359  16.008 -1.2507  1.0683  1.5262
 5135SOL    HW227039   4.121   3.266  16.059 -2.0521 -1.0739 -1.2965
 5136SOL     OW27040   1.744   2.017  10.429 -0.3158  0.6198 -0.5825
 5136SOL    HW127041   1.795   2.097  10.432  0.1869  0.2570  0.4421
 5136SOL    HW227042   1.733   2.019  10.334 -0.5668  1.2211 -0.5395
 5137SOL     OW27043   4.526   2.029   9.821 -0.0974  0.3151  0.0085
 5137SOL    HW127044   4.519   2.067   9.909  0.3514 -0.2944  0.3118
 5137SOL    HW227045   4.620   2.010   9.825  0.2342  1.9833  0.0373
 5138SOL     OW27046   1.487   1.843   9.252 -0.6122 -0.2608 -0.5256
 5138SOL    HW127047   1.453   1.769   9.202  3.3644 -2.7530  0.4991
 5138SOL    HW227048   1.568   1.809   9.290 -1.4629  1.4162  2.9094
 5139SOL     OW27049   1.943   2.595   3.065  0.3091 -0.5712  0.2884
 5139SOL    HW127050   1.890   2.519   3.092 -2.3651  1.9091  2.0483
 5139SOL    HW227051   1.883   2.603   2.990  0.1391  0.2245  0.5103
 5140SOL     OW27052   3.799   2.131  10.888  0.4636  0.3152 -0.2549
 5140SOL    HW127053   3.724   2.191  10.898  0.3081  0.5270 -2.9261
 5140SOL    HW227054   3.805   2.134  10.793 -0.8437 -0.0137 -0.3425
 5141SOL     OW27055   1.694   0.301   7.308  0.0200 -0.3501  0.3568
 5141SOL    HW127056   1.600   0.319   7.317  0.0604 -0.5195  1.1461
 5141SOL    HW227057   1.692   0.265   7.220 -3.3306 -2.1107  1.1254
 5142SOL     OW27058   0.011   4.592   2.145 -0.3779  0.4990 -0.4309
 5142SOL    HW127059   0.023   4.533   2.071 -1.0207  0.5060 -0.5396
 5142SOL    HW227060   4.732   4.677   2.104  0.0071  1.3465  1.1767
 5143SOL     OW27061   1.823   1.484   5.330 -0.4411 -0.1171  0.2831
 5143SOL    HW127062   1.754   1.507   5.267 -0.5935 -0.2995  0.3857
 5143SOL    HW227063   1.900   1.465   5.275  0.2978  0.1816  1.2083
 5144SOL     OW27064   4.487   3.789  11.009  0.4851 -0.2173  0.1491
 5144SOL    HW127065   4.456   3.706  11.045 -0.1481 -0.2423 -0.4502
 5144SOL    HW227066   4.546   3.818  11.079 -0.2344 -0.6272  0.9256
 5145SOL     OW27067   3.583   4.466   6.024  0.3573  0.0001 -0.0011
 5145SOL    HW127068   3.492   4.491   6.010  1.1224  2.2258 -1.1010
 5145SOL    HW227069   3.625   4.552   6.015  0.8325 -0.4737 -2.3381
 5146SOL     OW27070   2.079   3.778   0.666  0.1692  0.4679 -0.3267
 5146SOL    HW127071   2.080   3.743   0.577 -0.2772  0.5460 -0.3632
 5146SOL    HW227072   2.107   3.870   0.659 -0.2224  0.6509  0.5708
 5147SOL     OW27073   3.913   2.328   5.175  0.5384 -0.7300  0.1685
 5147SOL    HW127074   3.967   2.249   5.174  1.0025 -0.3868 -0.9909
 5147SOL    HW227075   3.909   2.357   5.267 -1.2233  0.0625 -0.1534
 5148SOL     OW27076   0.309   1.235   2.762  0.2270 -0.6829 -0.3134
 5148SOL    HW127077   0.380   1.263   2.704 -1.6287  1.2673 -1.6581
 5148SOL    HW227078   0.265   1.318   2.782  1.1802  0.1698 -1.6828
 5149SOL     OW27079   4.111   3.296  17.465  0.0241  0.0278  0.3973
 5149SOL    HW127080   4.068   3.232  17.522 -1.0081  1.6868  1.4545
 5149SOL    HW227081   4.039   3.313  17.405  1.1992 -1.1111 -1.3634
 5150SOL     OW27082   1.753   0.103   4.937  0.0794 -0.6216 -0.1078
 5150SOL    HW127083   1.732   0.118   5.029  0.9142 -1.8292  0.2752
 5150SOL    HW227084   1.847   0.118   4.945 -0.0720  0.2698 -0.0050
 5151SOL     OW27085   3.951   2.811   4.096 -0.4310 -0.0773  0.0444
 5151SOL    HW127086   3.912   2.741   4.148  1.1444 -0.5960  0.5284
 5151SOL    HW227087   3.970   2.885   4.154 -1.1574  1.4593 -1.6662
 5152SOL     OW27088   1.524   4.084   7.120  0.6181  0.2110 -0.2891
 5152SOL    HW127089   1.575   4.151   7.075 -2.4649  0.8935 -2.7545
 5152SOL    HW227090   1.580   4.051   7.190 -1.4228 -2.5046  0.0689
 5153SOL     OW27091   0.216   4.341   5.215 -0.2360 -0.2232  0.3518
 5153SOL    HW127092   0.240   4.381   5.131 -1.3100  0.9518  0.5962
 5153SOL    HW227093   0.292   4.287   5.234 -0.5068 -1.3802 -1.8731
 5154SOL     OW27094   2.052   0.723   3.787 -0.3474 -0.0747 -0.1794
 5154SOL    HW127095   2.138   0.696   3.754 -2.3686 -0.4371 -5.1652
 5154SOL    HW227096   1.990   0.687   3.724 -0.7491 -0.7195  0.5982
 5155SOL     OW27097   3.535   3.183   7.873  0.3309 -0.1436 -0.0477
 5155SOL    HW127098   3.556   3.276   7.870  0.2948 -0.1004  1.1322
 5155SOL    HW227099   3.584   3.163   7.953 -0.7916 -0.8037  0.4743
 5156SOL     OW27100   2.621   3.946   8.050 -0.5760 -0.5914 -0.3054
 5156SOL    HW127101   2.570   3.992   8.117 -0.5766 -0.5126 -0.3601
 5156SOL    HW227102   2.601   4.012   7.985 -2.6556  1.1052  2.0293
 5157SOL     OW27103   2.201   3.775   6.115  0.4542 -0.1700  0.6361
 5157SOL    HW127104   2.160   3.818   6.189  0.9930  1.5647 -0.0773
 5157SOL    HW227105   2.217   3.856   6.066 -3.3998 -0.2406 -0.7660
 5158SOL     OW27106   2.005   3.378   3.191 -0.3618 -0.1271 -0.4984
 5158SOL    HW127107   2.033   3.293   3.226 -0.2274  0.7597  1.5307
 5158SOL    HW227108   1.968   3.435   3.259  0.1814 -1.5311  0.9879
 5159SOL     OW27109   2.012   2.737   7.412 -0.1196 -0.1135  0.5173
 5159SOL    HW127110   1.966   2.787   7.345 -0.4253  0.1150  0.8913
 5159SOL    HW227111   2.086   2.686   7.379  0.0463  0.1918  0.4186
 5160SOL     OW27112   2.680   3.490   4.003  0.1180 -0.2521  0.0116
 5160SOL    HW127113   2.760   3.436   4.000  0.0980 -0.2586 -0.4605
 5160SOL    HW227114   2.682   3.544   4.081  0.8033 -0.1190 -0.0946
 5161SOL     OW27115   0.191   0.491   5.882 -0.0741 -0.4438  0.1418
 5161SOL    HW127116   0.176   0.552   5.810 -1.2712  0.9249  1.5357
 5161SOL    HW227117   0.101   0.487   5.916 -0.3549 -2.0136 -0.7852
 5162SOL     OW27118   3.368   0.370   7.205  0.6127 -0.2096 -0.2683
 5162SOL    HW127119   3.419   0.335   7.132 -0.4270  0.2518 -1.2281
 5162SOL    HW227120   3.399   0.323   7.282 -2.8377 -3.8085 -1.0739
 5163SOL     OW27121   0.500   0.017   3.591 -0.0087 -0.7051 -0.6644
 5163SOL    HW127122   0.591   0.007   3.619  0.6294 -1.9739 -3.1786
 5163SOL    HW227123   0.479   4.660   3.583 -0.2204 -0.8579  1.6823
 5164SOL     OW27124   1.885   2.404  14.385 -0.4145  0.5177  0.1656
 5164SOL    HW127125   1.854   2.396  14.295  2.2275 -1.6487 -0.5482
 5164SOL    HW227126   1.953   2.338  14.395 -1.6291 -0.7661 -0.1214
 5165SOL     OW27127   0.295   2.060   2.984  0.3146  0.4003 -0.0544
 5165SOL    HW127128   0.214   2.027   2.946  0.0684  0.4583  0.4230
 5165SOL    HW227129   0.354   2.081   2.912  0.1135  2.6173  0.4273
 5166SOL     OW27130   3.503   1.113   7.786 -0.0514 -0.3734 -0.0929
 5166SOL    HW127131   3.454   1.122   7.704 -1.1403 -1.9511  0.3816
 5166SOL    HW227132   3.458   1.035   7.818  0.8365 -0.9130 -0.1499
 5167SOL     OW27133   2.991   3.988   1.713 -0.6853 -0.8369  0.1507
 5167SOL    HW127134   3.009   3.923   1.781  1.9970  0.3525  0.5742
 5167SOL    HW227135   2.897   3.981   1.696 -0.6361 -1.1171 -0.0170
 5168SOL     OW27136   4.167   4.146  16.269  0.0719  0.5722 -0.1232
 5168SOL    HW127137   4.092   4.152  16.209 -0.2999  1.8748  0.4801
 5168SOL    HW227138   4.144   4.069  16.321 -1.2309 -0.0294 -1.5924
 5169SOL     OW27139   0.876   1.778   2.198 -0.2563 -0.4545  0.0308
 5169SOL    HW127140   0.881   1.847   2.132  0.3744 -0.4453  0.0852
 5169SOL    HW227141   0.889   1.832   2.276 -0.3932  0.2642 -0.4354
 5170SOL     OW27142   3.902   0.396   1.268 -0.0945 -0.4192 -0.1400
 5170SOL    HW127143   3.860   0.443   1.195 -1.3906 -0.9054  0.3028
 5170SOL    HW227144   3.988   0.377   1.230  0.3616  1.5727 -0.0834
 5171SOL     OW27145   0.928   1.858  12.652  0.2859  0.1748  0.2176
 5171SOL    HW127146   0.993   1.876  12.583 -0.4439  0.0226 -0.5059
 5171SOL    HW227147   0.887   1.778  12.620 -0.0547 -0.0677  1.2588
 5172SOL     OW27148   3.068   4.685   4.811 -0.2072  0.5567 -0.1634
 5172SOL    HW127149   3.086   0.015   4.878 -0.7685  0.0507  0.4931
 5172SOL    HW227150   3.069   4.736   4.730 -0.3802  2.4676  1.0307
 5173SOL     OW27151   3.116   3.363   5.656 -0.0927  0.2831  0.3358
 5173SOL    HW127152   3.092   3.411   5.577  0.9046 -1.2568 -0.9180
 5173SOL    HW227153   3.172   3.295   5.617 -0.3150  0.4828 -0.3321
 5174SOL     OW27154   0.189   3.077   6.526 -0.1291  0.0664 -0.4701
 5174SOL    HW127155   0.278   3.074   6.490 -0.0273  1.5879 -0.3673
 5174SOL    HW227156   0.193   2.999   6.581 -0.1590  0.2208 -0.2490
 5175SOL     OW27157   3.756   1.291   2.035  0.7081  0.1651 -0.3551
 5175SOL    HW127158   3.666   1.324   2.034  1.6413  2.7362  0.2297
 5175SOL    HW227159   3.770   1.280   2.129  0.1248 -0.0217 -0.2859
 5176SOL     OW27160   3.402   2.793   6.769 -0.4357 -0.7077 -0.0215
 5176SOL    HW127161   3.436   2.704   6.762 -0.7617 -0.9317  1.4011
 5176SOL    HW227162   3.477   2.852   6.770  0.9307 -2.4171 -0.1979
 5177SOL     OW27163   0.678   4.509   4.593 -0.1331  0.2155 -0.2983
 5177SOL    HW127164   0.665   4.565   4.517 -0.2235 -0.8200 -1.0390
 5177SOL    HW227165   0.718   4.430   4.556  0.6190  1.9110 -3.0574
 5178SOL     OW27166   3.885   1.637   6.274  0.0743 -0.0845 -0.2679
 5178SOL    HW127167   3.843   1.723   6.277 -1.5385 -0.9220  1.3535
 5178SOL    HW227168   3.929   1.637   6.190 -0.0252  1.4067 -0.3306
 5179SOL     OW27169   3.223   2.004  13.786 -0.7419  0.3517 -0.1193
 5179SOL    HW127170   3.136   2.041  13.801 -0.3184  1.1847  0.2848
 5179SOL    HW227171   3.274   2.063  13.731 -0.9782 -1.8664 -2.7071
 5180SOL     OW27172   2.684   3.019   3.089 -0.3051  0.3898 -0.1640
 5180SOL    HW127173   2.629   2.945   3.060  1.4291 -0.6581 -0.7586
 5180SOL    HW227174   2.725   3.033   3.004 -1.2193  2.7374 -0.2256
 5181SOL     OW27175   0.239   0.408  17.504  0.0432 -0.9391 -0.1515
 5181SOL    HW127176   0.286   0.441  17.428  1.0281 -0.0735  0.8440
 5181SOL    HW227177   0.290   0.452  17.572 -1.4000 -0.4038  0.5833
 5182SOL     OW27178   2.538   1.400  12.264 -0.0054 -0.8173 -0.0757
 5182SOL    HW127179   2.489   1.412  12.183  1.6901 -1.1571 -1.1460
 5182SOL    HW227180   2.567   1.490  12.282 -3.2602  0.1298  0.5889
 5183SOL     OW27181   1.468   4.057   1.379  0.3975  0.3281 -0.4551
 5183SOL    HW127182   1.516   3.996   1.437  1.2726  1.4640  0.0310
 5183SOL    HW227183   1.443   4.118   1.448 -0.4089  1.0412 -1.3979
 5184SOL     OW27184   0.583   3.761   4.507  0.0340  0.0171 -1.1322
 5184SOL    HW127185   0.547   3.680   4.471 -0.6328 -0.1569 -0.0852
 5184SOL    HW227186   0.510   3.823   4.515 -0.5234 -1.0799  2.3412
 5185SOL     OW27187   2.310   0.986   4.981  0.0888 -0.7913  0.1197
 5185SOL    HW127188   2.301   1.080   4.993  1.7459 -0.8248  1.5271
 5185SOL    HW227189   2.227   0.969   4.935  0.4090 -0.4660 -0.5738
 5186SOL     OW27190   4.009   1.712   6.036 -0.1772  0.2605  0.7153
 5186SOL    HW127191   4.031   1.802   6.060 -0.0451  0.4702 -0.1965
 5186SOL    HW227192   3.924   1.734   5.999 -0.1330 -0.2168  0.3304
 5187SOL     OW27193   2.450   2.356   8.987 -0.4614 -0.2321 -0.3309
 5187SOL    HW127194   2.367   2.335   9.031  0.0505 -0.5466  0.5029
 5187SOL    HW227195   2.439   2.447   8.962 -1.4845 -0.7350 -1.6834
 5188SOL     OW27196   1.026   0.438   8.814 -1.1298  0.2746  0.3264
 5188SOL    HW127197   0.948   0.460   8.865 -1.9751 -2.2646  0.1501
 5188SOL    HW227198   1.001   0.362   8.761  1.6141 -0.4122  0.0031
 5189SOL     OW27199   2.348   4.075   5.632  0.2068 -0.2472 -0.1069
 5189SOL    HW127200   2.256   4.058   5.610 -0.6036  1.0687  2.3266
 5189SOL    HW227201   2.338   4.166   5.604 -1.0476 -0.0261  1.0637
 5190SOL     OW27202   4.729   0.589   7.816 -0.0223 -0.1339 -0.8896
 5190SOL    HW127203   0.038   0.541   7.885  1.2554 -0.0101 -1.6413
 5190SOL    HW227204   0.008   0.679   7.845  0.8444  0.1233 -2.1450
 5191SOL     OW27205   0.843   3.156   1.619  0.3017 -0.3980  0.5238
 5191SOL    HW127206   0.754   3.160   1.653  0.5569 -0.0018  1.1471
 5191SOL    HW227207   0.821   3.125   1.532  0.3089 -1.1396  0.7889
 5192SOL     OW27208   2.144   1.510   4.840 -0.0771 -0.1169 -0.5842
 5192SOL    HW127209   2.133   1.592   4.887 -2.3104 -1.4120  1.1082
 5192SOL    HW227210   2.053   1.501   4.813 -0.2110 -1.0029  0.1598
 5193SOL     OW27211   3.513   2.411  13.782  0.0309 -0.1957 -0.2790
 5193SOL    HW127212   3.462   2.345  13.733 -2.0751  1.9937 -1.0155
 5193SOL    HW227213   3.589   2.362  13.813 -0.7349 -0.8466  0.5393
 5194SOL     OW27214   3.597   1.308   5.944 -0.2773 -0.5854  0.1949
 5194SOL    HW127215   3.551   1.238   5.898 -0.0703 -0.5449 -0.0734
 5194SOL    HW227216   3.600   1.275   6.034 -3.7091  1.1536  0.9508
 5195SOL     OW27217   4.382   0.542   4.167 -0.1261  0.2953  0.5909
 5195SOL    HW127218   4.434   0.494   4.230 -1.9639  0.6797  2.3887
 5195SOL    HW227219   4.432   0.624   4.167  0.9971 -0.3944 -0.2700
 5196SOL     OW27220   3.321   1.409   1.156 -0.4078  0.2190 -0.2704
 5196SOL    HW127221   3.313   1.504   1.145 -1.3677  0.1982  0.2158
 5196SOL    HW227222   3.403   1.396   1.109 -0.0276  2.3506 -0.2087
 5197SOL     OW27223   0.028   2.845   0.709 -0.6083 -0.0113  0.3751
 5197SOL    HW127224   0.010   2.777   0.645 -2.5364  1.2003 -0.3764
 5197SOL    HW227225   4.691   2.906   0.701 -1.4368 -0.7950  1.9632
 5198SOL     OW27226   2.099   3.063   7.807 -0.0196 -0.1001 -0.2064
 5198SOL    HW127227   2.019   3.010   7.810  0.2003 -0.2917  2.6637
 5198SOL    HW227228   2.131   3.055   7.717 -1.0336  0.8569 -0.6520
 5199SOL     OW27229   1.268   3.332   3.071 -0.7048  0.5637 -0.0238
 5199SOL    HW127230   1.308   3.356   2.988 -2.3378 -0.4197 -1.0855
 5199SOL    HW227231   1.347   3.317   3.124  0.6333  0.4474 -2.0567
 5200SOL     OW27232   3.163   4.315  12.735  0.6153  0.2791 -0.1367
 5200SOL    HW127233   3.173   4.407  12.708  1.2411  0.4955  0.8266
 5200SOL    HW227234   3.133   4.286  12.648 -0.9481  1.3272  0.0627
 5201SOL     OW27235   1.580   1.121   7.955 -0.5250 -0.6746 -0.4997
 5201SOL    HW127236   1.674   1.137   7.945 -0.9629  2.7887  0.5968
 5201SOL    HW227237   1.572   1.041   8.006 -0.1972  0.6916  1.7069
 5202SOL     OW27238   1.820   0.418   6.339 -0.0270  0.2287  0.1227
 5202SOL    HW127239   1.776   0.495   6.377 -1.5848  0.0339 -1.3004
 5202SOL    HW227240   1.905   0.455   6.315 -0.4215  0.7660 -0.4883
 5203SOL     OW27241   2.394   1.375   2.535 -0.0126  0.2328  0.1827
 5203SOL    HW127242   2.314   1.332   2.505  0.8290 -1.2251  0.0195
 5203SOL    HW227243   2.428   1.408   2.452  1.2320  1.4205  1.1540
 5204SOL     OW27244   1.955   2.735  13.505  0.2524  0.4279 -0.2755
 5204SOL    HW127245   2.008   2.787  13.565 -2.9650  2.7727  0.5428
 5204SOL    HW227246   1.941   2.805  13.441  0.0724  2.2312  1.7273
 5205SOL     OW27247   2.426   4.361   9.994  0.2179  0.1277  0.1418
 5205SOL    HW127248   2.468   4.438  10.032  0.5107  0.3186 -0.5747
 5205SOL    HW227249   2.333   4.387   9.994  0.5169  1.2143 -1.1558
 5206SOL     OW27250   2.150   4.097   0.403  0.3604  0.1994  0.4627
 5206SOL    HW127251   2.242   4.075   0.394  1.2959  2.4838  4.2368
 5206SOL    HW227252   2.152   4.160   0.476 -1.5053 -1.4756  1.9650
 5207SOL     OW27253   3.027   1.046   7.223  0.3887 -0.2325  0.0709
 5207SOL    HW127254   3.122   1.051   7.214  0.5075 -2.0436  0.4315
 5207SOL    HW227255   3.022   1.052   7.318 -1.6959  0.5678 -0.0762
 5208SOL     OW27256   4.073   2.116   8.256  0.5247  0.2470  0.3447
 5208SOL    HW127257   4.111   2.119   8.344 -1.4411  0.6945  1.1980
 5208SOL    HW227258   4.154   2.114   8.206 -0.3604 -1.3511 -1.0472
 5209SOL     OW27259   1.033   0.222   1.791  0.0746 -0.3770  0.0515
 5209SOL    HW127260   1.076   0.260   1.867  0.3598  1.4703 -1.0298
 5209SOL    HW227261   0.947   0.262   1.803  0.2665  1.0307 -3.1489
 5210SOL     OW27262   1.373   0.744   3.436 -0.1935  0.1298  0.3528
 5210SOL    HW127263   1.427   0.793   3.498 -0.0500 -1.2016  1.2754
 5210SOL    HW227264   1.313   0.817   3.424  0.3638  0.3805 -0.8653
 5211SOL     OW27265   2.870   1.940  15.193 -0.3101 -0.1460 -0.2049
 5211SOL    HW127266   2.900   2.007  15.254 -1.3602  0.0051  0.1403
 5211SOL    HW227267   2.798   1.988  15.153 -0.2020 -0.0114 -0.2349
 5212SOL     OW27268   4.358   4.207   9.509  0.1002  0.0128  0.0478
 5212SOL    HW127269   4.270   4.169   9.510 -0.1851  0.7040  2.2085
 5212SOL    HW227270   4.376   4.208   9.415 -1.2975 -0.8687 -0.2377
 5213SOL     OW27271   4.010   0.378   7.119 -0.1271  0.0091 -0.1935
 5213SOL    HW127272   3.972   0.297   7.154  0.0824  1.8716  4.3963
 5213SOL    HW227273   4.020   0.409   7.209  1.2113 -0.0054 -0.3247
 5214SOL     OW27274   0.840   2.884  16.455 -0.0885 -0.0332 -0.1760
 5214SOL    HW127275   0.899   2.908  16.383 -2.4493 -0.3000 -2.1702
 5214SOL    HW227276   0.782   2.830  16.401 -0.7182  0.4088  0.0614
 5215SOL     OW27277   2.653   3.522   6.069  0.0860  0.5391 -0.0257
 5215SOL    HW127278   2.588   3.564   6.013  0.8374 -0.0273 -1.3017
 5215SOL    HW227279   2.642   3.554   6.159  2.1765  2.1916 -0.3907
 5216SOL     OW27280   1.756   2.671   9.940 -0.6176  0.0610  0.0039
 5216SOL    HW127281   1.786   2.644   9.854 -0.5242 -1.8695  0.6532
 5216SOL    HW227282   1.830   2.696   9.996  1.1336 -0.5118 -2.0835
 5217SOL     OW27283   3.507   4.113   3.763  0.5677  0.0255  0.2252
 5217SOL    HW127284   3.598   4.094   3.786  1.1509  3.4217  0.7090
 5217SOL    HW227285   3.474   4.158   3.841  0.5419 -1.8261  1.2867
 5218SOL     OW27286   1.795   3.964   8.796  0.2457  0.1224  0.3161
 5218SOL    HW127287   1.856   3.936   8.864  0.4249 -0.1294  0.0521
 5218SOL    HW227288   1.857   4.011   8.740  2.4936 -0.4319  2.3299
 5219SOL     OW27289   4.146   1.465   4.994  0.1139  0.4394  0.2505
 5219SOL    HW127290   4.229   1.512   4.987  0.3582 -0.1953 -0.9243
 5219SOL    HW227291   4.121   1.490   5.083 -0.2001 -0.2355  0.3456
 5220SOL     OW27292   4.247   0.350   9.987  0.7160  0.1548 -0.4682
 5220SOL    HW127293   4.287   0.328  10.071  0.9835 -0.4241 -0.7462
 5220SOL    HW227294   4.159   0.353  10.023  0.4312  2.1059 -1.3242
 5221SOL     OW27295   1.849   4.278  15.528 -0.2506  0.0539  0.2387
 5221SOL    HW127296   1.916   4.219  15.562  0.7717  1.5707  0.8595
 5221SOL    HW227297   1.901   4.336  15.472  0.3415  0.3863  1.1243
 5222SOL     OW27298   0.646   2.242   7.022  0.1590 -0.1449  0.4677
 5222SOL    HW127299   0.555   2.238   6.993 -0.3870  0.4482  2.1144
 5222SOL    HW227300   0.661   2.150   7.044  0.7319  0.1027  1.1073
 5223SOL     OW27301   4.433   1.343  17.545 -0.5570 -0.4628 -0.2495
 5223SOL    HW127302   4.513   1.307  17.584 -0.8287  0.4155  1.1241
 5223SOL    HW227303   4.469   1.400  17.478 -2.3390  0.4404 -0.4306
 5224SOL     OW27304   2.682   2.762   4.352  0.0605 -0.1252  0.5671
 5224SOL    HW127305   2.593   2.772   4.318  0.5725 -1.1442 -1.0519
 5224SOL    HW227306   2.672   2.684   4.407 -0.3797  0.2303  0.9911
 5225SOL     OW27307   2.737   2.401   8.667  0.1082  0.4274  0.2268
 5225SOL    HW127308   2.825   2.381   8.701 -0.5823  0.3374  1.9502
 5225SOL    HW227309   2.682   2.325   8.687 -0.2758 -0.0482 -2.6224
 5226SOL     OW27310   0.344   0.261   3.101  0.5548  0.2373  0.5093
 5226SOL    HW127311   0.371   0.255   3.009  1.0188  2.1072  0.5234
 5226SOL    HW227312   0.422   0.228   3.145 -0.9981 -2.1954  1.4478
 5227SOL     OW27313   4.230   3.301  15.541 -0.4323 -0.2832 -0.1827
 5227SOL    HW127314   4.189   3.217  15.524  1.6480 -1.0888 -1.1633
 5227SOL    HW227315   4.182   3.327  15.621  0.1430  0.6207 -0.1299
 5228SOL     OW27316   1.910   3.436  12.337  0.1852  0.0185  0.0373
 5228SOL    HW127317   1.957   3.441  12.420 -0.3917  0.0853  0.3590
 5228SOL    HW227318   1.817   3.432  12.361 -0.4396 -1.5026 -2.5849
 5229SOL     OW27319   2.142   0.998   5.743  0.5362 -0.1612  0.8849
 5229SOL    HW127320   2.208   1.060   5.773  1.9894 -1.9474  1.4375
 5229SOL    HW227321   2.185   0.923   5.700 -3.0701 -2.0274  0.5446
 5230SOL     OW27322   1.981   2.883   9.861 -0.4908 -0.3039  0.0448
 5230SOL    HW127323   1.932   2.875   9.779  0.9024 -0.5759 -0.7552
 5230SOL    HW227324   1.978   2.977   9.877 -0.3768 -0.4389  0.8433
 5231SOL     OW27325   0.286   1.182   6.202 -0.2583  0.3708  0.1175
 5231SOL    HW127326   0.240   1.180   6.118 -1.0223  0.9265  0.5255
 5231SOL    HW227327   0.239   1.117   6.255  3.1358 -1.5118  0.8125
 5232SOL     OW27328   0.298   3.368  14.664 -0.5545  0.2371  0.1355
 5232SOL    HW127329   0.206   3.342  14.673  0.2913 -2.9653 -0.6451
 5232SOL    HW227330   0.289   3.460  14.689  1.8282  1.1591 -2.3926
 5233SOL     OW27331   0.232   0.993   5.115  0.2175 -0.0871 -0.0241
 5233SOL    HW127332   0.259   1.003   5.207  0.1300 -1.0337  0.1035
 5233SOL    HW227333   0.183   0.913   5.096 -1.4616  0.6173  1.3523
 5234SOL     OW27334   1.449   3.167   7.283  0.2809 -0.6283 -0.1080
 5234SOL    HW127335   1.438   3.114   7.204 -0.1799  0.8982 -1.0495
 5234SOL    HW227336   1.509   3.112   7.334 -1.3657 -2.6876 -0.3645
 5235SOL     OW27337   3.358   1.706  14.087  0.3466 -0.0762 -0.0389
 5235SOL    HW127338   3.284   1.667  14.041 -0.5614  1.0815  0.4307
 5235SOL    HW227339   3.341   1.799  14.074  0.3034 -0.2453 -1.1631
 5236SOL     OW27340   1.280   4.455   6.421 -0.3538  0.6591 -0.0832
 5236SOL    HW127341   1.190   4.428   6.404  0.8625 -2.2795 -1.9877
 5236SOL    HW227342   1.287   4.534   6.368  1.0844  0.5361 -0.0985
 5237SOL     OW27343   3.268   3.358  17.692 -0.0269 -0.0675 -0.5811
 5237SOL    HW127344   3.251   3.283  17.636  3.0855 -0.6257 -0.7699
 5237SOL    HW227345   3.343   3.338   0.004 -0.9031 -0.7102  0.3686
 5238SOL     OW27346   4.007   4.005   4.288 -0.7697 -0.3438 -0.1668
 5238SOL    HW127347   4.066   3.970   4.221 -2.2037 -1.5547 -0.8043
 5238SOL    HW227348   4.056   3.991   4.369  0.5071 -1.2341 -1.0962
 5239SOL     OW27349   4.419   2.510   6.098 -0.4463  0.8116  0.1715
 5239SOL    HW127350   4.388   2.421   6.082  1.1536 -0.0377  1.7448
 5239SOL    HW227351   4.504   2.496   6.140 -0.4598 -0.2707 -0.1544
 5240SOL     OW27352   3.246   1.958   6.739  0.4431 -0.1232 -0.2364
 5240SOL    HW127353   3.266   1.880   6.790  0.1904 -0.1607 -0.1914
 5240SOL    HW227354   3.160   1.978   6.777 -0.5332 -1.1487 -1.8701
 5241SOL     OW27355   3.952   3.943   2.889 -0.2793 -0.1540  0.6651
 5241SOL    HW127356   3.985   3.859   2.856 -2.0763 -1.3186  1.8166
 5241SOL    HW227357   3.860   3.921   2.900 -0.5572 -0.0463 -1.5871
 5242SOL     OW27358   1.444   4.479   9.682 -0.2567  0.0431  0.0910
 5242SOL    HW127359   1.529   4.508   9.647 -0.0428  0.6674  1.1251
 5242SOL    HW227360   1.469   4.469   9.774  1.4593 -1.5441 -0.5554
 5243SOL     OW27361   1.586   3.726   3.590 -0.1088  0.1689  0.8791
 5243SOL    HW127362   1.666   3.749   3.542  0.6642 -0.0633  2.0410
 5243SOL    HW227363   1.609   3.643   3.632  0.4443 -0.5019 -0.7183
 5244SOL     OW27364   4.325   2.973   5.896 -0.0745  0.3040  0.2037
 5244SOL    HW127365   4.370   2.910   5.953  2.2196  1.1658 -0.6554
 5244SOL    HW227366   4.258   3.011   5.952 -1.7798  1.5386 -2.6569
 5245SOL     OW27367   3.296   3.950   6.104  0.3616  0.2753 -0.3858
 5245SOL    HW127368   3.200   3.958   6.099  0.1576 -1.2619  1.0066
 5245SOL    HW227369   3.308   3.919   6.014  0.3489  4.2817 -1.7831
 5246SOL     OW27370   1.798   4.088   6.487  0.2357  0.1273  0.2216
 5246SOL    HW127371   1.837   4.002   6.466 -0.3934 -0.2832  0.7361
 5246SOL    HW227372   1.751   4.105   6.406  0.9701  0.5659 -0.1059
 5247SOL     OW27373   0.991   3.294   5.622  0.3498  0.8317 -0.1872
 5247SOL    HW127374   0.944   3.241   5.686  1.1991 -1.2744 -1.3442
 5247SOL    HW227375   1.056   3.234   5.586 -0.6902  0.7331 -1.8775
 5248SOL     OW27376   1.356   2.461   2.643 -1.2038  0.9111 -0.3928
 5248SOL    HW127377   1.324   2.524   2.707  0.9089  2.4387 -0.8565
 5248SOL    HW227378   1.303   2.383   2.660 -0.0903 -0.2005 -1.9434
 5249SOL     OW27379   3.170   1.676   4.398  0.2449 -0.4512  0.0731
 5249SOL    HW127380   3.107   1.604   4.406  0.6223 -0.7904 -0.0213
 5249SOL    HW227381   3.123   1.730   4.335  2.5428  0.2550 -1.0138
 5250SOL     OW27382   3.836   3.926   8.032  0.3844 -0.5074  0.1896
 5250SOL    HW127383   3.802   3.973   7.956  2.4891  1.3067  0.3608
 5250SOL    HW227384   3.931   3.931   8.021  0.2219  1.2741 -0.4749
 5251SOL     OW27385   4.643   3.941  14.567 -0.2621  0.1190  0.4014
 5251SOL    HW127386   4.658   3.856  14.608 -1.5365  0.5788  1.8222
 5251SOL    HW227387   4.637   3.992  14.647 -0.1645 -1.1014  1.1851
 5252SOL     OW27388   1.965   3.348   5.771  0.6008  0.3524 -0.2377
 5252SOL    HW127389   1.880   3.310   5.792  1.7823 -1.1715  1.7782
 5252SOL    HW227390   1.980   3.397   5.853  0.4951  1.3619 -0.8181
 5253SOL     OW27391   2.504   4.649   2.203 -0.2722  0.2284  0.3280
 5253SOL    HW127392   2.439   4.593   2.160 -0.8050  0.4693  0.8138
 5253SOL    HW227393   2.578   4.630   2.146 -0.0895  0.2731  0.5511
 5254SOL     OW27394   0.613   0.675  13.939  0.0568 -0.0329 -0.0568
 5254SOL    HW127395   0.672   0.750  13.935 -0.6620  0.4632 -1.2536
 5254SOL    HW227396   0.542   0.707  13.995  0.7832  0.5955  0.4938
 5255SOL     OW27397   4.106   1.034  14.331 -0.7489  0.0115 -0.2374
 5255SOL    HW127398   4.066   0.963  14.281 -0.7019  0.0696 -0.3563
 5255SOL    HW227399   4.136   1.077  14.251 -0.7080 -0.4228 -0.4582
 5256SOL     OW27400   2.315   4.237   3.567 -0.0718  0.3460 -0.1496
 5256SOL    HW127401   2.328   4.326   3.535 -1.6198  0.3270 -0.8015
 5256SOL    HW227402   2.258   4.198   3.501  1.0984 -1.0433 -0.3677
 5257SOL     OW27403   1.294   2.786   5.957 -0.4723 -0.3959  0.3555
 5257SOL    HW127404   1.347   2.710   5.931  0.5415  0.1657  0.7899
 5257SOL    HW227405   1.292   2.775   6.052 -2.4804  2.7277  0.6747
 5258SOL     OW27406   1.910   4.104  16.534  0.4091 -0.4061  0.1667
 5258SOL    HW127407   1.910   4.192  16.573 -0.4250 -0.1707 -0.3662
 5258SOL    HW227408   1.887   4.053  16.612 -0.0381 -0.8951 -0.2897
 5259SOL     OW27409   2.363   4.305  15.466  0.4799 -0.0892 -0.6705
 5259SOL    HW127410   2.393   4.330  15.379 -1.3060 -0.7219 -1.4698
 5259SOL    HW227411   2.412   4.369  15.517 -0.8668  1.7300 -1.6544
 5260SOL     OW27412   3.884   1.127   8.499  0.6903  0.0423  0.1829
 5260SOL    HW127413   3.871   1.056   8.436 -0.9972 -1.2725  2.0215
 5260SOL    HW227414   3.805   1.123   8.552  0.8171  3.5541  0.6344
 5261SOL     OW27415   2.901   3.327   9.917  0.2790  0.1033 -0.7264
 5261SOL    HW127416   2.901   3.244   9.869  0.1543  1.1932 -2.5656
 5261SOL    HW227417   2.863   3.304  10.002  1.4361 -0.1475 -0.2707
 5262SOL     OW27418   1.582   4.199   5.108 -0.1985  0.3708 -0.2509
 5262SOL    HW127419   1.551   4.108   5.102  1.3250 -0.1032 -1.0577
 5262SOL    HW227420   1.605   4.216   5.016 -2.9962  2.1285 -0.6057
 5263SOL     OW27421   2.201   3.579   1.844 -0.6265 -0.4526 -0.6925
 5263SOL    HW127422   2.215   3.484   1.834  3.2048 -0.1693  1.5705
 5263SOL    HW227423   2.258   3.607   1.772  1.8455 -3.4682  0.0369
 5264SOL     OW27424   3.947   1.465  11.176  0.1901  0.1963  0.3470
 5264SOL    HW127425   3.931   1.406  11.102 -0.7425  0.7896  0.0742
 5264SOL    HW227426   4.034   1.435  11.203  0.3867  0.8265  0.4068
 5265SOL     OW27427   1.644   2.962   2.276 -0.4743  0.3668  0.4546
 5265SOL    HW127428   1.620   2.895   2.340  0.5383 -1.2564 -0.8723
 5265SOL    HW227429   1.607   3.039   2.319 -0.0718  0.4785  0.6025
 5266SOL     OW27430   4.537   1.250  13.686 -0.4842 -0.1177  0.3392
 5266SOL    HW127431   4.618   1.231  13.733  0.3653  0.0716 -1.0400
 5266SOL    HW227432   4.481   1.175  13.708 -0.4352 -0.1724  0.2780
 5267SOL     OW27433   4.117   4.090   5.688 -0.1050 -0.2845 -0.5220
 5267SOL    HW127434   4.110   4.117   5.779  0.1194 -0.1837 -0.5344
 5267SOL    HW227435   4.064   4.011   5.696  0.4368 -0.6547 -0.5775
 5268SOL     OW27436   2.574   2.952   7.784 -0.3782 -0.6780 -0.0865
 5268SOL    HW127437   2.654   2.948   7.732 -1.0843  2.5647 -1.4502
 5268SOL    HW227438   2.564   3.047   7.795 -0.6556 -0.8704  1.3696
 5269SOL     OW27439   4.572   3.273   5.862  0.3857 -0.2033  0.2279
 5269SOL    HW127440   4.659   3.236   5.845 -0.3474 -1.3225 -1.1138
 5269SOL    HW227441   4.546   3.230   5.944 -1.9508 -1.1046 -0.9997
 5270SOL     OW27442   2.932   1.710   6.739 -0.0242  0.2242  0.1952
 5270SOL    HW127443   3.003   1.700   6.802 -0.7994  0.9155  1.1830
 5270SOL    HW227444   2.855   1.688   6.791  0.5057 -0.2194  0.7899
 5271SOL     OW27445   4.407   3.582   4.391  0.0527 -0.4627 -0.6678
 5271SOL    HW127446   4.491   3.581   4.346 -0.3340  1.9800 -1.4630
 5271SOL    HW227447   4.425   3.614   4.479 -1.1342 -2.4410  0.2854
 5272SOL     OW27448   1.164   3.156  12.362  0.0777  0.3554  0.0935
 5272SOL    HW127449   1.239   3.203  12.398  2.2434 -1.5821 -1.8979
 5272SOL    HW227450   1.170   3.066  12.394 -1.8071 -0.2908 -1.4002
 5273SOL     OW27451   3.846   4.535   2.444  0.0452  0.0148  0.0306
 5273SOL    HW127452   3.803   4.601   2.498 -0.6760  0.6084 -1.2969
 5273SOL    HW227453   3.786   4.461   2.454 -0.4487  0.4938  0.6115
 5274SOL     OW27454   0.043   4.154   4.126  0.2766  0.4261  0.3570
 5274SOL    HW127455   0.058   4.109   4.209  1.7263  1.3533  0.5878
 5274SOL    HW227456   4.685   4.171   4.119  0.1804 -0.4160 -0.4986
 5275SOL     OW27457   4.223   0.691   7.496 -0.3446  0.6758 -0.3710
 5275SOL    HW127458   4.132   0.719   7.482 -0.7649 -0.8777 -0.7680
 5275SOL    HW227459   4.227   0.688   7.591  0.5514  0.2805 -0.4199
 5276SOL     OW27460   4.190   3.902   2.115  0.2773  0.0166  0.1217
 5276SOL    HW127461   4.238   3.821   2.098  2.0638  1.1057  0.0197
 5276SOL    HW227462   4.207   3.909   2.209  0.7063  0.1211  0.0385
 5277SOL     OW27463   3.313   2.590  11.392 -0.1536 -0.2780 -0.0688
 5277SOL    HW127464   3.241   2.653  11.389  0.2122  0.2469  2.2080
 5277SOL    HW227465   3.382   2.639  11.437 -1.6569  2.2074 -0.5089
 5278SOL     OW27466   2.295   3.942   5.163  0.0709  0.3324 -0.4367
 5278SOL    HW127467   2.302   3.850   5.187  0.2094  1.3175  3.2684
 5278SOL    HW227468   2.356   3.948   5.089  0.3768 -0.5510 -0.2482
 5279SOL     OW27469   1.219   2.880   5.266  0.1642 -0.2573  0.2001
 5279SOL    HW127470   1.235   2.814   5.199 -0.5345 -0.4071  0.1876
 5279SOL    HW227471   1.312   2.892   5.288  0.4024  0.0005 -0.9472
 5280SOL     OW27472   3.574   2.201   7.777  0.2670 -0.0237 -0.3382
 5280SOL    HW127473   3.505   2.135   7.788 -0.0644  0.2634 -0.6570
 5280SOL    HW227474   3.627   2.188   7.855  1.0306 -0.5629 -0.9520
 5281SOL     OW27475   0.936   4.538  17.741  0.1065  0.4075  0.3881
 5281SOL    HW127476   1.017   4.541   0.050 -0.7125  0.3302  1.6611
 5281SOL    HW227477   0.956   4.612  17.684  1.8322  0.3007  0.8300
 5282SOL     OW27478   4.601   0.107   9.838  0.6070  0.0476  0.1877
 5282SOL    HW127479   4.599   0.025   9.788  1.1403 -0.5454  1.1386
 5282SOL    HW227480   4.525   0.161   9.815  0.0941 -0.7624 -0.0448
 5283SOL     OW27481   3.884   3.552  10.862 -0.2989  0.1495 -0.6371
 5283SOL    HW127482   3.935   3.612  10.809 -0.2435  0.9020  0.2778
 5283SOL    HW227483   3.898   3.469  10.817  2.3919  0.8234 -0.9961
 5284SOL     OW27484   3.224   4.592   5.316  0.7493 -0.1756  0.2068
 5284SOL    HW127485   3.235   4.666   5.375 -1.9443 -0.3227  0.8999
 5284SOL    HW227486   3.163   4.621   5.249  0.5813  0.1261  0.4920
 5285SOL     OW27487   3.801   2.559   1.980  0.0598  0.3929 -0.1672
 5285SOL    HW127488   3.744   2.635   1.993 -1.6202 -0.6716 -1.4385
 5285SOL    HW227489   3.751   2.485   2.013 -1.3039  0.4651 -2.1177
 5286SOL     OW27490   1.148   4.224   4.675 -0.3798 -0.5223  0.3113
 5286SOL    HW127491   1.204   4.289   4.719 -0.5204 -2.1769  2.9390
 5286SOL    HW227492   1.186   4.231   4.587 -0.3172 -0.2311  0.3597
 5287SOL     OW27493   4.059   2.056   9.139  0.8634  0.6886  0.7030
 5287SOL    HW127494   4.135   2.077   9.193  1.7706  2.0048 -1.0560
 5287SOL    HW227495   3.988   2.109   9.176 -0.1067 -1.0155  1.2797
 5288SOL     OW27496   1.654   3.353   8.080 -0.2284  0.1613 -0.4181
 5288SOL    HW127497   1.710   3.415   8.127 -0.0651 -0.2498 -0.0731
 5288SOL    HW227498   1.695   3.270   8.104 -1.9070 -0.0276  1.7476
 5289SOL     OW27499   0.252   0.916   4.702  0.1494 -0.3459  0.5666
 5289SOL    HW127500   0.253   0.986   4.637  1.6533  0.3752  1.3742
 5289SOL    HW227501   0.312   0.956   4.765 -1.0326 -0.0754  1.5273
 5290SOL     OW27502   4.384   0.796  13.686  0.1142 -0.0902 -0.0485
 5290SOL    HW127503   4.330   0.740  13.741 -1.1211  0.4559 -0.7260
 5290SOL    HW227504   4.348   0.879  13.718  1.3976  0.2877  0.4456
 5291SOL     OW27505   2.822   4.135  10.134  0.0833  0.2046 -0.3203
 5291SOL    HW127506   2.899   4.128  10.078  1.5523 -0.1983  1.7556
 5291SOL    HW227507   2.858   4.159  10.219  1.0037  0.4427 -0.7777
 5292SOL     OW27508   2.324   1.675   9.076  0.6347  0.2438 -0.4711
 5292SOL    HW127509   2.291   1.669   9.166 -0.1503 -0.4228 -0.8043
 5292SOL    HW227510   2.301   1.766   9.059 -1.9494 -0.1249  1.0158
 5293SOL     OW27511   3.416   3.871   6.426 -0.4646 -0.3753 -0.2486
 5293SOL    HW127512   3.456   3.940   6.372  0.7726  0.1993  1.4140
 5293SOL    HW227513   3.405   3.899   6.517 -0.9002 -0.3953 -0.2926
 5294SOL     OW27514   2.732   0.248   3.556  0.1595 -0.2039 -0.1760
 5294SOL    HW127515   2.713   0.232   3.648 -0.3902  2.0829  0.1156
 5294SOL    HW227516   2.699   0.337   3.542 -1.4417 -0.9682 -1.2579
 5295SOL     OW27517   2.216   3.924  10.150 -0.0098  0.1317  0.1496
 5295SOL    HW127518   2.261   3.993  10.102  0.6763 -0.4024  0.0399
 5295SOL    HW227519   2.255   3.933  10.237 -1.0485 -0.1173  0.6433
 5296SOL     OW27520   4.685   1.855   3.612 -0.2314 -0.4396 -0.1107
 5296SOL    HW127521   4.679   1.844   3.518 -0.1579 -1.6852  0.0329
 5296SOL    HW227522   4.607   1.902   3.642  0.3797  0.7583 -0.4142
 5297SOL     OW27523   2.669   2.014   4.624  0.0672 -0.5684  0.1193
 5297SOL    HW127524   2.604   2.038   4.690 -0.8973 -0.3936 -0.8937
 5297SOL    HW227525   2.656   2.091   4.569 -0.2565 -1.4110 -0.9729
 5298SOL     OW27526   1.797   1.329   4.831  0.0426 -0.0687 -0.4056
 5298SOL    HW127527   1.790   1.374   4.747  1.9729 -1.7301 -1.4504
 5298SOL    HW227528   1.868   1.272   4.802  0.1793 -0.6617  1.0951
 5299SOL     OW27529   4.158   2.471  16.298  0.0615  0.1140  0.3929
 5299SOL    HW127530   4.178   2.454  16.206 -2.0861  0.7185 -0.1883
 5299SOL    HW227531   4.098   2.543  16.279  0.4468 -0.4186 -2.8295
 5300SOL     OW27532   3.901   0.187   4.897 -0.1875 -1.0384 -0.4757
 5300SOL    HW127533   3.853   0.158   4.819  1.5547 -1.4566 -1.4052
 5300SOL    HW227534   3.881   0.281   4.887 -0.1955 -0.9382  0.5613
 5301SOL     OW27535   3.881   3.148   2.258 -0.0710  0.0361 -0.2844
 5301SOL    HW127536   3.963   3.188   2.228  0.8270 -0.6530  1.2044
 5301SOL    HW227537   3.818   3.220   2.258  0.5525  0.5864 -1.0771
 5302SOL     OW27538   3.702   2.426   3.136  0.2521  0.1611  0.1843
 5302SOL    HW127539   3.768   2.413   3.204  0.1488 -0.7584  0.1137
 5302SOL    HW227540   3.646   2.349   3.140  0.7400 -0.2171 -0.2513
 5303SOL     OW27541   4.118   1.872   5.418 -0.1840  0.2635 -0.0425
 5303SOL    HW127542   4.067   1.791   5.426 -0.0735  0.2258  0.2864
 5303SOL    HW227543   4.113   1.905   5.508 -0.8033 -1.7499  0.6599
 5304SOL     OW27544   0.019   2.292  17.690 -0.7575  0.0930 -0.2104
 5304SOL    HW127545   0.019   2.379  17.651 -0.1267  0.2746  0.1961
 5304SOL    HW227546   4.665   2.261  17.683 -0.3915 -1.3549  1.4255
 5305SOL     OW27547   4.476   2.375  10.444  0.3306  0.0186  0.1954
 5305SOL    HW127548   4.395   2.404  10.403  1.1925  0.2250 -1.3591
 5305SOL    HW227549   4.539   2.362  10.373 -0.0002 -1.3807  0.1747
 5306SOL     OW27550   0.677   2.127   5.405 -0.8463 -0.7825 -0.1098
 5306SOL    HW127551   0.752   2.175   5.439  0.3126 -3.1265  0.6785
 5306SOL    HW227552   0.610   2.194   5.407  0.4118  0.5223 -1.4909
 5307SOL     OW27553   0.523   2.670   6.019  0.0828 -0.2854  0.3985
 5307SOL    HW127554   0.584   2.649   6.090 -0.5739  1.5090  1.4868
 5307SOL    HW227555   0.561   2.747   5.979  2.8369 -1.0129  1.5885
 5308SOL     OW27556   3.956   3.331   3.387  0.4439  0.5262  0.3733
 5308SOL    HW127557   3.895   3.262   3.415  1.3372 -1.6230 -3.0379
 5308SOL    HW227558   4.024   3.283   3.339 -0.2713 -0.0501 -0.0674
 5309SOL     OW27559   1.156   2.064   4.339 -0.4655  0.0486 -0.3369
 5309SOL    HW127560   1.133   1.971   4.342 -1.6658  0.3327 -0.5740
 5309SOL    HW227561   1.209   2.064   4.260  0.6220  1.8088  0.3953
 5310SOL     OW27562   3.330   4.666   2.353  0.6702  0.3746  0.2663
 5310SOL    HW127563   3.321   0.018   2.390  0.5956  0.3495  0.3068
 5310SOL    HW227564   3.345   4.623   2.437 -2.0958 -2.3697 -0.6698
 5311SOL     OW27565   4.277   2.582  15.788 -0.2663 -0.3548 -0.5527
 5311SOL    HW127566   4.199   2.637  15.779  0.7353  1.0126 -0.7633
 5311SOL    HW227567   4.247   2.502  15.744 -0.0322  0.3044 -1.9075
 5312SOL     OW27568   3.200   2.436   8.401 -0.1865  0.3978  0.6359
 5312SOL    HW127569   3.233   2.470   8.485 -1.1104 -0.4780  1.3581
 5312SOL    HW227570   3.166   2.353   8.437  1.7506 -0.0329  1.4877
 5313SOL     OW27571   4.721   1.940   7.833  0.0788 -0.0768  0.2574
 5313SOL    HW127572   0.015   1.897   7.754  2.2996  1.9190  0.0295
 5313SOL    HW227573   4.659   1.872   7.859 -1.3801  0.4810 -1.7897
 5314SOL     OW27574   2.511   0.140   8.177  1.0691 -0.2469 -0.4317
 5314SOL    HW127575   2.434   0.083   8.189  1.3461 -0.2157  1.5639
 5314SOL    HW227576   2.550   0.156   8.263  2.9031 -0.2893 -1.2526
 5315SOL     OW27577   2.909   2.134  17.387 -0.1818  0.2864  0.4359
 5315SOL    HW127578   2.918   2.133  17.482 -0.6128  2.6947  0.5068
 5315SOL    HW227579   2.866   2.219  17.380 -2.9512 -1.3927 -3.0444
 5316SOL     OW27580   2.919   2.413   2.535 -0.6873  0.2080  0.3057
 5316SOL    HW127581   2.835   2.428   2.491 -1.6254 -1.3423  1.5717
 5316SOL    HW227582   2.899   2.357   2.610 -0.8630 -0.8854 -0.5504
 5317SOL     OW27583   4.001   3.055   4.253 -0.1613  0.0773  0.3729
 5317SOL    HW127584   4.064   3.112   4.210 -0.1679 -0.5333 -0.4533
 5317SOL    HW227585   3.996   3.105   4.334  1.0565  0.9630 -0.0922
 5318SOL     OW27586   0.843   3.245   8.006 -0.3527  0.1270  0.0899
 5318SOL    HW127587   0.861   3.232   7.913 -3.0124  2.0841 -0.6782
 5318SOL    HW227588   0.874   3.159   8.034  1.3409  1.5296  2.5713
 5319SOL     OW27589   2.131   2.690   8.022 -0.4866 -0.7684  0.2935
 5319SOL    HW127590   2.136   2.781   7.992  3.4329 -1.1097 -0.1284
 5319SOL    HW227591   2.134   2.651   7.935  1.7747  1.8816 -0.8041
 5320SOL     OW27592   1.899   2.164   2.475  0.1063 -0.0812  0.2661
 5320SOL    HW127593   1.954   2.180   2.551 -0.5982  1.1287  0.5141
 5320SOL    HW227594   1.950   2.206   2.405 -0.6707 -0.7138 -0.6942
 5321SOL     OW27595   3.854   2.374   4.317 -0.6060  0.3045  0.2701
 5321SOL    HW127596   3.827   2.287   4.285 -0.3908  1.0946 -2.0558
 5321SOL    HW227597   3.777   2.405   4.364 -1.0123 -0.8613  0.3799
 5322SOL     OW27598   1.838   2.395  10.087  0.0355 -0.4486 -0.1434
 5322SOL    HW127599   1.801   2.350  10.011 -0.9646 -1.2507  0.8215
 5322SOL    HW227600   1.793   2.480  10.084  0.8243 -0.0104  0.3885
 5323SOL     OW27601   1.018   2.307   5.745 -0.4378 -0.7606  0.2729
 5323SOL    HW127602   1.028   2.260   5.828  2.0806 -0.1214  0.3513
 5323SOL    HW227603   1.023   2.230   5.687 -0.9776 -1.7850  1.5786
 5324SOL     OW27604   2.848   1.885   6.992  0.7398 -0.1253 -0.0555
 5324SOL    HW127605   2.904   1.952   6.953  0.2980 -0.7908 -1.8060
 5324SOL    HW227606   2.906   1.873   7.068  0.5058 -3.1868 -0.3658
 5325SOL     OW27607   2.097   2.242  14.354 -0.4738 -0.1099  0.1534
 5325SOL    HW127608   2.163   2.191  14.307 -0.2347  0.2545  0.0949
 5325SOL    HW227609   2.025   2.179  14.347 -0.9134  0.2853  1.0755
 5326SOL     OW27610   3.317   3.416   5.179  0.3818  0.2009  0.5449
 5326SOL    HW127611   3.251   3.361   5.221  1.1421 -0.9283  0.2739
 5326SOL    HW227612   3.369   3.347   5.138 -1.1273 -1.0376  0.7204
 5327SOL     OW27613   4.291   0.505   1.932 -0.5413 -0.1110 -0.5773
 5327SOL    HW127614   4.349   0.571   1.970 -1.2354 -0.1621  0.5585
 5327SOL    HW227615   4.326   0.500   1.843 -0.4469  0.2048 -0.5588
 5328SOL     OW27616   1.026   0.606   5.420 -0.3199 -0.4644 -0.4309
 5328SOL    HW127617   1.034   0.543   5.349 -0.0681 -1.5865  0.5851
 5328SOL    HW227618   1.108   0.597   5.469 -1.0674 -0.5883  0.8190
 5329SOL     OW27619   3.578   4.329   8.888  0.1939 -0.1421  0.2109
 5329SOL    HW127620   3.589   4.334   8.983  0.0721  0.3830  0.1945
 5329SOL    HW227621   3.654   4.374   8.852 -1.1501 -0.4991 -3.0759
 5330SOL     OW27622   3.650   4.013   9.771 -0.7820 -0.1139  0.3846
 5330SOL    HW127623   3.745   4.007   9.782 -0.6408 -2.6025 -2.0848
 5330SOL    HW227624   3.621   3.967   9.850 -0.2640 -0.0076  0.6405
 5331SOL     OW27625   1.311   0.981   1.722  0.3170 -0.3703  0.3495
 5331SOL    HW127626   1.294   0.953   1.633 -0.3255  2.9532 -0.5662
 5331SOL    HW227627   1.406   0.976   1.728  0.1824 -0.7524  2.2920
 5332SOL     OW27628   2.320   2.110   7.429  0.3703 -0.2863 -0.4188
 5332SOL    HW127629   2.410   2.122   7.458  0.1696  0.7907 -0.2322
 5332SOL    HW227630   2.329   2.143   7.340  3.0384  0.0417 -0.0205
 5333SOL     OW27631   1.293   1.715   3.211  0.2881 -0.0420 -0.2899
 5333SOL    HW127632   1.344   1.698   3.290 -0.0323  0.1148 -0.0465
 5333SOL    HW227633   1.205   1.707   3.249  0.1021  2.3454 -0.2092
 5334SOL     OW27634   0.429   1.697   4.656  0.5432  0.0489 -0.0289
 5334SOL    HW127635   0.429   1.682   4.561 -1.0934 -0.2465  0.0048
 5334SOL    HW227636   0.509   1.655   4.685 -0.4668 -1.1336  1.0550
 5335SOL     OW27637   3.908   1.471   1.902  0.0211  0.1527  0.1004
 5335SOL    HW127638   3.862   1.452   1.821 -0.5736  1.5924  0.0996
 5335SOL    HW227639   3.858   1.405   1.950 -1.3289 -0.1919 -1.7693
 5336SOL     OW27640   0.942   4.025   7.535  0.2551  0.0179 -0.4766
 5336SOL    HW127641   1.032   4.047   7.560  1.0566 -0.2015 -3.1899
 5336SOL    HW227642   0.901   4.015   7.621 -3.4223  2.2748 -1.9628
 5337SOL     OW27643   3.513   0.987   8.826 -0.5212  0.2012  0.0702
 5337SOL    HW127644   3.508   1.033   8.910 -2.1159 -0.4885  0.3619
 5337SOL    HW227645   3.430   0.939   8.831 -2.2796  3.2413  0.5209
 5338SOL     OW27646   3.631   3.647   2.038 -0.4185  0.1802  0.5214
 5338SOL    HW127647   3.627   3.709   1.965  0.2573 -0.0108  0.3216
 5338SOL    HW227648   3.654   3.570   1.986  1.3706 -0.9062  2.9090
 5339SOL     OW27649   0.635   0.847  17.259 -0.1096 -0.3051 -0.5864
 5339SOL    HW127650   0.604   0.837  17.349  1.3514 -0.7744 -0.1267
 5339SOL    HW227651   0.726   0.866  17.283 -0.5472  0.1897  0.6430
 5340SOL     OW27652   2.228   0.883   6.542  0.1525 -0.6812  0.2684
 5340SOL    HW127653   2.155   0.939   6.568  0.8178  0.3839 -0.1884
 5340SOL    HW227654   2.310   0.930   6.553 -0.5471 -0.1709  3.5409
 5341SOL     OW27655   1.669   3.380   3.442  0.0971  0.3226 -0.6276
 5341SOL    HW127656   1.739   3.335   3.490 -0.4597  2.2953  2.0517
 5341SOL    HW227657   1.709   3.467   3.454 -1.2059  1.0662 -1.7534
 5342SOL     OW27658   1.523   1.275   2.116 -0.7669  0.0176  0.8319
 5342SOL    HW127659   1.453   1.239   2.062 -0.0668  0.7387 -0.5655
 5342SOL    HW227660   1.583   1.200   2.114 -0.9752 -0.1608  1.4492
 5343SOL     OW27661   4.211   1.525   3.331  0.2785 -0.0778 -0.0828
 5343SOL    HW127662   4.214   1.592   3.263  0.9428  0.4894  0.5015
 5343SOL    HW227663   4.294   1.540   3.376 -1.5176  2.0842  2.5718
 5344SOL     OW27664   0.205   0.088   1.099 -0.0843  0.0954 -0.5152
 5344SOL    HW127665   0.290   0.052   1.073 -0.2854  0.8220 -2.1789
 5344SOL    HW227666   0.208   0.079   1.194 -0.8727  0.3250 -0.4695
 5345SOL     OW27667   3.691   1.042   2.497  0.7983 -0.0699  0.0786
 5345SOL    HW127668   3.712   0.992   2.576 -0.8754 -0.7893  0.0729
 5345SOL    HW227669   3.712   0.981   2.426 -0.5329 -1.8433  1.1865
 5346SOL     OW27670   3.644   0.810   9.094  0.6400 -0.1283 -0.0128
 5346SOL    HW127671   3.706   0.807   9.167  0.0734  0.0637  0.4766
 5346SOL    HW227672   3.582   0.741   9.119 -0.4420  1.1255  0.7359
 5347SOL     OW27673   3.805   4.574  11.813  0.1951  0.3949 -0.4721
 5347SOL    HW127674   3.841   4.496  11.772 -0.3918  0.8365 -1.8011
 5347SOL    HW227675   3.888   4.622  11.811 -1.0450  2.3733 -2.8830
 5348SOL     OW27676   4.037   1.588   8.697 -0.3794 -0.0639 -0.1706
 5348SOL    HW127677   3.942   1.579   8.704 -0.2733 -1.5733 -0.5823
 5348SOL    HW227678   4.064   1.630   8.779  0.8672  1.0736 -1.1689
 5349SOL     OW27679   2.274   2.449  12.482 -0.3285 -0.4542 -0.0100
 5349SOL    HW127680   2.234   2.366  12.509 -0.9239  0.3368  1.5316
 5349SOL    HW227681   2.196   2.491  12.447 -1.1405 -1.7334  0.2826
 5350SOL     OW27682   0.756   4.037  11.788 -0.4881 -0.3767  0.6528
 5350SOL    HW127683   0.729   4.055  11.698 -0.1283  1.6711  0.9508
 5350SOL    HW227684   0.730   4.117  11.833 -0.7507 -0.6129  0.9280
 5351SOL     OW27685   2.741   0.860  11.355  0.3794 -0.1676 -0.3254
 5351SOL    HW127686   2.807   0.811  11.305 -1.1866 -1.6563 -0.9314
 5351SOL    HW227687   2.728   0.942  11.306  1.1015 -0.6317 -1.3080
 5352SOL     OW27688   3.226   0.075   5.062 -0.1366 -0.4134 -0.2229
 5352SOL    HW127689   3.273   0.111   4.987 -2.2423  0.1552 -1.2670
 5352SOL    HW227690   3.153   0.136   5.058 -1.3200 -1.8659 -0.6838
 5353SOL     OW27691   2.060   2.825   2.065 -0.1018  0.5211 -0.2364
 5353SOL    HW127692   1.967   2.816   2.047  0.0232 -4.1372  1.5753
 5353SOL    HW227693   2.055   2.863   2.153 -0.1175 -0.0286 -0.0050
 5354SOL     OW27694   3.142   0.822  17.430  0.4359 -0.0327  0.6454
 5354SOL    HW127695   3.162   0.750  17.370  1.0346  1.5199 -1.0191
 5354SOL    HW227696   3.190   0.895  17.392  0.1731 -0.4443 -0.4784
 5355SOL     OW27697   3.533   2.586   7.099  0.1918  0.0477  0.8508
 5355SOL    HW127698   3.616   2.605   7.055  0.4695 -2.1154  0.4518
 5355SOL    HW227699   3.510   2.671   7.135 -3.2577 -0.5217 -0.0499
 5356SOL     OW27700   2.866   1.047   3.695  0.2690 -0.0523 -0.4008
 5356SOL    HW127701   2.921   1.108   3.744 -1.2370 -2.1384  3.9163
 5356SOL    HW227702   2.898   0.960   3.719 -2.9303 -0.7897  1.2002
 5357SOL     OW27703   3.285   3.393  10.454  0.2808 -0.0533  0.5690
 5357SOL    HW127704   3.329   3.325  10.403  0.8902 -0.8152  2.1478
 5357SOL    HW227705   3.266   3.456  10.384  1.3802 -0.5743 -0.2100
 5358SOL     OW27706   0.354   4.348   3.218  0.2947  0.8742  0.1510
 5358SOL    HW127707   0.301   4.270   3.230  0.7946  0.5366  0.1391
 5358SOL    HW227708   0.400   4.327   3.137 -0.2413  1.4386 -0.3050
 5359SOL     OW27709   2.564   4.216   8.781 -0.2878  0.5737 -0.4523
 5359SOL    HW127710   2.520   4.217   8.866 -0.0921  2.9251 -0.3896
 5359SOL    HW227711   2.487   4.223   8.725 -0.8141 -2.4299 -0.1232
 5360SOL     OW27712   1.139   3.550  10.695 -0.5329  0.0286  0.3709
 5360SOL    HW127713   1.130   3.644  10.675  0.4453 -0.6154 -3.1280
 5360SOL    HW227714   1.082   3.546  10.772 -1.0980 -1.7751 -0.1490
 5361SOL     OW27715   2.474   0.798   8.361  0.4358 -0.0691  0.0919
 5361SOL    HW127716   2.431   0.779   8.278  1.4905  1.2855 -0.7372
 5361SOL    HW227717   2.530   0.722   8.380  0.4791  0.2069  1.0786
 5362SOL     OW27718   4.488   0.055   4.872  0.1995  0.5382 -0.3359
 5362SOL    HW127719   4.579   0.076   4.852 -0.7375  1.5670 -3.6209
 5362SOL    HW227720   4.457   0.146   4.875 -1.1153  0.1223 -1.0899
 5363SOL     OW27721   3.229   1.062   4.726 -0.3424 -0.4837  0.4423
 5363SOL    HW127722   3.174   1.114   4.669 -1.0453 -0.4644  1.1337
 5363SOL    HW227723   3.182   0.979   4.727  0.2595 -0.8318 -0.0474
 5364SOL     OW27724   1.104   0.998   6.144  0.5731 -0.4290  0.7531
 5364SOL    HW127725   1.171   1.067   6.141 -1.4480  1.5342  0.6879
 5364SOL    HW227726   1.024   1.046   6.124  1.1427 -0.0197 -0.5834
 5365SOL     OW27727   4.612   3.076   7.092  0.2250  0.5521  0.2028
 5365SOL    HW127728   4.532   3.054   7.045  1.5927 -1.1203 -1.2922
 5365SOL    HW227729   4.635   2.994   7.136  0.7299  0.2112 -0.7039
 5366SOL     OW27730   1.551   4.416  11.708 -0.0637  0.0143  0.2124
 5366SOL    HW127731   1.518   4.486  11.764  1.8295 -1.2051  2.8719
 5366SOL    HW227732   1.474   4.414  11.651 -0.0985 -0.7041  0.2843
 5367SOL     OW27733   0.170   2.175   5.376  0.0134 -0.5131 -0.4059
 5367SOL    HW127734   0.169   2.211   5.464 -0.0518 -2.5091  0.4026
 5367SOL    HW227735   0.194   2.084   5.390  1.5885 -0.0989 -0.4353
 5368SOL     OW27736   0.857   2.717   5.015 -0.1729 -0.2584 -0.3493
 5368SOL    HW127737   0.917   2.727   5.089  1.5542  2.7863 -2.1887
 5368SOL    HW227738   0.920   2.737   4.946 -0.1777  1.9477  0.2835
 5369SOL     OW27739   4.234   0.172   5.679 -0.1232 -0.1868  0.4659
 5369SOL    HW127740   4.252   0.209   5.766  2.2273 -1.3223  0.4626
 5369SOL    HW227741   4.222   0.083   5.713  0.5777 -1.3429 -2.3077
 5370SOL     OW27742   1.276   0.532   8.907 -0.0593  0.0346  0.2892
 5370SOL    HW127743   1.321   0.467   8.960 -0.0230  0.7932  1.1988
 5370SOL    HW227744   1.190   0.494   8.892  1.1763 -2.4027 -0.5975
 5371SOL     OW27745   2.934   2.143   6.506  0.5422  0.3372  0.4719
 5371SOL    HW127746   2.939   2.050   6.528  1.3625 -0.0900 -1.5305
 5371SOL    HW227747   2.844   2.170   6.521 -0.1433 -0.5025 -2.0711
 5372SOL     OW27748   4.368   1.329   5.399 -0.7884  0.1703  0.4613
 5372SOL    HW127749   4.437   1.269   5.429 -1.1000 -0.7882 -0.7326
 5372SOL    HW227750   4.380   1.331   5.304  2.2878  4.9428  0.9769
 5373SOL     OW27751   1.802   0.630   7.883 -0.4155  0.5273  0.0383
 5373SOL    HW127752   1.806   0.563   7.815  0.5000  1.2725 -0.6393
 5373SOL    HW227753   1.727   0.678   7.846 -0.3973 -0.5712 -1.3954
 5374SOL     OW27754   0.012   2.453  16.714 -0.1611  0.4295  0.6786
 5374SOL    HW127755   0.023   2.502  16.633 -1.0516  0.1304  0.3724
 5374SOL    HW227756   4.653   2.447  16.716 -0.1080 -0.5304  0.4832
 5375SOL     OW27757   1.382   1.565   6.282  0.0918 -0.6072 -0.0108
 5375SOL    HW127758   1.378   1.617   6.202  0.3270  1.3581  1.2522
 5375SOL    HW227759   1.454   1.505   6.264 -0.4595 -1.4512  0.6077
 5376SOL     OW27760   1.130   1.143   4.988 -0.0074  0.1337  0.6334
 5376SOL    HW127761   1.148   1.203   5.060 -0.6725  1.8655 -0.6548
 5376SOL    HW227762   1.040   1.114   5.003 -0.2536 -0.0619 -1.2101
 5377SOL     OW27763   0.286   2.010   9.116  0.4173  0.5945 -0.0370
 5377SOL    HW127764   0.366   1.960   9.132 -0.2707  0.0634  1.7697
 5377SOL    HW227765   0.225   1.937   9.102  0.6821  0.5636 -1.0294
 5378SOL     OW27766   3.647   1.805   7.577 -0.1976  0.0694  0.1558
 5378SOL    HW127767   3.710   1.872   7.551 -0.8738  0.7922  0.3640
 5378SOL    HW227768   3.568   1.859   7.572 -0.6170 -0.2867  3.3175
 5379SOL     OW27769   0.974   3.804  11.433 -0.0619 -0.1172  0.8029
 5379SOL    HW127770   1.038   3.872  11.415 -1.3613  0.7873 -0.4281
 5379SOL    HW227771   0.893   3.856  11.435  1.1406  1.6957  1.5878
 5380SOL     OW27772   0.243   1.279   7.892  0.4567  0.0073 -0.9129
 5380SOL    HW127773   0.271   1.370   7.901  1.2656 -0.3248  0.0047
 5380SOL    HW227774   0.255   1.244   7.981 -0.7131  1.6450 -0.1063
 5381SOL     OW27775   2.861   3.345  15.562 -0.1047  0.7166 -0.0811
 5381SOL    HW127776   2.813   3.428  15.550 -1.2298 -0.0337 -0.7956
 5381SOL    HW227777   2.948   3.384  15.565  0.6390 -1.0599  1.0878
 5382SOL     OW27778   4.570   2.757   8.421  0.5181  0.1443 -0.8390
 5382SOL    HW127779   4.663   2.738   8.424  0.7290  1.8354  3.4383
 5382SOL    HW227780   4.566   2.792   8.510 -0.3566 -3.1401  0.3920
 5383SOL     OW27781   4.400   3.799  10.492  0.0717  0.2922 -0.1086
 5383SOL    HW127782   4.487   3.765  10.470  0.2430  1.2083 -0.8527
 5383SOL    HW227783   4.403   3.782  10.586 -0.3563  0.9243  0.0169
 5384SOL     OW27784   2.790   0.653   6.614 -0.6242  0.1720  0.5608
 5384SOL    HW127785   2.753   0.682   6.698 -2.1233  1.3211 -0.4942
 5384SOL    HW227786   2.743   0.704   6.548  1.2666 -1.4082 -2.0110
 5385SOL     OW27787   3.501   4.736  16.605  0.1854  0.6675 -0.2858
 5385SOL    HW127788   3.422   4.732  16.658  0.9118  0.5660  0.7994
 5385SOL    HW227789   3.470   4.686  16.530 -2.2653  2.3159 -0.3624
 5386SOL     OW27790   3.659   3.691   2.502  0.1110 -0.0312  0.1554
 5386SOL    HW127791   3.605   3.707   2.425 -0.9358 -1.4046  0.6072
 5386SOL    HW227792   3.740   3.724   2.461  0.3079 -1.3021 -0.5071
 5387SOL     OW27793   0.300   2.399   3.367  0.4227  0.2336  0.1838
 5387SOL    HW127794   0.305   2.348   3.286  1.9974 -0.5926  0.7958
 5387SOL    HW227795   0.214   2.364   3.392  0.6797 -0.7178 -0.2321
 5388SOL     OW27796   1.036   1.501   7.773  0.7827 -0.4679 -0.2466
 5388SOL    HW127797   1.086   1.508   7.855  2.8778 -0.2131 -1.5577
 5388SOL    HW227798   0.998   1.588   7.764  1.0590 -0.4091 -0.8388
 5389SOL     OW27799   2.778   1.463   3.578  0.0359  0.3284 -0.4449
 5389SOL    HW127800   2.688   1.443   3.605 -0.0510 -0.5636 -1.4071
 5389SOL    HW227801   2.814   1.533   3.632 -0.8403 -1.4488  2.3994
 5390SOL     OW27802   4.309   4.361   6.003  0.1533 -0.3409  0.5668
 5390SOL    HW127803   4.329   4.344   5.911  1.5022  0.8804  0.6480
 5390SOL    HW227804   4.213   4.362   6.002  0.1575 -0.6001 -0.2033
 5391SOL     OW27805   3.580   4.519  10.265 -0.6847 -0.0186 -0.0139
 5391SOL    HW127806   3.538   4.530  10.351 -0.0430  0.8911  0.1781
 5391SOL    HW227807   3.601   4.612  10.259 -0.6352  0.0874  1.6637
 5392SOL     OW27808   0.386   3.702   8.697  0.2037  0.2109  0.9214
 5392SOL    HW127809   0.386   3.779   8.754 -0.7615  0.3530  0.7360
 5392SOL    HW227810   0.338   3.637   8.750  2.3425 -1.2824  1.0404
 5393SOL     OW27811   2.230   1.653   7.004  0.5684  0.7574 -0.0436
 5393SOL    HW127812   2.269   1.582   7.055  2.7726  1.3983 -0.8492
 5393SOL    HW227813   2.254   1.726   7.061 -1.1294  1.7518 -0.6132
 5394SOL     OW27814   1.455   2.944  15.475 -0.8276 -0.1616 -0.0969
 5394SOL    HW127815   1.366   2.943  15.441 -1.4883  2.3582  1.5327
 5394SOL    HW227816   1.452   2.852  15.502  0.6301  0.6404  2.8951
 5395SOL     OW27817   2.674   2.140   4.970  0.0504 -0.1165  0.1145
 5395SOL    HW127818   2.723   2.157   4.890  0.3153  3.1332  0.9783
 5395SOL    HW227819   2.600   2.201   4.973  0.4267  0.3791 -0.7359
 5396SOL     OW27820   4.199   1.709  17.636 -0.2641 -0.2679 -0.4101
 5396SOL    HW127821   4.188   1.736  17.545  4.2100 -3.2060 -1.8182
 5396SOL    HW227822   4.124   1.743  17.685  0.5026 -0.0677  0.6278
 5397SOL     OW27823   1.488   1.845  16.283 -0.2443  0.1045 -0.1379
 5397SOL    HW127824   1.538   1.785  16.229 -0.7899 -1.0203  0.6078
 5397SOL    HW227825   1.517   1.936  16.270 -0.2761  0.2301  0.6791
 5398SOL     OW27826   0.446   3.497   2.266  0.1989 -0.1006 -0.3871
 5398SOL    HW127827   0.447   3.438   2.341 -2.1503 -0.0137 -0.2925
 5398SOL    HW227828   0.355   3.525   2.271 -0.0593 -0.7642 -1.2234
 5399SOL     OW27829   2.887   4.528   1.464  0.0434  0.9300  0.0811
 5399SOL    HW127830   2.946   4.455   1.443 -0.5112  0.9685 -1.6519
 5399SOL    HW227831   2.836   4.493   1.536  0.9410 -0.2570  0.1479
 5400SOL     OW27832   4.039   0.369   1.920 -0.0493 -0.4614  0.1082
 5400SOL    HW127833   4.077   0.281   1.918  0.1929 -0.3443 -0.3141
 5400SOL    HW227834   4.116   0.424   1.929  0.0685 -0.9967  2.5598
 5401SOL     OW27835   3.687   1.804   8.457 -0.0107 -0.4934 -0.5227
 5401SOL    HW127836   3.616   1.815   8.520  0.0239 -1.7641 -0.2532
 5401SOL    HW227837   3.677   1.884   8.405  0.9282  0.0289  0.1070
 5402SOL     OW27838   0.540   0.713   3.863  0.2778  0.0338  0.2097
 5402SOL    HW127839   0.449   0.701   3.837  0.2593 -2.5881  1.5252
 5402SOL    HW227840   0.587   0.638   3.828  1.4794  0.4562  0.8832
 5403SOL     OW27841   2.269   3.082   8.072  0.0273 -0.3540 -0.3255
 5403SOL    HW127842   2.184   3.106   8.109 -0.0273  0.4141 -0.9655
 5403SOL    HW227843   2.238   3.047   7.988 -0.2062 -1.3952  0.1864
 5404SOL     OW27844   1.279   4.311  16.712  0.0964 -0.3618  0.0495
 5404SOL    HW127845   1.269   4.236  16.770 -1.3474 -0.3309 -0.1686
 5404SOL    HW227846   1.374   4.307  16.697 -0.1595  2.1062 -2.1895
 5405SOL     OW27847   2.969   3.824   7.813  0.0020 -0.3267 -0.0555
 5405SOL    HW127848   2.912   3.792   7.883  0.8041 -0.6220  0.4520
 5405SOL    HW227849   3.056   3.817   7.851  0.3680  1.4689 -0.5520
 5406SOL     OW27850   4.336   0.768   4.568  0.5801 -0.5529  0.4011
 5406SOL    HW127851   4.255   0.820   4.574  1.5740  1.2375 -1.8640
 5406SOL    HW227852   4.353   0.746   4.659  0.9604  0.9845  0.6976
 5407SOL     OW27853   2.984   2.599   6.042  0.4225  0.4177  0.2490
 5407SOL    HW127854   2.897   2.596   6.002  0.1684  4.2508  0.5751
 5407SOL    HW227855   2.987   2.523   6.101 -0.8531 -2.4483 -3.3347
 5408SOL     OW27856   2.993   1.511  17.534 -0.1117 -0.9403 -0.4580
 5408SOL    HW127857   3.070   1.463  17.564 -0.3761  0.1218  1.9621
 5408SOL    HW227858   3.031   1.574  17.473 -0.0374 -2.1654 -1.6784
 5409SOL     OW27859   3.217   2.500  15.923  0.0401  0.6513  0.3894
 5409SOL    HW127860   3.237   2.425  15.978 -1.4808 -1.0058 -1.3288
 5409SOL    HW227861   3.181   2.561  15.988 -1.6888  0.0793 -0.0416
 5410SOL     OW27862   0.187   3.415   9.380  0.4686  0.0159 -0.3001
 5410SOL    HW127863   0.221   3.394   9.467 -0.4074  2.6114  0.6569
 5410SOL    HW227864   0.203   3.508   9.396 -0.3676  0.3823 -1.5920
 5411SOL     OW27865   1.064   0.096   6.781  0.2214 -0.1934  0.0164
 5411SOL    HW127866   1.055   0.124   6.872  0.5074 -0.1625  0.0369
 5411SOL    HW227867   1.132   0.028   6.790 -1.4986 -2.0702 -1.0765
 5412SOL     OW27868   4.225   2.415   1.467  0.0586 -0.6085 -0.3346
 5412SOL    HW127869   4.268   2.479   1.410  0.1946  1.0764  1.6713
 5412SOL    HW227870   4.155   2.380   1.412 -0.3197  2.0721 -1.5957
 5413SOL     OW27871   1.154   4.695   2.223  0.2269  0.0643  0.2955
 5413SOL    HW127872   1.201   4.613   2.238 -1.8638 -1.0408  0.8302
 5413SOL    HW227873   1.214   0.004   2.164 -1.0706  1.8604  0.3366
 5414SOL     OW27874   2.743   4.113   6.625  0.2951 -0.3311 -0.5767
 5414SOL    HW127875   2.770   4.176   6.692 -0.9433 -1.0168  0.5507
 5414SOL    HW227876   2.803   4.039   6.636  1.7445  0.9699  0.2683
 5415SOL     OW27877   1.506   2.984   3.264 -0.8071 -0.0706 -0.2091
 5415SOL    HW127878   1.546   2.935   3.336 -0.4453  0.6046  0.0483
 5415SOL    HW227879   1.516   2.925   3.189  1.6819  0.7104 -0.4954
 5416SOL     OW27880   1.065   1.860  16.151 -0.1124  0.5928 -0.8169
 5416SOL    HW127881   1.003   1.862  16.223 -0.0871  1.0930 -0.8133
 5416SOL    HW227882   1.011   1.896  16.081 -2.2459 -1.4319 -0.2297
 5417SOL     OW27883   3.040   2.677   0.671  0.2135  0.0425  0.7509
 5417SOL    HW127884   3.077   2.754   0.628  0.9385 -0.6958  0.0427
 5417SOL    HW227885   3.123   2.629   0.660 -0.6898 -1.3082 -0.0701
 5418SOL     OW27886   4.505   2.818   5.544 -0.1186  0.2364 -0.0543
 5418SOL    HW127887   4.517   2.875   5.620 -2.0435 -0.2213  0.6062
 5418SOL    HW227888   4.505   2.888   5.479 -0.3544 -0.3335 -0.6607
 5419SOL     OW27889   3.019   2.108   6.942 -1.0146 -0.1754 -0.1309
 5419SOL    HW127890   3.050   2.146   7.025  0.6707  0.3267 -1.0090
 5419SOL    HW227891   2.993   2.183   6.888  1.1286  0.3886 -0.3446
 5420SOL     OW27892   2.681   0.861   3.409  0.8220  0.4486  0.4467
 5420SOL    HW127893   2.649   0.941   3.453  0.9924  1.2021 -0.7914
 5420SOL    HW227894   2.611   0.833   3.351  0.7633  1.0878  0.2080
 5421SOL     OW27895   1.337   3.270   4.545 -1.3380  0.2288  0.2683
 5421SOL    HW127896   1.320   3.348   4.492 -0.3485  0.2895  0.0286
 5421SOL    HW227897   1.254   3.255   4.590 -1.1227 -0.8568  0.3039
 5422SOL     OW27898   4.736   1.311  11.428 -0.3015 -0.4134 -0.0438
 5422SOL    HW127899   0.092   1.315  11.453 -0.6115 -2.2092  1.4183
 5422SOL    HW227900   4.705   1.243  11.488  2.2371 -0.7722  0.8601
 5423SOL     OW27901   1.719   2.098   5.988  0.2573 -0.2363  0.1873
 5423SOL    HW127902   1.770   2.019   5.971 -0.9867 -0.7002 -1.2728
 5423SOL    HW227903   1.690   2.130   5.903 -1.8136 -2.1975  0.1699
 5424SOL     OW27904   3.203   3.221   7.943 -0.0571 -0.1759  0.0053
 5424SOL    HW127905   3.278   3.173   7.907  0.6150  0.5191  0.4770
 5424SOL    HW227906   3.137   3.153   7.928 -0.4948  0.3388 -0.3805
 5425SOL     OW27907   3.723   0.022   8.265 -0.1569 -0.4280  0.5413
 5425SOL    HW127908   3.729   4.703   8.343 -1.6509 -0.1026  0.8899
 5425SOL    HW227909   3.814   0.023   8.234  0.7119  3.1061  3.1103
 5426SOL     OW27910   0.294   3.587   3.126 -0.3791 -0.1478  0.2150
 5426SOL    HW127911   0.252   3.538   3.196  1.0156 -1.7305 -0.0631
 5426SOL    HW227912   0.375   3.615   3.168 -2.1468 -0.0057  3.4920
 5427SOL     OW27913   4.702   3.162   2.509  0.2438  0.3060 -0.3214
 5427SOL    HW127914   0.040   3.204   2.553 -0.8258  0.5719  1.2098
 5427SOL    HW227915   4.646   3.144   2.584  0.3170  0.7740 -0.1572
 5428SOL     OW27916   1.730   4.229   2.938  0.6631 -0.4903  0.0751
 5428SOL    HW127917   1.682   4.275   3.008 -1.0539 -1.9313 -0.1555
 5428SOL    HW227918   1.657   4.200   2.883  2.1389 -2.6603 -0.7133
 5429SOL     OW27919   0.840   2.869  10.873  0.4951 -0.6074  0.0768
 5429SOL    HW127920   0.782   2.895  10.944  0.0039  0.3451 -0.6696
 5429SOL    HW227921   0.927   2.865  10.913  0.0051  1.7205  1.3275
 5430SOL     OW27922   3.556   2.809   2.642 -0.2802 -0.0458 -0.1146
 5430SOL    HW127923   3.616   2.847   2.706 -1.1254 -0.3701  0.8545
 5430SOL    HW227924   3.574   2.715   2.649 -0.1815 -0.1333 -1.3855
 5431SOL     OW27925   3.465   4.276   4.024  0.3143 -0.6170 -0.9111
 5431SOL    HW127926   3.422   4.353   4.060 -0.4543 -0.4064 -2.2833
 5431SOL    HW227927   3.483   4.221   4.100  2.5623  1.4921  0.0802
 5432SOL     OW27928   2.459   1.709   2.836  0.2940  0.2002  0.0703
 5432SOL    HW127929   2.408   1.683   2.913 -1.3358  1.7560 -0.4746
 5432SOL    HW227930   2.388   1.702   2.772 -0.3792 -0.0473  0.8390
 5433SOL     OW27931   1.026   2.639  11.663  0.9889  0.1324 -0.5093
 5433SOL    HW127932   0.946   2.681  11.694 -0.3192  0.1762 -3.9171
 5433SOL    HW227933   1.019   2.673  11.574 -0.7677 -2.4953 -1.3769
 5434SOL     OW27934   3.580   1.358   7.232  0.0112 -0.0308  0.5964
 5434SOL    HW127935   3.531   1.277   7.248  1.1409 -0.5458  1.4790
 5434SOL    HW227936   3.561   1.376   7.140  0.7340 -0.6353  0.3201
 5435SOL     OW27937   1.020   3.432   2.969  0.3359  0.2787 -0.3318
 5435SOL    HW127938   1.082   3.482   3.022  0.1959 -0.5445  0.6046
 5435SOL    HW227939   0.940   3.484   2.961  0.1470  0.1345  0.6251
 5436SOL     OW27940   3.454   4.319   0.957  0.8119 -0.6945 -0.0339
 5436SOL    HW127941   3.430   4.352   1.043  1.6010  1.0616 -0.4751
 5436SOL    HW227942   3.367   4.294   0.925  0.8276 -0.4902 -0.2379
 5437SOL     OW27943   1.064   0.242  12.557  0.2160  0.1654 -0.3857
 5437SOL    HW127944   1.078   0.323  12.607  0.0949 -0.0753  0.0423
 5437SOL    HW227945   1.050   0.283  12.471 -1.9898  0.5481  0.1304
 5438SOL     OW27946   1.345   0.215   6.971  0.0664 -0.4029  0.1413
 5438SOL    HW127947   1.321   0.141   7.027 -0.7418  0.2648  0.6906
 5438SOL    HW227948   1.426   0.244   7.014 -0.7628  3.0784 -0.6185
 5439SOL     OW27949   3.791   4.145   8.242  0.5561 -0.1631  0.1859
 5439SOL    HW127950   3.772   4.057   8.275  0.5775 -0.4850 -0.6494
 5439SOL    HW227951   3.728   4.160   8.172 -0.3086  2.2939  1.4945
 5440SOL     OW27952   2.296   4.484   6.200  0.1324 -0.3016  0.8548
 5440SOL    HW127953   2.366   4.439   6.247  1.7799  0.7268 -0.5952
 5440SOL    HW227954   2.278   4.550   6.266  0.7241  0.3712  0.3435
 5441SOL     OW27955   4.259   2.322   0.074  0.2262 -0.2426 -0.2200
 5441SOL    HW127956   4.208   2.392   0.115  2.2986  0.9158  0.3489
 5441SOL    HW227957   4.202   2.306  17.742 -0.2574 -2.0238  0.5150
 5442SOL     OW27958   2.529   3.306   0.610 -1.0860  0.3519 -0.7694
 5442SOL    HW127959   2.469   3.285   0.538 -0.4845 -1.0247 -0.8518
 5442SOL    HW227960   2.600   3.336   0.553 -2.2772 -0.7876 -2.8588
 5443SOL     OW27961   0.817   3.004   0.612 -0.2268  0.7588 -0.7529
 5443SOL    HW127962   0.905   2.977   0.586 -0.8842 -2.6854  0.6332
 5443SOL    HW227963   0.828   3.091   0.650  2.0628 -0.2396  0.8934
 5444SOL     OW27964   3.411   0.259   5.996  0.1206  0.0504  0.3439
 5444SOL    HW127965   3.452   0.172   5.997 -1.7617 -0.8466 -1.5148
 5444SOL    HW227966   3.331   0.254   5.945  0.0417 -0.9098  0.5437
 5445SOL     OW27967   0.274   1.357  14.731 -0.4243  0.2090 -0.3117
 5445SOL    HW127968   0.300   1.265  14.721 -0.2348  0.1307  0.9028
 5445SOL    HW227969   0.239   1.375  14.644  0.5321  2.6819 -0.1881
 5446SOL     OW27970   3.525   3.457  12.367 -0.6385  0.0481  0.2151
 5446SOL    HW127971   3.434   3.432  12.384 -0.4160 -1.5131 -0.8767
 5446SOL    HW227972   3.512   3.549  12.345  2.1184  0.2145 -0.6925
 5447SOL     OW27973   4.540   1.752   7.906  0.0447  0.7703  0.1875
 5447SOL    HW127974   4.583   1.670   7.933 -3.6138 -0.4682  2.2895
 5447SOL    HW227975   4.462   1.759   7.961  0.1987 -0.7171  0.6009
 5448SOL     OW27976   1.936   2.841   7.178 -0.0009 -0.3978 -0.1404
 5448SOL    HW127977   1.902   2.798   7.100  0.4623  0.9057 -1.0697
 5448SOL    HW227978   2.026   2.843   7.145 -0.0205  2.7104 -0.0081
 5449SOL     OW27979   2.176   3.911   9.870  0.0575 -0.3981 -0.6840
 5449SOL    HW127980   2.179   3.898   9.965  1.1477  0.7778 -0.5607
 5449SOL    HW227981   2.229   3.991   9.865 -1.4497  0.6797  0.6771
 5450SOL     OW27982   0.551   4.423   1.619  0.2529  0.3396 -0.3640
 5450SOL    HW127983   0.533   4.413   1.526 -2.3006  0.4263  0.1133
 5450SOL    HW227984   0.512   4.505   1.648 -1.4483 -0.5989  0.0438
 5451SOL     OW27985   4.128   0.294   1.190 -0.7862  0.8240  0.0676
 5451SOL    HW127986   4.070   0.219   1.175  0.1425 -0.4994  3.2343
 5451SOL    HW227987   4.135   0.333   1.102 -1.0679  1.5000  0.3444
 5452SOL     OW27988   2.999   1.737  15.913 -0.4288 -0.4074 -0.4083
 5452SOL    HW127989   3.029   1.650  15.885 -0.2673 -0.2406 -0.7491
 5452SOL    HW227990   2.905   1.725  15.918 -0.2884 -0.9067  1.0594
 5453SOL     OW27991   1.905   3.947  17.284  0.0423 -0.0355 -0.0107
 5453SOL    HW127992   1.984   3.893  17.281  0.4014  0.5159 -0.3676
 5453SOL    HW227993   1.925   4.003  17.210 -2.3075 -0.4330 -0.9720
 5454SOL     OW27994   3.095   3.654   2.107  0.2021  0.1436  0.1571
 5454SOL    HW127995   3.187   3.633   2.095  0.3107  1.4514 -1.3687
 5454SOL    HW227996   3.060   3.565   2.102 -1.7685  0.8466  1.4568
 5455SOL     OW27997   1.020   0.627  12.065 -0.0712  0.2851 -0.1188
 5455SOL    HW127998   0.925   0.621  12.054 -0.2032  1.0351  0.5832
 5455SOL    HW227999   1.046   0.535  12.062  1.5036  0.6866  0.9816
 5456SOL     OW28000   3.350   0.353  10.735 -0.4941  1.0401  0.2149
 5456SOL    HW128001   3.312   0.438  10.714 -3.0768  0.5148  2.8130
 5456SOL    HW228002   3.356   0.326  10.643 -2.1042 -0.6159  0.6115
 5457SOL     OW28003   3.725   1.300   5.633 -0.0557 -0.2926  0.3632
 5457SOL    HW128004   3.783   1.337   5.700  1.6064 -0.7015 -0.8486
 5457SOL    HW228005   3.639   1.306   5.675  0.2462  2.9294  0.5503
 5458SOL     OW28006   1.445   2.725   7.800 -0.1961  0.3233  0.5853
 5458SOL    HW128007   1.355   2.748   7.824 -0.0107 -0.5738  2.0807
 5458SOL    HW228008   1.439   2.630   7.806  0.1643  0.2052 -0.8462
 5459SOL     OW28009   3.331   1.328   4.248 -0.1971 -0.1183 -0.4763
 5459SOL    HW128010   3.303   1.385   4.176  5.0911  0.2994 -2.1571
 5459SOL    HW228011   3.347   1.247   4.201  1.4508 -1.3235  2.1465
 5460SOL     OW28012   2.146   4.494  15.481 -0.3930 -0.3604 -0.8458
 5460SOL    HW128013   2.217   4.464  15.538 -1.0182  0.3563  0.3014
 5460SOL    HW228014   2.182   4.582  15.469 -1.1910  0.2845  1.6372
 5461SOL     OW28015   3.468   3.629   0.694  0.2168 -0.3592 -0.4170
 5461SOL    HW128016   3.465   3.538   0.664 -2.5907  0.5990 -3.0841
 5461SOL    HW228017   3.536   3.620   0.760  1.6529  0.7502 -1.7719
 5462SOL     OW28018   4.165   2.709   5.886 -0.5613 -0.0052  0.2284
 5462SOL    HW128019   4.255   2.743   5.893 -0.2616 -0.2357 -2.3608
 5462SOL    HW228020   4.158   2.693   5.792 -0.6754  0.3275  0.1780
 5463SOL     OW28021   2.040   4.576   9.384 -0.9574 -0.3109  0.6043
 5463SOL    HW128022   2.084   4.656   9.357 -1.8223  0.1419  0.5088
 5463SOL    HW228023   1.979   4.610   9.450  0.9077  1.5573  1.3564
 5464SOL     OW28024   3.341   3.572   2.043  0.4235 -0.0463  0.1159
 5464SOL    HW128025   3.368   3.585   1.952 -1.9137  1.8733 -0.2965
 5464SOL    HW228026   3.424   3.572   2.091 -0.3135 -1.4786  1.3972
 5465SOL     OW28027   2.283   3.624   4.932  0.3018 -0.6727  0.1589
 5465SOL    HW128028   2.218   3.580   4.988  2.5205 -1.9794  1.6848
 5465SOL    HW228029   2.349   3.557   4.913 -0.1730 -0.4206 -2.4066
 5466SOL     OW28030   1.475   4.226   5.981  0.2733  0.0124  0.2196
 5466SOL    HW128031   1.484   4.244   5.887  0.9808 -0.7868  0.1320
 5466SOL    HW228032   1.408   4.158   5.986  2.1559 -1.8432  0.1277
 5467SOL     OW28033   1.605   1.657   8.713  0.1840  0.4538 -0.3533
 5467SOL    HW128034   1.618   1.567   8.683  0.4812  0.1067  0.8255
 5467SOL    HW228035   1.512   1.676   8.702  0.0408 -0.3155 -0.4244
 5468SOL     OW28036   2.538   3.232   7.034  0.4110  0.9340 -0.2761
 5468SOL    HW128037   2.559   3.141   7.013  1.9726  0.8015  1.7486
 5468SOL    HW228038   2.456   3.242   6.987  0.0987 -2.5440 -0.4791
 5469SOL     OW28039   2.488   0.289   7.944 -0.0307  0.4731  0.5112
 5469SOL    HW128040   2.538   0.364   7.975  0.1239 -0.2479  2.0062
 5469SOL    HW228041   2.478   0.231   8.019 -1.3050 -0.7195 -0.5849
 5470SOL     OW28042   0.537   0.786  17.510  0.7793  0.4357 -0.5487
 5470SOL    HW128043   0.441   0.782  17.509  0.8126 -0.8128  1.7372
 5470SOL    HW228044   0.556   0.784  17.604  1.5407 -1.9661 -0.7616
 5471SOL     OW28045   3.739   0.331   1.488  0.1756 -0.4953 -0.0301
 5471SOL    HW128046   3.777   0.364   1.406  0.2916 -1.2675 -0.2824
 5471SOL    HW228047   3.795   0.364   1.558 -1.3970  1.2521  0.4086
 5472SOL     OW28048   2.311   2.375  10.838  0.0792 -0.0421  0.0755
 5472SOL    HW128049   2.288   2.288  10.871 -0.5119 -0.5814 -1.7754
 5472SOL    HW228050   2.243   2.438  10.861 -0.0584  0.0019 -0.4586
 5473SOL     OW28051   2.876   3.302   7.033  0.1223  0.6685 -0.3136
 5473SOL    HW128052   2.812   3.350   7.085 -0.2359  0.0066 -0.1481
 5473SOL    HW228053   2.916   3.368   6.976  0.4449  0.4196 -0.3770
 5474SOL     OW28054   4.540   1.126  17.015 -0.3217 -0.2128 -0.6608
 5474SOL    HW128055   4.582   1.209  17.037  1.0697 -0.8741 -0.8144
 5474SOL    HW228056   4.616   1.084  16.976  0.2479  1.2156 -1.1126
 5475SOL     OW28057   0.298   0.583   4.171  0.0930  0.3656 -0.3289
 5475SOL    HW128058   0.317   0.546   4.084  0.4460  0.0970 -0.1345
 5475SOL    HW228059   0.335   0.519   4.231 -0.9296  0.5164  0.4718
 5476SOL     OW28060   2.788   3.596   6.362  0.2694  0.5851  0.2108
 5476SOL    HW128061   2.874   3.560   6.379 -0.6078 -0.8752  1.5493
 5476SOL    HW228062   2.818   3.676   6.319  0.5410  0.9442  1.0794
 5477SOL     OW28063   2.502   2.471   7.815  0.2930  0.3777  0.4048
 5477SOL    HW128064   2.428   2.435   7.863 -0.0453 -0.3564 -0.6785
 5477SOL    HW228065   2.456   2.516   7.744 -0.9866 -1.7706 -0.1005
 5478SOL     OW28066   0.878   2.395   3.234 -0.0272  0.1120 -0.2713
 5478SOL    HW128067   0.802   2.345   3.264  0.6531 -0.5073  0.4106
 5478SOL    HW228068   0.941   2.379   3.304 -0.2689  1.7555  0.3134
 5479SOL     OW28069   4.275   3.266   5.254  0.1177 -0.6979  0.0226
 5479SOL    HW128070   4.213   3.214   5.202  0.7377 -4.8483  3.4167
 5479SOL    HW228071   4.230   3.269   5.338  0.7529  2.6337  0.2316
 5480SOL     OW28072   0.432   0.014  14.867  0.4097 -0.2325 -0.3712
 5480SOL    HW128073   0.501   4.690  14.843 -0.4114 -1.3812  0.1552
 5480SOL    HW228074   0.369   4.733  14.797  0.1443  1.3179 -0.5199
 5481SOL     OW28075   1.301   2.723  11.671  0.2382  0.1944 -0.5664
 5481SOL    HW128076   1.207   2.707  11.673  0.7049 -2.4694 -0.6276
 5481SOL    HW228077   1.328   2.650  11.616  0.4489 -0.5554  0.5467
 5482SOL     OW28078   0.640   1.105   6.482 -0.1473  0.1714 -0.2301
 5482SOL    HW128079   0.561   1.064   6.515 -0.1077  0.6129  0.4123
 5482SOL    HW228080   0.595   1.176   6.436 -1.3139  0.5357  1.5094
 5483SOL     OW28081   0.777   0.640   9.846 -0.5813 -1.0116 -0.5521
 5483SOL    HW128082   0.754   0.732   9.852 -1.5334 -1.1904 -1.3658
 5483SOL    HW228083   0.733   0.613   9.927 -0.2466 -1.8426 -0.6525
 5484SOL     OW28084   4.202   2.516   2.938  0.2206 -0.4799  0.0410
 5484SOL    HW128085   4.245   2.581   2.883  0.0113  0.2824  0.7757
 5484SOL    HW228086   4.134   2.570   2.977  1.6470  1.3388  0.0158
 5485SOL     OW28087   1.930   1.726  17.504 -0.4567 -0.0513  0.2410
 5485SOL    HW128088   1.930   1.743  17.410 -1.8914 -0.5391  0.1626
 5485SOL    HW228089   2.023   1.714  17.524 -0.3712  0.5961  0.2531
 5486SOL     OW28090   3.486   1.312   3.878  0.0771 -0.6610 -0.3799
 5486SOL    HW128091   3.463   1.401   3.906 -0.1331 -1.2118  1.2067
 5486SOL    HW228092   3.427   1.263   3.936  0.0459  0.7190  0.7503
 5487SOL     OW28093   4.040   2.068   5.233 -0.3640 -0.3560 -0.0028
 5487SOL    HW128094   4.017   1.998   5.295  1.7606  0.4858  1.7241
 5487SOL    HW228095   4.029   2.014   5.155  0.6013 -0.6511  0.0671
 5488SOL     OW28096   2.448   1.655  12.635  0.2279 -0.3005  0.2683
 5488SOL    HW128097   2.398   1.737  12.633  0.8996  0.1385  1.9975
 5488SOL    HW228098   2.512   1.668  12.564 -0.1259 -0.2629 -0.0418
 5489SOL     OW28099   3.498   0.476  13.726  0.3088  0.5015  0.3967
 5489SOL    HW128100   3.567   0.499  13.664  0.6175  1.2623  1.0343
 5489SOL    HW228101   3.455   0.403  13.680 -0.4069 -0.4782  2.6189
 5490SOL     OW28102   3.668   1.195  15.647  0.1139  0.3542 -0.1281
 5490SOL    HW128103   3.707   1.280  15.669 -0.0481  0.9884 -2.3161
 5490SOL    HW228104   3.578   1.221  15.668  0.0114 -1.8069  2.1536
 5491SOL     OW28105   1.379   4.486   8.020 -0.6097  0.1241  0.3783
 5491SOL    HW128106   1.355   4.576   7.996 -2.0187 -0.1466  0.7617
 5491SOL    HW228107   1.297   4.440   8.037  1.4696 -2.4950  3.3251
 5492SOL     OW28108   2.343   2.192   5.152 -0.4621 -0.5978 -0.2043
 5492SOL    HW128109   2.262   2.151   5.123 -1.4944  0.0394  1.7892
 5492SOL    HW228110   2.327   2.209   5.245 -0.1144  1.3635 -0.4937
 5493SOL     OW28111   4.437   1.913   2.409  0.2251  0.0460 -0.2162
 5493SOL    HW128112   4.463   1.894   2.318  1.1862 -0.3305  0.1392
 5493SOL    HW228113   4.493   1.990   2.418 -0.5999  0.7005 -0.6861
 5494SOL     OW28114   4.674   1.366  16.705 -0.9357 -0.7331  0.7395
 5494SOL    HW128115   4.735   1.404  16.643 -1.2545 -1.4765 -0.0267
 5494SOL    HW228116   4.652   1.280  16.669 -2.2589  0.2698 -0.8178
 5495SOL     OW28117   3.828   2.035  16.724  0.0647 -0.5266 -0.1513
 5495SOL    HW128118   3.834   2.086  16.804  1.1146  1.1079 -1.2734
 5495SOL    HW228119   3.891   1.965  16.738 -1.2110 -1.3535  1.4607
 5496SOL     OW28120   1.942   2.870   8.696  0.1778 -0.1717 -0.0606
 5496SOL    HW128121   2.023   2.839   8.657 -0.3398  0.5817 -1.7534
 5496SOL    HW228122   1.978   2.951   8.733  2.0055 -0.0508 -2.1248
 5497SOL     OW28123   0.743   0.679   5.071 -0.4935 -0.0217 -0.3146
 5497SOL    HW128124   0.753   0.635   5.155 -1.0551  1.6098  0.6026
 5497SOL    HW228125   0.711   0.768   5.088  1.3361  0.6372 -0.3106
 5498SOL     OW28126   0.596   3.165   3.463 -0.1053 -0.0255 -0.7465
 5498SOL    HW128127   0.663   3.129   3.405 -0.3067 -1.6268  0.0167
 5498SOL    HW228128   0.617   3.251   3.429  1.7109  0.8238  2.5644
 5499SOL     OW28129   1.154   3.356  13.489 -0.1698  0.5323 -0.3169
 5499SOL    HW128130   1.238   3.365  13.534  0.0062 -1.0261 -0.3563
 5499SOL    HW228131   1.094   3.349  13.564 -0.9004  0.4346 -0.9112
 5500SOL     OW28132   3.988   2.660  16.238 -0.0110  0.2976  0.2157
 5500SOL    HW128133   4.048   2.734  16.244  1.1166 -0.4856 -1.4104
 5500SOL    HW228134   3.912   2.714  16.214 -0.6947 -0.5430  0.4637
 5501SOL     OW28135   4.673   2.159   1.367 -0.1236  0.1743 -0.5163
 5501SOL    HW128136   4.670   2.229   1.432  2.1820 -1.9015  1.8311
 5501SOL    HW228137   4.643   2.087   1.423  0.9326  0.1290 -0.0109
 5502SOL     OW28138   0.097   3.717  17.067  0.0429 -0.5318  0.0034
 5502SOL    HW128139   0.130   3.686  16.983  2.1717 -1.9842  1.3838
 5502SOL    HW228140   0.037   3.647  17.093 -1.3530 -0.0929 -2.0356
 5503SOL     OW28141   0.964   0.504   5.734  0.0125 -0.1021  0.0681
 5503SOL    HW128142   0.963   0.430   5.674 -3.7903 -0.2421  0.2968
 5503SOL    HW228143   1.055   0.532   5.726  0.0253  0.5691  2.4844
 5504SOL     OW28144   1.727   0.623   7.378  0.3083  0.7314  0.0832
 5504SOL    HW128145   1.799   0.598   7.321  0.5336  2.0854 -0.2285
 5504SOL    HW228146   1.666   0.549   7.371  0.8221  0.3078  0.1031
 5505SOL     OW28147   3.799   2.398  12.244  0.2108 -0.0052 -0.4371
 5505SOL    HW128148   3.874   2.443  12.281  0.2356 -0.6111  0.2500
 5505SOL    HW228149   3.730   2.462  12.225  1.4647  1.6800  0.7015
 5506SOL     OW28150   0.455   2.907   0.710  0.0288 -0.2782  0.3322
 5506SOL    HW128151   0.375   2.960   0.707  1.0593  1.1666 -1.6746
 5506SOL    HW228152   0.416   2.820   0.721 -0.0955 -0.1927  0.5803
 5507SOL     OW28153   2.126   2.192   5.754 -0.2010  0.4273  0.0902
 5507SOL    HW128154   2.056   2.129   5.734 -0.9352  1.8126 -1.7699
 5507SOL    HW228155   2.091   2.277   5.726  1.3545  0.6302 -1.2553
 5508SOL     OW28156   3.309   4.548   3.618  0.2417  0.1576 -0.0240
 5508SOL    HW128157   3.322   4.642   3.602  1.9869 -0.3333 -1.4198
 5508SOL    HW228158   3.262   4.562   3.700  1.7536 -1.4373  1.1156
 5509SOL     OW28159   3.088   3.010   0.578  0.3312 -0.2284 -0.1000
 5509SOL    HW128160   3.120   3.052   0.658  0.2800  1.0861 -0.7680
 5509SOL    HW228161   2.994   3.029   0.583  0.2535  0.0610 -2.6620
 5510SOL     OW28162   0.021   0.698   5.402 -0.0813  0.3581 -0.4042
 5510SOL    HW128163   4.696   0.645   5.350  1.5209  0.0471 -1.9600
 5510SOL    HW228164   0.106   0.681   5.361  0.5178 -1.3707  1.5714
 5511SOL     OW28165   2.099   3.748   4.797 -0.0867  0.3646  0.6491
 5511SOL    HW128166   2.029   3.738   4.861 -0.0040 -2.1051  0.3597
 5511SOL    HW228167   2.171   3.710   4.847  0.6532 -2.6578 -2.7237
 5512SOL     OW28168   2.701   3.356   4.891  0.4896  0.5709  0.5160
 5512SOL    HW128169   2.728   3.446   4.871 -0.3550  0.4076 -1.3980
 5512SOL    HW228170   2.607   3.362   4.876  0.2534 -0.2603  1.7476
 5513SOL     OW28171   0.682   4.271  11.891  0.3561  0.7277  0.1728
 5513SOL    HW128172   0.590   4.275  11.917  0.2806  3.0186 -0.5207
 5513SOL    HW228173   0.721   4.336  11.949 -1.0876  1.7836 -0.0523
 5514SOL     OW28174   3.695   1.688  12.303 -0.5645 -0.3111 -0.0144
 5514SOL    HW128175   3.636   1.656  12.235  1.0004  0.5874 -1.8084
 5514SOL    HW228176   3.650   1.771  12.320  0.4902  0.0278  1.1210
 5515SOL     OW28177   2.002   2.768   0.608  0.7355  0.2352 -0.4047
 5515SOL    HW128178   1.987   2.841   0.548  0.3183 -0.7541 -1.5065
 5515SOL    HW228179   2.001   2.689   0.554  0.4670 -0.1484  0.1606
 5516SOL     OW28180   3.949   1.475  12.600  0.4932  0.4027 -0.2431
 5516SOL    HW128181   4.034   1.519  12.592 -0.0063  1.5403  0.8964
 5516SOL    HW228182   3.977   1.384  12.587  0.7715  0.1066  2.4634
 5517SOL     OW28183   0.919   2.590   6.433  0.2870 -0.4697 -0.2820
 5517SOL    HW128184   1.007   2.583   6.395  0.5925 -1.0006  0.5353
 5517SOL    HW228185   0.927   2.548   6.518 -2.5223  1.5687  0.9646
 5518SOL     OW28186   3.966   3.222  16.158 -0.0432  0.3607 -0.6911
 5518SOL    HW128187   3.913   3.302  16.160  1.5901  1.4911 -2.4641
 5518SOL    HW228188   4.025   3.215  16.233 -0.7375  0.8641 -0.0963
 5519SOL     OW28189   0.227   1.258   4.677 -0.5615 -0.3706  0.4751
 5519SOL    HW128190   0.274   1.232   4.756 -0.4646 -2.0442 -0.1385
 5519SOL    HW228191   0.191   1.341   4.709 -0.5238  0.0007 -0.4494
 5520SOL     OW28192   0.449   3.126  13.429  0.6078  0.0244  0.1396
 5520SOL    HW128193   0.535   3.161  13.452  0.2930  0.7775  0.1684
 5520SOL    HW228194   0.420   3.197  13.372 -1.7998 -1.8142 -0.9300
 5521SOL     OW28195   1.317   4.482  15.815  0.4600 -0.5604  0.1707
 5521SOL    HW128196   1.290   4.574  15.807  1.8657  0.0109  1.9495
 5521SOL    HW228197   1.239   4.430  15.800 -1.7483  2.4399  1.1043
 5522SOL     OW28198   4.647   1.415  15.996 -0.4536  0.2723 -0.3494
 5522SOL    HW128199   4.659   1.355  16.069 -0.0645 -1.8922 -2.1851
 5522SOL    HW228200   4.600   1.487  16.039 -0.1833  0.8539 -1.0157
 5523SOL     OW28201   1.368   2.866  16.688  0.2015  0.2583  0.3146
 5523SOL    HW128202   1.288   2.908  16.719  0.2993  0.1454  0.7112
 5523SOL    HW228203   1.342   2.836  16.601 -2.3073 -0.5412  1.3485
 5524SOL     OW28204   3.471   0.723   7.620  0.2222  0.3942 -0.1405
 5524SOL    HW128205   3.529   0.757   7.688 -1.2884  2.2651  0.2117
 5524SOL    HW228206   3.390   0.771   7.638 -0.3034  0.2923 -2.2798
 5525SOL     OW28207   1.775   3.956   1.251  0.1368 -0.0343  0.0847
 5525SOL    HW128208   1.730   3.906   1.319  1.9230 -0.3615  1.0311
 5525SOL    HW228209   1.792   4.038   1.298  0.5354 -1.4803  2.4817
 5526SOL     OW28210   1.062   0.571   0.708  0.2646 -0.5320  0.0819
 5526SOL    HW128211   1.068   0.483   0.670 -0.1786 -0.8699  0.7965
 5526SOL    HW228212   1.140   0.623   0.686  0.2944 -1.1908 -1.4121
 5527SOL     OW28213   0.418   0.405   8.411  0.2659  0.0177  0.2853
 5527SOL    HW128214   0.379   0.363   8.335  1.4249 -0.1878 -0.1929
 5527SOL    HW228215   0.497   0.357   8.435 -0.0122  0.1551  1.4853
 5528SOL     OW28216   3.553   3.673  10.981 -0.0209  0.4141  0.0301
 5528SOL    HW128217   3.464   3.638  10.995 -0.4968  1.5079 -0.2775
 5528SOL    HW228218   3.544   3.712  10.894  1.7910  2.2487  0.6881
 5529SOL     OW28219   1.577   1.527   2.042 -0.2684 -0.5031  0.0838
 5529SOL    HW128220   1.572   1.432   2.056 -0.2134 -0.8671 -2.2990
 5529SOL    HW228221   1.484   1.546   2.033 -0.6758 -1.7055  1.8026
 5530SOL     OW28222   2.315   1.611   7.687  0.1221  0.3169 -0.0025
 5530SOL    HW128223   2.248   1.545   7.671 -0.0768  0.1330  1.6086
 5530SOL    HW228224   2.274   1.652   7.763  1.5987  0.7984  0.5231
 5531SOL     OW28225   4.152   3.650   8.175 -0.3660  0.5290  0.1674
 5531SOL    HW128226   4.229   3.612   8.217 -0.8123 -0.9481 -0.3310
 5531SOL    HW228227   4.090   3.629   8.245  0.9267 -0.0486  1.1257
 5532SOL     OW28228   4.267   3.906  14.906  0.2366 -0.3035 -0.3493
 5532SOL    HW128229   4.332   3.837  14.921 -0.4825 -1.2247 -1.4155
 5532SOL    HW228230   4.187   3.866  14.939 -0.2347  0.5602 -0.4561
 5533SOL     OW28231   1.311   1.182  16.835  0.0155  0.3487  0.0743
 5533SOL    HW128232   1.234   1.152  16.885  0.8103 -0.2603  0.9301
 5533SOL    HW228233   1.281   1.188  16.745 -0.3160  0.0208  0.1575
 5534SOL     OW28234   3.741   1.541  17.667 -0.2097  0.4909 -0.6369
 5534SOL    HW128235   3.666   1.482  17.674 -1.9127  2.6095 -1.2676
 5534SOL    HW228236   3.776   1.530  17.579 -2.7728  0.2407 -1.6287
 5535SOL     OW28237   4.072   2.913  15.638 -0.0673  0.3682  0.2951
 5535SOL    HW128238   4.132   2.981  15.668  0.1252  0.7650 -1.0247
 5535SOL    HW228239   4.119   2.894  15.557 -0.4235  1.8598 -0.2455
 5536SOL     OW28240   0.635   0.403   7.373 -0.1127 -0.5718  0.1024
 5536SOL    HW128241   0.615   0.417   7.466  0.7619  1.3113  0.0069
 5536SOL    HW228242   0.616   0.491   7.341  1.4618  0.6587  2.5121
 5537SOL     OW28243   4.734   2.673   1.368 -0.1116  0.4482 -0.2896
 5537SOL    HW128244   0.027   2.589   1.332 -0.6657 -0.1692  0.7029
 5537SOL    HW228245   0.034   2.668   1.457  1.1299  1.4781 -0.7510
 5538SOL     OW28246   2.684   4.341  15.274 -0.3719  0.4095 -0.4295
 5538SOL    HW128247   2.664   4.390  15.195 -1.5428 -3.2376 -2.3509
 5538SOL    HW228248   2.772   4.308  15.254 -0.8376 -1.5302  0.7770
 5539SOL     OW28249   1.078   4.691   4.038  0.3262  0.1305  0.0819
 5539SOL    HW128250   1.033   4.659   3.960  1.1400  1.9114 -1.1289
 5539SOL    HW228251   1.156   4.635   4.035 -0.7919 -1.3467 -1.2619
 5540SOL     OW28252   1.950   4.127   8.622  0.0939  0.1871 -0.0028
 5540SOL    HW128253   2.021   4.062   8.618  0.7003  0.7728  1.4925
 5540SOL    HW228254   1.914   4.113   8.535 -2.4868 -2.9486  1.5724
 5541SOL     OW28255   2.945   0.249   7.942  0.2199  0.3767  0.1463
 5541SOL    HW128256   2.884   0.193   7.991  1.7210 -2.3342 -1.0854
 5541SOL    HW228257   2.890   0.325   7.925  0.0702  0.3166  0.3548
 5542SOL     OW28258   2.894   3.323  11.475 -0.2775 -0.6970 -0.2447
 5542SOL    HW128259   2.952   3.261  11.518  3.9511  1.7292 -2.4671
 5542SOL    HW228260   2.959   3.369  11.421 -1.0129  2.1461  1.2591
 5543SOL     OW28261   3.468   4.604   2.106 -0.4263 -0.1885 -0.2195
 5543SOL    HW128262   3.431   4.589   2.194 -0.5741 -1.2060 -0.4615
 5543SOL    HW228263   3.418   4.679   2.074  0.6511  0.3942 -0.5320
 5544SOL     OW28264   0.483   1.186   1.388  0.0246  0.0372  0.3428
 5544SOL    HW128265   0.402   1.200   1.439 -0.2638  0.4055 -0.2164
 5544SOL    HW228266   0.523   1.107   1.425 -0.2079 -0.5558 -0.6988
 5545SOL     OW28267   0.346   2.002   5.135 -1.0338 -0.5806 -0.1037
 5545SOL    HW128268   0.289   2.075   5.111 -0.7412  0.1279  1.3590
 5545SOL    HW228269   0.380   1.982   5.047  2.3795  0.8500  0.9090
 5546SOL     OW28270   2.492   3.462   1.907 -0.1882 -0.4289  0.0378
 5546SOL    HW128271   2.429   3.394   1.884 -1.1445  0.9341 -1.3394
 5546SOL    HW228272   2.498   3.518   1.830  0.2932  0.3047  0.6041
 5547SOL     OW28273   1.673   4.230   9.443  0.2602  0.1201  0.0791
 5547SOL    HW128274   1.734   4.240   9.516  0.5852 -2.8905  0.2380
 5547SOL    HW228275   1.699   4.309   9.396 -0.2555  1.3815  1.9196
 5548SOL     OW28276   0.693   1.106   5.646 -0.1961  0.1486 -0.4441
 5548SOL    HW128277   0.638   1.130   5.720  1.8090  0.5195  0.9115
 5548SOL    HW228278   0.664   1.177   5.587 -0.2714 -0.3365 -0.9955
 5549SOL     OW28279   4.442   1.282   3.391  0.3082 -0.4774  0.2464
 5549SOL    HW128280   4.348   1.288   3.373  0.5433  3.7018  0.4131
 5549SOL    HW228281   4.466   1.220   3.322 -0.5455 -0.6280  0.0842
 5550SOL     OW28282   1.829   2.921   6.230  0.0190 -0.0480  0.2005
 5550SOL    HW128283   1.751   2.932   6.284 -2.1429 -1.0351 -2.7488
 5550SOL    HW228284   1.867   3.008   6.216  0.0722  0.2903  2.4033
 5551SOL     OW28285   1.294   4.327   6.829  0.0563 -0.1200 -0.0069
 5551SOL    HW128286   1.201   4.350   6.830  0.0103 -0.3336  2.1422
 5551SOL    HW228287   1.295   4.293   6.919  0.6368 -0.7473 -0.2499
 5552SOL     OW28288   2.989   0.372   3.673 -0.6797 -0.2329  0.1966
 5552SOL    HW128289   2.937   0.303   3.714  1.7011 -0.8385  2.1509
 5552SOL    HW228290   3.079   0.355   3.701 -1.0601 -0.5906  1.2143
 5553SOL     OW28291   4.002   4.327   3.731  0.0269  0.0357  0.5547
 5553SOL    HW128292   3.985   4.345   3.824 -1.1200 -0.3686  0.4204
 5553SOL    HW228293   3.982   4.408   3.684 -1.8528 -1.4850 -1.2466
 5554SOL     OW28294   2.340   0.650   7.939 -0.7040 -0.0157 -0.4193
 5554SOL    HW128295   2.246   0.633   7.947 -0.9513  0.7621 -1.6539
 5554SOL    HW228296   2.361   0.609   7.855 -1.2227 -2.7192  0.7623
 5555SOL     OW28297   0.613   2.883   0.489 -0.4166  0.1655  0.1291
 5555SOL    HW128298   0.571   2.884   0.575 -1.0740  0.7189 -0.2010
 5555SOL    HW228299   0.700   2.917   0.509  0.3543 -0.4529 -2.1406
 5556SOL     OW28300   1.228   0.502   9.713 -0.0078 -0.4887  0.1871
 5556SOL    HW128301   1.246   0.414   9.680  0.5067  0.3623 -1.7826
 5556SOL    HW228302   1.144   0.496   9.759 -0.6806 -0.5829 -1.0535
 5557SOL     OW28303   0.326   1.787  15.422  0.9134 -0.8006 -0.1085
 5557SOL    HW128304   0.387   1.841  15.371  1.8285 -0.9163  0.8575
 5557SOL    HW228305   0.388   1.725  15.459  0.3172  0.5313  3.1042
 5558SOL     OW28306   3.150   3.403   8.824 -0.2828 -0.2861  0.2347
 5558SOL    HW128307   3.139   3.357   8.741  1.0590  1.5990 -0.9887
 5558SOL    HW228308   3.149   3.334   8.890 -1.2773  1.1348  1.6909
 5559SOL     OW28309   4.698   2.910  16.062  0.1762  0.3032  0.1151
 5559SOL    HW128310   4.651   2.860  16.128  2.1155 -1.1017  0.4630
 5559SOL    HW228311   4.687   2.859  15.982 -0.5378 -0.9329  1.0042
 5560SOL     OW28312   1.421   0.493   3.341  0.2813  1.1119  0.2851
 5560SOL    HW128313   1.397   0.577   3.383  2.2367  1.0741  1.4518
 5560SOL    HW228314   1.516   0.499   3.346  0.2025  0.3218  2.6664
 5561SOL     OW28315   0.958   4.209   4.881 -0.1847  0.1305  0.3377
 5561SOL    HW128316   0.872   4.208   4.840 -0.1856  1.6876  0.2863
 5561SOL    HW228317   1.020   4.190   4.811  0.6028  1.0073  0.7806
 5562SOL     OW28318   2.843   0.961   6.376  0.3979 -0.4698 -0.1929
 5562SOL    HW128319   2.928   0.951   6.333  0.1800  1.3557 -1.0931
 5562SOL    HW228320   2.873   0.981   6.465 -1.6398 -0.1246  0.4218
 5563SOL     OW28321   2.485   2.455  16.947  0.2060 -0.0389  0.3263
 5563SOL    HW128322   2.433   2.381  16.914  0.4948 -0.5105  0.9233
 5563SOL    HW228323   2.563   2.409  16.978 -0.9668 -2.3578 -0.1385
 5564SOL     OW28324   1.790   4.515   7.361 -0.4229 -0.2200 -0.4119
 5564SOL    HW128325   1.750   4.453   7.422 -2.3697  2.1453  0.6890
 5564SOL    HW228326   1.796   4.461   7.281  1.5109 -2.2128  1.0791
 5565SOL     OW28327   2.637   0.241  12.536 -0.0806 -0.0650 -0.2032
 5565SOL    HW128328   2.648   0.336  12.539 -0.7797  0.0224 -0.4571
 5565SOL    HW228329   2.676   0.230  12.450  1.7780  2.2818  0.3364
 5566SOL     OW28330   1.342   0.735   6.383 -0.2862  0.4626  0.3079
 5566SOL    HW128331   1.249   0.739   6.361 -0.1509  2.4812  0.0778
 5566SOL    HW228332   1.331   0.709   6.474 -0.7225 -2.1530 -0.4855
 5567SOL     OW28333   1.835   0.595   8.520 -0.4355  0.0221  0.5107
 5567SOL    HW128334   1.857   0.688   8.513 -4.4143  0.9027 -0.2706
 5567SOL    HW228335   1.880   0.584   8.604  1.2315  1.1143 -0.2537
 5568SOL     OW28336   1.001   0.951   4.361  0.4122  0.1504 -0.0980
 5568SOL    HW128337   1.009   0.974   4.453 -0.8381 -3.0460  0.7809
 5568SOL    HW228338   1.015   1.040   4.327  0.6151  0.1838  0.0768
 5569SOL     OW28339   3.362   3.318   2.210  0.0657  0.5397 -0.7083
 5569SOL    HW128340   3.335   3.391   2.156 -1.6076 -0.0460 -0.6618
 5569SOL    HW228341   3.392   3.356   2.293  0.3766  0.5994 -0.8493
 5570SOL     OW28342   4.618   2.201   7.099  0.6883  0.1889 -0.2078
 5570SOL    HW128343   4.686   2.239   7.154 -0.3661 -0.9404  1.8889
 5570SOL    HW228344   4.558   2.275   7.105  1.8898  1.0968  0.5121
 5571SOL     OW28345   1.714   0.934   5.155 -0.0269  0.0975  0.3860
 5571SOL    HW128346   1.724   0.839   5.145 -3.0823 -0.3216  1.1722
 5571SOL    HW228347   1.650   0.935   5.226  0.8967 -0.2508  1.2120
 5572SOL     OW28348   1.565   0.502   0.736  0.4186 -0.4870 -0.0303
 5572SOL    HW128349   1.657   0.479   0.726  0.6914  0.0852  1.1375
 5572SOL    HW228350   1.531   0.416   0.760  1.2455 -0.2947  1.8123
 5573SOL     OW28351   1.656   1.487  17.735 -0.4243 -0.3013  0.5144
 5573SOL    HW128352   1.628   1.396  17.736 -0.2264 -0.3646  0.2582
 5573SOL    HW228353   1.648   1.508  17.642  0.5823  0.6641  0.6434
 5574SOL     OW28354   2.915   1.236   2.966  0.0704 -0.1686  0.0090
 5574SOL    HW128355   2.901   1.173   3.037 -0.7652 -0.6741 -0.5960
 5574SOL    HW228356   2.985   1.292   2.997  0.5408 -0.0685 -1.2212
 5575SOL     OW28357   3.595   4.461   2.795 -0.2812 -0.1766 -0.3436
 5575SOL    HW128358   3.588   4.407   2.874  3.0867  0.0246  0.1027
 5575SOL    HW228359   3.683   4.498   2.808 -0.0978 -0.6624 -0.1986
 5576SOL     OW28360   0.614   0.623  12.416 -0.3567 -0.1935 -0.2848
 5576SOL    HW128361   0.622   0.716  12.436  2.0098 -0.2987 -0.7580
 5576SOL    HW228362   0.519   0.614  12.430 -0.4010  0.5297 -0.1229
 5577SOL     OW28363   0.932   0.974  11.410  0.4819 -0.4164 -0.6581
 5577SOL    HW128364   1.021   0.985  11.443 -1.1044 -1.3461  3.9050
 5577SOL    HW228365   0.939   1.007  11.320  1.6189 -2.0599 -1.1578
 5578SOL     OW28366   3.145   2.502   5.842 -0.2076  0.5367  0.3478
 5578SOL    HW128367   3.219   2.480   5.899  1.0953  1.1066 -1.1218
 5578SOL    HW228368   3.085   2.534   5.910 -0.7296  1.7309 -0.6859
 5579SOL     OW28369   1.852   3.349   7.747 -0.1095 -0.2671 -0.0463
 5579SOL    HW128370   1.902   3.401   7.684 -0.3704 -0.9149 -0.7867
 5579SOL    HW228371   1.918   3.304   7.799  2.0968  0.8349 -1.9200
 5580SOL     OW28372   0.195   0.430   2.461 -0.0522  0.1741  0.0922
 5580SOL    HW128373   0.139   0.421   2.538 -0.3578 -0.1660 -0.1733
 5580SOL    HW228374   0.130   0.463   2.399 -1.3142 -0.5009  1.0625
 5581SOL     OW28375   3.258   0.682   2.799 -0.4016  0.0309 -0.0193
 5581SOL    HW128376   3.177   0.712   2.757 -1.6095 -3.4541 -0.1978
 5581SOL    HW228377   3.288   0.761   2.844 -1.4337 -0.2503  1.1525
 5582SOL     OW28378   2.011   4.473  12.110 -0.5063  0.0470 -0.0403
 5582SOL    HW128379   2.099   4.446  12.136  0.9646  1.3994 -3.5415
 5582SOL    HW228380   1.949   4.404  12.131  0.7779 -1.3345 -0.7396
 5583SOL     OW28381   1.648   0.688   2.526 -0.6676 -0.1189 -0.6902
 5583SOL    HW128382   1.720   0.749   2.508 -0.7257  0.2232  0.2488
 5583SOL    HW228383   1.584   0.714   2.460 -0.4797  1.1204 -0.3751
 5584SOL     OW28384   0.107   1.963  16.493  0.2453  0.3355 -0.2427
 5584SOL    HW128385   0.032   1.903  16.492  0.2376  0.3947 -2.8576
 5584SOL    HW228386   0.054   2.042  16.505 -3.7765 -2.7554  2.5531
 5585SOL     OW28387   0.485   3.507   4.983  0.6852 -0.1518  0.0019
 5585SOL    HW128388   0.412   3.500   5.044  0.8283 -0.5279  0.1342
 5585SOL    HW228389   0.554   3.475   5.041 -0.1858 -0.1311  1.0331
 5586SOL     OW28390   2.639   1.882   0.996 -0.6494  0.0424 -0.0026
 5586SOL    HW128391   2.609   1.972   0.980 -1.6544 -0.5479 -1.4806
 5586SOL    HW228392   2.571   1.840   1.048 -0.1522 -0.7646 -0.0125
 5587SOL     OW28393   4.237   3.646   1.034  0.1032  0.4783 -0.2856
 5587SOL    HW128394   4.222   3.736   1.063 -0.4343 -0.6434  2.8856
 5587SOL    HW228395   4.226   3.587   1.109 -0.0284 -0.5063 -1.0816
 5588SOL     OW28396   3.053   2.305   0.746  0.7297  0.1020 -0.6057
 5588SOL    HW128397   3.116   2.287   0.676 -0.1972 -1.9705 -0.9228
 5588SOL    HW228398   3.063   2.228   0.801 -0.7934  0.7933  0.6407
 5589SOL     OW28399   0.225   0.858   3.167  0.7729 -0.2716 -0.1792
 5589SOL    HW128400   0.224   0.855   3.071  1.1933  0.0955 -0.1924
 5589SOL    HW228401   0.272   0.776   3.184  2.5476  0.9124  0.5279
 5590SOL     OW28402   4.288   2.219   6.359  0.0154 -0.3202 -0.0371
 5590SOL    HW128403   4.350   2.276   6.405  0.3827 -2.1683  1.7144
 5590SOL    HW228404   4.321   2.217   6.269 -2.5814  2.5371 -1.0906
 5591SOL     OW28405   3.569   1.846   4.729  0.1367 -0.8170 -0.6656
 5591SOL    HW128406   3.512   1.770   4.721  2.9671 -3.0567  0.5366
 5591SOL    HW228407   3.519   1.901   4.790  0.6479  1.6402 -2.4688
 5592SOL     OW28408   3.678   4.543   9.336  0.2009  0.2148  0.3349
 5592SOL    HW128409   3.764   4.539   9.294  0.4567  0.5427  0.8160
 5592SOL    HW228410   3.713   4.505   9.417  0.1093 -4.9283 -2.0951
 5593SOL     OW28411   1.977   1.872  12.662  0.1812  0.2740 -0.5440
 5593SOL    HW128412   1.976   1.959  12.703 -0.2715 -0.0773  0.1898
 5593SOL    HW228413   1.895   1.885  12.615  0.1069  0.3626 -0.3892
 5594SOL     OW28414   3.393   4.464   3.348  0.0112 -0.2179 -0.1213
 5594SOL    HW128415   3.349   4.476   3.432 -1.3853 -0.2417 -0.8553
 5594SOL    HW228416   3.378   4.550   3.308 -1.3286 -0.9170 -1.1490
 5595SOL     OW28417   0.828   2.338   5.517 -0.1749 -0.0256 -0.6231
 5595SOL    HW128418   0.830   2.414   5.460  1.8727  2.3839  2.6597
 5595SOL    HW228419   0.882   2.375   5.587  1.2946 -2.2463 -0.6027
 5596SOL     OW28420   0.950   2.872  15.577 -0.0615 -0.2104 -0.3279
 5596SOL    HW128421   1.027   2.840  15.530  0.9413  2.0795 -0.2652
 5596SOL    HW228422   0.974   2.963  15.557  1.4921 -0.3191  1.0834
 5597SOL     OW28423   0.464   1.356   8.587  0.0072  0.2697  0.1330
 5597SOL    HW128424   0.509   1.376   8.505  0.0969  0.0570  0.1278
 5597SOL    HW228425   0.542   1.345   8.642 -0.0661 -0.0293  0.1791
 5598SOL     OW28426   0.990   2.612   2.039  0.5027  0.0745  0.2665
 5598SOL    HW128427   1.071   2.639   2.083  1.6026  0.5022 -2.0169
 5598SOL    HW228428   0.978   2.690   1.984  1.7797  0.0030 -0.1066
 5599SOL     OW28429   4.137   2.765   5.388 -0.3114  0.0223  0.0075
 5599SOL    HW128430   4.162   2.674   5.369 -1.5105  0.1529 -2.2054
 5599SOL    HW228431   4.210   2.808   5.344 -1.9343  0.0943 -2.6199
 5600SOL     OW28432   0.801   2.493  14.827  0.7519 -0.4932  0.3986
 5600SOL    HW128433   0.791   2.587  14.810  1.8825 -0.3647  0.4080
 5600SOL    HW228434   0.729   2.463  14.772  1.5023 -3.2105  0.8826
 5601SOL     OW28435   0.077   1.039  16.504 -0.3094  0.3505 -0.3402
 5601SOL    HW128436   0.096   0.945  16.500 -0.2771  0.3768 -0.8183
 5601SOL    HW228437   0.004   1.042  16.442 -0.9919 -1.8040  0.3431
 5602SOL     OW28438   0.610   2.037  12.329 -1.0714  0.1594 -0.0118
 5602SOL    HW128439   0.665   2.033  12.407 -0.8728 -0.8699 -0.2003
 5602SOL    HW228440   0.679   2.054  12.265  0.9586  0.0230  2.1411
 5603SOL     OW28441   0.658   1.982   4.000 -0.4295  0.3556  0.2056
 5603SOL    HW128442   0.731   1.938   3.957 -0.8394  0.2319 -0.3585
 5603SOL    HW228443   0.597   1.910   4.019 -0.5398  0.7865  1.5335
 5604SOL     OW28444   1.103   0.826   7.541  0.1375  0.5742 -0.2714
 5604SOL    HW128445   1.009   0.811   7.529  0.5096 -4.8065  3.3644
 5604SOL    HW228446   1.127   0.755   7.601  1.0663 -0.8169 -2.3000
 5605SOL     OW28447   3.301   3.500   0.404  0.2364  0.5706 -0.3107
 5605SOL    HW128448   3.329   3.411   0.383 -1.4394  0.1916 -0.9621
 5605SOL    HW228449   3.339   3.504   0.491 -0.0830  0.5460 -0.1679
 5606SOL     OW28450   4.319   0.925  11.010  0.9340 -0.1169 -0.2698
 5606SOL    HW128451   4.311   0.840  10.965 -0.1848 -0.4723  0.6228
 5606SOL    HW228452   4.405   0.945  10.974  0.6030  4.0539  1.2829
 5607SOL     OW28453   3.842   2.214   3.332  0.1655 -0.0113  0.5573
 5607SOL    HW128454   3.788   2.183   3.405  0.6224 -0.7537  0.5840
 5607SOL    HW228455   3.853   2.135   3.280 -1.2666  0.6388 -0.7254
 5608SOL     OW28456   3.620   2.994   5.344  0.5919  0.4562 -0.4224
 5608SOL    HW128457   3.527   2.969   5.336  0.2624  2.2219 -1.9916
 5608SOL    HW228458   3.625   3.087   5.365  0.4478 -0.0635  1.8872
 5609SOL     OW28459   3.455   1.022   5.401 -0.5704 -0.0030 -0.1035
 5609SOL    HW128460   3.550   1.027   5.401 -0.4482 -2.3333 -2.5054
 5609SOL    HW228461   3.430   1.083   5.331 -0.1344  0.8640  0.4880
 5610SOL     OW28462   2.070   3.668   0.434 -0.0891 -0.2097 -0.9918
 5610SOL    HW128463   1.992   3.703   0.392 -0.8351  0.9084  1.3438
 5610SOL    HW228464   2.070   3.576   0.411 -0.1935 -1.4036  3.7946
 5611SOL     OW28465   2.320   2.119   8.780  0.3368 -0.0791  0.4268
 5611SOL    HW128466   2.312   2.023   8.784 -1.5759 -0.0153 -1.3902
 5611SOL    HW228467   2.228   2.142   8.764  0.3541 -0.1059  0.2876
 5612SOL     OW28468   3.315   3.912  13.532 -0.0925 -0.4587  0.1628
 5612SOL    HW128469   3.305   3.872  13.618  1.2875  0.3252  0.6814
 5612SOL    HW228470   3.410   3.915  13.528 -0.1169  1.2654  0.7134
 5613SOL     OW28471   3.969   3.149   6.643 -0.2773 -0.6474  0.4854
 5613SOL    HW128472   3.893   3.091   6.641 -0.9070  0.2259 -0.7912
 5613SOL    HW228473   3.929   3.222   6.596  0.4403  1.0304  2.5044
 5614SOL     OW28474   0.835   2.246   7.337 -0.0793  0.2546 -0.1196
 5614SOL    HW128475   0.871   2.244   7.249  0.7250 -2.1449  0.2799
 5614SOL    HW228476   0.788   2.329   7.327 -0.8709 -0.1645  0.1718
 5615SOL     OW28477   0.072   0.797   1.968  0.2662 -0.0825 -0.1354
 5615SOL    HW128478   4.734   0.856   1.982 -0.1129 -0.8575  1.0776
 5615SOL    HW228479   0.149   0.848   1.996  0.6217 -1.2860  1.0537
 5616SOL     OW28480   3.922   3.026   7.521  0.3936 -0.2772 -0.6120
 5616SOL    HW128481   3.856   3.011   7.453 -2.5329  0.6894  2.0511
 5616SOL    HW228482   3.909   2.957   7.585  1.6714  1.3752  1.4374
 5617SOL     OW28483   1.481   3.146   8.202  0.2506 -0.3090  0.2951
 5617SOL    HW128484   1.449   3.065   8.242  2.4376 -1.5304 -0.4292
 5617SOL    HW228485   1.573   3.119   8.196  0.1719  0.0939 -2.4489
 5618SOL     OW28486   2.586   1.666   7.739 -0.3320 -0.5567 -0.7522
 5618SOL    HW128487   2.655   1.655   7.673 -1.4817  0.7144 -2.1409
 5618SOL    HW228488   2.503   1.648   7.696 -0.2000  3.4050 -2.6756
 5619SOL     OW28489   2.046   0.004  14.631  0.0431 -0.1127 -0.1119
 5619SOL    HW128490   1.967   0.008  14.578  1.0790 -0.1429 -1.6591
 5619SOL    HW228491   2.081   4.660  14.593  1.4545  1.1173 -1.4390
 5620SOL     OW28492   2.029   4.597  13.039 -0.1377  0.8719  0.2339
 5620SOL    HW128493   1.988   4.626  13.120 -1.2200  0.4137 -0.1444
 5620SOL    HW228494   2.091   4.668  13.025 -1.5204  1.6400 -2.0984
 5621SOL     OW28495   0.717   3.983   2.855  0.3034 -0.4909 -0.4128
 5621SOL    HW128496   0.770   3.983   2.934  1.6804  3.2537 -1.3193
 5621SOL    HW228497   0.735   3.891   2.838  0.5875 -0.4791 -0.1785
 5622SOL     OW28498   1.282   4.467   4.787 -0.1959  0.0254  0.0866
 5622SOL    HW128499   1.350   4.463   4.854 -0.8226 -0.6325  0.6826
 5622SOL    HW228500   1.210   4.448   4.847 -0.0819  1.0683  0.5597
 5623SOL     OW28501   3.503   3.348   6.809 -0.2691  0.3698  0.0265
 5623SOL    HW128502   3.431   3.287   6.826  1.8109 -2.9386 -2.9509
 5623SOL    HW228503   3.568   3.290   6.768 -2.0249 -0.6618 -1.3091
 5624SOL     OW28504   2.152   0.987  13.893 -0.6169 -0.2157 -0.2527
 5624SOL    HW128505   2.119   0.963  13.807 -3.1878 -1.5034  1.1126
 5624SOL    HW228506   2.112   0.922  13.951  1.1587 -0.3632  0.7946
 5625SOL     OW28507   4.655   4.689   2.785 -0.2834 -0.0558 -0.0326
 5625SOL    HW128508   4.658   4.622   2.854  3.0401  0.1183 -0.0116
 5625SOL    HW228509   4.646   0.036   2.832  1.7933 -0.4563  1.0460
 5626SOL     OW28510   3.096   2.579   1.220 -0.5759 -0.1950 -0.0177
 5626SOL    HW128511   3.114   2.489   1.247 -0.2800 -0.5430 -1.3779
 5626SOL    HW228512   3.124   2.565   1.130 -0.0177  1.1987 -0.0604
 5627SOL     OW28513   1.895   0.074   6.657 -0.1062 -0.1643  0.3342
 5627SOL    HW128514   1.867   0.094   6.568  0.0064 -5.0106 -0.7359
 5627SOL    HW228515   1.983   0.036   6.655  0.4268  1.1053 -0.3808
 5628SOL     OW28516   2.685   2.306   0.410 -0.8776 -0.4516  0.6523
 5628SOL    HW128517   2.654   2.342   0.493 -0.2548  1.3304  0.1102
 5628SOL    HW228518   2.766   2.356   0.402 -2.1249  1.2282 -1.5573
 5629SOL     OW28519   3.038   1.851  11.265  0.1086 -0.3792  0.1852
 5629SOL    HW128520   3.060   1.929  11.215 -1.1769  2.6207  4.2689
 5629SOL    HW228521   3.126   1.823  11.288 -0.2421 -0.1617  1.8007
 5630SOL     OW28522   3.832   4.691   1.017  0.6282 -0.4543  0.3758
 5630SOL    HW128523   3.803   4.716   0.929 -1.4431 -1.4426  0.7793
 5630SOL    HW228524   3.753   4.653   1.056  0.4874 -0.5856 -0.0334
 5631SOL     OW28525   3.124   3.268  14.055  0.3422 -0.4579 -0.2997
 5631SOL    HW128526   3.098   3.350  14.013  0.1116  0.5735  1.8513
 5631SOL    HW228527   3.070   3.201  14.013 -3.5718  1.1695  2.1440
 5632SOL     OW28528   0.940   0.021   6.353 -0.4907  0.0357 -0.3437
 5632SOL    HW128529   0.926   4.703   6.431 -0.5932 -0.9045 -1.0130
 5632SOL    HW228530   1.020   0.071   6.368  0.9887 -1.8676 -1.8897
 5633SOL     OW28531   1.260   1.176   0.736  0.4460 -0.2023  0.1996
 5633SOL    HW128532   1.191   1.119   0.771  1.3313  0.3976  2.9351
 5633SOL    HW228533   1.211   1.235   0.680  3.2960 -0.2725 -2.3520
 5634SOL     OW28534   3.809   3.629  11.114  0.3975 -0.6244  0.4916
 5634SOL    HW128535   3.728   3.652  11.069  0.0312  0.1892  1.5839
 5634SOL    HW228536   3.867   3.641  11.038 -0.7704  0.3616 -0.2415
 5635SOL     OW28537   2.920   0.645   8.151  0.5928 -0.1408 -0.0976
 5635SOL    HW128538   2.964   0.600   8.224  0.5061 -0.6551 -0.3612
 5635SOL    HW228539   2.827   0.630   8.166  0.3893  0.4160 -0.8048
 5636SOL     OW28540   2.390   2.645   8.928  0.4295 -0.0333 -0.0215
 5636SOL    HW128541   2.449   2.662   9.003  0.4477  0.3307 -0.1169
 5636SOL    HW228542   2.361   2.731   8.898  0.8898  0.1712  0.1097
 5637SOL     OW28543   1.491   0.540   7.211  0.7660  0.4897  0.3191
 5637SOL    HW128544   1.546   0.541   7.133 -1.2687  1.3034 -1.1371
 5637SOL    HW228545   1.411   0.571   7.167  1.0094  0.9334  0.1857
 5638SOL     OW28546   0.393   2.110   7.962 -0.1151 -0.1107  0.3684
 5638SOL    HW128547   0.343   2.134   7.883  1.9314  0.6490 -0.6985
 5638SOL    HW228548   0.485   2.096   7.938 -0.4225  0.6758 -1.3457
 5639SOL     OW28549   1.226   3.526   1.686 -0.2310  0.3241 -0.0503
 5639SOL    HW128550   1.260   3.517   1.775 -0.9426  1.1514  0.3002
 5639SOL    HW228551   1.152   3.466   1.683  1.5836 -1.8730 -1.4522
 5640SOL     OW28552   4.301   1.911  10.039  0.2849 -0.1556  0.0016
 5640SOL    HW128553   4.325   1.879   9.952  0.2888  0.7646 -0.3295
 5640SOL    HW228554   4.262   1.833  10.079  0.8142 -0.5808 -0.3100
 5641SOL     OW28555   0.670   4.338   5.496 -0.1124 -0.1259 -0.2432
 5641SOL    HW128556   0.654   4.416   5.443  1.3158  0.0449 -0.3995
 5641SOL    HW228557   0.662   4.373   5.585  2.1613 -0.6531  0.1553
 5642SOL     OW28558   1.071   3.636  13.450  0.9186  0.3068  0.2327
 5642SOL    HW128559   1.112   3.554  13.477 -0.7068 -1.3337 -2.2912
 5642SOL    HW228560   1.016   3.666  13.523 -0.8906 -1.3442 -0.4494
 5643SOL     OW28561   4.664   3.914   9.142  0.2578  0.6234 -0.7484
 5643SOL    HW128562   4.597   3.846   9.132  0.2606  0.3932  0.7417
 5643SOL    HW228563   0.004   3.878   9.096  0.4370  2.0161 -1.5230
 5644SOL     OW28564   3.156   3.822   7.133  0.4460 -0.1406 -0.0890
 5644SOL    HW128565   3.104   3.775   7.198 -2.5076  0.2008 -2.2192
 5644SOL    HW228566   3.207   3.872   7.196  2.1367  0.8260 -2.2190
 5645SOL     OW28567   3.222   1.425   5.731  0.2893  0.2302 -0.2888
 5645SOL    HW128568   3.240   1.369   5.655 -1.1154 -0.0728 -0.4103
 5645SOL    HW228569   3.197   1.362   5.799  1.9542 -2.0885 -1.8227
 5646SOL     OW28570   3.062   3.518   6.356  0.6918 -0.6156  0.0003
 5646SOL    HW128571   3.133   3.573   6.324 -0.2336  0.0109 -0.9889
 5646SOL    HW228572   3.061   3.453   6.285 -0.2383  2.3500 -2.6990
 5647SOL     OW28573   0.690   4.483   2.078  0.0427  0.1021 -0.2012
 5647SOL    HW128574   0.698   4.573   2.111  0.9714 -0.4629  1.1262
 5647SOL    HW228575   0.673   4.504   1.987  2.1431  1.9885 -0.1523
 5648SOL     OW28576   0.888   3.746   8.697  0.0877  0.4021  0.1834
 5648SOL    HW128577   0.922   3.721   8.611 -1.0541 -0.4103 -0.0434
 5648SOL    HW228578   0.891   3.667   8.751  1.4433  2.1136  2.5726
 5649SOL     OW28579   4.311   1.021   6.986  0.0373  0.2707 -0.2894
 5649SOL    HW128580   4.271   1.079   7.051 -0.1029  2.2312 -2.1127
 5649SOL    HW228581   4.236   0.982   6.943  0.1626  0.2965 -0.5328
 5650SOL     OW28582   4.341   1.217  15.943  0.1008 -0.1515  0.2330
 5650SOL    HW128583   4.389   1.172  15.873  1.8283  1.5053  0.3507
 5650SOL    HW228584   4.256   1.193  15.907 -0.2606 -0.3711  1.2230
 5651SOL     OW28585   2.971   1.471   8.232 -0.0120  0.4337  0.0782
 5651SOL    HW128586   2.891   1.522   8.219 -1.7560 -1.6867  2.7815
 5651SOL    HW228587   3.015   1.460   8.147  0.0283  0.6190  0.0746
 5652SOL     OW28588   3.797   2.133   1.833  0.6682  0.6229 -0.2365
 5652SOL    HW128589   3.887   2.165   1.842  0.4866  1.1771 -0.4434
 5652SOL    HW228590   3.820   2.041   1.820 -1.7956 -0.2805  1.7856
 5653SOL     OW28591   2.966   1.667  15.464 -0.3263  0.6647  0.5867
 5653SOL    HW128592   2.898   1.676  15.398  0.3214 -0.4696 -0.2261
 5653SOL    HW228593   2.914   1.612  15.523  1.2375 -0.2230  1.1493
 5654SOL     OW28594   1.853   1.819   7.505  0.3956 -0.6043  0.2394
 5654SOL    HW128595   1.760   1.799   7.510  0.5787 -1.3019  1.0100
 5654SOL    HW228596   1.855   1.864   7.421  3.3693  2.1239  1.7615
 5655SOL     OW28597   2.235   4.118   4.475 -0.3303  0.2730  0.2181
 5655SOL    HW128598   2.232   4.034   4.520  1.6073 -0.1468 -0.4339
 5655SOL    HW228599   2.164   4.165   4.519  0.1816  0.8433  0.4324
 5656SOL     OW28600   2.658   1.431   2.629 -0.1784 -0.2403 -0.2211
 5656SOL    HW128601   2.568   1.424   2.597  0.1127  1.0875 -1.3838
 5656SOL    HW228602   2.653   1.384   2.711  0.4733 -0.3690 -0.2578
 5657SOL     OW28603   3.966   0.773   8.008  0.5167  0.1354  0.1943
 5657SOL    HW128604   3.995   0.780   7.917  0.7923  0.8300  0.3388
 5657SOL    HW228605   4.024   0.831   8.058  0.5338 -1.4422  2.0188
 5658SOL     OW28606   0.481   1.920   4.888 -0.4993 -0.1999 -0.1421
 5658SOL    HW128607   0.473   1.883   4.801 -0.0911 -0.7679  0.0619
 5658SOL    HW228608   0.569   1.887   4.907  0.8001  2.9839 -0.6431
 5659SOL     OW28609   0.549   3.543   2.020 -0.2666  0.1652 -0.2552
 5659SOL    HW128610   0.509   3.542   2.108 -0.1862 -0.6387 -0.2267
 5659SOL    HW228611   0.470   3.534   1.967 -0.6142  1.1179  0.1086
 5660SOL     OW28612   2.744   1.656   0.818  0.4545  0.4855 -0.1778
 5660SOL    HW128613   2.696   1.671   0.899 -0.4394  0.1527 -0.6429
 5660SOL    HW228614   2.697   1.587   0.771 -0.9976  1.3761 -0.0382
 5661SOL     OW28615   4.476   4.039   3.375 -0.5576  0.0796 -0.2715
 5661SOL    HW128616   4.457   4.045   3.469 -0.3657  1.1712 -0.3059
 5661SOL    HW228617   4.409   3.979   3.343 -0.6198 -0.7392  1.3750
 5662SOL     OW28618   1.633   0.296   6.154 -0.1189 -0.5097 -0.1013
 5662SOL    HW128619   1.638   0.206   6.184  0.2047  0.0948  1.6578
 5662SOL    HW228620   1.688   0.344   6.217  1.4964 -0.5724 -1.4556
 5663SOL     OW28621   3.869   2.157   9.299 -0.5570 -0.2301 -0.0975
 5663SOL    HW128622   3.890   2.159   9.392 -1.8072  2.0381  0.1265
 5663SOL    HW228623   3.820   2.239   9.290 -2.4953 -1.3696 -0.0205
 5664SOL     OW28624   3.382   2.849   5.395 -0.4530  0.3818 -0.1037
 5664SOL    HW128625   3.296   2.876   5.363 -0.3420  0.0518 -0.6770
 5664SOL    HW228626   3.364   2.770   5.446  2.4865 -0.3789 -0.2954
 5665SOL     OW28627   3.745   4.244  15.919  0.4106 -0.5013 -0.0716
 5665SOL    HW128628   3.673   4.306  15.927  1.3360  0.5824 -0.0833
 5665SOL    HW228629   3.714   4.177  15.858 -1.6651 -0.0559  0.4913
 5666SOL     OW28630   1.463   2.033   0.345 -0.7657 -0.2094 -0.1733
 5666SOL    HW128631   1.495   1.996   0.427 -0.4281  1.9142  0.6617
 5666SOL    HW228632   1.503   1.961   0.297  1.4875  0.8527  0.1087
 5667SOL     OW28633   2.780   2.104   5.298 -0.6197 -0.1257  0.8002
 5667SOL    HW128634   2.752   2.189   5.332 -0.7719 -0.4411  1.4647
 5667SOL    HW228635   2.853   2.123   5.240 -2.9292  0.1927 -2.0020
 5668SOL     OW28636   1.648   1.203   5.343  0.3525  0.0190  0.4412
 5668SOL    HW128637   1.633   1.109   5.333  2.5192 -0.1850 -1.0777
 5668SOL    HW228638   1.704   1.231   5.270  1.0614 -1.9278  0.2074
 5669SOL     OW28639   1.641   0.892   6.370  0.8285  0.6750 -0.0091
 5669SOL    HW128640   1.575   0.883   6.439  0.0791 -2.2602 -1.1278
 5669SOL    HW228641   1.604   0.833   6.305 -2.8851  3.6770 -0.6300
 5670SOL     OW28642   0.419   1.538   5.568 -0.0858  0.7855  0.1801
 5670SOL    HW128643   0.385   1.477   5.633 -1.5958  0.9912 -0.4376
 5670SOL    HW228644   0.343   1.584   5.535  1.3589  2.1049 -1.3139
 5671SOL     OW28645   2.676   0.374   2.379 -0.6926  0.4209  0.2263
 5671SOL    HW128646   2.595   0.374   2.429  0.4446  1.5971  2.0730
 5671SOL    HW228647   2.643   0.414   2.298 -1.5866 -1.8290 -0.5303
 5672SOL     OW28648   2.691   2.883   1.527  0.5451 -0.4537 -0.2837
 5672SOL    HW128649   2.671   2.849   1.440 -0.6600 -2.6600  0.8436
 5672SOL    HW228650   2.659   2.973   1.524  1.6978 -0.0020  1.4670
 5673SOL     OW28651   0.344   2.587   6.319 -0.2269  0.3194 -0.1860
 5673SOL    HW128652   0.263   2.623   6.353 -0.3793 -1.2406  1.0839
 5673SOL    HW228653   0.418   2.635   6.357 -0.9585  1.3629 -0.0875
 5674SOL     OW28654   2.111   1.907   6.560 -0.2143 -0.7195 -0.4719
 5674SOL    HW128655   2.068   1.992   6.568  0.1732 -0.2669 -3.2907
 5674SOL    HW228656   2.170   1.913   6.635  0.8625 -0.0954 -1.3788
 5675SOL     OW28657   2.517   3.942  13.536  0.5854  1.0129 -0.3744
 5675SOL    HW128658   2.477   4.018  13.578 -0.5312  0.9224 -1.2841
 5675SOL    HW228659   2.449   3.928  13.470 -1.3709 -2.2872  2.2898
 5676SOL     OW28660   4.548   1.535   4.653 -0.2709  0.4996 -0.5695
 5676SOL    HW128661   4.543   1.504   4.563  0.3422 -1.4327  0.0572
 5676SOL    HW228662   4.462   1.568   4.681  0.3688 -1.1691  3.4245
 5677SOL     OW28663   0.184   1.844   1.780 -0.3832  0.0424  0.2133
 5677SOL    HW128664   0.261   1.901   1.779 -0.0156 -0.4091  1.9066
 5677SOL    HW228665   0.173   1.826   1.687  0.5641  0.8506 -0.0541
 5678SOL     OW28666   0.410   3.986  11.876 -0.3579 -0.4290 -0.4088
 5678SOL    HW128667   0.411   3.935  11.795 -0.1418 -0.6354 -0.2741
 5678SOL    HW228668   0.318   3.973  11.900 -0.1418 -1.1930  0.0093
 5679SOL     OW28669   4.037   3.666   2.736 -0.0810  0.2179  0.0566
 5679SOL    HW128670   3.961   3.609   2.729 -0.0930  0.2042  0.2795
 5679SOL    HW228671   4.070   3.679   2.647  0.3224 -0.7957  0.0578
 5680SOL     OW28672   3.030   3.120   6.888 -0.4256  0.3714 -0.0368
 5680SOL    HW128673   2.949   3.161   6.918  0.3548  1.9552 -0.0583
 5680SOL    HW228674   3.070   3.113   6.975 -0.0298  0.8308 -0.1817
 5681SOL     OW28675   2.821   3.200  11.749 -0.2561 -0.6567  0.2997
 5681SOL    HW128676   2.807   3.236  11.662  1.2210 -0.5181  0.1220
 5681SOL    HW228677   2.730   3.173  11.765 -0.4728  0.9530  1.9178
 5682SOL     OW28678   3.386   2.800   5.788  0.1085 -0.2094 -0.4942
 5682SOL    HW128679   3.426   2.885   5.767 -1.1600 -0.1694 -2.7098
 5682SOL    HW228680   3.369   2.828   5.878 -1.0915 -0.6460 -0.5788
 5683SOL     OW28681   4.575   3.827   0.511 -0.3050 -0.0951  0.7254
 5683SOL    HW128682   4.670   3.834   0.509 -0.2670 -0.9742 -0.6328
 5683SOL    HW228683   4.542   3.917   0.515 -0.7226 -0.2703  1.2706
 5684SOL     OW28684   3.786   4.363  12.290 -0.2705 -0.3431 -0.1918
 5684SOL    HW128685   3.773   4.433  12.226  2.7067  1.2033  0.9078
 5684SOL    HW228686   3.872   4.333  12.259 -0.0745  2.1236 -2.0059
 5685SOL     OW28687   0.340   0.231  15.808 -0.4411 -0.4198 -0.2078
 5685SOL    HW128688   0.392   0.151  15.800 -1.6307 -1.1852 -0.2791
 5685SOL    HW228689   0.256   0.196  15.838 -0.3759 -1.5726 -1.3843
 5686SOL     OW28690   1.482   1.204   4.696 -0.6092 -0.2772  0.0017
 5686SOL    HW128691   1.473   1.141   4.767 -1.9853  0.5237  0.5495
 5686SOL    HW228692   1.399   1.252   4.705 -1.7822 -2.5419  1.1466
 5687SOL     OW28693   3.290   4.095   7.971  0.0817  0.1959 -0.2325
 5687SOL    HW128694   3.202   4.059   7.976  0.1837 -0.1151 -0.7067
 5687SOL    HW228695   3.289   4.138   7.886  1.8834  1.0271  0.1463
 5688SOL     OW28696   0.476   2.328   5.443  0.8751 -0.5670 -0.6437
 5688SOL    HW128697   0.501   2.327   5.535  0.7373 -1.6085 -0.6208
 5688SOL    HW228698   0.381   2.324   5.456  0.9765 -1.2013 -0.0737
 5689SOL     OW28699   2.564   0.638  16.325  0.0883  0.0677  0.4607
 5689SOL    HW128700   2.475   0.671  16.323  0.1367 -0.1008 -3.2079
 5689SOL    HW228701   2.566   0.604  16.415  2.1060 -0.8622  0.0744
 5690SOL     OW28702   4.437   2.538  17.361  0.3008  0.2766 -0.3592
 5690SOL    HW128703   4.476   2.452  17.343 -1.4296 -0.6999  0.5613
 5690SOL    HW228704   4.514   2.592  17.377  0.2966 -0.2858  1.5485
 5691SOL     OW28705   0.995   4.445   7.091  0.1076 -0.3163  0.3441
 5691SOL    HW128706   0.982   4.416   7.000  0.1247 -0.6518  0.4485
 5691SOL    HW228707   0.904   4.449   7.122 -0.1861 -3.3171 -0.0923
 5692SOL     OW28708   2.203   3.825   4.362  0.6076 -0.7038 -0.2533
 5692SOL    HW128709   2.240   3.843   4.448  0.5720  1.9454 -0.7878
 5692SOL    HW228710   2.249   3.891   4.310 -1.2282  1.5129  0.9774
 5693SOL     OW28711   4.059   3.065   2.874  0.8281  0.0333 -0.2788
 5693SOL    HW128712   4.085   3.158   2.877  2.5203 -0.4917  1.2413
 5693SOL    HW228713   4.097   3.033   2.956 -3.3671 -2.7513  0.5422
 5694SOL     OW28714   0.952   4.191  16.305  0.3382  0.4584  0.1326
 5694SOL    HW128715   0.905   4.119  16.264  0.6961 -0.1874  0.8351
 5694SOL    HW228716   0.896   4.208  16.381 -0.2743 -3.3004  0.5274
 5695SOL     OW28717   0.783   4.730   2.027  0.3852  0.2025 -0.0653
 5695SOL    HW128718   0.769   0.086   2.049 -0.8033 -0.2462  1.0956
 5695SOL    HW228719   0.765   4.732   1.933  1.7117  1.5990 -0.2856
 5696SOL     OW28720   1.320   1.528   4.962  0.3097  0.2207  0.0768
 5696SOL    HW128721   1.387   1.463   4.942  0.0452  0.0171 -0.1473
 5696SOL    HW228722   1.245   1.476   4.992  0.9226 -1.0913 -0.6742
 5697SOL     OW28723   1.393   3.006   6.230 -0.7203 -0.4150 -1.0249
 5697SOL    HW128724   1.452   3.045   6.166 -0.1716  1.5425  0.6522
 5697SOL    HW228725   1.441   2.979   6.308 -2.6740 -0.5405  0.1349
 5698SOL     OW28726   3.544   0.804   6.444 -0.6747  0.0585  0.0706
 5698SOL    HW128727   3.620   0.855   6.471  0.3515 -1.2054 -0.4389
 5698SOL    HW228728   3.560   0.719   6.487  0.1661 -0.4218 -1.1966
 5699SOL     OW28729   2.411   1.584  11.760  0.6138 -0.6113 -0.3287
 5699SOL    HW128730   2.393   1.674  11.787  0.6949 -0.5996 -0.3121
 5699SOL    HW228731   2.404   1.589  11.665  1.0870  1.8182 -0.2314
 5700SOL     OW28732   0.676   2.656   6.248 -0.9477 -0.0832 -0.6781
 5700SOL    HW128733   0.758   2.620   6.282 -0.3771  0.3232 -1.5963
 5700SOL    HW228734   0.681   2.748   6.274  0.4905 -0.3599  0.0006
 5701SOL     OW28735   2.963   4.615  16.053 -0.2266 -0.3512 -0.2801
 5701SOL    HW128736   2.934   4.699  16.090  0.3230  0.3645 -1.4850
 5701SOL    HW228737   3.031   4.601  16.119 -0.5635 -0.7261 -0.0063
 5702SOL     OW28738   1.678   1.367   7.096 -0.5009 -0.3327  0.8971
 5702SOL    HW128739   1.672   1.315   7.016 -0.4475 -0.4514  0.9711
 5702SOL    HW228740   1.595   1.415   7.096 -0.0804  0.3981  1.2962
 5703SOL     OW28741   0.205   2.432   7.308  0.4702 -0.7194  0.0152
 5703SOL    HW128742   0.285   2.469   7.347  0.7569  0.1453 -1.4049
 5703SOL    HW228743   0.171   2.370   7.372 -0.1280  1.3586  1.7198
 5704SOL     OW28744   1.725   0.375   8.712 -0.2365 -0.1003  0.4806
 5704SOL    HW128745   1.686   0.392   8.626  1.8059 -0.1680 -0.4779
 5704SOL    HW228746   1.698   0.283   8.715 -0.1796 -0.0960  1.0950
 5705SOL     OW28747   0.810   3.771   3.508  0.1432 -0.3116  0.1362
 5705SOL    HW128748   0.730   3.819   3.529  0.6270 -0.1699  1.6570
 5705SOL    HW228749   0.852   3.776   3.594  0.6581  0.9121 -0.1907
 5706SOL     OW28750   3.353   0.308  13.963  0.5645 -0.7262 -0.4232
 5706SOL    HW128751   3.355   0.402  13.977  0.6607 -1.0465  1.6700
 5706SOL    HW228752   3.384   0.301  13.872  2.0193 -0.2079  0.0373
 5707SOL     OW28753   3.033   4.286  15.450  0.0254 -0.7030 -0.1967
 5707SOL    HW128754   2.984   4.253  15.525  1.6748  0.1202  1.2376
 5707SOL    HW228755   3.111   4.327  15.488 -0.2243  2.1920 -2.8390
 5708SOL     OW28756   2.675   2.723   5.821 -0.3677  0.2770 -0.6401
 5708SOL    HW128757   2.608   2.657   5.803  0.4739 -1.3267  2.0288
 5708SOL    HW228758   2.650   2.746   5.911  2.7484  2.1837 -0.2727
 5709SOL     OW28759   3.278   4.116   9.044  1.1118  0.1964  0.1242
 5709SOL    HW128760   3.308   4.206   9.031  0.9669  0.0460 -1.2527
 5709SOL    HW228761   3.183   4.118   9.050  1.0466 -3.6652 -0.1234
 5710SOL     OW28762   3.132   2.559   9.844 -0.2648  0.3269 -0.4142
 5710SOL    HW128763   3.201   2.621   9.820  0.6808 -1.4912 -2.3828
 5710SOL    HW228764   3.152   2.542   9.936 -1.9687  1.4548  0.1544
 5711SOL     OW28765   3.832   0.737   3.831  0.4287 -0.6124 -0.9280
 5711SOL    HW128766   3.899   0.693   3.779  0.4738  0.6391 -1.9178
 5711SOL    HW228767   3.862   0.724   3.921  1.6756  0.8480 -1.1373
 5712SOL     OW28768   2.219   4.356   7.961 -0.0954  0.0298 -0.6701
 5712SOL    HW128769   2.142   4.375   8.014 -0.8413 -0.1451 -1.6983
 5712SOL    HW228770   2.186   4.281   7.913 -0.5014 -1.0043  1.2385
 5713SOL     OW28771   3.014   1.357   9.959  0.1626  0.7309 -0.0219
 5713SOL    HW128772   2.982   1.401   9.880  0.7028  1.0477 -0.0661
 5713SOL    HW228773   2.935   1.376  10.009 -0.0325  0.6951 -0.3185
 5714SOL     OW28774   0.793   2.229   2.754 -0.5601  0.4842 -0.7110
 5714SOL    HW128775   0.775   2.225   2.660  1.3165  1.0554 -1.0748
 5714SOL    HW228776   0.781   2.135   2.770  2.0382  0.5731  1.6373
 5715SOL     OW28777   2.969   1.837   7.692 -0.0860  0.2164 -0.3143
 5715SOL    HW128778   3.015   1.753   7.685 -0.3173 -0.0216  0.8848
 5715SOL    HW228779   2.903   1.843   7.761  2.3049 -0.6082  2.0698
 5716SOL     OW28780   0.025   0.077   9.548 -0.1613 -0.0532  0.5424
 5716SOL    HW128781   0.015   4.728   9.590  0.0763 -0.6472 -0.5868
 5716SOL    HW228782   0.093   0.057   9.483 -0.3112  0.9609  0.0684
 5717SOL     OW28783   2.099   4.085   7.960  0.1153 -0.1568 -0.1587
 5717SOL    HW128784   2.013   4.043   7.959 -0.0876  0.2795 -1.1732
 5717SOL    HW228785   2.122   4.080   8.053  0.8464 -0.7908 -0.3797
 5718SOL     OW28786   3.421   3.873   5.874 -0.7244  0.4730 -0.6422
 5718SOL    HW128787   3.392   3.929   5.802 -0.9078  0.6152 -0.4571
 5718SOL    HW228788   3.509   3.906   5.891  0.0162 -1.0581 -1.5160
 5719SOL     OW28789   2.088   1.415   8.612  0.1539  0.0798 -0.8591
 5719SOL    HW128790   2.124   1.351   8.550  0.9877 -0.0428 -0.2557
 5719SOL    HW228791   2.004   1.433   8.571 -1.1452 -3.0134  0.5166
 5720SOL     OW28792   4.251   3.138   4.855  0.4354 -0.2089 -0.1443
 5720SOL    HW128793   4.246   3.102   4.944  2.0454  3.3954  1.3817
 5720SOL    HW228794   4.185   3.086   4.810  0.3926 -0.5603  0.3170
 5721SOL     OW28795   0.776   0.875  12.253  0.1678  0.5824 -0.2438
 5721SOL    HW128796   0.859   0.892  12.298 -1.4546  1.8824  2.2530
 5721SOL    HW228797   0.714   0.901  12.321 -0.2038 -1.0914  0.0413
 5722SOL     OW28798   3.624   1.317   5.244  0.5997  0.0830 -0.5474
 5722SOL    HW128799   3.705   1.350   5.282  0.3802  1.1036 -0.9497
 5722SOL    HW228800   3.648   1.226   5.231 -1.2749 -0.5810  0.6509
 5723SOL     OW28801   4.709   0.108   2.059 -0.1838  0.4321  0.0248
 5723SOL    HW128802   4.652   0.099   1.982  0.8173 -0.3489 -0.6419
 5723SOL    HW228803   0.021   0.187   2.035 -0.6323  0.3394 -1.1825
 5724SOL     OW28804   4.557   0.407   5.509 -0.4522  0.5244  0.4282
 5724SOL    HW128805   4.598   0.442   5.431 -2.2166  0.6240 -0.4454
 5724SOL    HW228806   4.535   0.492   5.547 -3.0594 -1.1108  2.6065
 5725SOL     OW28807   0.586   1.634   8.750  0.1696  0.0737  0.1758
 5725SOL    HW128808   0.505   1.684   8.764 -0.3109 -1.2791  2.2367
 5725SOL    HW228809   0.561   1.542   8.763  2.2521 -0.3889  0.8966
 5726SOL     OW28810   4.011   1.335   1.059 -0.1909  0.0204 -0.3749
 5726SOL    HW128811   4.055   1.295   0.984  0.6340 -1.1494  0.7332
 5726SOL    HW228812   3.940   1.386   1.020  1.9501  2.0868 -1.5134
 5727SOL     OW28813   0.838   1.475   2.627  0.1565  0.1348  0.2017
 5727SOL    HW128814   0.905   1.436   2.571  2.5272 -0.1020  3.2399
 5727SOL    HW228815   0.871   1.469   2.716  1.2112  2.9487 -0.0137
 5728SOL     OW28816   4.585   0.583  17.286 -0.3524  0.5508 -0.5083
 5728SOL    HW128817   4.517   0.542  17.340 -0.7973  1.0404 -0.6939
 5728SOL    HW228818   4.530   0.583  17.207 -1.4831 -0.1187  0.2776
 5729SOL     OW28819   4.587   0.135   3.771 -0.0486 -1.0820 -0.3913
 5729SOL    HW128820   4.503   0.145   3.816 -0.0493  0.4266 -0.7378
 5729SOL    HW228821   4.633   0.082   3.837 -0.2719  0.7820  1.2585
 5730SOL     OW28822   1.242   2.391  11.663 -0.2694 -0.2768 -0.2503
 5730SOL    HW128823   1.191   2.407  11.584 -0.5354 -1.0430 -0.2350
 5730SOL    HW228824   1.333   2.388  11.633 -0.4779  0.3460 -0.9315
 5731SOL     OW28825   2.114   4.552  11.837 -0.0236  0.0673 -0.0610
 5731SOL    HW128826   2.034   4.603  11.848  0.5227  1.1239 -0.9762
 5731SOL    HW228827   2.124   4.514  11.924  1.2561  0.2755 -0.1229
 5732SOL     OW28828   2.327   4.377  11.881  0.5531 -0.1787  0.4631
 5732SOL    HW128829   2.405   4.428  11.904  1.3564 -0.2531 -2.0475
 5732SOL    HW228830   2.295   4.367  11.971  1.3629  0.8211  0.8573
 5733SOL     OW28831   4.725   0.935   6.760 -0.1440 -0.5541 -0.1584
 5733SOL    HW128832   0.059   0.874   6.785 -0.0475  0.4315  1.9980
 5733SOL    HW228833   0.021   1.018   6.796 -1.2967 -0.2691  0.2218
 5734SOL     OW28834   0.667   1.085  16.221 -0.5033 -0.2531 -0.1350
 5734SOL    HW128835   0.589   1.051  16.178 -0.7380 -0.0266  0.1085
 5734SOL    HW228836   0.682   1.013  16.283  3.8378 -0.0325 -0.9380
 5735SOL     OW28837   0.579   4.610  12.274 -0.6380  0.2075 -0.7455
 5735SOL    HW128838   0.625   4.692  12.290 -1.5946  0.6327 -0.2007
 5735SOL    HW228839   0.606   4.564  12.354  1.9970  2.9982 -0.0433
 5736SOL     OW28840   0.177   2.228  14.098 -0.7712  0.0836 -0.3143
 5736SOL    HW128841   0.185   2.221  14.193  0.5896  1.8827 -0.2971
 5736SOL    HW228842   0.267   2.246  14.072 -0.4251  1.8554  2.1386
 5737SOL     OW28843   1.375   1.822   6.391  0.3664 -0.3257  0.2546
 5737SOL    HW128844   1.444   1.874   6.349  0.6941  0.1559  1.3901
 5737SOL    HW228845   1.360   1.742   6.341 -2.7353 -0.2804  1.1158
 5738SOL     OW28846   4.660   4.059   7.986  0.3261  0.2447 -0.1193
 5738SOL    HW128847   4.618   4.139   7.956 -0.7068 -1.1440 -2.3237
 5738SOL    HW228848   4.599   4.029   8.054 -0.6680  0.4663 -0.9249
 5739SOL     OW28849   4.539   4.248   4.148  0.3913 -0.0415 -0.1951
 5739SOL    HW128850   4.493   4.166   4.128  0.5842 -0.1710 -0.1046
 5739SOL    HW228851   4.508   4.274   4.235  0.5752 -0.5241  0.0158
 5740SOL     OW28852   2.975   0.261   5.656  0.2693 -0.3044  0.2200
 5740SOL    HW128853   2.881   0.248   5.667  0.1005 -0.1103 -1.0023
 5740SOL    HW228854   3.012   0.215   5.731  2.1164  0.3961 -0.2748
 5741SOL     OW28855   4.202   1.425   3.001 -0.2568 -0.0683 -0.4404
 5741SOL    HW128856   4.180   1.509   3.042 -1.9048 -0.8531  0.2952
 5741SOL    HW228857   4.114   1.388   2.994 -0.6305  0.6038  0.7090
 5742SOL     OW28858   3.675   3.974   5.892 -0.3596  0.0919  0.2859
 5742SOL    HW128859   3.693   4.054   5.941  0.2444  0.0840  0.0790
 5742SOL    HW228860   3.703   4.006   5.806 -0.1222  0.4958  0.5134
 5743SOL     OW28861   3.590   1.451  11.036  0.1032 -0.0798 -0.4436
 5743SOL    HW128862   3.684   1.431  11.026  0.0906 -0.3584 -0.0263
 5743SOL    HW228863   3.541   1.385  10.987  1.0385  0.6747 -2.3882
 5744SOL     OW28864   0.535   3.989   7.341  0.1301  0.4077  0.1299
 5744SOL    HW128865   0.499   3.900   7.334  0.3679  0.3189  0.0230
 5744SOL    HW228866   0.471   4.023   7.403  2.5255  0.8029  2.3859
 5745SOL     OW28867   1.521   1.321  17.064 -0.1467  0.2828 -0.0850
 5745SOL    HW128868   1.426   1.324  17.051 -0.1800 -0.4810 -0.0427
 5745SOL    HW228869   1.547   1.408  17.092  0.0365  0.1755  0.0758
 5746SOL     OW28870   1.628   4.546   6.427  0.3782  0.3040 -0.0834
 5746SOL    HW128871   1.630   4.639   6.447 -1.2565 -0.3275  2.8757
 5746SOL    HW228872   1.562   4.513   6.488  0.3024  1.3847  0.4136
 5747SOL     OW28873   1.456   3.181   4.867  0.0350  0.0075 -0.1332
 5747SOL    HW128874   1.398   3.255   4.884  0.1677 -0.1595  1.0449
 5747SOL    HW228875   1.390   3.115   4.845  1.0334 -0.9964 -0.1032
 5748SOL     OW28876   1.581   1.814  17.459  0.0956  0.3755 -0.4745
 5748SOL    HW128877   1.588   1.873  17.534  1.7423  0.3617 -0.6201
 5748SOL    HW228878   1.488   1.791  17.466 -0.2367  2.0641  0.8821
 5749SOL     OW28879   1.067   0.251   7.037  0.6216 -0.7450 -0.0857
 5749SOL    HW128880   1.152   0.288   7.061  0.8216 -1.2319 -0.0368
 5749SOL    HW228881   1.001   0.316   7.060  1.7683 -0.4194  2.3275
 5750SOL     OW28882   3.855   1.707   2.072 -0.3982  0.1077  0.9482
 5750SOL    HW128883   3.831   1.653   2.147 -0.5002 -0.3424  0.5889
 5750SOL    HW228884   3.805   1.659   2.006  1.5079  1.0368 -1.1786
 5751SOL     OW28885   3.667   0.666  16.793  0.0011  0.2009 -0.7228
 5751SOL    HW128886   3.669   0.591  16.851 -1.5610  1.1901  0.6138
 5751SOL    HW228887   3.572   0.674  16.779 -0.5500 -2.3230  1.6896
 5752SOL     OW28888   1.372   3.793  14.719 -0.0480 -0.5446 -0.0200
 5752SOL    HW128889   1.330   3.720  14.673  0.7404 -0.4167 -0.9359
 5752SOL    HW228890   1.463   3.792  14.689 -1.1137 -0.6245 -3.3106
 5753SOL     OW28891   3.327   1.177  13.957  0.7155  0.0081 -0.0910
 5753SOL    HW128892   3.370   1.152  13.875 -0.6210 -3.2543  0.2031
 5753SOL    HW228893   3.393   1.150  14.021  0.5180  0.9380  0.5090
 5754SOL     OW28894   3.926   1.860  13.251 -0.5856  0.1537  0.3922
 5754SOL    HW128895   4.018   1.873  13.228 -1.0056  0.8303 -0.9229
 5754SOL    HW228896   3.927   1.783  13.307 -0.1360 -0.7502 -0.8601
 5755SOL     OW28897   4.354   2.630  12.316  0.4014  0.1164 -0.5295
 5755SOL    HW128898   4.300   2.705  12.291  0.7786  0.9483  1.1832
 5755SOL    HW228899   4.431   2.647  12.262  0.3976  1.8572  0.0188
 5756SOL     OW28900   3.698   1.240   3.705  0.5461  0.1114 -0.3908
 5756SOL    HW128901   3.723   1.167   3.761 -2.9710  0.6283  1.8690
 5756SOL    HW228902   3.608   1.249   3.737  0.2808 -2.9024 -0.3398
 5757SOL     OW28903   3.022   3.656   7.556  0.0891  0.4931  0.4796
 5757SOL    HW128904   3.070   3.584   7.598  0.9174  1.2314  0.8182
 5757SOL    HW228905   3.008   3.714   7.630  1.2930  0.5152  0.7015
 5758SOL     OW28906   3.081   3.875   2.621 -0.3599 -0.0026 -0.4454
 5758SOL    HW128907   3.088   3.822   2.541  0.0023  2.0329 -1.7782
 5758SOL    HW228908   3.025   3.818   2.673 -1.2966  2.3017  1.0996
 5759SOL     OW28909   3.898   4.021   3.463  0.4624 -0.4875 -0.0790
 5759SOL    HW128910   3.896   4.040   3.556 -0.0315 -1.9958  0.2239
 5759SOL    HW228911   3.810   3.990   3.443 -0.4646  1.8824  0.3653
 5760SOL     OW28912   0.760   1.707   5.312 -0.2357 -0.2225 -0.6479
 5760SOL    HW128913   0.803   1.793   5.314 -0.2344 -0.2412  0.0810
 5760SOL    HW228914   0.745   1.685   5.404  2.4437 -0.8534 -0.3503
 5761SOL     OW28915   3.919   2.229   8.558  0.3694 -0.7663 -0.3522
 5761SOL    HW128916   3.859   2.198   8.491 -1.6697 -0.0376  1.1495
 5761SOL    HW228917   3.863   2.297   8.595  0.1140 -0.2420 -1.7022
 5762SOL     OW28918   4.530   2.857   9.597  0.8040 -0.3788 -0.4293
 5762SOL    HW128919   4.520   2.950   9.575 -0.2411 -0.8093 -1.7863
 5762SOL    HW228920   4.482   2.816   9.525  1.2417 -0.7763 -0.4921
 5763SOL     OW28921   3.874   1.515   5.185 -0.1160 -0.0557  0.2784
 5763SOL    HW128922   3.941   1.574   5.221 -0.3628 -0.0772  0.7684
 5763SOL    HW228923   3.883   1.424   5.213  1.3491  0.0219  0.0850
 5764SOL     OW28924   1.283   1.984   1.606 -0.1945  0.1022  0.2982
 5764SOL    HW128925   1.251   1.894   1.612 -0.1516 -0.0435 -1.5063
 5764SOL    HW228926   1.308   2.001   1.696 -0.3617  1.3794  0.0958
 5765SOL     OW28927   0.133   1.205   3.829  0.6276 -0.3326 -0.7051
 5765SOL    HW128928   0.064   1.224   3.766 -0.7035 -2.6572  0.0290
 5765SOL    HW228929   0.186   1.143   3.778  0.7448 -0.8194  0.0034
 5766SOL     OW28930   4.173   3.447   2.340  0.2692 -0.1629 -0.0073
 5766SOL    HW128931   4.255   3.497   2.347  0.1063 -0.1191  1.7187
 5766SOL    HW228932   4.209   3.361   2.322  1.4724  0.0689  1.2702
 5767SOL     OW28933   4.199   1.702  10.191 -0.2198 -0.3195 -0.2010
 5767SOL    HW128934   4.230   1.706  10.282 -0.3171  1.0706 -0.2335
 5767SOL    HW228935   4.108   1.679  10.206 -0.5028  0.6835 -0.4128
 5768SOL     OW28936   4.087   0.944  14.608  0.4853  0.2768 -0.1328
 5768SOL    HW128937   4.065   1.032  14.638  0.4067  0.8782 -1.9362
 5768SOL    HW228938   4.079   0.951  14.512 -2.1959  0.3124  0.1039
 5769SOL     OW28939   0.800   3.795   7.537 -0.4641 -0.6971 -0.3131
 5769SOL    HW128940   0.828   3.887   7.538 -0.3303 -0.7111 -2.2979
 5769SOL    HW228941   0.711   3.803   7.574  0.1008 -0.4270  0.9837
 5770SOL     OW28942   4.579   3.961   4.361 -0.5997 -0.1766  0.5209
 5770SOL    HW128943   4.554   3.957   4.269 -0.4603 -1.2417  0.5278
 5770SOL    HW228944   4.648   3.895   4.355 -0.5631 -0.2100  1.2538
 5771SOL     OW28945   3.177   1.261   0.966 -0.1031 -0.6287 -0.0942
 5771SOL    HW128946   3.250   1.199   0.968 -0.3495 -0.9772 -1.7435
 5771SOL    HW228947   3.198   1.310   1.045 -3.0892 -0.1980  0.4294
 5772SOL     OW28948   2.194   3.492   6.776  0.0497 -0.4703 -0.5510
 5772SOL    HW128949   2.221   3.576   6.739  0.1713 -1.4176 -2.5949
 5772SOL    HW228950   2.108   3.474   6.737 -0.7602 -1.0839  1.5408
 5773SOL     OW28951   0.697   0.433  12.661  0.2056 -0.1444 -0.0175
 5773SOL    HW128952   0.602   0.421  12.664 -0.0049  1.7766  1.0363
 5773SOL    HW228953   0.709   0.413  12.568  1.9563  2.4609 -0.3467
 5774SOL     OW28954   1.675   4.233  14.831 -0.0252  0.5083  0.3109
 5774SOL    HW128955   1.691   4.236  14.925 -3.4756  1.8877  0.8277
 5774SOL    HW228956   1.600   4.175  14.826  2.0707 -2.2015  0.1136
 5775SOL     OW28957   0.718   1.812  16.514  0.1164  0.6664 -0.1897
 5775SOL    HW128958   0.783   1.787  16.579 -0.0696  0.0719 -0.2328
 5775SOL    HW228959   0.719   1.906  16.534 -1.0690  1.1360 -2.4029
 5776SOL     OW28960   2.808   0.409   7.653 -0.5579 -0.3113 -0.3889
 5776SOL    HW128961   2.743   0.354   7.697 -0.6809 -0.2271 -0.4674
 5776SOL    HW228962   2.750   0.472   7.610 -1.9956 -1.2383  0.2081
 5777SOL     OW28963   3.551   3.996  16.923  0.4791 -0.1164 -0.0431
 5777SOL    HW128964   3.535   3.910  16.886  0.8479 -0.1409 -0.1517
 5777SOL    HW228965   3.475   4.042  16.888  0.8202  1.4513  1.2827
 5778SOL     OW28966   4.015   2.845   2.712 -0.5148  0.6675 -0.1663
 5778SOL    HW128967   4.042   2.917   2.769  0.1503  0.7676 -0.6070
 5778SOL    HW228968   4.000   2.894   2.631 -2.3463  0.8613  0.3014
 5779SOL     OW28969   3.286   0.055   6.457 -0.3571 -0.1102 -0.0307
 5779SOL    HW128970   3.236   0.073   6.537 -2.7696 -1.4542 -1.2409
 5779SOL    HW228971   3.303   4.698   6.470  0.0015  0.1593  1.3847
 5780SOL     OW28972   0.811   0.193   3.497  0.0788 -0.0099  0.5581
 5780SOL    HW128973   0.812   0.112   3.549  0.0992  0.3785  1.1668
 5780SOL    HW228974   0.881   0.178   3.434 -0.9865  1.1966 -0.9148
 5781SOL     OW28975   3.968   2.519   5.003 -0.3196 -0.4663  0.1424
 5781SOL    HW128976   3.878   2.553   5.006 -0.3909 -0.5422 -0.9720
 5781SOL    HW228977   3.962   2.460   5.079  0.2703  0.0658  0.5936
 5782SOL     OW28978   4.313   1.018  11.480 -0.0192  0.8927  0.1846
 5782SOL    HW128979   4.382   1.014  11.413  0.6273  2.3375  0.7664
 5782SOL    HW228980   4.234   0.993  11.432  1.2622  0.8898 -1.9375
 5783SOL     OW28981   4.417   4.129  11.326  0.1211  0.1935 -0.0712
 5783SOL    HW128982   4.412   4.125  11.421  0.5979  0.0287 -0.0518
 5783SOL    HW228983   4.505   4.093  11.311 -0.4178 -0.6678 -1.1601
 5784SOL     OW28984   2.900   3.734   5.312 -0.0153  0.0986 -0.7074
 5784SOL    HW128985   2.842   3.808   5.330 -1.0101 -0.9803  0.4721
 5784SOL    HW228986   2.864   3.705   5.228 -0.3505  3.1572 -1.6332
 5785SOL     OW28987   0.749   1.530   9.044 -0.0076  0.3141  0.3540
 5785SOL    HW128988   0.814   1.540   8.974  1.3068 -0.0142  1.5465
 5785SOL    HW228989   0.748   1.614   9.090  1.1015  1.3867 -1.5713
 5786SOL     OW28990   3.064   1.971  13.124 -0.2625  0.6760 -0.3873
 5786SOL    HW128991   3.050   1.922  13.043  0.2536  2.9376 -1.8434
 5786SOL    HW228992   2.975   2.003  13.138 -1.0470 -1.9723  0.6855
 5787SOL     OW28993   4.675   2.063   1.932 -0.5193 -0.0124 -0.4852
 5787SOL    HW128994   4.670   1.967   1.940  1.7830 -0.1256 -0.2881
 5787SOL    HW228995   4.729   2.072   1.853  3.0249  0.3796  1.9908
 5788SOL     OW28996   1.490   2.130   0.728  0.1880  0.6841 -0.5612
 5788SOL    HW128997   1.420   2.095   0.783  0.4613 -0.0074 -0.6610
 5788SOL    HW228998   1.528   2.052   0.689 -0.0949 -0.2436  0.9996
 5789SOL     OW28999   1.811   0.358   5.594  0.0286 -0.5517  0.6617
 5789SOL    HW129000   1.722   0.392   5.581 -0.3400 -0.6909  2.9405
 5789SOL    HW229001   1.805   0.272   5.635  1.5579 -1.3913 -0.9067
 5790SOL     OW29002   4.201   0.625  13.823  0.3996  0.2094 -0.2206
 5790SOL    HW129003   4.273   0.563  13.832 -0.2760 -0.2432  2.0093
 5790SOL    HW229004   4.184   0.649  13.914  0.6231 -2.8241  0.6248
 5791SOL     OW29005   1.219   3.923   8.537 -0.1304 -0.1529 -0.2517
 5791SOL    HW129006   1.160   3.961   8.602  2.8087  0.6525  1.9534
 5791SOL    HW229007   1.157   3.898   8.468  0.4315  1.6816 -1.4385
 5792SOL     OW29008   2.371   0.206   4.126 -0.6094  0.0410  0.0439
 5792SOL    HW129009   2.364   0.173   4.036  0.3745  1.7936 -0.6765
 5792SOL    HW229010   2.278   0.207   4.149 -0.2144  1.1233  1.5670
 5793SOL     OW29011   0.040   2.871   0.976  0.3645  0.4153  0.1415
 5793SOL    HW129012   0.060   2.853   0.884 -0.0445  0.0540  0.1213
 5793SOL    HW229013   0.045   2.781   1.008 -1.4835 -0.5845 -2.3969
 5794SOL     OW29014   3.497   4.291   5.681  0.2573 -0.1913 -0.0753
 5794SOL    HW129015   3.583   4.271   5.719 -0.7491 -1.6602  1.4023
 5794SOL    HW229016   3.491   4.385   5.662  1.2946 -0.1044 -0.0139
 5795SOL     OW29017   3.874   1.186   3.510 -0.5664 -0.2427 -0.7995
 5795SOL    HW129018   3.965   1.158   3.499 -0.6706 -0.7849 -0.2757
 5795SOL    HW229019   3.847   1.174   3.601 -2.4870  0.9460 -1.2328
 5796SOL     OW29020   0.822   3.361   8.266 -0.1421  0.0832  0.1165
 5796SOL    HW129021   0.899   3.331   8.314  0.3481  0.1975 -0.5998
 5796SOL    HW229022   0.837   3.315   8.184  0.3942 -1.4173  1.0634
 5797SOL     OW29023   2.868   1.495   6.415 -0.4396  0.0253  0.1041
 5797SOL    HW129024   2.841   1.501   6.506 -0.9271  1.5031 -0.1378
 5797SOL    HW229025   2.892   1.402   6.416  0.5440  0.2595 -0.9299
 5798SOL     OW29026   4.719   2.410  14.028  0.3702  0.1881  0.2743
 5798SOL    HW129027   4.725   2.440  13.937  0.4711  0.0568  0.2380
 5798SOL    HW229028   0.060   2.354  14.023  0.0742 -0.1447 -0.7033
 5799SOL     OW29029   0.762   0.675   5.382  0.4996  0.3799 -0.0711
 5799SOL    HW129030   0.735   0.583   5.382  0.5867  0.3520  0.4030
 5799SOL    HW229031   0.857   0.664   5.380  0.2374 -2.0969  0.7247
 5800SOL     OW29032   2.474   2.790   5.224  0.1076 -0.2338  0.1792
 5800SOL    HW129033   2.527   2.718   5.190  2.3669  1.2333  0.5256
 5800SOL    HW229034   2.546   2.854   5.220  0.1995 -0.3254  0.3639
 5801SOL     OW29035   3.973   0.807   3.062 -0.4716 -0.2035  0.2667
 5801SOL    HW129036   3.893   0.755   3.066 -0.6961  0.1172 -0.0458
 5801SOL    HW229037   3.969   0.849   3.148  0.2795  0.5857 -0.0834
 5802SOL     OW29038   1.292   1.812  13.618 -0.1848 -0.1504  0.0076
 5802SOL    HW129039   1.215   1.868  13.604  0.1484 -0.1052 -1.6123
 5802SOL    HW229040   1.259   1.736  13.571  1.0048  0.8449 -2.4558
 5803SOL     OW29041   1.073   0.847   1.754  0.1286  0.6074  0.2177
 5803SOL    HW129042   1.158   0.886   1.736  0.7193 -0.7189  0.1198
 5803SOL    HW229043   1.087   0.753   1.739  0.5354  0.7722 -0.4085
 5804SOL     OW29044   4.463   0.099  14.953 -0.0120 -0.5237 -0.1262
 5804SOL    HW129045   4.472   0.154  15.031  1.0205 -1.8397  0.6849
 5804SOL    HW229046   4.515   0.156  14.897  0.2343  0.9529  1.6094
 5805SOL     OW29047   0.081   3.749   3.987 -0.2436  0.2678  0.7151
 5805SOL    HW129048   4.725   3.743   4.011  0.1471 -1.2989  1.8226
 5805SOL    HW229049   0.132   3.762   4.067  1.1402  2.7624 -0.5536
 5806SOL     OW29050   1.950   4.221   3.810  0.1663 -0.1372  0.4101
 5806SOL    HW129051   1.919   4.193   3.896 -0.8048 -0.3727 -0.0216
 5806SOL    HW229052   2.014   4.154   3.787  0.9206  1.7115 -2.7054
 5807SOL     OW29053   0.431   4.356   8.748  0.6147 -0.2075 -0.3612
 5807SOL    HW129054   0.504   4.297   8.732  0.2279 -1.5322  2.7870
 5807SOL    HW229055   0.368   4.284   8.743 -0.5528  0.8209 -0.5070
 5808SOL     OW29056   1.211   2.926  15.409  0.2066  0.1979 -0.0165
 5808SOL    HW129057   1.167   2.998  15.455 -1.6142  1.9310 -4.4576
 5808SOL    HW229058   1.148   2.887  15.348  2.2033 -2.2137 -0.5168
 5809SOL     OW29059   1.611   3.464   1.445  0.0197  0.1629 -0.3689
 5809SOL    HW129060   1.540   3.522   1.473  0.4156  0.2989  0.3576
 5809SOL    HW229061   1.583   3.412   1.370  0.4725  2.3489 -2.0803
 5810SOL     OW29062   0.191   2.077  15.814  0.4987  0.7210  0.5551
 5810SOL    HW129063   0.212   2.106  15.902 -0.4432 -1.7960  1.6370
 5810SOL    HW229064   0.102   2.113  15.814 -0.7655 -2.3305 -2.1830
 5811SOL     OW29065   4.549   1.863  16.956  0.5613  0.5886 -0.1221
 5811SOL    HW129066   4.506   1.849  17.041 -0.3240  0.8705 -0.5282
 5811SOL    HW229067   4.539   1.774  16.922 -1.0720  0.4665  0.6732
 5812SOL     OW29068   3.781   0.888   5.435 -0.0676  0.3999  0.1730
 5812SOL    HW129069   3.863   0.891   5.485 -0.5446 -1.9523  1.0634
 5812SOL    HW229070   3.781   0.795   5.415  0.1545  0.4620 -0.1257
 5813SOL     OW29071   2.129   1.406   6.549 -0.3164  0.5624 -0.1785
 5813SOL    HW129072   2.086   1.340   6.603 -2.4931  1.1902 -1.1601
 5813SOL    HW229073   2.135   1.482   6.608  1.4497  0.4736 -0.2424
 5814SOL     OW29074   2.228   0.392  15.700 -0.3438  0.0092  0.0434
 5814SOL    HW129075   2.152   0.412  15.645  0.2297  1.6121 -0.1547
 5814SOL    HW229076   2.300   0.436  15.653 -2.2474  1.4762 -1.4901
 5815SOL     OW29077   2.210   1.750   1.998  0.3269 -0.2928  0.3356
 5815SOL    HW129078   2.163   1.783   1.921 -2.1286 -3.3535  0.5007
 5815SOL    HW229079   2.300   1.779   1.983 -0.6994  2.7583  0.0591
 5816SOL     OW29080   1.016   2.607  14.022  0.5852  0.0131 -0.6658
 5816SOL    HW129081   1.038   2.516  14.005 -0.4717 -0.2884 -0.4473
 5816SOL    HW229082   0.930   2.587  14.060  0.8474  0.1296 -0.0224
 5817SOL     OW29083   1.660   2.807   7.959  0.0749  0.4624  0.3686
 5817SOL    HW129084   1.620   2.787   7.874  4.2412  1.7224 -1.8629
 5817SOL    HW229085   1.583   2.834   8.009 -0.8676 -0.0884 -0.7902
 5818SOL     OW29086   4.118   3.336   2.872  0.0613 -0.0320  0.1304
 5818SOL    HW129087   4.206   3.364   2.846  0.3343 -0.3258  0.7222
 5818SOL    HW229088   4.106   3.406   2.936 -1.3363 -0.6922  0.5740
 5819SOL     OW29089   4.544   3.086  11.839 -0.0027  0.1095 -0.0937
 5819SOL    HW129090   4.474   3.111  11.779  0.3952 -0.3099 -0.7209
 5819SOL    HW229091   4.499   3.040  11.910  0.7027  0.1019  0.3478
 5820SOL     OW29092   0.622   1.632   2.953 -0.3105  0.1704 -0.3125
 5820SOL    HW129093   0.539   1.590   2.929 -1.7863  3.0747 -0.2485
 5820SOL    HW229094   0.597   1.723   2.937 -0.5491  0.2502  0.5500
 5821SOL     OW29095   2.112   3.093   8.798 -0.1125 -0.2284 -0.0950
 5821SOL    HW129096   2.106   3.116   8.891 -2.5579  0.9070 -0.5380
 5821SOL    HW229097   2.112   3.182   8.763 -0.0497  0.2549  1.1523
 5822SOL     OW29098   1.390   3.698  15.922  0.1752  0.4085  0.2566
 5822SOL    HW129099   1.470   3.733  15.961  0.8243 -0.6401 -0.1360
 5822SOL    HW229100   1.345   3.659  15.996  1.9479  1.0288  1.6694
 5823SOL     OW29101   3.741   2.600   9.113 -0.7714  0.0609  0.7381
 5823SOL    HW129102   3.728   2.674   9.172  0.1697  0.1536  0.8201
 5823SOL    HW229103   3.811   2.649   9.069 -0.7021  0.3271  1.1432
 5824SOL     OW29104   2.512   2.347   5.544 -0.1597  0.1561  0.3272
 5824SOL    HW129105   2.567   2.375   5.472 -0.7765 -0.5491 -0.4146
 5824SOL    HW229106   2.442   2.297   5.502 -0.4371 -0.2048  1.1973
 5825SOL     OW29107   0.102   2.587   1.611  0.2274 -0.2661  0.0132
 5825SOL    HW129108   0.131   2.571   1.700  1.7298  1.6331 -0.1286
 5825SOL    HW229109   0.183   2.582   1.561  0.5342  2.2601  0.2551
 5826SOL     OW29110   3.894   2.596   6.474 -0.6202 -0.1459  0.6801
 5826SOL    HW129111   3.904   2.507   6.508 -1.6297 -0.3483  0.4364
 5826SOL    HW229112   3.957   2.608   6.403 -1.3226  4.0883  0.7882
 5827SOL     OW29113   2.406   0.329  15.128  0.6620 -0.2648  0.1985
 5827SOL    HW129114   2.373   0.378  15.052 -0.4419 -0.6465  0.4247
 5827SOL    HW229115   2.500   0.345  15.129  0.8013 -1.0326 -1.6047
 5828SOL     OW29116   0.352   2.123   6.278 -1.0673 -0.6005 -0.0190
 5828SOL    HW129117   0.310   2.151   6.197 -0.8645  4.2722  1.5577
 5828SOL    HW229118   0.334   2.194   6.341  2.7305  1.0611 -0.8132
 5829SOL     OW29119   1.811   4.698   1.908 -0.3792 -0.4695  0.8132
 5829SOL    HW129120   1.857   0.044   1.891  0.8839 -1.4169 -0.2998
 5829SOL    HW229121   1.856   4.676   1.989 -0.0268  1.3586  1.1213
 5830SOL     OW29122   0.241   3.606   4.215 -0.2609  0.5571 -0.2988
 5830SOL    HW129123   0.249   3.538   4.148  1.7474  1.7288 -1.2566
 5830SOL    HW229124   0.328   3.616   4.255 -0.2496  0.1242 -0.2080
 5831SOL     OW29125   1.178   4.125   8.952 -0.6786 -0.0378  0.4131
 5831SOL    HW129126   1.121   4.098   9.024 -1.2110  1.0954  0.4242
 5831SOL    HW229127   1.240   4.188   8.988  0.2354 -1.8861  2.0324
 5832SOL     OW29128   0.520   1.911   5.468  0.2475 -0.5073 -0.3364
 5832SOL    HW129129   0.580   1.983   5.450 -0.3129 -0.0762 -0.4983
 5832SOL    HW229130   0.558   1.876   5.549 -0.1456  2.2761  1.0661
 5833SOL     OW29131   4.633   1.911   5.777 -0.2083 -0.0164 -0.2020
 5833SOL    HW129132   4.545   1.885   5.747 -1.0151  2.3085  0.1355
 5833SOL    HW229133   4.642   1.999   5.742 -1.6696  0.4996  0.6750
 5834SOL     OW29134   2.808   4.415   3.827 -0.7268  0.1414 -0.2879
 5834SOL    HW129135   2.856   4.369   3.758 -0.8642 -1.4473  0.6722
 5834SOL    HW229136   2.823   4.505   3.799 -0.9947 -0.3538 -2.0262
 5835SOL     OW29137   2.330   2.804  10.660 -0.4962 -0.2394  0.5761
 5835SOL    HW129138   2.398   2.746  10.693  1.4484  0.8513 -1.5345
 5835SOL    HW229139   2.334   2.881  10.717  1.1379 -0.9127  1.3537
 5836SOL     OW29140   0.220   3.665   6.607 -0.8828 -0.0155 -0.3458
 5836SOL    HW129141   0.280   3.591   6.612 -1.9671 -1.0973 -2.8732
 5836SOL    HW229142   0.181   3.663   6.694  0.5136  0.4947  0.2863
 5837SOL     OW29143   3.056   4.692   6.631  0.3997  0.3715  1.0605
 5837SOL    HW129144   2.983   0.017   6.623  1.3942  1.3055 -0.8229
 5837SOL    HW229145   3.115   0.005   6.688 -1.3315  1.5585  1.8516
 5838SOL     OW29146   1.556   0.332  11.048  0.8951  0.0662 -0.6144
 5838SOL    HW129147   1.509   0.301  10.971 -0.5640  0.7808 -0.0160
 5838SOL    HW229148   1.516   0.418  11.066 -0.6566 -1.0364  1.1691
 5839SOL     OW29149   2.457   3.991  12.502  0.1129  0.0870 -0.0578
 5839SOL    HW129150   2.497   3.910  12.531 -0.6323  0.4020  1.8284
 5839SOL    HW229151   2.481   4.045  12.577  1.9386 -0.6669 -0.1078
 5840SOL     OW29152   1.594   3.554   5.281  0.4157  0.2185 -0.0182
 5840SOL    HW129153   1.597   3.649   5.296  0.8227  0.1763  0.1696
 5840SOL    HW229154   1.554   3.562   5.195 -0.3886  1.4129  0.4607
 5841SOL     OW29155   3.373   2.619   7.774  0.0182 -0.4158  0.4070
 5841SOL    HW129156   3.381   2.529   7.744 -2.7169 -0.6391  0.3220
 5841SOL    HW229157   3.279   2.638   7.767  0.5257  1.5077 -1.2785
 5842SOL     OW29158   1.160   4.511  10.186  0.1468  0.1915  0.0042
 5842SOL    HW129159   1.151   4.420  10.157  1.9977 -0.3897  1.2228
 5842SOL    HW229160   1.079   4.518  10.238 -0.2034  2.5512 -0.8969
 5843SOL     OW29161   0.679   2.821   7.498  0.0065 -0.1613 -0.0461
 5843SOL    HW129162   0.633   2.890   7.451  0.3676  0.8096  1.0263
 5843SOL    HW229163   0.649   2.831   7.588  0.8804 -0.9797  0.3405
 5844SOL     OW29164   1.734   1.883   6.535 -0.1782  0.7729  0.2698
 5844SOL    HW129165   1.792   1.816   6.571 -0.3370 -0.2607 -1.4212
 5844SOL    HW229166   1.664   1.860   6.596  0.0197  1.6471  0.8336
 5845SOL     OW29167   1.765   2.007   0.870 -0.4884  0.5545 -0.0569
 5845SOL    HW129168   1.830   1.945   0.836 -2.0706 -0.9776 -0.3093
 5845SOL    HW229169   1.724   1.957   0.941  0.1086  0.0445 -0.0722
 5846SOL     OW29170   3.184   0.161   0.832  0.3613 -0.5559  0.2537
 5846SOL    HW129171   3.255   0.183   0.772  0.8053  1.2814  1.4669
 5846SOL    HW229172   3.184   0.236   0.891  0.8790 -1.0901  0.9341
 5847SOL     OW29173   3.028   4.095   2.125  0.0350  0.0101 -0.0660
 5847SOL    HW129174   3.004   4.099   2.217 -0.7428  1.0609 -0.3191
 5847SOL    HW229175   2.988   4.173   2.087  0.1634  1.5635  3.0562
 5848SOL     OW29176   3.443   3.544   8.610 -0.0846  0.0784  0.7309
 5848SOL    HW129177   3.419   3.621   8.662  0.2600 -0.6905  2.0048
 5848SOL    HW229178   3.458   3.473   8.672 -0.2318 -1.5680 -1.1307
 5849SOL     OW29179   0.372   2.202   3.735  0.0185 -0.6109 -0.2163
 5849SOL    HW129180   0.414   2.224   3.819 -0.9168  0.1077  0.0527
 5849SOL    HW229181   0.280   2.211   3.759 -0.1063 -0.8806 -0.5952
 5850SOL     OW29182   3.730   1.550   2.282 -0.4493  0.1971 -0.3504
 5850SOL    HW129183   3.686   1.599   2.351 -2.6484  2.7795 -3.6051
 5850SOL    HW229184   3.654   1.509   2.240 -2.5173 -0.4566  4.0971
 5851SOL     OW29185   1.629   4.306   7.446 -0.6490  0.5186  0.1026
 5851SOL    HW129186   1.625   4.241   7.375  0.1438 -0.4946  0.9925
 5851SOL    HW229187   1.535   4.304   7.464 -0.4973 -1.5506  0.6333
 5852SOL     OW29188   2.558   4.330   3.852 -0.0928 -0.3714 -0.3780
 5852SOL    HW129189   2.545   4.248   3.804  0.7629  0.3700 -1.8455
 5852SOL    HW229190   2.653   4.337   3.848  0.1216 -1.9013  1.6686
 5853SOL     OW29191   3.282   0.334  12.778  0.1291  0.3982  0.1629
 5853SOL    HW129192   3.186   0.338  12.786  0.1450  0.9225  0.0758
 5853SOL    HW229193   3.298   0.412  12.724  0.3810 -0.1098 -0.4862
 5854SOL     OW29194   0.592   2.494   5.260 -0.5776  0.2984  0.2719
 5854SOL    HW129195   0.665   2.538   5.305  0.9236  0.0044 -1.8762
 5854SOL    HW229196   0.551   2.456   5.338  1.0922 -1.0302  0.5195
 5855SOL     OW29197   1.669   3.763   5.785 -0.4517 -0.4903  0.1643
 5855SOL    HW129198   1.747   3.794   5.829 -1.9973  2.4701  0.7993
 5855SOL    HW229199   1.631   3.847   5.760 -0.8764 -0.5706  0.5457
 5856SOL     OW29200   1.103   1.682   2.072 -0.0886  0.1067  0.4300
 5856SOL    HW129201   1.174   1.709   2.131 -0.6785  1.7118  0.4027
 5856SOL    HW229202   1.026   1.688   2.129  0.2514 -0.5066  0.9607
 5857SOL     OW29203   2.445   3.330  10.570 -1.0849  0.9525 -0.3645
 5857SOL    HW129204   2.403   3.244  10.568  0.9919 -0.0876 -0.0921
 5857SOL    HW229205   2.388   3.376  10.509 -1.5887  0.3603 -0.3328
 5858SOL     OW29206   3.864   3.079   6.984  0.6675 -0.3710  0.2066
 5858SOL    HW129207   3.792   3.117   7.035  0.1324 -0.9075 -0.1576
 5858SOL    HW229208   3.929   3.079   7.055 -0.5541  2.0112  1.3376
 5859SOL     OW29209   0.499   3.536   6.141  0.1387 -0.3949 -0.3268
 5859SOL    HW129210   0.521   3.628   6.152 -1.4809  0.2777 -2.8494
 5859SOL    HW229211   0.431   3.549   6.075  0.1888 -1.3027 -0.5600
 5860SOL     OW29212   3.754   0.024   0.747 -0.0666 -0.3490  0.7311
 5860SOL    HW129213   3.772   4.683   0.694  0.8489  0.2261  0.2000
 5860SOL    HW229214   3.749   0.090   0.677 -0.6603  1.6827  2.6720
 5861SOL     OW29215   1.284   1.821   3.889 -0.1153 -0.0141  0.2264
 5861SOL    HW129216   1.336   1.898   3.867  0.4480 -1.0769 -2.1895
 5861SOL    HW229217   1.254   1.841   3.978  0.9210 -0.8300  0.7574
 5862SOL     OW29218   1.257   3.151   8.416 -0.0762  0.0364 -0.1463
 5862SOL    HW129219   1.337   3.151   8.467 -0.3621  0.2877  0.2992
 5862SOL    HW229220   1.257   3.061   8.383  1.1021  0.2291 -0.6687
 5863SOL     OW29221   1.640   1.541  10.907 -0.4442 -0.2384 -0.0381
 5863SOL    HW129222   1.613   1.464  10.958 -2.0430  0.0322 -0.4953
 5863SOL    HW229223   1.614   1.612  10.965 -0.0728  1.6515 -2.2191
 5864SOL     OW29224   2.275   1.619   3.037 -0.0341  0.5279  0.0902
 5864SOL    HW129225   2.244   1.705   3.065 -0.4429  0.3337  0.2317
 5864SOL    HW229226   2.252   1.561   3.110 -0.1069  1.7389  1.0147
 5865SOL     OW29227   3.032   2.971   4.561 -0.1626 -0.1121 -0.1395
 5865SOL    HW129228   3.098   3.019   4.512  1.4129 -0.9889  1.1111
 5865SOL    HW229229   3.000   2.922   4.485  1.0646 -0.5348 -0.3846
 5866SOL     OW29230   2.041   1.388   3.709  0.2579  0.1326  0.2187
 5866SOL    HW129231   1.947   1.375   3.724 -0.3580  2.1770 -1.7755
 5866SOL    HW229232   2.059   1.326   3.638  0.6193  1.8305 -1.1652
 5867SOL     OW29233   2.289   2.213   2.302  0.0692  0.3190  0.0613
 5867SOL    HW129234   2.335   2.284   2.257  0.3727  1.8312  2.7603
 5867SOL    HW229235   2.221   2.191   2.239  0.4824 -1.7851  0.3433
 5868SOL     OW29236   0.989   0.322   3.806  0.2380 -0.2262 -0.1952
 5868SOL    HW129237   0.933   0.273   3.746  3.0374 -1.4262 -1.8105
 5868SOL    HW229238   0.983   0.282   3.892  2.2582 -1.5688 -0.6806
 5869SOL     OW29239   4.091   2.685  17.319 -0.4962 -0.4793 -0.2831
 5869SOL    HW129240   4.039   2.648  17.247 -1.6246  0.2944  0.1219
 5869SOL    HW229241   4.177   2.650  17.299 -0.1727 -1.5428  3.0447
 5870SOL     OW29242   2.122   4.719   3.914 -0.9439 -0.7176 -0.4960
 5870SOL    HW129243   2.056   4.716   3.983 -1.9233 -1.5412 -1.4777
 5870SOL    HW229244   2.115   4.637   3.865  0.5522  0.5400 -2.8309
 5871SOL     OW29245   3.173   1.416   6.907 -0.5351 -0.6663  0.2698
 5871SOL    HW129246   3.178   1.383   6.817  1.3679 -1.7904  0.7956
 5871SOL    HW229247   3.176   1.335   6.958 -0.0571 -0.6512  0.2663
 5872SOL     OW29248   1.386   0.381   6.052 -0.4334  0.6391  0.1492
 5872SOL    HW129249   1.361   0.404   6.142 -0.3305 -0.5670  0.4822
 5872SOL    HW229250   1.480   0.375   6.070 -0.5684  0.8059  0.9237
 5873SOL     OW29251   1.775   0.161   6.427 -0.0138 -0.2885 -0.1153
 5873SOL    HW129252   1.773   0.249   6.388 -3.5563 -1.1148 -1.8409
 5873SOL    HW229253   1.681   0.150   6.444  0.4084 -0.9600  1.6681
 5874SOL     OW29254   1.798   4.396   1.002 -0.1502  0.5263  0.6304
 5874SOL    HW129255   1.795   4.301   1.008 -2.7585  0.7174  2.2055
 5874SOL    HW229256   1.745   4.423   1.077 -1.5705 -1.8855  0.4721
 5875SOL     OW29257   4.008   1.187   8.194 -0.1271  0.1938 -0.0757
 5875SOL    HW129258   3.925   1.226   8.166 -1.6603 -1.5827  1.9358
 5875SOL    HW229259   4.020   1.218   8.284 -1.2758 -0.1673  0.2100
 5876SOL     OW29260   4.493   3.938   8.173 -0.4509  0.0393  0.3132
 5876SOL    HW129261   4.403   3.915   8.149 -0.4305  0.0314  0.2432
 5876SOL    HW229262   4.513   3.896   8.256  1.5438 -0.4353 -0.3986
 5877SOL     OW29263   0.173   0.988   6.409  0.3094  0.5590  0.4834
 5877SOL    HW129264   0.169   0.925   6.337  0.2597 -0.6559  1.5497
 5877SOL    HW229265   0.214   0.939   6.480  1.2306  2.1015  1.0262
 5878SOL     OW29266   3.654   2.016   6.893  0.0156 -0.0167 -0.0035
 5878SOL    HW129267   3.713   1.947   6.861 -0.5012 -1.3519  1.8906
 5878SOL    HW229268   3.580   1.968   6.930 -0.1479 -1.6157 -2.3726
 5879SOL     OW29269   0.517   4.058   9.157 -0.4706  0.4813  0.3122
 5879SOL    HW129270   0.587   4.005   9.120 -2.5975 -1.1287 -1.4645
 5879SOL    HW229271   0.444   3.997   9.146 -1.9101  2.3804 -0.6330
 5880SOL     OW29272   4.276   3.347   5.621  0.1214  0.0931  0.4096
 5880SOL    HW129273   4.306   3.409   5.686 -1.1686 -0.2342  1.3123
 5880SOL    HW229274   4.352   3.290   5.607  1.0261  1.4901 -0.3826
 5881SOL     OW29275   4.451   0.456   3.343  0.1940  0.2802  0.2440
 5881SOL    HW129276   4.370   0.497   3.313  0.9551  2.0239  0.5946
 5881SOL    HW229277   4.513   0.516   3.301  2.2864 -0.1593  2.6868
 5882SOL     OW29278   1.603   0.459   9.113  0.3919  0.1445 -0.1087
 5882SOL    HW129279   1.639   0.497   9.193 -1.0556  0.1671  0.5347
 5882SOL    HW229280   1.598   0.526   9.045  1.2496  0.6493  0.3174
 5883SOL     OW29281   2.576   1.946   4.270 -0.4559 -0.0210  0.8792
 5883SOL    HW129282   2.657   1.895   4.262 -3.0562 -4.1854  1.1364
 5883SOL    HW229283   2.531   1.888   4.332 -0.7225 -0.5005  0.2384
 5884SOL     OW29284   4.728   0.227   2.467 -0.0005 -0.4857  0.5394
 5884SOL    HW129285   4.692   0.314   2.452 -3.4208 -2.2343 -1.6750
 5884SOL    HW229286   4.660   0.166   2.440  0.3385 -0.6138 -0.0295
 5885SOL     OW29287   1.608   2.346   2.693 -0.0800  0.0401 -0.4437
 5885SOL    HW129288   1.592   2.390   2.777  0.2505 -0.7591  0.0373
 5885SOL    HW229289   1.520   2.368   2.663  0.2275  0.3695 -1.0948
 5886SOL     OW29290   3.172   3.747   3.468 -0.7606 -0.0773 -0.1029
 5886SOL    HW129291   3.110   3.785   3.530  0.3797  0.6036  0.6374
 5886SOL    HW229292   3.211   3.688   3.533 -0.2852  0.2160 -0.1162
 5887SOL     OW29293   3.359   2.991   4.704  0.6832 -1.2464  0.0764
 5887SOL    HW129294   3.400   2.905   4.715  1.6200 -0.7586  0.4395
 5887SOL    HW229295   3.346   2.990   4.609 -0.6850 -1.2255  0.2780
 5888SOL     OW29296   1.306   4.529   4.321  0.1775  0.4149 -0.5099
 5888SOL    HW129297   1.269   4.616   4.309  1.7741  1.1664  0.0450
 5888SOL    HW229298   1.308   4.491   4.233 -1.3661  0.1869 -0.4468
 5889SOL     OW29299   4.410   1.801   9.524 -0.1896  0.1095  0.0893
 5889SOL    HW129300   4.392   1.728   9.464  0.6656  0.7218 -0.9029
 5889SOL    HW229301   4.493   1.828   9.484  1.7724 -0.3738  3.8146
 5890SOL     OW29302   4.714   4.167  12.357 -0.6291 -0.4836  0.1296
 5890SOL    HW129303   0.022   4.235  12.408  0.6740 -0.3803 -1.1252
 5890SOL    HW229304   0.014   4.092  12.404 -1.0961 -0.8407 -0.0841
 5891SOL     OW29305   2.145   1.566   5.464  0.8918  0.0683  0.0801
 5891SOL    HW129306   2.120   1.646   5.511 -2.5614 -0.8822 -0.1591
 5891SOL    HW229307   2.158   1.512   5.542  3.1637 -0.3257 -0.5692
 5892SOL     OW29308   2.075   3.397   0.387  0.2983 -0.0762  0.2458
 5892SOL    HW129309   2.156   3.347   0.380 -0.7337 -1.5708 -0.9127
 5892SOL    HW229310   2.040   3.346   0.459  0.9391 -1.2276 -0.2632
 5893SOL     OW29311   4.081   3.338   4.896  0.1522 -0.3225  0.2982
 5893SOL    HW129312   4.150   3.274   4.881 -0.8796 -1.2910 -0.4189
 5893SOL    HW229313   4.138   3.408   4.926 -1.5236  0.7326  1.0067
 5894SOL     OW29314   1.717   2.734   2.474 -0.4475  0.3502  1.1282
 5894SOL    HW129315   1.638   2.778   2.506 -0.9485 -0.6427  1.2616
 5894SOL    HW229316   1.684   2.644   2.470  1.5180 -0.3287 -0.0136
 5895SOL     OW29317   0.240   2.299  15.663 -0.1484 -0.3222 -0.3268
 5895SOL    HW129318   0.215   2.218  15.707 -1.1598  0.0245 -0.2687
 5895SOL    HW229319   0.216   2.271  15.574 -0.4265  2.2829 -1.0702
 5896SOL     OW29320   3.699   4.572   5.046 -0.3394 -0.5947  0.4276
 5896SOL    HW129321   3.622   4.525   5.077 -0.9176 -0.3547 -0.6115
 5896SOL    HW229322   3.666   4.657   5.014  1.8787  0.5058  1.0723
 5897SOL     OW29323   0.028   3.736   4.365  0.0010 -0.0859  0.1356
 5897SOL    HW129324   0.025   3.681   4.444  0.5954  0.5959  0.6267
 5897SOL    HW229325   0.094   3.690   4.313  1.3076  1.6952  0.2427
 5898SOL     OW29326   0.589   0.090   6.040 -0.1459  0.5482  0.4979
 5898SOL    HW129327   0.672   0.088   6.088 -0.5606 -0.5280  1.1788
 5898SOL    HW229328   0.526   0.128   6.101 -1.7983  1.6967 -1.9331
 5899SOL     OW29329   4.060   0.823   5.487  0.3171  0.4874 -0.2595
 5899SOL    HW129330   4.091   0.871   5.564  2.4002  0.7003 -1.2351
 5899SOL    HW229331   4.093   0.738   5.514  0.1066  0.3581 -0.4069
 5900SOL     OW29332   2.870   2.479   4.135 -0.1011 -0.5318 -0.3742
 5900SOL    HW129333   2.931   2.451   4.067  0.9685 -1.2490  0.8666
 5900SOL    HW229334   2.918   2.453   4.214  0.5560  3.6799  0.5848
 5901SOL     OW29335   1.007   1.839   8.424  0.3827  0.6429  0.0396
 5901SOL    HW129336   0.939   1.868   8.364  0.6733  0.3531 -0.4258
 5901SOL    HW229337   1.080   1.898   8.404 -0.1908  0.5362 -2.3096
 5902SOL     OW29338   2.313   0.940  12.361  0.6374  0.3279  0.3195
 5902SOL    HW129339   2.237   0.998  12.362 -0.8669 -1.7050  1.9378
 5902SOL    HW229340   2.378   1.010  12.362  0.2172  0.7246 -0.0601
 5903SOL     OW29341   1.881   2.565   8.922  0.2502  0.8044 -0.1029
 5903SOL    HW129342   1.967   2.531   8.897  0.0263 -0.6765  1.1377
 5903SOL    HW229343   1.851   2.579   8.832 -0.3028 -0.3388 -0.1004
 5904SOL     OW29344   4.016   1.656   4.790  0.3977  0.4403 -0.0474
 5904SOL    HW129345   3.967   1.735   4.813  2.3871  1.3910  0.9835
 5904SOL    HW229346   3.970   1.584   4.833 -0.0696  0.2688 -0.8396
 5905SOL     OW29347   0.934   4.079  13.403 -0.3928  0.4273  0.1967
 5905SOL    HW129348   0.994   4.036  13.343  0.7904  0.4983  1.3402
 5905SOL    HW229349   0.868   4.135  13.361  1.2360  0.9487 -1.6736
 5906SOL     OW29350   4.419   1.288   1.061  0.6666 -0.1120  0.7890
 5906SOL    HW129351   4.457   1.259   0.978 -1.6419 -1.0257  0.0708
 5906SOL    HW229352   4.468   1.366   1.085  0.6348  0.2433 -0.3171
 5907SOL     OW29353   1.409   2.211   6.481  0.1041 -0.1898 -0.5504
 5907SOL    HW129354   1.456   2.148   6.426  1.1925 -0.0035  0.1708
 5907SOL    HW229355   1.340   2.241   6.421  1.1192 -0.0989 -1.6643
 5908SOL     OW29356   1.531   0.259   0.014  0.5697  0.3602  0.2045
 5908SOL    HW129357   1.561   0.238  17.669  0.5502  1.8217 -0.1426
 5908SOL    HW229358   1.588   0.332   0.038 -0.9260  2.0269 -1.3363
 5909SOL     OW29359   2.170   3.238   6.293 -0.2392 -0.0606 -0.0600
 5909SOL    HW129360   2.231   3.298   6.250  1.3702  1.5334  4.4488
 5909SOL    HW229361   2.186   3.156   6.248  0.4310 -0.0850  0.2264
 5910SOL     OW29362   1.427   0.351   8.159  0.0304  0.4114 -0.6209
 5910SOL    HW129363   1.389   0.398   8.085 -0.8234  1.5187  0.5249
 5910SOL    HW229364   1.520   0.359   8.135  0.6271  0.1365  1.6062
 5911SOL     OW29365   1.356   3.064  14.575  0.0041  0.3259  0.1749
 5911SOL    HW129366   1.419   3.100  14.637  1.6494 -1.8942 -0.2238
 5911SOL    HW229367   1.285   3.128  14.568 -0.0464  0.2866  0.3364
 5912SOL     OW29368   0.546   1.615   3.494  0.3533  0.7309  0.0600
 5912SOL    HW129369   0.509   1.653   3.414  0.4066  1.3737  0.3422
 5912SOL    HW229370   0.526   1.524   3.472 -0.8301  1.0534 -0.2102
 5913SOL     OW29371   1.200   1.918   7.233  0.4802  0.4441 -0.4662
 5913SOL    HW129372   1.288   1.944   7.204  0.8032  1.7708  1.7374
 5913SOL    HW229373   1.227   1.876   7.315  0.8472 -0.0373 -0.8257
 5914SOL     OW29374   3.486   4.594  14.287  0.1261  0.4759  0.2047
 5914SOL    HW129375   3.514   4.569  14.374  1.5001 -1.4320 -0.7874
 5914SOL    HW229376   3.570   4.589  14.241  0.0387  1.9315 -0.1154
 5915SOL     OW29377   1.182   3.251   7.108 -0.2197 -0.3860 -0.1372
 5915SOL    HW129378   1.117   3.183   7.128  0.0159 -0.3670  0.6872
 5915SOL    HW229379   1.170   3.320   7.173 -0.9438  0.1846 -0.8856
 5916SOL     OW29380   1.277   2.408   8.791  0.5533 -0.1367 -0.5913
 5916SOL    HW129381   1.183   2.419   8.805  0.8238 -0.2970  1.2185
 5916SOL    HW229382   1.273   2.399   8.695 -0.3017 -0.1230 -0.5508
 5917SOL     OW29383   1.519   2.006   1.462  0.0475  0.3872  0.3430
 5917SOL    HW129384   1.443   1.992   1.518 -1.1492  0.7948 -1.1596
 5917SOL    HW229385   1.519   2.102   1.464 -1.1908  0.3737  0.7083
 5918SOL     OW29386   0.583   2.910   1.587 -0.5918  0.2423 -0.2920
 5918SOL    HW129387   0.638   2.957   1.524 -0.0753 -0.3957 -0.3165
 5918SOL    HW229388   0.557   2.988   1.636  0.8584  0.6821 -0.2188
 5919SOL     OW29389   0.015   0.984   5.381  0.2903  0.2289 -0.7441
 5919SOL    HW129390   0.109   0.980   5.396 -0.0366  1.2378  1.5829
 5919SOL    HW229391   4.727   0.891   5.376 -0.0202  0.4502 -3.3113
 5920SOL     OW29392   2.767   4.377   8.642 -0.2039  0.1018  0.4670
 5920SOL    HW129393   2.699   4.313   8.664 -0.0989  0.1949  1.0580
 5920SOL    HW229394   2.795   4.397   8.732 -0.1706  2.6883 -0.1179
 5921SOL     OW29395   1.313   0.671  17.729 -0.3500  0.6604  0.1989
 5921SOL    HW129396   1.335   0.715  17.647 -0.2754 -0.6181 -0.4592
 5921SOL    HW229397   1.404   0.671   0.014 -0.6770 -2.8149  1.2333
 5922SOL     OW29398   2.569   2.002   7.604 -0.0852 -0.2685  1.2766
 5922SOL    HW129399   2.578   1.987   7.698  0.7827 -0.5273  1.1534
 5922SOL    HW229400   2.606   2.090   7.598 -1.2606  0.0928 -0.6618
 5923SOL     OW29401   2.281   1.848   8.752 -0.1393  0.3777  0.0744
 5923SOL    HW129402   2.301   1.794   8.676 -1.9493  0.5114 -0.4878
 5923SOL    HW229403   2.218   1.793   8.798  2.4394 -2.6208  0.0530
 5924SOL     OW29404   0.970   2.339  11.759  0.0108 -0.1575  0.3857
 5924SOL    HW129405   1.041   2.400  11.741 -0.0405  0.1229  1.1233
 5924SOL    HW229406   0.998   2.305  11.844  1.9627 -1.4439 -0.7822
 5925SOL     OW29407   0.920   3.658   4.904 -0.0189  0.1543 -0.4790
 5925SOL    HW129408   0.848   3.690   4.850  0.5495  0.7563 -0.8808
 5925SOL    HW229409   0.967   3.611   4.835 -1.0254 -0.1447 -0.9486
 5926SOL     OW29410   1.222   3.938  12.506  0.0921  0.2459  0.3551
 5926SOL    HW129411   1.312   3.927  12.474  0.0040  0.5461  0.0154
 5926SOL    HW229412   1.227   4.027  12.541  0.8005  0.0876  0.6646
 5927SOL     OW29413   3.136   4.347   2.676  0.1664 -0.4098  0.0868
 5927SOL    HW129414   3.113   4.394   2.596  0.2942  1.2431  1.0239
 5927SOL    HW229415   3.180   4.268   2.644 -1.0681 -2.1157  2.5845
 5928SOL     OW29416   4.378   4.222   2.298 -0.1463  0.1237  0.5684
 5928SOL    HW129417   4.395   4.249   2.388 -1.2161  0.6689  0.6076
 5928SOL    HW229418   4.377   4.302   2.246 -2.2137  0.9416  1.8573
 5929SOL     OW29419   2.825   4.283   7.485 -0.4317 -0.2222  0.5863
 5929SOL    HW129420   2.781   4.240   7.412  1.5621  0.5823 -1.0598
 5929SOL    HW229421   2.851   4.206   7.535 -2.0815 -0.9675  0.2877
 5930SOL     OW29422   4.640   1.047   5.886 -0.2149  0.6658 -0.6163
 5930SOL    HW129423   4.619   1.120   5.827  0.2705  1.3726  0.0720
 5930SOL    HW229424   4.559   0.997   5.882 -0.4696  1.1494 -1.5434
 5931SOL     OW29425   2.474   4.336  10.372  0.2081 -0.4112  0.1107
 5931SOL    HW129426   2.550   4.368  10.325 -0.2430 -0.8909 -0.9422
 5931SOL    HW229427   2.404   4.389  10.332  0.1854 -1.1741 -0.8522
 5932SOL     OW29428   0.115   1.066   4.473  0.1329 -0.2516  0.1977
 5932SOL    HW129429   0.153   1.154   4.473 -0.7479  0.1259 -2.2545
 5932SOL    HW229430   0.143   1.034   4.387 -0.6037  0.3818 -0.2785
 5933SOL     OW29431   3.509   1.504  15.138  0.2287 -0.0373  0.9754
 5933SOL    HW129432   3.452   1.442  15.184  2.0648 -2.0382  0.5329
 5933SOL    HW229433   3.549   1.444  15.075 -1.4917 -1.7837  1.5557
 5934SOL     OW29434   1.159   4.135   9.324  0.5979  0.5254 -0.1387
 5934SOL    HW129435   1.191   4.068   9.264  0.4456  0.0424  0.3235
 5934SOL    HW229436   1.241   4.165   9.364  1.2815 -0.2211 -0.9965
 5935SOL     OW29437   0.893   2.666   4.126 -0.2065 -0.3079 -0.3463
 5935SOL    HW129438   0.847   2.695   4.204  1.4838  0.6253  0.3067
 5935SOL    HW229439   0.821   2.628   4.075  0.2126  1.4137 -2.2351
 5936SOL     OW29440   1.673   1.659   2.263  0.5680 -0.0602  0.4826
 5936SOL    HW129441   1.639   1.604   2.193 -0.4541 -0.0818  0.9991
 5936SOL    HW229442   1.594   1.691   2.308  0.7917  0.5712  0.4286
 5937SOL     OW29443   2.308   1.061   3.295 -0.0813 -0.6313 -0.1432
 5937SOL    HW129444   2.337   0.971   3.308  0.9485  0.1256  2.8126
 5937SOL    HW229445   2.353   1.086   3.215 -2.0745  0.7704 -0.8494
 5938SOL     OW29446   0.282   1.952   2.553 -0.1057  0.0396  0.7154
 5938SOL    HW129447   0.329   1.920   2.476  0.0676  0.8921  0.4631
 5938SOL    HW229448   0.298   1.869   2.598  0.8930 -0.1735 -0.0357
 5939SOL     OW29449   2.050   0.604   0.537  0.2956  0.3837  0.1210
 5939SOL    HW129450   2.025   0.547   0.610  4.3517 -1.0694  0.3320
 5939SOL    HW229451   2.027   0.548   0.463 -1.0727  0.3693  0.5455
 5940SOL     OW29452   2.146   1.692  11.594 -0.0205 -0.2655 -0.2238
 5940SOL    HW129453   2.228   1.673  11.548 -0.5963 -1.5409 -0.7274
 5940SOL    HW229454   2.165   1.769  11.648 -1.0225  0.9586 -1.6309
 5941SOL     OW29455   3.971   0.358   5.832 -0.2152  0.0427  0.2145
 5941SOL    HW129456   4.064   0.367   5.854  0.0088  0.2871 -0.8261
 5941SOL    HW229457   3.939   0.296   5.897 -0.4200 -1.2973 -1.1845
 5942SOL     OW29458   0.392   3.609   0.950  0.4214  0.2881 -0.4952
 5942SOL    HW129459   0.367   3.686   0.900  1.5255  0.1385 -1.2625
 5942SOL    HW229460   0.485   3.596   0.929  0.4260  0.0327 -0.3210
 5943SOL     OW29461   1.857   1.858   8.678  0.4119 -0.2247 -0.5433
 5943SOL    HW129462   1.771   1.832   8.648  0.4601 -0.8718 -0.1261
 5943SOL    HW229463   1.834   1.919   8.749 -0.4127 -0.4191 -0.6492
 5944SOL     OW29464   2.232   3.730   7.232 -0.3463 -0.0861  0.3295
 5944SOL    HW129465   2.229   3.684   7.148 -1.8443 -1.2786  1.0224
 5944SOL    HW229466   2.311   3.689   7.266 -0.4801  1.1590  2.1198
 5945SOL     OW29467   0.146   1.091  11.836 -0.0687 -0.2245 -0.3651
 5945SOL    HW129468   0.121   1.004  11.867  1.9166 -0.0234  1.8743
 5945SOL    HW229469   0.116   1.087  11.745  0.1246  0.9314 -0.4840
 5946SOL     OW29470   1.359   3.767   0.259 -0.1429  0.8731  0.5332
 5946SOL    HW129471   1.305   3.811   0.193 -0.1368 -0.7226 -0.5339
 5946SOL    HW229472   1.337   3.675   0.243  0.6285  0.4353  1.9890
 5947SOL     OW29473   2.863   4.696   8.407 -0.1420  0.0386  0.0402
 5947SOL    HW129474   2.943   4.728   8.366 -1.2494  3.1121  0.2937
 5947SOL    HW229475   2.795   0.013   8.365  2.1723  3.5348  0.7777
 5948SOL     OW29476   1.724   4.733  12.733 -0.7501 -0.0157 -0.3917
 5948SOL    HW129477   1.791   4.680  12.690 -1.4923 -1.8098  0.6492
 5948SOL    HW229478   1.643   4.713  12.686 -0.0812  0.9794 -1.9311
 5949SOL     OW29479   4.085   1.197  14.679 -0.1325 -0.1454  0.3474
 5949SOL    HW129480   4.061   1.277  14.727  0.4535  0.6638 -0.6895
 5949SOL    HW229481   4.175   1.194  14.713  0.1911 -0.0874 -0.5081
 5950SOL     OW29482   1.875   2.759   9.103  0.1159 -0.5080  0.0017
 5950SOL    HW129483   1.953   2.803   9.068 -0.2909  0.3526  0.1941
 5950SOL    HW229484   1.872   2.682   9.046 -1.4563 -0.4327 -0.0148
 5951SOL     OW29485   4.099   0.900   5.773 -0.0492 -0.6779  0.4294
 5951SOL    HW129486   4.030   0.966   5.766  0.0813 -0.6059 -0.1824
 5951SOL    HW229487   4.095   0.850   5.854 -0.2456 -1.4926 -0.0828
 5952SOL     OW29488   1.201   4.515  13.598  0.6571  0.2393 -0.5369
 5952SOL    HW129489   1.147   4.436  13.597  2.0146 -0.7109  0.9853
 5952SOL    HW229490   1.207   4.534  13.505 -0.2592  0.1286 -0.6172
 5953SOL     OW29491   3.450   2.781   4.015 -0.2060  0.4063  0.0197
 5953SOL    HW129492   3.422   2.693   3.990 -0.8225  0.9716 -1.2734
 5953SOL    HW229493   3.388   2.812   4.081 -1.2864  3.1660 -2.2919
 5954SOL     OW29494   0.943   3.665   8.426 -0.9198 -0.6104  0.0121
 5954SOL    HW129495   0.860   3.670   8.378 -0.9060 -0.3096  0.0202
 5954SOL    HW229496   0.999   3.653   8.350 -1.1690  1.0150 -0.4450
 5955SOL     OW29497   0.239   1.699   5.389 -0.3933  0.2288  0.0092
 5955SOL    HW129498   0.322   1.728   5.351  0.6313 -1.0076  1.2761
 5955SOL    HW229499   0.185   1.675   5.314  0.8411  0.1755 -0.8560
 5956SOL     OW29500   4.538   1.387   6.448  0.0651  0.0786 -0.2696
 5956SOL    HW129501   4.595   1.310   6.448  0.3624  0.3011 -0.5781
 5956SOL    HW229502   4.574   1.440   6.520  0.5406 -1.5325  0.6711
 5957SOL     OW29503   0.864   2.005   2.029 -0.1925  0.3898  0.0954
 5957SOL    HW129504   0.907   1.991   1.945  0.4519 -1.3252  0.7379
 5957SOL    HW229505   0.907   2.077   2.076  0.0660  0.9501 -0.9806
 5958SOL     OW29506   0.265   3.837   2.663 -0.6573  0.1292 -0.3446
 5958SOL    HW129507   0.207   3.854   2.738 -0.0528 -0.4412  0.2550
 5958SOL    HW229508   0.339   3.895   2.680  1.1017 -2.6459  1.4353
 5959SOL     OW29509   3.268   2.452   8.669 -0.1967  0.2715 -0.1433
 5959SOL    HW129510   3.350   2.403   8.661 -1.1166 -1.1918 -0.6339
 5959SOL    HW229511   3.298   2.519   8.731  1.0829  0.5405 -1.0559
 5960SOL     OW29512   3.519   2.654   6.170  0.1980 -0.1760 -0.5135
 5960SOL    HW129513   3.564   2.706   6.236 -0.2342 -1.8830  1.1238
 5960SOL    HW229514   3.587   2.642   6.104  0.7142  1.8653 -0.3354
 5961SOL     OW29515   0.077   2.965   3.450 -0.3089  0.6485  0.0607
 5961SOL    HW129516   0.156   3.001   3.490  1.2702 -2.6172 -0.1855
 5961SOL    HW229517   0.079   2.875   3.481 -1.9343  0.6019  0.0228
 5962SOL     OW29518   0.487   3.650   3.331 -0.7063 -0.0053 -0.3255
 5962SOL    HW129519   0.447   3.734   3.350  0.9136  0.7930 -0.4653
 5962SOL    HW229520   0.480   3.605   3.415 -0.5530 -0.6399 -0.6478
 5963SOL     OW29521   3.345   0.376  10.991 -0.0389  0.5218  0.0405
 5963SOL    HW129522   3.425   0.429  10.987  1.1499 -1.2355  0.4748
 5963SOL    HW229523   3.333   0.358  10.898  3.5325  0.3347 -0.3969
 5964SOL     OW29524   4.362   2.785   4.823  0.1665 -0.4449 -0.4096
 5964SOL    HW129525   4.279   2.752   4.856  0.0076 -1.2533 -1.6278
 5964SOL    HW229526   4.350   2.792   4.728  0.3589  0.0165 -0.3981
 5965SOL     OW29527   2.261   1.885   4.469  0.0327  0.5442 -0.1023
 5965SOL    HW129528   2.348   1.860   4.499 -0.6840  1.3131  2.6688
 5965SOL    HW229529   2.232   1.808   4.420  0.8837 -0.5733  1.1692
 5966SOL     OW29530   0.241   1.017  11.486 -0.3196  0.0997 -0.2085
 5966SOL    HW129531   0.303   0.968  11.541  0.8122 -0.4024 -1.9531
 5966SOL    HW229532   0.254   1.105  11.523 -0.2005 -0.1971  0.4610
 5967SOL     OW29533   2.953   3.708   7.269  0.3099  0.0885 -0.1075
 5967SOL    HW129534   2.948   3.722   7.363 -1.9523 -0.6846 -0.1118
 5967SOL    HW229535   2.930   3.616   7.252 -2.6728  1.0117 -1.0741
 5968SOL     OW29536   2.906   0.243   3.163  0.4323  0.1717 -0.3503
 5968SOL    HW129537   2.819   0.230   3.125  0.2436 -2.1011  0.8117
 5968SOL    HW229538   2.949   0.293   3.094 -0.9867  1.9248  0.0407
 5969SOL     OW29539   2.625   2.765   2.989  0.3297  0.0157 -0.0040
 5969SOL    HW129540   2.670   2.681   3.002 -0.5269 -0.6229 -1.1905
 5969SOL    HW229541   2.594   2.765   2.898  1.0511  2.6658 -0.2623
 5970SOL     OW29542   2.384   0.356  11.601 -0.3880  0.3908  0.3934
 5970SOL    HW129543   2.374   0.427  11.664  2.1680  2.0483 -1.0433
 5970SOL    HW229544   2.293   0.357  11.573 -0.1733 -0.8033 -0.3812
 5971SOL     OW29545   4.639   3.468   7.991 -0.1811 -0.1750  0.1145
 5971SOL    HW129546   4.587   3.415   8.051 -2.1605  0.7529 -0.7669
 5971SOL    HW229547   4.652   3.409   7.917  0.1914 -1.5149  1.2578
 5972SOL     OW29548   0.348   1.779  16.828  0.1238  0.2250 -0.0118
 5972SOL    HW129549   0.317   1.866  16.851  1.4271  0.4485  0.8594
 5972SOL    HW229550   0.265   1.752  16.789  0.6480  2.5030 -2.7453
 5973SOL     OW29551   4.590   2.667   5.079 -0.5620 -0.1701  0.5767
 5973SOL    HW129552   4.495   2.667   5.091 -0.8147 -1.1910 -1.5076
 5973SOL    HW229553   4.597   2.645   4.986  1.7368 -0.1183  0.7376
 5974SOL     OW29554   2.069   0.364   9.270  0.0281 -0.0553  0.6258
 5974SOL    HW129555   2.075   0.399   9.182  0.6692 -1.2764  0.1728
 5974SOL    HW229556   2.153   0.399   9.300 -1.2545  1.5131  2.3616
 5975SOL     OW29557   3.204   0.561   8.752  0.5098 -0.2437 -0.3445
 5975SOL    HW129558   3.258   0.573   8.831  1.9491 -1.3030 -1.1815
 5975SOL    HW229559   3.248   0.619   8.691  1.4125  0.6925  1.1881
 5976SOL     OW29560   0.917   1.020   5.760 -0.1145 -0.0567  0.4688
 5976SOL    HW129561   0.872   0.962   5.821  0.0311 -0.4826  0.1722
 5976SOL    HW229562   0.842   1.043   5.705 -0.4798 -0.8599  0.6313
 5977SOL     OW29563   1.491   1.160   6.291 -0.8703  0.2832 -0.4119
 5977SOL    HW129564   1.423   1.113   6.340 -0.2620  1.1266  1.2199
 5977SOL    HW229565   1.438   1.197   6.220 -1.3106 -1.4379 -0.9757
 5978SOL     OW29566   2.753   1.618   2.142 -0.2463 -0.0219 -0.3756
 5978SOL    HW129567   2.711   1.656   2.220 -1.8781 -0.3287 -1.1071
 5978SOL    HW229568   2.822   1.571   2.188 -0.6799 -0.1767  0.1165
 5979SOL     OW29569   1.456   2.824   8.153  0.3493  0.1175 -0.9167
 5979SOL    HW129570   1.459   2.781   8.239  0.2380  1.7011 -0.1171
 5979SOL    HW229571   1.365   2.850   8.147  0.5520  1.2441  0.9549
 5980SOL     OW29572   3.275   3.642   5.903  0.0746  0.5289 -0.3483
 5980SOL    HW129573   3.334   3.579   5.945 -0.6348 -0.9784 -1.5904
 5980SOL    HW229574   3.340   3.707   5.876  0.9129 -0.7023 -1.3027
 5981SOL     OW29575   4.037   0.905   8.994 -0.1080 -0.4396 -0.2809
 5981SOL    HW129576   4.035   0.991   8.952 -0.4491 -0.3594 -0.0999
 5981SOL    HW229577   3.968   0.919   9.059  0.3988  2.2855 -0.3161
 5982SOL     OW29578   2.039   2.685   8.339  0.0742  0.1303  0.0637
 5982SOL    HW129579   2.079   2.606   8.375 -0.7929 -1.7295 -2.9958
 5982SOL    HW229580   2.080   2.688   8.252 -1.1115 -1.3434 -0.5557
 5983SOL     OW29581   1.182   1.730   5.453 -0.4369 -0.0814  0.2031
 5983SOL    HW129582   1.142   1.716   5.367 -0.5805 -4.4232  0.9704
 5983SOL    HW229583   1.193   1.825   5.449 -0.7667 -0.1622 -2.7696
 5984SOL     OW29584   2.974   0.254   7.490 -0.2368 -0.2005  0.4001
 5984SOL    HW129585   3.037   0.211   7.548 -0.8725 -0.2228  1.0748
 5984SOL    HW229586   2.909   0.295   7.546  0.9759  0.3054  1.4328
 5985SOL     OW29587   0.354   0.462   4.751 -0.2545 -0.0694  0.6608
 5985SOL    HW129588   0.375   0.551   4.780  2.9711 -0.7046  0.2536
 5985SOL    HW229589   0.413   0.468   4.676 -2.7962  1.4753 -1.2536
 5986SOL     OW29590   4.719   3.256  12.198  0.5856 -0.4949  0.3483
 5986SOL    HW129591   0.036   3.319  12.245  1.1799 -0.5767 -0.2172
 5986SOL    HW229592   4.637   3.306  12.194 -0.6893 -2.6397 -0.4291
 5987SOL     OW29593   0.876   1.856   4.443  0.3688 -0.0958 -0.1736
 5987SOL    HW129594   0.863   1.949   4.425 -0.4539 -0.6254 -2.2794
 5987SOL    HW229595   0.852   1.828   4.355 -1.6690  2.3500 -0.3904
 5988SOL     OW29596   1.956   2.738   3.789 -0.3538  0.3868 -0.0627
 5988SOL    HW129597   1.967   2.719   3.882 -1.1687  1.0648  0.1629
 5988SOL    HW229598   1.963   2.833   3.789  0.2997  0.3323  2.5886
 5989SOL     OW29599   0.386   0.916  11.727  0.0715 -0.7032  0.3636
 5989SOL    HW129600   0.418   1.006  11.728  1.2931 -1.1432  0.9617
 5989SOL    HW229601   0.331   0.899  11.804 -1.7152  1.7851 -0.3922
 5990SOL     OW29602   0.799   3.455   6.377  0.1771  0.6827 -0.3200
 5990SOL    HW129603   0.774   3.415   6.460 -1.5276  1.4326 -0.4695
 5990SOL    HW229604   0.774   3.396   6.306  0.8171 -1.1806  1.0283
 5991SOL     OW29605   1.395   2.173   2.381 -0.3807  0.1341  0.4527
 5991SOL    HW129606   1.318   2.231   2.375 -2.8987 -3.4052 -1.3254
 5991SOL    HW229607   1.464   2.231   2.347  0.6198 -1.9460 -1.0223
 5992SOL     OW29608   2.828   3.951   3.546 -0.4837  0.4287  0.1173
 5992SOL    HW129609   2.892   4.007   3.502  0.0334 -0.6583 -0.5023
 5992SOL    HW229610   2.771   3.934   3.471  0.3839  0.2986 -0.5054
 5993SOL     OW29611   1.910   1.145   5.750 -0.2469 -0.7103  0.2342
 5993SOL    HW129612   1.902   1.188   5.665  0.2346 -1.6189 -0.2684
 5993SOL    HW229613   1.981   1.085   5.727 -0.3290  0.0873 -2.1230
 5994SOL     OW29614   2.866   3.693   5.997  0.1958  0.1312  0.1671
 5994SOL    HW129615   2.924   3.637   5.947 -0.3533 -0.5214  0.2626
 5994SOL    HW229616   2.803   3.630   6.033 -2.4943  1.7005 -1.7799
 5995SOL     OW29617   2.313   2.825   3.646 -0.4733  0.1849 -0.2705
 5995SOL    HW129618   2.402   2.847   3.618 -0.7528  1.0804 -0.4753
 5995SOL    HW229619   2.302   2.899   3.706  0.7902 -1.0957  1.5523
 5996SOL     OW29620   1.271   1.977  12.665 -0.5145  0.0508  0.1404
 5996SOL    HW129621   1.227   1.994  12.582  1.4569  2.1413 -0.4925
 5996SOL    HW229622   1.343   1.916  12.646 -1.3893 -0.2311 -2.1925
 5997SOL     OW29623   0.169   4.102   3.892  0.2677 -0.1909 -0.5162
 5997SOL    HW129624   0.128   4.121   3.976  1.6248 -0.4046  0.1913
 5997SOL    HW229625   0.124   4.166   3.837  0.0193 -0.6560 -0.8636
 5998SOL     OW29626   4.294   2.372  14.157 -0.0424 -0.4586  0.3134
 5998SOL    HW129627   4.265   2.384  14.248 -0.4939  0.9906 -0.0141
 5998SOL    HW229628   4.232   2.437  14.123  0.2191 -0.1968  0.3321
 5999SOL     OW29629   3.389   1.784  15.258  0.2827  0.3525  0.0280
 5999SOL    HW129630   3.366   1.875  15.235  0.4702 -0.0034 -1.5727
 5999SOL    HW229631   3.299   1.758  15.237  0.4621  0.1976 -0.5400
 6000SOL     OW29632   3.782   2.830  16.175 -0.4141  0.2883  0.1547
 6000SOL    HW129633   3.724   2.875  16.237 -2.4418 -0.6905 -1.0294
 6000SOL    HW229634   3.731   2.818  16.095 -0.6400  1.4999  0.1238
 6001SOL     OW29635   4.446   3.841   0.239  0.0696 -0.6907  0.5725
 6001SOL    HW129636   4.498   3.896   0.180 -0.3528 -1.2889 -0.3605
 6001SOL    HW229637   4.496   3.839   0.320  2.2307 -0.8404 -0.7610
 6002SOL     OW29638   4.587   3.739   3.333  0.0614  0.0363  0.5022
 6002SOL    HW129639   4.589   3.766   3.425 -1.6877 -0.0390  0.5511
 6002SOL    HW229640   4.627   3.817   3.294 -1.6399  0.4111 -0.4822
 6003SOL     OW29641   0.562   0.757   5.676 -0.2611  0.1913 -0.2068
 6003SOL    HW129642   0.539   0.799   5.759 -1.6050  2.5361 -1.7968
 6003SOL    HW229643   0.614   0.683   5.706 -0.2356  0.0827 -0.5181
 6004SOL     OW29644   3.200   3.059   2.518 -0.8433 -0.2194 -0.9246
 6004SOL    HW129645   3.245   2.978   2.542  1.1466  0.5608 -1.9908
 6004SOL    HW229646   3.253   3.075   2.440 -3.0983  0.6320 -2.2958
 6005SOL     OW29647   3.971   1.418  12.309  0.1042  0.2240 -0.2374
 6005SOL    HW129648   4.055   1.419  12.264  0.9459 -0.1508  1.3168
 6005SOL    HW229649   3.996   1.364  12.384 -1.9011 -0.2567  0.0851
 6006SOL     OW29650   4.381   4.065   2.606 -0.2313 -0.1689  0.0469
 6006SOL    HW129651   4.402   4.157   2.619 -2.4153  0.2926  0.2373
 6006SOL    HW229652   4.290   4.054   2.633 -1.5129  2.1718 -3.3704
 6007SOL     OW29653   0.139   3.979   5.595 -0.0190 -0.5112  0.0653
 6007SOL    HW129654   0.183   4.064   5.606  0.1003 -0.3094 -2.0018
 6007SOL    HW229655   0.101   3.963   5.681 -0.2245  1.0706  0.2689
 6008SOL     OW29656   0.025   3.477   9.756  0.2320 -0.6442 -0.1019
 6008SOL    HW129657   4.732   3.455   9.844 -0.1953 -0.6137 -0.2384
 6008SOL    HW229658   4.702   3.548   9.734  0.1587 -0.2305  1.4351
 6009SOL     OW29659   0.657   0.324  16.618 -0.0749 -0.4078  0.0803
 6009SOL    HW129660   0.745   0.301  16.645 -0.9561 -1.4847  2.0002
 6009SOL    HW229661   0.631   0.359  16.703  0.1550 -0.7395  0.2837
 6010SOL     OW29662   3.340   2.804  14.993 -0.0896  0.6121  0.1100
 6010SOL    HW129663   3.334   2.725  14.939 -1.3747  0.8839 -0.1450
 6010SOL    HW229664   3.389   2.862  14.935  0.2289 -1.3414 -1.6046
 6011SOL     OW29665   2.779   1.575   7.574  0.2235 -0.4151  0.3728
 6011SOL    HW129666   2.789   1.480   7.575 -0.0318 -0.4367  0.6257
 6011SOL    HW229667   2.826   1.605   7.495 -0.2526 -0.3284  0.1255
 6012SOL     OW29668   4.192   1.975   2.559 -0.0353 -0.2509 -0.3307
 6012SOL    HW129669   4.103   1.948   2.541 -0.6850  1.4301  0.3542
 6012SOL    HW229670   4.246   1.965   2.480 -0.6229 -1.5920 -0.5686
 6013SOL     OW29671   4.073   2.593   4.635  0.4265  0.5077  0.0152
 6013SOL    HW129672   4.088   2.633   4.721  0.5330 -1.8154  1.0785
 6013SOL    HW229673   4.095   2.664   4.575  1.6944 -2.2429 -2.7500
 6014SOL     OW29674   0.681   0.015  11.730  0.0364 -0.1726 -0.1778
 6014SOL    HW129675   0.693   0.051  11.642 -1.4251  0.0932 -0.2691
 6014SOL    HW229676   0.589   0.028  11.752  0.5788 -1.0469  2.6526
 6015SOL     OW29677   2.927   2.651   9.541  0.1165  0.0128 -0.0243
 6015SOL    HW129678   3.018   2.680   9.532  0.6157 -0.3573  3.9312
 6015SOL    HW229679   2.912   2.589   9.469 -1.8745  0.6315 -0.1350
 6016SOL     OW29680   4.532   3.716   3.986  0.0518 -0.3452 -0.0963
 6016SOL    HW129681   4.455   3.675   4.025  0.2342 -0.1809  0.4362
 6016SOL    HW229682   4.544   3.660   3.909  3.4457  2.2201 -1.4349
 6017SOL     OW29683   1.108   2.272   1.831  0.0563  0.3171  0.6198
 6017SOL    HW129684   1.129   2.341   1.894 -0.2628  0.2374  0.8148
 6017SOL    HW229685   1.197   2.247   1.807  0.2943  2.3001 -0.4804
 6018SOL     OW29686   2.982   4.639   2.773  0.4009  0.1903  0.1243
 6018SOL    HW129687   3.074   4.664   2.772  0.9047 -1.7941 -2.2231
 6018SOL    HW229688   2.955   4.691   2.697 -0.0595 -0.5167 -0.1938
 6019SOL     OW29689   2.460   1.981   8.218  0.8970 -0.2524  1.0036
 6019SOL    HW129690   2.399   1.953   8.286 -0.3695  0.4869  0.1602
 6019SOL    HW229691   2.407   2.048   8.175  0.8068 -0.4008  0.8840
 6020SOL     OW29692   3.759   0.729  13.021 -0.3229  0.3325 -0.2430
 6020SOL    HW129693   3.732   0.819  13.041 -1.0885  0.0118  0.1583
 6020SOL    HW229694   3.715   0.720  12.937  0.8030  1.9354 -1.0064
 6021SOL     OW29695   1.039   3.321   5.011  0.1655 -0.0994  0.4895
 6021SOL    HW129696   0.982   3.294   5.083  1.6174 -0.7498  1.3850
 6021SOL    HW229697   0.975   3.357   4.950 -0.3720  0.2436  1.2576
 6022SOL     OW29698   4.408   4.313   4.386  0.1888 -0.8845  0.4869
 6022SOL    HW129699   4.359   4.260   4.449  1.1535 -1.2120  0.9642
 6022SOL    HW229700   4.353   4.334   4.311 -1.7989 -0.4929  2.0428
 6023SOL     OW29701   0.175   3.483   7.930 -0.1058  0.0374  0.1514
 6023SOL    HW129702   0.227   3.419   7.978 -3.1323 -0.8912  2.1421
 6023SOL    HW229703   0.091   3.483   7.974 -0.3070 -0.6359 -0.2389
 6024SOL     OW29704   3.924   0.227  15.929  0.1259  0.4027  0.1184
 6024SOL    HW129705   3.978   0.286  15.877 -0.7318  1.1244  0.0488
 6024SOL    HW229706   3.897   0.285  16.000 -0.2402 -0.2650  0.5346
 6025SOL     OW29707   3.676   4.598   4.320  0.1801 -0.5073  0.1625
 6025SOL    HW129708   3.605   4.537   4.343 -1.7359  1.4735 -0.4136
 6025SOL    HW229709   3.644   4.614   4.231 -1.3707 -0.8227  0.6524
 6026SOL     OW29710   2.249   2.093   9.828 -0.2436  0.1957  0.0280
 6026SOL    HW129711   2.279   2.014   9.872 -0.6936  0.6056  1.0610
 6026SOL    HW229712   2.154   2.084   9.837 -0.4337  1.5117 -0.7562
 6027SOL     OW29713   3.809   2.029   7.508  0.0154  0.2996 -0.3293
 6027SOL    HW129714   3.877   2.052   7.571  1.2106 -0.6520 -1.2710
 6027SOL    HW229715   3.770   2.113   7.484 -0.7942 -0.3701 -1.3754
 6028SOL     OW29716   3.923   0.235   7.366 -0.4218 -0.6596 -0.1444
 6028SOL    HW129717   3.909   0.141   7.373  0.3446 -0.9363 -2.1841
 6028SOL    HW229718   3.997   0.262   7.421 -0.4702  0.9653 -0.8589
 6029SOL     OW29719   3.114   4.530  12.903 -0.4433 -0.3649  0.1747
 6029SOL    HW129720   3.123   4.435  12.899 -0.9613 -0.3425 -1.4002
 6029SOL    HW229721   3.154   4.559  12.821  2.4739 -0.3288  1.6009
 6030SOL     OW29722   0.108   0.877   8.355  0.5222 -0.1792  0.6100
 6030SOL    HW129723   0.133   0.786   8.342  2.0651  0.1744  1.0407
 6030SOL    HW229724   0.020   0.852   8.381 -0.0430  2.0562  0.8448
 6031SOL     OW29725   1.367   4.718   8.720  0.0041  0.5554  0.1095
 6031SOL    HW129726   1.387   4.631   8.687  1.4171  1.0830 -0.4438
 6031SOL    HW229727   1.319   4.678   8.792  1.3185 -1.2263 -0.0226
 6032SOL     OW29728   2.245   2.129  10.946 -0.0004  0.2656 -0.5377
 6032SOL    HW129729   2.285   2.049  10.981 -1.5828  0.0290  0.6904
 6032SOL    HW229730   2.157   2.094  10.954  0.3493 -0.4691  0.1226
 6033SOL     OW29731   3.937   1.711   7.600  0.3484  0.0946  0.4024
 6033SOL    HW129732   3.921   1.764   7.522 -1.1261  0.6195  1.0656
 6033SOL    HW229733   3.852   1.712   7.645  0.0850 -0.8764 -0.0635
 6034SOL     OW29734   3.454   3.432   2.438  0.7277 -0.3390 -0.4706
 6034SOL    HW129735   3.481   3.479   2.517 -0.5457  0.6882 -0.6395
 6034SOL    HW229736   3.487   3.346   2.462 -1.1219 -0.7541  0.5541
 6035SOL     OW29737   2.139   1.131  12.409 -0.7965 -0.0391  0.3120
 6035SOL    HW129738   2.088   1.202  12.447 -0.0690  1.7143 -2.0177
 6035SOL    HW229739   2.222   1.178  12.399 -0.4105 -0.7107  0.3562
 6036SOL     OW29740   3.239   0.626   0.170  0.2458 -0.8066 -0.0669
 6036SOL    HW129741   3.167   0.563   0.157 -0.1650 -0.6003  1.2500
 6036SOL    HW229742   3.262   0.647   0.079  0.0949 -1.4559 -0.2602
 6037SOL     OW29743   3.755   4.470  12.052 -0.3558  1.0484 -0.6632
 6037SOL    HW129744   3.736   4.377  12.040  1.3038  0.6946 -0.5563
 6037SOL    HW229745   3.763   4.504  11.963 -1.5420  0.5767 -0.9510
 6038SOL     OW29746   3.898   2.895  17.231 -0.4046  0.5870 -0.2501
 6038SOL    HW129747   3.928   2.986  17.238 -0.8074  0.7149 -0.1951
 6038SOL    HW229748   3.975   2.838  17.244 -0.1085  0.6327 -1.8256
 6039SOL     OW29749   0.142   3.834  11.473 -0.0492  0.4764  0.2635
 6039SOL    HW129750   0.105   3.753  11.438  2.8359 -1.3665  1.4457
 6039SOL    HW229751   0.157   3.880  11.391 -1.0925  0.2560 -0.0484
 6040SOL     OW29752   0.940   1.319   7.969 -0.3563 -0.1773 -0.4272
 6040SOL    HW129753   0.944   1.225   7.950  2.3801  0.4861 -3.0627
 6040SOL    HW229754   0.948   1.369   7.888  0.8090 -0.5456 -0.5486
 6041SOL     OW29755   0.274   1.289   7.593  0.5100 -0.2377 -0.2536
 6041SOL    HW129756   0.209   1.224   7.619 -1.3471  1.4421 -0.6924
 6041SOL    HW229757   0.260   1.349   7.666 -0.4895 -0.6708 -0.0874
 6042SOL     OW29758   1.047   1.364   2.456 -0.9505  0.5730 -0.1460
 6042SOL    HW129759   1.116   1.323   2.403 -0.1034  0.6337  0.9176
 6042SOL    HW229760   1.005   1.427   2.397 -0.0912  0.6824 -0.6404
 6043SOL     OW29761   0.214   3.965   8.395  0.1162  0.3903 -0.5740
 6043SOL    HW129762   0.217   4.061   8.405  3.3364  0.1801  0.6652
 6043SOL    HW229763   0.182   3.938   8.481 -0.9359 -0.5241 -1.2578
 6044SOL     OW29764   3.499   3.357   0.107 -0.0647  0.6888  0.4908
 6044SOL    HW129765   3.548   3.403   0.039  0.4064 -0.6700 -0.0821
 6044SOL    HW229766   3.525   3.405   0.186 -2.0969  0.5364  1.2399
 6045SOL     OW29767   4.604   2.053   5.037  0.2282  0.1191 -0.0186
 6045SOL    HW129768   4.639   2.124   5.091  2.3530  0.5944 -2.0352
 6045SOL    HW229769   4.532   2.091   4.988 -0.6295  0.7401  1.7382
 6046SOL     OW29770   3.815   1.553  12.818  0.6591 -0.6879 -0.4091
 6046SOL    HW129771   3.878   1.564  12.747  0.5484  0.7202 -0.2854
 6046SOL    HW229772   3.787   1.462  12.808  0.6171 -1.0123  2.7603
 6047SOL     OW29773   4.486   3.627  13.946  0.3004  0.2181 -0.2075
 6047SOL    HW129774   4.502   3.577  14.026  2.0537 -0.9011 -1.2578
 6047SOL    HW229775   4.390   3.635  13.952  0.4346 -0.0619  2.1754
 6048SOL     OW29776   0.926   1.972  13.383 -0.0766 -0.3726 -0.2409
 6048SOL    HW129777   0.841   1.992  13.344  0.1983  0.8852 -0.1776
 6048SOL    HW229778   0.938   1.883  13.348 -0.1645 -0.1063 -0.9568
 6049SOL     OW29779   0.698   2.717  13.876  0.2856  0.0704 -0.2335
 6049SOL    HW129780   0.772   2.754  13.828 -0.0717 -0.0279 -0.8610
 6049SOL    HW229781   0.698   2.770  13.956  1.1836  0.0666 -0.2329
 6050SOL     OW29782   2.582   3.495   1.029 -0.3992 -0.1984  0.4677
 6050SOL    HW129783   2.586   3.539   0.944  0.8907  0.1993  0.7297
 6050SOL    HW229784   2.521   3.423   1.015 -2.3912  1.9764 -1.9853
 6051SOL     OW29785   3.772   1.305   8.144 -0.0080  0.0880 -0.2031
 6051SOL    HW129786   3.734   1.327   8.059 -0.8700 -2.5799 -0.4708
 6051SOL    HW229787   3.693   1.304   8.198  0.1371  0.4219  0.0169
 6052SOL     OW29788   3.867   2.516   7.996  0.0657 -0.5649 -0.5198
 6052SOL    HW129789   3.865   2.499   7.902 -0.6747 -0.1497 -0.5810
 6052SOL    HW229790   3.780   2.553   8.011  0.2688 -0.4533  0.3487
 6053SOL     OW29791   4.710   0.781   2.826  0.2975  0.3737  0.0875
 6053SOL    HW129792   0.004   0.843   2.760 -0.0845 -1.2690 -1.6114
 6053SOL    HW229793   4.735   0.833   2.903  0.6237  0.7015 -0.2387
 6054SOL     OW29794   0.756   1.048   9.049 -0.0343 -0.2456  0.1060
 6054SOL    HW129795   0.777   0.964   9.090 -0.9666 -0.6691 -0.3007
 6054SOL    HW229796   0.671   1.065   9.088  1.5002  1.1046  2.8416
 6055SOL     OW29797   0.878   4.718   7.744  0.1621 -0.4924  0.3389
 6055SOL    HW129798   0.944   4.679   7.801  1.5484  2.4183  0.6757
 6055SOL    HW229799   0.861   4.647   7.682  0.3066 -1.9202  1.9427
 6056SOL     OW29800   0.631   2.291   5.674  0.2285 -1.2468  0.3156
 6056SOL    HW129801   0.707   2.274   5.619 -0.5072 -2.4597 -0.3259
 6056SOL    HW229802   0.671   2.333   5.751  0.8707 -1.7427  0.2491
 6057SOL     OW29803   2.458   3.047   8.947  0.0764 -0.0764 -0.0758
 6057SOL    HW129804   2.424   2.985   8.882  0.2534 -0.0090 -0.2339
 6057SOL    HW229805   2.466   3.128   8.896  1.0047  1.0301  1.8297
 6058SOL     OW29806   1.745   0.915   2.330 -0.0452  0.0883 -0.0752
 6058SOL    HW129807   1.830   0.952   2.306 -0.1387  1.2329  1.3199
 6058SOL    HW229808   1.704   0.997   2.359 -0.6955 -0.5841  0.9034
 6059SOL     OW29809   3.197   4.226   6.552  0.3428 -0.4186  0.2755
 6059SOL    HW129810   3.149   4.184   6.479 -0.4584 -1.4087  1.3608
 6059SOL    HW229811   3.132   4.188   6.612  0.6390 -0.8320  0.3368
 6060SOL     OW29812   1.035   0.142   5.202  0.0296  0.1200  0.0690
 6060SOL    HW129813   1.014   0.223   5.155 -0.4699 -0.7615 -1.2078
 6060SOL    HW229814   1.061   0.177   5.287  0.3544  1.1483 -0.4501
 6061SOL     OW29815   3.075   1.599   4.030 -0.0330 -0.3652 -0.0650
 6061SOL    HW129816   3.106   1.658   4.098  0.0198 -0.7785  0.2705
 6061SOL    HW229817   3.147   1.598   3.966 -0.1593 -2.2136 -0.1721
 6062SOL     OW29818   4.101   4.378   4.478  0.0502  0.1273  0.0470
 6062SOL    HW129819   4.011   4.406   4.491  0.0925  0.4532 -0.3658
 6062SOL    HW229820   4.139   4.448   4.425 -0.1238 -0.1492 -0.4474
 6063SOL     OW29821   1.163   0.971  10.981 -0.0138 -0.1308 -0.0034
 6063SOL    HW129822   1.118   1.029  11.042  0.9156  1.7626 -1.1021
 6063SOL    HW229823   1.088   0.934  10.936 -0.9252  3.0288 -1.0421
 6064SOL     OW29824   4.053   1.748  16.419 -0.2543 -0.2343 -0.4285
 6064SOL    HW129825   4.056   1.844  16.409 -0.4468 -0.1626  0.2141
 6064SOL    HW229826   4.079   1.721  16.330 -1.0377 -2.5077  0.0576
 6065SOL     OW29827   3.200   3.536  16.679  0.5367 -0.1309  0.4419
 6065SOL    HW129828   3.189   3.476  16.753 -1.2742 -1.3649 -0.8063
 6065SOL    HW229829   3.138   3.607  16.696 -0.8956 -0.6227 -2.6892
 6066SOL     OW29830   0.289   1.662  10.651  0.0076 -0.2713  0.3882
 6066SOL    HW129831   0.250   1.623  10.729  0.0200  0.3841  0.7161
 6066SOL    HW229832   0.245   1.614  10.580  0.3249 -0.2124  0.1491
 6067SOL     OW29833   2.522   0.610   8.708  0.0953  0.5333 -0.5116
 6067SOL    HW129834   2.443   0.590   8.757  1.0039 -2.4301 -0.2487
 6067SOL    HW229835   2.519   0.705   8.705  1.8676  0.5740 -1.2972
 6068SOL     OW29836   4.638   4.036  14.305 -0.0238 -0.1707  0.2942
 6068SOL    HW129837   4.647   4.003  14.394 -1.5576 -0.6338  0.2828
 6068SOL    HW229838   4.587   4.114  14.327  0.4956 -0.4618  2.4746
 6069SOL     OW29839   0.680   1.635   5.555  0.0263  0.3772 -0.3462
 6069SOL    HW129840   0.678   1.701   5.624 -1.0033 -2.2990  2.1953
 6069SOL    HW229841   0.594   1.594   5.563  1.0404 -1.1664  2.5913
 6070SOL     OW29842   2.669   2.797  15.987 -0.0448  0.0212  0.1091
 6070SOL    HW129843   2.763   2.787  15.969 -0.2441 -1.2257 -0.2571
 6070SOL    HW229844   2.662   2.881  16.032 -0.8192 -0.3318  0.6454
 6071SOL     OW29845   3.806   3.658   7.393  0.5049  0.2039 -0.1802
 6071SOL    HW129846   3.731   3.657   7.333 -1.5231  1.7496  2.2989
 6071SOL    HW229847   3.882   3.632   7.342  2.0569  1.2628  1.6258
 6072SOL     OW29848   2.212   1.959   4.857 -0.7203 -0.5161 -0.5357
 6072SOL    HW129849   2.204   1.930   4.948  0.7424 -3.2274 -1.2660
 6072SOL    HW229850   2.120   1.955   4.833 -0.3452 -2.2004 -1.6556
 6073SOL     OW29851   1.615   1.531  17.489  0.1379 -0.0867 -0.5194
 6073SOL    HW129852   1.622   1.512  17.396 -4.2209 -1.1104 -0.6806
 6073SOL    HW229853   1.622   1.626  17.489  0.7375 -0.1462 -3.2382
 6074SOL     OW29854   3.082   3.168   1.379  0.2216 -0.0771 -0.1994
 6074SOL    HW129855   3.039   3.169   1.293 -0.1739 -2.2324 -0.0163
 6074SOL    HW229856   3.167   3.138   1.347 -0.7885  0.0085 -2.9792
 6075SOL     OW29857   4.121   4.012   2.679  0.1047 -0.3195 -0.0263
 6075SOL    HW129858   4.054   3.959   2.635  1.5261 -0.9140 -1.4748
 6075SOL    HW229859   4.081   4.037   2.762 -2.1174  1.8622 -1.7445
 6076SOL     OW29860   3.928   1.517   0.621 -0.6022 -0.0692  0.0564
 6076SOL    HW129861   3.881   1.574   0.682 -0.0161 -1.7252  2.0648
 6076SOL    HW229862   3.861   1.500   0.555  0.1183 -1.5190 -0.3026
 6077SOL     OW29863   4.170   0.109   6.102  0.2071  0.4934 -0.4266
 6077SOL    HW129864   4.254   0.147   6.073  1.3711 -0.6120  1.5151
 6077SOL    HW229865   4.200   0.049   6.170  0.8047  1.1121 -0.1461
 6078SOL     OW29866   1.804   0.474  11.349  0.7631 -0.5501  0.4320
 6078SOL    HW129867   1.839   0.492  11.262 -1.2787 -0.4753 -0.3860
 6078SOL    HW229868   1.785   0.381  11.339 -0.8423 -0.0349 -1.2691
 6079SOL     OW29869   1.519   2.731   5.487 -0.9381 -0.8042  0.1208
 6079SOL    HW129870   1.503   2.656   5.430  0.7957  1.4087 -3.2819
 6079SOL    HW229871   1.505   2.800   5.422 -0.3291  2.2027  3.1748
 6080SOL     OW29872   3.938   3.021   5.838  0.6696  0.2856  0.0696
 6080SOL    HW129873   3.983   2.944   5.802 -0.0763  0.8092 -1.9655
 6080SOL    HW229874   3.850   3.003   5.806  0.6275 -0.8212  0.8039
 6081SOL     OW29875   1.626   3.856   4.538 -1.0351 -0.2169  0.1832
 6081SOL    HW129876   1.540   3.897   4.529 -0.8034  0.1572 -0.3344
 6081SOL    HW229877   1.600   3.769   4.568  1.4387 -1.2634 -0.6645
 6082SOL     OW29878   1.071   3.742  13.208 -0.2473  0.1100  0.1341
 6082SOL    HW129879   1.071   3.694  13.290 -0.6691  1.3928  0.8955
 6082SOL    HW229880   1.091   3.833  13.231  1.6158  0.1550 -1.6898
 6083SOL     OW29881   1.824   4.027   4.544  0.3342 -0.7197 -0.3040
 6083SOL    HW129882   1.757   3.960   4.550  1.4351 -1.7687  0.3273
 6083SOL    HW229883   1.896   3.985   4.497  0.3603  0.3377 -1.2108
 6084SOL     OW29884   1.103   1.765   4.081 -0.7068 -1.0591 -0.1043
 6084SOL    HW129885   1.078   1.678   4.050  0.3051 -1.2410 -0.3961
 6084SOL    HW229886   1.073   1.770   4.172 -1.2323 -1.5040 -0.2499
 6085SOL     OW29887   4.536   2.598   2.839 -0.1667 -0.1120 -0.1579
 6085SOL    HW129888   4.447   2.632   2.833  0.5364  2.0157  1.5294
 6085SOL    HW229889   4.554   2.595   2.933 -0.1818 -0.8165 -0.1729
 6086SOL     OW29890   4.513   2.322  17.014 -0.3819 -0.4276 -0.5765
 6086SOL    HW129891   4.419   2.304  17.021 -0.2927 -0.9643 -0.7706
 6086SOL    HW229892   4.526   2.312  17.109 -0.2585 -0.2626 -0.5757
 6087SOL     OW29893   3.021   0.987   2.295 -0.2773 -0.2853 -0.0520
 6087SOL    HW129894   3.072   1.067   2.286 -1.6611  0.7567  1.3709
 6087SOL    HW229895   3.080   0.951   2.362  0.6834  1.7867  0.2294
 6088SOL     OW29896   2.609   0.438   3.906 -0.4797 -0.0374 -0.5598
 6088SOL    HW129897   2.632   0.531   3.895  0.5512 -0.2651 -0.3304
 6088SOL    HW229898   2.587   0.433   3.999  0.0922  3.1216 -0.2514
 6089SOL     OW29899   3.699   0.373   5.460 -0.1975  0.2271 -0.2467
 6089SOL    HW129900   3.689   0.298   5.400 -0.2622 -0.7051  0.9397
 6089SOL    HW229901   3.770   0.342   5.516  2.6499  1.5932 -3.0797
 6090SOL     OW29902   0.856   1.006   5.397  0.6241 -0.4081  0.1692
 6090SOL    HW129903   0.771   1.029   5.434 -1.0384 -1.9931 -2.6394
 6090SOL    HW229904   0.878   0.921   5.436  1.1959  0.0387  0.8397
 6091SOL     OW29905   0.685   1.105   8.578  0.0808  0.0009 -0.3867
 6091SOL    HW129906   0.737   1.110   8.659  3.8506 -1.3565 -2.7120
 6091SOL    HW229907   0.749   1.153   8.525  1.6054 -1.1690  0.4099
 6092SOL     OW29908   1.138   0.723   5.172 -0.0862  0.4372 -0.1081
 6092SOL    HW129909   1.160   0.794   5.232  2.1840 -0.9064  0.6353
 6092SOL    HW229910   1.094   0.654   5.222 -0.1558  1.0204  0.6345
 6093SOL     OW29911   2.048   1.793   5.601  0.3043 -0.6381  0.2811
 6093SOL    HW129912   1.952   1.793   5.597  0.2679  0.2539  1.0976
 6093SOL    HW229913   2.061   1.779   5.695  1.1161  1.6770  0.5237
 6094SOL     OW29914   2.012   1.482   5.975 -0.0005  0.3483 -0.4223
 6094SOL    HW129915   1.962   1.514   6.050  0.5788 -1.2646  0.6429
 6094SOL    HW229916   1.983   1.391   5.964  2.8093 -0.6432  0.5746
 6095SOL     OW29917   4.711   2.984   6.750  0.1820  0.3561  0.2827
 6095SOL    HW129918   4.670   2.898   6.765 -1.1458  1.4202  2.6996
 6095SOL    HW229919   0.009   3.011   6.835  1.9724 -0.1743 -0.2536
 6096SOL     OW29920   2.868   3.816   0.642 -0.2357 -0.0924  0.1284
 6096SOL    HW129921   2.821   3.792   0.722 -0.0064  1.5247  0.7628
 6096SOL    HW229922   2.846   3.738   0.591  1.3734  0.8406 -2.0105
 6097SOL     OW29923   3.333   2.394   5.341 -0.2698  0.0408 -0.4450
 6097SOL    HW129924   3.423   2.365   5.332 -0.5220 -0.3965 -1.5717
 6097SOL    HW229925   3.344   2.468   5.401  1.8315  0.0878 -0.8995
 6098SOL     OW29926   1.206   4.684   7.496  0.0839 -0.2168 -0.2224
 6098SOL    HW129927   1.186   0.033   7.459 -0.2004 -0.5127 -0.7564
 6098SOL    HW229928   1.271   4.651   7.434 -0.8571 -0.6108 -1.0003
 6099SOL     OW29929   4.464   1.405   3.001 -0.0340  0.3177 -0.1770
 6099SOL    HW129930   4.368   1.399   3.008  0.2261 -2.5156  1.0353
 6099SOL    HW229931   4.492   1.481   3.052  0.3259 -0.0222  0.1294
 6100SOL     OW29932   2.832   4.286   6.852  0.0270 -0.3129  0.0935
 6100SOL    HW129933   2.927   4.301   6.849  0.2176 -0.8599  3.2635
 6100SOL    HW229934   2.811   4.323   6.937 -1.6646 -2.4602  0.6239
 6101SOL     OW29935   3.363   3.508   7.159  0.7172 -0.6579  0.0535
 6101SOL    HW129936   3.384   3.589   7.112  1.2370 -1.4432 -1.0772
 6101SOL    HW229937   3.295   3.472   7.103  1.0709  0.0766 -0.8618
 6102SOL     OW29938   1.529   1.186  11.936  0.2388  0.7250 -0.2973
 6102SOL    HW129939   1.457   1.227  11.889  1.1081  0.5061 -1.8310
 6102SOL    HW229940   1.614   1.207  11.897  0.6703  1.4593  1.0544
 6103SOL     OW29941   4.465   3.569   4.660  0.5832 -0.0240 -0.2719
 6103SOL    HW129942   4.520   3.634   4.705  0.0757 -0.8244  1.5223
 6103SOL    HW229943   4.464   3.497   4.724 -0.0874 -0.0761 -0.3423
 6104SOL     OW29944   2.341   1.799   3.824 -0.0514  0.0549 -0.3389
 6104SOL    HW129945   2.340   1.739   3.899  1.7644  2.0600  1.3172
 6104SOL    HW229946   2.303   1.873   3.873 -1.0232 -0.2790 -0.5926
 6105SOL     OW29947   0.102   1.615  15.615 -0.2940  0.3020  0.0285
 6105SOL    HW129948   0.161   1.632  15.689 -0.4635  0.5513  0.1066
 6105SOL    HW229949   0.049   1.548  15.659  0.5035  0.6408  1.4989
 6106SOL     OW29950   2.287   3.302   1.854  0.6123 -0.1938 -0.2006
 6106SOL    HW129951   2.293   3.257   1.769  2.4642 -0.9580  0.3219
 6106SOL    HW229952   2.289   3.224   1.910 -1.3286 -0.0736  0.0243
 6107SOL     OW29953   4.164   2.121   3.285  0.0985 -0.5950 -0.6355
 6107SOL    HW129954   4.246   2.166   3.305 -0.4545  0.6205 -1.1243
 6107SOL    HW229955   4.184   2.034   3.318 -1.5369 -0.4067  0.8838
 6108SOL     OW29956   4.068   2.356   4.493  0.2271 -0.0578  0.5814
 6108SOL    HW129957   3.987   2.361   4.443  0.0732  0.4544  0.8882
 6108SOL    HW229958   4.064   2.438   4.541  0.5707  0.0893  0.3599
 6109SOL     OW29959   3.470   0.391   0.417 -0.2277  0.1706 -0.1012
 6109SOL    HW129960   3.510   0.475   0.439 -1.1247  0.1460  1.5918
 6109SOL    HW229961   3.382   0.408   0.450  0.0132 -0.0269  0.6571
 6110SOL     OW29962   3.857   4.335   5.709  0.1900  0.0033 -0.4429
 6110SOL    HW129963   3.948   4.306   5.712 -0.4166 -1.8902 -0.6163
 6110SOL    HW229964   3.849   4.335   5.614  0.8033 -3.1660 -0.5003
 6111SOL     OW29965   0.131   2.681   2.251 -0.2534  0.7846  0.6817
 6111SOL    HW129966   0.198   2.702   2.315  1.3466  3.0130 -1.7532
 6111SOL    HW229967   0.098   2.599   2.288  0.0829  0.0942 -0.5370
 6112SOL     OW29968   3.844   2.219  10.163  0.3420 -0.3287 -0.0780
 6112SOL    HW129969   3.936   2.207  10.185  0.8081  1.7075 -0.9090
 6112SOL    HW229970   3.847   2.215  10.067 -1.4516  1.4526 -0.2100
 6113SOL     OW29971   3.201   2.819   4.160  0.3135 -0.2270 -0.3731
 6113SOL    HW129972   3.168   2.909   4.165  0.2250 -0.1703 -2.1421
 6113SOL    HW229973   3.138   2.767   4.109 -2.2293  1.3104  1.1843
 6114SOL     OW29974   0.414   4.243   1.439 -0.6015  0.3571 -0.2893
 6114SOL    HW129975   0.506   4.234   1.415 -0.5340 -0.0685  0.1221
 6114SOL    HW229976   0.382   4.154   1.422 -0.6667  0.4145 -0.4668
 6115SOL     OW29977   0.433   4.225   4.572  0.0152 -0.1596  0.0100
 6115SOL    HW129978   0.416   4.138   4.608  1.7785 -0.0819  1.0090
 6115SOL    HW229979   0.504   4.220   4.508  0.0350 -1.2562  0.1165
 6116SOL     OW29980   0.765   0.883  16.892 -0.5375 -0.2209  1.0089
 6116SOL    HW129981   0.687   0.831  16.872  0.0843 -1.1635  1.0328
 6116SOL    HW229982   0.794   0.910  16.805  0.2732 -1.9076  0.7753
 6117SOL     OW29983   4.067   1.022   1.685  0.3092 -0.5498 -0.3924
 6117SOL    HW129984   4.002   1.058   1.745 -1.1512 -1.5924 -1.3381
 6117SOL    HW229985   4.005   0.993   1.618 -0.9759 -1.5881  1.2493
 6118SOL     OW29986   4.349   1.273   2.195 -0.2932  0.7718  0.1621
 6118SOL    HW129987   4.273   1.328   2.173 -1.2267 -0.2621  0.8268
 6118SOL    HW229988   4.422   1.335   2.196  1.5520 -1.3895  0.1325
 6119SOL     OW29989   0.551   3.367   9.456  0.1743  0.2766  0.5021
 6119SOL    HW129990   0.518   3.278   9.465  3.9395 -1.3364 -1.7506
 6119SOL    HW229991   0.644   3.348   9.446  0.1390 -0.5840  1.8982
 6120SOL     OW29992   2.998   0.082  12.913  0.1867 -0.2742  0.1184
 6120SOL    HW129993   2.917   0.080  12.862  0.1062  1.3617  0.1883
 6120SOL    HW229994   3.063   0.035  12.860  0.6178 -1.1546  1.4138
 6121SOL     OW29995   0.938   3.706   3.861 -0.5076 -0.2632 -0.5577
 6121SOL    HW129996   0.956   3.798   3.840  1.6539 -0.9281 -1.6535
 6121SOL    HW229997   0.911   3.716   3.952  1.3947  0.6795 -0.0972
 6122SOL     OW29998   0.089   4.694   6.184 -0.6216  0.5494  0.6016
 6122SOL    HW129999   0.139   4.641   6.121  1.0991  1.4750  1.1974
 6122SOL    HW230000   0.000   4.662   6.197 -0.3079 -0.4274  0.3752
 6123SOL     OW30001   4.587   3.482   3.216 -0.4020  0.1836 -0.5617
 6123SOL    HW130002   4.634   3.563   3.235 -0.8300  0.5924 -1.2341
 6123SOL    HW230003   4.634   3.445   3.141  0.2204 -1.7909  0.8109
 6124SOL     OW30004   1.163   4.218  10.170  0.3731  0.3682  0.3233
 6124SOL    HW130005   1.212   4.161  10.110 -1.6868 -1.3197  0.2510
 6124SOL    HW230006   1.221   4.231  10.245 -2.7209  0.3966  2.7204
 6125SOL     OW30007   2.822   1.791  17.043 -0.1708 -0.0195 -0.2149
 6125SOL    HW130008   2.752   1.764  17.103  0.1590 -0.3179  0.0357
 6125SOL    HW230009   2.778   1.856  16.988 -0.2036 -0.8332 -1.1439
 6126SOL     OW30010   1.187   2.982   2.633  0.4821 -0.3432 -0.7881
 6126SOL    HW130011   1.256   3.036   2.595 -0.0171 -1.2892 -3.0164
 6126SOL    HW230012   1.112   3.035   2.605 -1.2941 -1.8544  1.0288
 6127SOL     OW30013   0.659   0.867  11.353 -0.1131 -0.2504 -0.4340
 6127SOL    HW130014   0.740   0.915  11.368 -0.4613 -0.1978  1.2679
 6127SOL    HW230015   0.650   0.828  11.440  1.2712  0.9324  0.2314
 6128SOL     OW30016   3.382   3.670   6.751  0.0192 -0.4148 -0.0273
 6128SOL    HW130017   3.386   3.760   6.718  1.0508 -0.9483 -1.3456
 6128SOL    HW230018   3.318   3.639   6.687 -1.2117  0.5834  0.7241
 6129SOL     OW30019   2.353   1.136   4.393 -0.2787 -0.2820 -0.6084
 6129SOL    HW130020   2.296   1.212   4.397  2.8717  2.0183  0.3598
 6129SOL    HW230021   2.294   1.081   4.341 -0.1371 -1.1906  0.1806
 6130SOL     OW30022   1.508   2.029   5.075  0.0663 -0.0553  0.4373
 6130SOL    HW130023   1.492   1.936   5.056  1.7083  0.1272 -1.8844
 6130SOL    HW230024   1.604   2.032   5.073  0.1096 -2.8964 -1.3665
 6131SOL     OW30025   3.969   3.959  14.012  0.2457 -0.1166  0.8939
 6131SOL    HW130026   3.949   3.883  13.958 -0.8511  0.0543  1.0651
 6131SOL    HW230027   3.964   3.925  14.102 -0.7711 -2.0108  0.1296
 6132SOL     OW30028   4.688   0.405   3.160  0.5778  0.0059 -0.0747
 6132SOL    HW130029   0.010   0.330   3.165 -0.9554 -1.1392  0.4239
 6132SOL    HW230030   0.013   0.476   3.142  0.4375  0.5051  1.3771
 6133SOL     OW30031   0.664   3.157   9.039 -0.9809  0.7878  0.4471
 6133SOL    HW130032   0.674   3.244   9.077  0.6877  0.6270  0.3872
 6133SOL    HW230033   0.594   3.163   8.973  0.4868  0.4914 -1.1394
 6134SOL     OW30034   4.347   1.625  16.397 -0.3671 -0.5455 -0.9619
 6134SOL    HW130035   4.379   1.621  16.487  0.3341  0.9228 -1.1574
 6134SOL    HW230036   4.267   1.676  16.408  1.9437  2.6894  0.7972
 6135SOL     OW30037   3.361   2.198   8.778 -0.0189 -0.5943  0.4038
 6135SOL    HW130038   3.324   2.245   8.853  1.3436  1.0419  0.0497
 6135SOL    HW230039   3.432   2.148   8.820  0.5378  0.5051  0.7796
 6136SOL     OW30040   1.565   0.740  16.233  0.5099  0.0158 -0.0681
 6136SOL    HW130041   1.486   0.732  16.287  0.5005  0.3409 -0.0325
 6136SOL    HW230042   1.560   0.674  16.165 -1.2416 -0.3223  0.3841
 6137SOL     OW30043   0.952   2.687   9.643 -0.2315 -0.4699 -0.1652
 6137SOL    HW130044   1.017   2.757   9.652 -0.6567 -0.5078  2.9737
 6137SOL    HW230045   0.884   2.722   9.700  0.9178  0.3470  0.7238
 6138SOL     OW30046   0.924   0.897  12.013  0.0845  0.0896  0.4009
 6138SOL    HW130047   0.952   0.821  12.064  0.2090  0.2105  0.5115
 6138SOL    HW230048   0.851   0.935  12.061 -1.6110 -0.0006 -2.1210
 6139SOL     OW30049   0.791   1.196   4.159 -0.1591  0.2611  0.1965
 6139SOL    HW130050   0.869   1.141   4.164 -2.0482 -2.2033  3.6176
 6139SOL    HW230051   0.724   1.129   4.175  0.0949  0.0971  0.5970
 6140SOL     OW30052   1.446   0.468  16.404 -0.0098  0.0657  0.3284
 6140SOL    HW130053   1.400   0.442  16.325 -0.9738  1.7785  0.3149
 6140SOL    HW230054   1.440   0.398  16.469  0.6038 -0.5835 -0.3112
 6141SOL     OW30055   2.538   1.277   3.395  0.4161  0.0293  0.8807
 6141SOL    HW130056   2.451   1.256   3.428 -0.7500 -1.4350 -3.2134
 6141SOL    HW230057   2.579   1.211   3.451 -0.9701 -1.8606 -0.3314
 6142SOL     OW30058   2.845   2.389   7.522  0.2869  0.3874 -0.5090
 6142SOL    HW130059   2.858   2.392   7.428  0.6381 -0.8242 -0.4983
 6142SOL    HW230060   2.838   2.482   7.545  0.1876  0.3318 -0.3118
 6143SOL     OW30061   1.992   3.462   7.548 -0.3968 -0.3142  0.2342
 6143SOL    HW130062   2.063   3.428   7.494 -0.6402  0.0431 -0.3177
 6143SOL    HW230063   2.043   3.530   7.591 -1.0839 -0.1925  0.8685
 6144SOL     OW30064   0.895   1.201  12.501  0.4066 -0.3833 -0.2319
 6144SOL    HW130065   0.908   1.262  12.574 -1.8911 -0.4115  0.1914
 6144SOL    HW230066   0.817   1.157  12.535  0.9880  0.3789  2.0559
 6145SOL     OW30067   2.089   4.065  16.805  0.1089  0.0841 -0.1875
 6145SOL    HW130068   2.016   4.019  16.763  1.1556  0.0678 -1.9822
 6145SOL    HW230069   2.106   4.002  16.875  1.5471  1.3031  0.5649
 6146SOL     OW30070   0.288   4.523   8.006 -0.1091  0.0708 -0.1851
 6146SOL    HW130071   0.246   4.592   8.057 -0.6222 -0.7832  0.5477
 6146SOL    HW230072   0.377   4.527   8.042  0.3204  2.2153 -1.4725
 6147SOL     OW30073   1.688   3.445   0.182 -0.0786 -0.1059 -0.8807
 6147SOL    HW130074   1.691   3.388   0.105  1.2453 -0.0923 -0.8430
 6147SOL    HW230075   1.651   3.523   0.142  0.4932  0.1341 -0.9485
 6148SOL     OW30076   4.227   3.893   1.151  0.1300  0.0440 -0.2895
 6148SOL    HW130077   4.139   3.900   1.188 -0.3719 -0.1514 -1.4394
 6148SOL    HW230078   4.242   3.981   1.117  1.7192 -0.4975 -0.9907
 6149SOL     OW30079   2.669   0.225   5.987 -0.2216 -0.4635  0.4062
 6149SOL    HW130080   2.723   0.192   6.059  1.9993  1.4177 -0.4230
 6149SOL    HW230081   2.611   0.288   6.030 -2.1125 -1.9803  0.0801
 6150SOL     OW30082   2.915   1.023   6.648  0.4264  0.4752  0.0269
 6150SOL    HW130083   2.994   0.971   6.664 -0.6219 -1.8482 -2.2785
 6150SOL    HW230084   2.871   1.021   6.733  0.2874  3.6512  0.0297
 6151SOL     OW30085   2.546   1.495   1.082 -0.1532 -0.3773  0.2063
 6151SOL    HW130086   2.536   1.438   1.007 -0.3938  1.6794 -1.3199
 6151SOL    HW230087   2.453   1.511   1.096  0.0237 -0.4276  1.4254
 6152SOL     OW30088   0.151   0.823   9.275  0.9612 -0.2504  0.1202
 6152SOL    HW130089   0.124   0.915   9.274  2.9395  0.3291  0.7340
 6152SOL    HW230090   0.089   0.791   9.340 -0.5579 -0.0609 -1.2239
 6153SOL     OW30091   2.350   1.954   3.078  0.0325  0.0230 -0.0634
 6153SOL    HW130092   2.397   1.877   3.109 -0.4439 -0.5608 -0.7779
 6153SOL    HW230093   2.325   1.991   3.162  0.0789 -0.7263  0.2831
 6154SOL     OW30094   4.262   0.199  11.617 -0.3131 -0.2510 -0.1243
 6154SOL    HW130095   4.269   0.104  11.622  0.4317 -0.1469  0.6985
 6154SOL    HW230096   4.210   0.211  11.537  0.9282  0.4676 -0.8131
 6155SOL     OW30097   1.944   2.506   9.423 -0.4511 -0.3748  0.6415
 6155SOL    HW130098   2.032   2.511   9.386 -0.9015  1.2776 -0.1866
 6155SOL    HW230099   1.892   2.485   9.345 -2.0533 -0.8929  1.8380
 6156SOL     OW30100   0.644   3.521   9.895 -0.2293  0.0054 -0.5101
 6156SOL    HW130101   0.614   3.610   9.916 -3.8433 -1.5523  1.0001
 6156SOL    HW230102   0.633   3.525   9.800  2.8436 -1.7275 -0.9381
 6157SOL     OW30103   2.756   0.173   1.666 -0.2584  0.2353 -0.1089
 6157SOL    HW130104   2.675   0.134   1.699 -2.1811  4.4608  0.1072
 6157SOL    HW230105   2.809   0.104   1.706 -4.1995 -1.1756  2.7502
 6158SOL     OW30106   2.145   0.404  11.480 -0.6668 -0.0122 -0.3326
 6158SOL    HW130107   2.150   0.477  11.419  2.8788 -0.6307 -0.7938
 6158SOL    HW230108   2.065   0.418  11.531  0.8845  1.5916  1.6481
 6159SOL     OW30109   2.425   1.059   8.432 -0.6040  0.3805  0.0307
 6159SOL    HW130110   2.490   1.129   8.420 -0.3992  0.6360  2.5518
 6159SOL    HW230111   2.472   0.990   8.386 -1.1062  0.4106 -0.5206
 6160SOL     OW30112   3.725   3.001   8.554 -0.0152 -0.2182 -0.2286
 6160SOL    HW130113   3.729   3.096   8.561 -1.0891 -0.2503  0.8494
 6160SOL    HW230114   3.702   2.989   8.462 -1.2444 -0.5045  0.1168
 6161SOL     OW30115   3.214   4.569  12.654  0.4455 -0.1177  0.5157
 6161SOL    HW130116   3.189   4.576  12.562 -1.4814 -0.6986  0.9882
 6161SOL    HW230117   3.241   4.660  12.663 -0.6406  0.4560 -2.1032
 6162SOL     OW30118   0.318   2.583   8.339 -0.3548  0.1308  0.6431
 6162SOL    HW130119   0.242   2.571   8.282 -0.1522 -0.7591  0.5707
 6162SOL    HW230120   0.305   2.513   8.403  0.6774 -0.9922 -0.3885
 6163SOL     OW30121   2.847   1.165  12.502  0.0970 -0.5710 -0.1198
 6163SOL    HW130122   2.890   1.213  12.432 -1.1780  0.8209  0.0732
 6163SOL    HW230123   2.858   1.222  12.578  0.3239  0.4735 -0.9429
 6164SOL     OW30124   1.152   1.826   2.585  0.3993  0.1099 -0.1618
 6164SOL    HW130125   1.147   1.920   2.601 -1.3252  0.0729 -0.4641
 6164SOL    HW230126   1.066   1.793   2.611  1.0246  0.2180  2.0757
 6165SOL     OW30127   1.837   0.870  15.337 -0.1428 -0.5252 -0.0117
 6165SOL    HW130128   1.822   0.831  15.250 -4.2411 -1.1708  1.0042
 6165SOL    HW230129   1.891   0.946  15.316 -1.1684  0.4142  0.8085
 6166SOL     OW30130   0.015   2.530  14.291 -0.1445 -0.3929 -0.0786
 6166SOL    HW130131   0.026   2.538  14.196  1.0491 -0.7228  0.0211
 6166SOL    HW230132   0.011   2.435  14.302  1.1934 -0.4391  0.0367
 6167SOL     OW30133   3.361   2.704   4.997  0.4839 -0.0406  0.3868
 6167SOL    HW130134   3.335   2.615   5.021 -0.5790  0.2874  0.4618
 6167SOL    HW230135   3.317   2.751   5.068 -0.6775 -0.0638 -0.3264
 6168SOL     OW30136   2.038   3.735   5.260 -0.4628 -0.2266  0.2260
 6168SOL    HW130137   2.035   3.676   5.184  0.1292 -0.0383  0.0598
 6168SOL    HW230138   1.951   3.732   5.299  0.6982  0.4574  2.8407
 6169SOL     OW30139   3.527   1.276   8.275 -0.2605  0.4198 -0.3493
 6169SOL    HW130140   3.512   1.197   8.327 -1.7172  1.1252  0.2992
 6169SOL    HW230141   3.443   1.279   8.229 -0.1168 -1.4721 -0.7583
 6170SOL     OW30142   3.268   3.081   1.175  0.1359 -0.2791 -0.1049
 6170SOL    HW130143   3.350   3.038   1.151 -0.5417 -0.3298 -2.3143
 6170SOL    HW230144   3.295   3.173   1.171 -1.9133  0.4257  2.1277
 6171SOL     OW30145   2.515   1.427  11.966 -0.3155  0.5178  0.3155
 6171SOL    HW130146   2.575   1.358  11.937 -0.3384 -0.8078  3.4133
 6171SOL    HW230147   2.497   1.478  11.887 -0.3409  1.3691  0.8836
 6172SOL     OW30148   0.337   4.702   1.913  0.3213 -0.6676 -0.0895
 6172SOL    HW130149   0.325   4.632   1.977 -0.4987 -1.5611 -1.2201
 6172SOL    HW230150   0.301   4.648   1.843 -1.1038  4.6066 -3.3968
 6173SOL     OW30151   1.334   4.386   9.927 -0.0912  0.3213 -0.8383
 6173SOL    HW130152   1.305   4.296   9.916 -0.0154 -0.0154  1.6585
 6173SOL    HW230153   1.404   4.384   9.992 -0.7743  3.2157 -0.0036
 6174SOL     OW30154   4.384   3.345   2.803  0.4504  0.2658 -0.0577
 6174SOL    HW130155   4.463   3.318   2.851 -0.1459  0.9338  1.3086
 6174SOL    HW230156   4.399   3.437   2.783 -0.0887  0.1153 -1.1485
 6175SOL     OW30157   1.385   0.011   1.846 -0.1224 -0.1311 -0.1300
 6175SOL    HW130158   1.411   4.664   1.806  2.4587  0.0707  1.1182
 6175SOL    HW230159   1.366   4.723   1.937  0.8515 -2.0419 -0.4485
 6176SOL     OW30160   0.982   2.889   8.480  0.0597  0.1763  0.1660
 6176SOL    HW130161   1.061   2.853   8.440  1.0816  1.9367  0.6348
 6176SOL    HW230162   0.999   2.868   8.571  3.2811 -3.4067 -1.2866
 6177SOL     OW30163   3.942   3.194  13.688 -0.3021  0.3547 -0.4257
 6177SOL    HW130164   4.031   3.224  13.671 -1.1190  2.0192 -1.7390
 6177SOL    HW230165   3.950   3.140  13.767 -1.8407 -0.3148 -0.7240
 6178SOL     OW30166   0.535   2.115   7.685  0.4037  0.4724  0.2619
 6178SOL    HW130167   0.600   2.094   7.618 -1.8463 -1.1941 -1.4005
 6178SOL    HW230168   0.539   2.210   7.696 -0.9525  0.5417  0.0790
 6179SOL     OW30169   2.608   2.042  17.730  0.2038 -0.0487 -0.0173
 6179SOL    HW130170   2.634   2.063   0.076 -3.3295  0.5258  0.8897
 6179SOL    HW230171   2.528   2.095  17.728  0.8970  0.9572 -1.4696
 6180SOL     OW30172   3.075   4.332   3.330  0.3755  0.2428 -0.3573
 6180SOL    HW130173   3.144   4.394   3.308  1.4730 -0.8758 -0.0982
 6180SOL    HW230174   3.011   4.402   3.317 -0.5000 -1.0516 -2.9839
 6181SOL     OW30175   2.206   3.708  10.934 -0.1833 -0.1479 -0.0475
 6181SOL    HW130176   2.275   3.742  10.991  0.3914  0.9668 -1.4348
 6181SOL    HW230177   2.253   3.648  10.876 -2.1702 -0.0430 -1.7756
 6182SOL     OW30178   4.173   2.440   3.701 -0.1603 -0.0212 -0.2685
 6182SOL    HW130179   4.117   2.367   3.676  0.0746 -0.3824  0.2449
 6182SOL    HW230180   4.118   2.506   3.742  0.4480  1.1528 -1.3174
 6183SOL     OW30181   4.454   1.978   3.231  0.9277 -0.0480  0.1672
 6183SOL    HW130182   4.441   2.059   3.280  1.7335 -1.1421  2.2028
 6183SOL    HW230183   4.386   1.919   3.263 -0.1818  1.6780  1.0043
 6184SOL     OW30184   0.488   3.480   3.560 -0.0532  0.4273 -0.1760
 6184SOL    HW130185   0.447   3.393   3.557  0.2673  0.3633 -2.2181
 6184SOL    HW230186   0.490   3.487   3.656 -0.0355 -1.2016 -0.0447
 6185SOL     OW30187   3.434   3.606  15.738  0.5552  0.0199 -0.2278
 6185SOL    HW130188   3.478   3.616  15.822  2.3686 -1.2240 -1.0099
 6185SOL    HW230189   3.351   3.649  15.755 -0.5213 -1.3579 -2.0007
 6186SOL     OW30190   3.288   0.744  17.659 -0.1327  0.4827 -0.1703
 6186SOL    HW130191   3.369   0.790  17.635  1.7314 -3.3085 -1.1953
 6186SOL    HW230192   3.235   0.762  17.582  1.3875 -0.2069 -1.3887
 6187SOL     OW30193   4.035   0.566   4.325  0.2378  0.6963 -0.2182
 6187SOL    HW130194   3.988   0.649   4.324  2.2430  1.8453  0.2824
 6187SOL    HW230195   3.957   0.511   4.319  0.6586 -0.0175  0.8674
 6188SOL     OW30196   0.106   0.188   3.205 -0.5289  0.2930 -0.7221
 6188SOL    HW130197   0.115   0.093   3.208  0.3237  0.3399 -1.8732
 6188SOL    HW230198   0.187   0.212   3.159 -0.3822  0.3423 -0.4395
 6189SOL     OW30199   0.255   1.646   7.547  0.5546  0.2282  0.0372
 6189SOL    HW130200   0.343   1.656   7.583  0.7852 -0.1062 -0.4389
 6189SOL    HW230201   0.199   1.637   7.625  0.1817  2.5739  0.0600
 6190SOL     OW30202   2.685   0.425   4.627 -0.3965 -0.7818 -0.0549
 6190SOL    HW130203   2.605   0.449   4.673  0.3003  0.2525  0.6140
 6190SOL    HW230204   2.646   0.406   4.542  0.0852  0.9586 -0.6790
 6191SOL     OW30205   3.050   1.744   9.048  0.1444  0.3570  0.1531
 6191SOL    HW130206   2.971   1.752   9.102 -0.9305 -1.2830 -1.1778
 6191SOL    HW230207   3.012   1.758   8.961  0.9056  2.2488  0.1327
 6192SOL     OW30208   1.053   0.235   4.062  0.2373  0.6738 -0.0571
 6192SOL    HW130209   1.036   0.141   4.048  0.0299  0.6629  0.2409
 6192SOL    HW230210   1.083   0.230   4.153 -0.6039 -0.4710  0.1713
 6193SOL     OW30211   0.208   1.259   6.562  0.0253  0.0250  0.1522
 6193SOL    HW130212   0.259   1.181   6.540 -1.8150 -0.8425 -1.0860
 6193SOL    HW230213   0.119   1.248   6.529  0.2950 -0.9692 -0.2468
 6194SOL     OW30214   4.634   0.997   4.979  0.4016 -0.0423  0.0316
 6194SOL    HW130215   4.705   0.935   4.963  1.9645  1.9725 -0.8532
 6194SOL    HW230216   4.628   1.052   4.900  0.5742 -0.0861 -0.0123
 6195SOL     OW30217   2.460   1.063  14.934 -0.0640  0.0717 -0.1202
 6195SOL    HW130218   2.529   1.019  14.984  0.5291  1.7700  0.5566
 6195SOL    HW230219   2.504   1.063  14.849  2.2160 -0.3937  1.0550
 6196SOL     OW30220   0.012   1.251  17.357 -0.2492  0.0431 -0.6042
 6196SOL    HW130221   4.704   1.179  17.312 -0.4191  0.4634 -1.1140
 6196SOL    HW230222   0.072   1.200  17.411  0.1336  1.1853  0.0411
 6197SOL     OW30223   3.531   0.635   3.255  0.4293  0.6002 -0.3501
 6197SOL    HW130224   3.537   0.729   3.241 -1.0212  0.6932 -0.3681
 6197SOL    HW230225   3.438   0.616   3.242  1.0565 -2.3832 -0.5087
 6198SOL     OW30226   1.676   3.538   9.360  0.7216  0.8514 -0.2536
 6198SOL    HW130227   1.656   3.598   9.288 -0.1357 -1.2969 -1.8131
 6198SOL    HW230228   1.663   3.454   9.314  0.2988  1.2412 -0.8524
 6199SOL     OW30229   4.482   3.735   7.904  0.8603 -0.2347 -0.2441
 6199SOL    HW130230   4.430   3.790   7.962 -1.4519 -2.3506 -0.3554
 6199SOL    HW230231   4.477   3.649   7.946  0.0580  0.2581  0.6382
 6200SOL     OW30232   3.466   3.398   5.751 -0.2421 -0.3884 -0.1943
 6200SOL    HW130233   3.472   3.439   5.837  1.3343  0.5280 -0.7436
 6200SOL    HW230234   3.440   3.475   5.701  2.4211  0.2229 -0.6406
 6201SOL     OW30235   1.824   3.247   8.853 -0.1347 -0.5168  0.6358
 6201SOL    HW130236   1.903   3.257   8.800  0.0253  0.9755  1.1769
 6201SOL    HW230237   1.805   3.339   8.869 -0.5575 -0.2172 -1.5684
 6202SOL     OW30238   4.460   2.094   0.539 -0.4108 -0.4601  0.3571
 6202SOL    HW130239   4.424   2.089   0.450 -2.3557 -0.2182  1.1364
 6202SOL    HW230240   4.375   2.116   0.577 -0.8776  0.8342 -1.4659
 6203SOL     OW30241   1.326   4.258  11.807  0.5120  0.0410 -0.2688
 6203SOL    HW130242   1.399   4.209  11.847  0.4340 -1.0265 -1.4106
 6203SOL    HW230243   1.287   4.309  11.878  4.0460  2.1519  0.1597
 6204SOL     OW30244   2.059   3.677   2.218  0.0412  0.2206 -0.1379
 6204SOL    HW130245   2.023   3.735   2.151 -2.0238 -1.3763 -0.4415
 6204SOL    HW230246   2.135   3.644   2.171 -2.7154 -3.3940 -2.1311
 6205SOL     OW30247   4.679   4.648  10.049 -0.1394 -0.0672 -0.0582
 6205SOL    HW130248   4.688   4.720  10.112  1.3934 -0.4205  0.1373
 6205SOL    HW230249   4.618   4.699   9.995  1.7059  1.7105 -0.4802
 6206SOL     OW30250   0.961   2.487   6.671 -0.0001  0.7402  0.0930
 6206SOL    HW130251   1.040   2.530   6.703 -0.3717 -1.0639  3.3617
 6206SOL    HW230252   0.933   2.457   6.757 -0.6419 -1.2591 -0.8171
 6207SOL     OW30253   0.232   1.047  14.398  0.1397 -0.5841  0.6952
 6207SOL    HW130254   0.169   1.118  14.387  0.8232  0.1509  1.5465
 6207SOL    HW230255   0.312   1.096  14.415 -0.7505  0.7851  1.0252
 6208SOL     OW30256   3.034   1.626   5.375  0.5708 -0.2838 -1.2491
 6208SOL    HW130257   3.086   1.582   5.308  1.1667 -1.2374 -0.1574
 6208SOL    HW230258   2.947   1.626   5.334  0.0363 -3.3321 -0.1700
 6209SOL     OW30259   0.794   3.875   8.251  0.5584  0.1550  0.1059
 6209SOL    HW130260   0.702   3.877   8.276  0.3538  1.7826 -0.7352
 6209SOL    HW230261   0.838   3.874   8.336 -0.4959 -1.6568  0.6303
 6210SOL     OW30262   1.462   0.770   9.609  0.4786  0.1406  0.0909
 6210SOL    HW130263   1.475   0.710   9.536  1.5624  0.0393  0.3697
 6210SOL    HW230264   1.529   0.837   9.595  1.6093 -0.5344  2.3222
 6211SOL     OW30265   3.889   0.520  17.327 -0.7521 -0.1039 -0.0493
 6211SOL    HW130266   3.893   0.495  17.235  0.3822 -0.4502  0.0878
 6211SOL    HW230267   3.926   0.608  17.318 -1.6233  0.3937  1.2477
 6212SOL     OW30268   1.453   3.357  15.108  0.0601 -0.2762 -0.2094
 6212SOL    HW130269   1.517   3.396  15.167 -1.8291  0.8392  1.0994
 6212SOL    HW230270   1.397   3.430  15.082  0.1161 -0.1181  0.1168
 6213SOL     OW30271   0.212   1.138   8.156  0.0199  0.1914 -0.1873
 6213SOL    HW130272   0.139   1.088   8.122 -1.8906  1.0496  2.6420
 6213SOL    HW230273   0.180   1.157   8.244 -0.5215  0.0797 -0.3644
 6214SOL     OW30274   2.966   2.695  15.870  0.0843  0.1719  0.0345
 6214SOL    HW130275   2.919   2.685  15.787  1.9362  1.3206 -1.1465
 6214SOL    HW230276   3.053   2.706  15.832  0.8884 -0.9675  1.5752
 6215SOL     OW30277   1.853   4.185   6.907  0.4641  0.1705  0.0796
 6215SOL    HW130278   1.922   4.225   6.853 -0.6525  0.0233 -1.4574
 6215SOL    HW230279   1.892   4.107   6.947 -0.3385  0.5409  1.5908
 6216SOL     OW30280   0.932   4.229  10.322 -0.3542 -0.0360 -0.1911
 6216SOL    HW130281   0.870   4.261  10.256  0.1964 -0.0806 -0.7239
 6216SOL    HW230282   1.017   4.233  10.279  0.7636 -0.0423  1.9925
 6217SOL     OW30283   3.641   3.197  10.507 -0.2016  0.2130  0.1762
 6217SOL    HW130284   3.656   3.281  10.464  1.9632  0.4286  1.3081
 6217SOL    HW230285   3.547   3.197  10.523 -0.3019 -0.7742 -0.3688
 6218SOL     OW30286   4.565   2.984   5.748  0.3092 -0.3141 -0.3617
 6218SOL    HW130287   4.500   2.974   5.817  0.9167  0.9386  0.3972
 6218SOL    HW230288   4.641   3.008   5.802 -0.9448  2.9493 -0.0468
 6219SOL     OW30289   1.519   3.991  15.088 -0.4434  0.4944  0.0412
 6219SOL    HW130290   1.458   3.936  15.136  0.6366 -1.1446 -0.4667
 6219SOL    HW230291   1.580   4.013  15.160  0.9320  1.9864 -1.5636
 6220SOL     OW30292   1.502   0.781   5.943 -0.1071 -0.1324  0.1779
 6220SOL    HW130293   1.513   0.872   5.916  0.0075 -0.5480 -1.1864
 6220SOL    HW230294   1.409   0.764   5.928  0.5608 -1.8328 -2.0897
 6221SOL     OW30295   2.240   1.119   1.491 -0.2976 -0.7356  1.5546
 6221SOL    HW130296   2.239   1.101   1.585  0.8841 -1.1175  1.5047
 6221SOL    HW230297   2.223   1.028   1.466 -2.0172 -0.3464  1.3619
 6222SOL     OW30298   2.858   1.237   7.899  0.3770  0.2534 -0.0783
 6222SOL    HW130299   2.829   1.320   7.938 -0.6207 -0.4708  0.7363
 6222SOL    HW230300   2.849   1.250   7.805  2.1523  0.2698 -0.2571
 6223SOL     OW30301   0.745   4.615  11.417 -0.0197 -0.0904 -0.2537
 6223SOL    HW130302   0.757   4.597  11.510  2.5751  2.5188 -0.0483
 6223SOL    HW230303   0.738   4.710  11.427  3.6437 -0.0951  2.4973
 6224SOL     OW30304   2.137   4.105   8.880  0.6587  0.3846  0.0682
 6224SOL    HW130305   2.077   4.066   8.944 -0.1443  0.8459 -0.3947
 6224SOL    HW230306   2.145   4.195   8.911 -2.0189 -0.2385  2.5869
 6225SOL     OW30307   3.530   1.580   0.832 -0.0828  0.0428 -0.0368
 6225SOL    HW130308   3.459   1.517   0.830 -0.7202  0.7566  0.2813
 6225SOL    HW230309   3.490   1.664   0.807  1.7937  0.7869 -0.5538
 6226SOL     OW30310   0.409   1.672   3.233  0.1044  0.2266 -0.0495
 6226SOL    HW130311   0.385   1.764   3.238  0.5889  0.3865 -0.7697
 6226SOL    HW230312   0.471   1.664   3.161  0.1234  0.5267 -0.0666
 6227SOL     OW30313   3.520   1.175  10.847  0.5873  0.8576 -0.0026
 6227SOL    HW130314   3.545   1.170  10.755  1.1297 -0.3484  0.2216
 6227SOL    HW230315   3.441   1.230  10.847 -0.1295 -0.1705  0.9300
 6228SOL     OW30316   2.948   1.516   9.262 -0.4213  0.6466  0.5581
 6228SOL    HW130317   3.000   1.451   9.214 -2.4865 -0.2368 -0.5031
 6228SOL    HW230318   2.963   1.594   9.209 -0.1224  0.0766 -0.2050
 6229SOL     OW30319   3.670   1.909   3.692  0.0108 -0.4824  0.2566
 6229SOL    HW130320   3.597   1.896   3.630  1.4863  0.1030 -1.5901
 6229SOL    HW230321   3.745   1.928   3.636 -1.0035  1.8851 -0.2771
 6230SOL     OW30322   3.720   0.801   7.343  0.0712  0.1374 -0.0803
 6230SOL    HW130323   3.642   0.745   7.353  0.1570 -0.4495 -2.6949
 6230SOL    HW230324   3.688   0.875   7.395  0.7874  1.3012 -1.2939
 6231SOL     OW30325   1.681   3.836  14.683 -0.3750 -0.6969 -0.8173
 6231SOL    HW130326   1.669   3.884  14.601 -2.0638  0.6167  0.2032
 6231SOL    HW230327   1.725   3.904  14.735 -0.0502 -0.5259 -1.3133
 6232SOL     OW30328   1.486   2.198  12.908 -0.2061 -0.8788  0.0233
 6232SOL    HW130329   1.560   2.220  12.965 -1.5850 -0.1848  1.5243
 6232SOL    HW230330   1.420   2.264  12.928  0.8323  0.0771  0.2789
 6233SOL     OW30331   1.175   2.604   1.796  0.3215 -0.2467 -0.0307
 6233SOL    HW130332   1.087   2.629   1.767  0.6956  0.0870 -0.8769
 6233SOL    HW230333   1.165   2.563   1.882  1.8569  1.4483  0.9518
 6234SOL     OW30334   2.929   4.310   2.419 -0.1435 -0.5675 -0.1417
 6234SOL    HW130335   2.851   4.317   2.475  0.2552  0.8583  0.2218
 6234SOL    HW230336   2.911   4.381   2.358  0.4539  0.8517  1.3421
 6235SOL     OW30337   1.914   0.634   3.570 -0.1162  0.4266  0.2614
 6235SOL    HW130338   1.872   0.553   3.542 -1.1658  0.7217  0.9462
 6235SOL    HW230339   1.880   0.702   3.512 -1.4809 -0.4480  0.0433
 6236SOL     OW30340   3.262   3.835   9.859  0.4001  0.2192 -0.3638
 6236SOL    HW130341   3.226   3.908   9.808 -2.2580 -0.7992  0.0664
 6236SOL    HW230342   3.279   3.886   9.937 -3.0124  0.0591  0.4878
 6237SOL     OW30343   3.980   2.286   7.787  0.3595  0.1321 -0.1536
 6237SOL    HW130344   4.054   2.274   7.847  0.9704  0.2492 -0.8969
 6237SOL    HW230345   3.989   2.203   7.742 -1.7308  0.3518 -0.9522
 6238SOL     OW30346   4.506   2.274  17.296 -0.3494  0.0080  0.2364
 6238SOL    HW130347   4.595   2.249  17.271 -1.2536 -1.8525 -1.1176
 6238SOL    HW230348   4.490   2.210  17.365 -1.2935  1.1945  1.1152
 6239SOL     OW30349   0.138   4.605   4.469  0.0750 -0.0706 -0.4682
 6239SOL    HW130350   0.047   4.601   4.438 -0.2144  0.3238  0.3336
 6239SOL    HW230351   0.167   4.513   4.470 -0.3742 -0.1802  3.5298
 6240SOL     OW30352   0.670   3.539  12.780  0.7504 -0.0757  0.1219
 6240SOL    HW130353   0.687   3.633  12.769  0.4858 -0.1623 -0.9597
 6240SOL    HW230354   0.759   3.506  12.794  1.0008 -0.0007 -1.2844
 6241SOL     OW30355   2.068   1.697  10.063 -0.2034  0.0249 -0.0844
 6241SOL    HW130356   1.991   1.672  10.114 -0.5670  0.2958 -0.5012
 6241SOL    HW230357   2.108   1.610  10.062  0.0801  0.1325  1.9495
 6242SOL     OW30358   3.803   0.551   3.134  0.2627 -0.1851  0.0985
 6242SOL    HW130359   3.776   0.573   3.223 -3.1815 -1.0427 -0.7693
 6242SOL    HW230360   3.887   0.506   3.150  1.1431  0.6468 -2.1546
 6243SOL     OW30361   2.127   2.412   8.148  0.5609 -0.0156 -0.4793
 6243SOL    HW130362   2.040   2.392   8.113  0.0370  2.7116 -0.7487
 6243SOL    HW230363   2.155   2.492   8.103  0.8657 -1.1170 -2.2480
 6244SOL     OW30364   1.571   0.000  16.969  0.2550 -0.3841 -0.1376
 6244SOL    HW130365   1.627   4.659  16.976 -1.7995 -1.6674  1.9669
 6244SOL    HW230366   1.484   4.703  16.949  0.8795 -2.3684  0.4376
 6245SOL     OW30367   4.162   3.242   4.144 -0.2648  0.3890 -0.0019
 6245SOL    HW130368   4.136   3.243   4.052 -1.4606  0.6455  0.3426
 6245SOL    HW230369   4.174   3.334   4.167  2.8095  0.2435 -1.0622
 6246SOL     OW30370   3.856   0.367  17.103  0.1632  0.5856  0.0413
 6246SOL    HW130371   3.855   0.367  17.007  3.4008 -2.6285 -0.0282
 6246SOL    HW230372   3.788   0.303  17.122 -1.8300  2.8945  0.6558
 6247SOL     OW30373   4.712   3.850   2.792 -0.0700  0.2520 -0.0942
 6247SOL    HW130374   4.729   3.810   2.877 -2.4092 -3.2642 -1.2725
 6247SOL    HW230375   4.634   3.904   2.803 -0.4383 -0.1359 -0.8203
 6248SOL     OW30376   2.543   3.950   6.520 -0.8538  1.0245 -0.1441
 6248SOL    HW130377   2.605   4.002   6.571  1.0959 -1.6208  0.1450
 6248SOL    HW230378   2.526   4.017   6.453 -0.3834 -0.9577 -2.2356
 6249SOL     OW30379   2.513   0.724   2.298 -0.3193  0.2149  0.4787
 6249SOL    HW130380   2.471   0.776   2.230 -3.5004 -0.3885  1.9836
 6249SOL    HW230381   2.544   0.648   2.248  1.2601  0.3442  1.2299
 6250SOL     OW30382   1.772   3.473  14.412  0.1529 -0.4503  0.2598
 6250SOL    HW130383   1.744   3.564  14.396  1.8199  0.3568  1.9446
 6250SOL    HW230384   1.828   3.463  14.335 -0.4185 -2.8278  0.1666
 6251SOL     OW30385   3.962   3.184   4.515 -0.5347 -0.5878 -0.2056
 6251SOL    HW130386   4.021   3.254   4.543 -2.0410  0.4326  0.3817
 6251SOL    HW230387   3.884   3.211   4.563  1.2289  0.2363  2.1438
 6252SOL     OW30388   3.216   4.004   3.628  0.2073 -0.2258  0.3847
 6252SOL    HW130389   3.244   4.064   3.698  2.4768 -0.6714 -0.1183
 6252SOL    HW230390   3.153   3.947   3.673 -1.7728  0.1464 -1.9452
 6253SOL     OW30391   4.415   2.712  12.627 -0.0131 -0.5724  1.0093
 6253SOL    HW130392   4.324   2.685  12.639 -0.6843  1.4530  0.3449
 6253SOL    HW230393   4.432   2.677  12.539  2.0537  3.3587 -0.1361
 6254SOL     OW30394   3.797   0.911   2.758 -0.0135  0.1855  0.6519
 6254SOL    HW130395   3.738   0.838   2.772 -2.3532  2.1002  0.7274
 6254SOL    HW230396   3.877   0.864   2.783 -0.1160  1.4817  3.4641
 6255SOL     OW30397   0.054   3.820   6.981 -0.0657  0.0907  0.0704
 6255SOL    HW130398   0.126   3.787   7.035  1.6058  1.6418 -1.1777
 6255SOL    HW230399   0.055   3.746   6.920  0.2571  0.3024 -0.1823
 6256SOL     OW30400   3.292   0.491   3.149 -0.1815 -0.1440  0.0173
 6256SOL    HW130401   3.286   0.414   3.205  2.0723  1.4870  2.5181
 6256SOL    HW230402   3.215   0.541   3.177  0.2309 -0.5688  1.8968
 6257SOL     OW30403   4.458   0.651  11.577 -0.6229  0.5629  0.4829
 6257SOL    HW130404   4.438   0.565  11.615 -1.6832  0.9263  0.7448
 6257SOL    HW230405   4.421   0.713  11.639  1.8691 -1.4858  4.0540
 6258SOL     OW30406   3.980   0.823   1.062 -0.2414  0.0852 -0.3648
 6258SOL    HW130407   3.910   0.885   1.041  0.4535  1.0517  0.2167
 6258SOL    HW230408   4.019   0.826   0.975  3.6286 -1.2267  1.3144
 6259SOL     OW30409   3.402   3.188   1.466  0.3997  0.0110  0.2842
 6259SOL    HW130410   3.495   3.199   1.447  0.9248 -0.5934  2.4796
 6259SOL    HW230411   3.390   3.096   1.444 -0.9567  0.7464 -2.1132
 6260SOL     OW30412   2.121   1.238   7.007  1.0377 -0.4492 -0.0793
 6260SOL    HW130413   2.138   1.175   6.937  1.2415  0.9696 -1.3160
 6260SOL    HW230414   2.053   1.290   6.964  1.3295  1.2594  1.4843
 6261SOL     OW30415   3.186   3.209   0.297 -0.0759 -0.5078 -0.7984
 6261SOL    HW130416   3.277   3.215   0.326 -0.3001 -0.6279 -0.0502
 6261SOL    HW230417   3.158   3.282   0.353  1.6710 -0.5196  0.0904
 6262SOL     OW30418   1.292   2.259   4.791 -0.2676 -0.3413  0.1210
 6262SOL    HW130419   1.220   2.229   4.736  0.9145 -2.4975 -0.2561
 6262SOL    HW230420   1.334   2.175   4.810  0.9143 -0.0973 -1.4560
 6263SOL     OW30421   2.703   2.041  16.960 -0.2544 -0.1170  0.4028
 6263SOL    HW130422   2.621   2.040  16.912 -1.0154  2.6530  1.6136
 6263SOL    HW230423   2.704   2.127  17.003 -0.4178  0.5195 -0.8532
 6264SOL     OW30424   1.978   2.459  13.417  0.2100 -0.0089 -0.3918
 6264SOL    HW130425   1.988   2.544  13.460  0.9800 -0.1375 -0.3228
 6264SOL    HW230426   1.962   2.398  13.488  0.1200  0.9536  0.4201
 6265SOL     OW30427   4.204   3.057   2.093  0.2947 -0.0442  0.2822
 6265SOL    HW130428   4.238   3.116   2.160  2.6842 -0.2834 -0.6925
 6265SOL    HW230429   4.115   3.035   2.119 -0.2125  1.1030 -0.4594
 6266SOL     OW30430   4.093   3.459   7.697 -0.3121 -0.0947  0.3464
 6266SOL    HW130431   4.016   3.414   7.733 -0.1960 -1.3419 -0.9737
 6266SOL    HW230432   4.170   3.416   7.734 -0.0520 -1.4864 -1.8130
 6267SOL     OW30433   1.867   4.654   8.949  0.0400 -0.0241 -0.8263
 6267SOL    HW130434   1.902   4.690   9.030 -1.0443  0.5422 -0.6165
 6267SOL    HW230435   1.778   4.687   8.946 -0.0136 -0.1545 -0.6319
 6268SOL     OW30436   4.502   0.195  13.835 -0.1043  0.1806  0.1848
 6268SOL    HW130437   4.426   0.207  13.779 -0.8668 -1.5888  0.8267
 6268SOL    HW230438   4.571   0.216  13.772 -0.6256  0.1818 -0.3722
 6269SOL     OW30439   2.641   3.329   1.457  0.5628 -0.1728 -0.0549
 6269SOL    HW130440   2.690   3.361   1.381 -1.3380  1.7973 -0.4712
 6269SOL    HW230441   2.691   3.372   1.527 -0.8982 -0.8086  1.3994
 6270SOL     OW30442   2.945   4.114  16.510  0.0085  0.6275 -0.3076
 6270SOL    HW130443   2.900   4.191  16.474  0.1416 -0.0856 -2.0058
 6270SOL    HW230444   2.859   4.082  16.537  1.1845 -1.0210  1.4715
 6271SOL     OW30445   4.306   4.337   7.281 -1.2770 -0.3004 -0.1143
 6271SOL    HW130446   4.390   4.297   7.303 -0.9482  0.2391 -0.3921
 6271SOL    HW230447   4.251   4.284   7.339 -1.3719  0.1067  0.1734
 6272SOL     OW30448   3.933   1.392   2.423 -0.1196  0.4180  0.0900
 6272SOL    HW130449   3.868   1.345   2.475 -0.5683  1.2331  0.2621
 6272SOL    HW230450   3.885   1.468   2.391  0.7416  1.1972  0.6340
 6273SOL     OW30451   4.398   1.618   5.046 -0.2065 -0.2494  0.9146
 6273SOL    HW130452   4.393   1.676   5.122  1.1812  2.3217 -0.9551
 6273SOL    HW230453   4.453   1.667   4.985 -0.7526  1.7722  2.0272
 6274SOL     OW30454   3.261   0.293   3.331 -0.9369 -0.2619  0.0114
 6274SOL    HW130455   3.284   0.204   3.360  1.3011  1.3497  3.1195
 6274SOL    HW230456   3.172   0.285   3.364 -0.8649 -1.2405 -0.0323
 6275SOL     OW30457   1.628   1.789   6.199 -0.4613  0.1070  0.0558
 6275SOL    HW130458   1.599   1.707   6.157  1.0326 -0.2838 -0.2185
 6275SOL    HW230459   1.724   1.788   6.200 -0.4814 -1.2269  0.5808
 6276SOL     OW30460   4.511   4.500   6.125 -0.1699 -0.3248  0.6084
 6276SOL    HW130461   4.491   4.590   6.100 -0.8562 -0.4198  0.8026
 6276SOL    HW230462   4.465   4.460   6.051 -1.2902  1.5821  0.2854
 6277SOL     OW30463   2.968   4.387   2.076 -0.3413 -0.9512  0.6844
 6277SOL    HW130464   3.041   4.430   2.119 -0.3096 -0.2257 -0.1034
 6277SOL    HW230465   3.008   4.356   1.994  0.6432  2.5163 -0.1335
 6278SOL     OW30466   1.158   0.192   7.353 -0.3344 -0.4839 -0.2463
 6278SOL    HW130467   1.082   0.250   7.348 -0.1053 -0.3813 -2.6007
 6278SOL    HW230468   1.201   0.238   7.425 -3.5628  0.4485  1.1055
 6279SOL     OW30469   1.679   3.294   2.599  0.3703  0.1805  0.2810
 6279SOL    HW130470   1.689   3.381   2.559  1.0960  0.3621  0.8576
 6279SOL    HW230471   1.740   3.300   2.672 -1.4353 -0.0831  1.8231
 6280SOL     OW30472   4.198   0.490   5.039 -0.1801  0.0801 -0.2038
 6280SOL    HW130473   4.115   0.485   5.086 -0.0808 -0.4505 -0.0838
 6280SOL    HW230474   4.164   0.476   4.950 -2.0383  1.0605  0.3516
 6281SOL     OW30475   0.588   3.145   2.278  0.6222  0.0544  0.4208
 6281SOL    HW130476   0.549   3.203   2.342  0.1913  0.7908 -0.5039
 6281SOL    HW230477   0.681   3.167   2.283  0.2927  1.7271 -0.9069
 6282SOL     OW30478   0.442   2.127   5.784 -0.2605 -0.3383  0.0371
 6282SOL    HW130479   0.490   2.211   5.785  0.9053 -0.9992 -0.2782
 6282SOL    HW230480   0.501   2.076   5.729  2.0090  2.9244 -0.5574
 6283SOL     OW30481   1.971   2.426   4.426 -0.0022  0.2656 -0.5624
 6283SOL    HW130482   2.067   2.421   4.433 -0.0426  0.9855  0.5709
 6283SOL    HW230483   1.949   2.508   4.471  0.7807 -1.1278  2.3949
 6284SOL     OW30484   0.516   2.617   7.896  0.4794 -0.2601 -0.1643
 6284SOL    HW130485   0.436   2.590   7.852  0.5780  0.1211 -0.5766
 6284SOL    HW230486   0.489   2.700   7.937 -2.8228 -0.3845 -2.0826
 6285SOL     OW30487   0.853   0.959   1.589 -0.1073  0.0240 -0.2453
 6285SOL    HW130488   0.918   0.904   1.633  0.6137 -0.9845 -2.5188
 6285SOL    HW230489   0.843   1.026   1.656 -0.7293  0.1394 -0.4582
 6286SOL     OW30490   0.394   0.720  10.297  0.5903  0.0294 -0.0065
 6286SOL    HW130491   0.418   0.762  10.214  3.7985 -0.7609  0.5163
 6286SOL    HW230492   0.306   0.684  10.282  0.5263 -0.0232  0.5065
 6287SOL     OW30493   2.304   3.939   1.969 -0.5949  0.4289 -0.2941
 6287SOL    HW130494   2.332   3.905   2.054 -0.4683 -0.9557 -0.8941
 6287SOL    HW230495   2.273   4.022   2.005 -0.8111  0.7619 -1.2580
 6288SOL     OW30496   0.783   0.818   9.245 -0.5770 -0.2972 -0.0333
 6288SOL    HW130497   0.788   0.828   9.340 -0.5157  0.0344 -0.0716
 6288SOL    HW230498   0.762   0.725   9.232 -2.6871  0.4155 -1.6474
 6289SOL     OW30499   1.349   0.776   3.128 -0.2799 -0.4089  0.5663
 6289SOL    HW130500   1.427   0.721   3.139 -0.5332 -0.7630  0.6321
 6289SOL    HW230501   1.334   0.773   3.223  0.9403 -2.0187  0.7172
 6290SOL     OW30502   0.324   3.835  15.879  0.7651  0.3887  0.4931
 6290SOL    HW130503   0.278   3.860  15.799  1.3272 -0.7829 -0.2028
 6290SOL    HW230504   0.256   3.847  15.944 -0.5925 -2.1093 -0.4460
 6291SOL     OW30505   0.888   2.305   1.630  0.4079 -0.5152  0.7054
 6291SOL    HW130506   0.964   2.285   1.683  0.9486 -0.6566 -0.1192
 6291SOL    HW230507   0.825   2.296   1.701  0.6884 -0.7840  0.9190
 6292SOL     OW30508   2.868   3.820   9.167  0.3490  0.3309 -0.2159
 6292SOL    HW130509   2.953   3.798   9.205 -0.1507  0.1038  0.7879
 6292SOL    HW230510   2.883   3.906   9.128 -1.8843  0.1513 -1.4763
 6293SOL     OW30511   0.055   2.139   1.705 -0.6727  0.2131 -0.4231
 6293SOL    HW130512   0.144   2.171   1.687 -0.8427  0.2821 -1.1307
 6293SOL    HW230513   0.022   2.193   1.633 -1.5441  2.0569  1.3706
 6294SOL     OW30514   3.451   0.680   4.385  0.3669 -0.3182  0.4116
 6294SOL    HW130515   3.388   0.630   4.334  0.9468 -0.4734 -0.1486
 6294SOL    HW230516   3.436   0.771   4.357 -0.0026 -0.2966  0.6728
 6295SOL     OW30517   0.842   1.177   9.428  0.2650 -0.5120 -0.0449
 6295SOL    HW130518   0.750   1.198   9.440  0.6726  2.0626 -1.3523
 6295SOL    HW230519   0.854   1.214   9.340 -1.3563 -0.8522 -0.4133
 6296SOL     OW30520   1.758   1.665   5.755  0.3866 -0.1545 -0.2063
 6296SOL    HW130521   1.732   1.575   5.775 -0.2864 -0.0816 -0.7300
 6296SOL    HW230522   1.717   1.680   5.670  1.1733  1.3929 -0.3213
 6297SOL     OW30523   0.688   1.329   8.769 -0.0271 -0.1955 -0.5923
 6297SOL    HW130524   0.775   1.371   8.767  0.2501 -0.8031 -1.5311
 6297SOL    HW230525   0.711   1.237   8.775  1.7414  0.2952  0.1972
 6298SOL     OW30526   0.612   1.209   7.034  0.0442  0.2045 -0.1011
 6298SOL    HW130527   0.656   1.278   7.084  1.9489  1.2037 -3.0970
 6298SOL    HW230528   0.682   1.149   7.007 -0.7690 -0.2103 -1.2730
 6299SOL     OW30529   0.404   4.233  11.757 -0.2573 -0.2084  0.0521
 6299SOL    HW130530   0.330   4.192  11.712 -0.9230  0.1465  0.8106
 6299SOL    HW230531   0.447   4.155  11.792 -0.9806  0.6599  2.8722
 6300SOL     OW30532   0.521   0.704   6.867 -0.0553  0.2767 -0.1461
 6300SOL    HW130533   0.490   0.783   6.910  3.2786  0.7532  1.3573
 6300SOL    HW230534   0.532   0.642   6.939 -0.7695 -0.2796 -0.5099
 6301SOL     OW30535   1.361   0.021   3.524  0.1187  0.2236  0.0243
 6301SOL    HW130536   1.361   4.713   3.609  1.2232  2.1079  1.0257
 6301SOL    HW230537   1.331   4.687   3.467 -1.4180 -1.0454  2.3823
 6302SOL     OW30538   0.798   0.703   1.771  0.4768  0.0815 -0.8058
 6302SOL    HW130539   0.874   0.652   1.745  1.5854  1.9842 -1.2508
 6302SOL    HW230540   0.750   0.698   1.688  1.2767 -0.1894 -1.2521
 6303SOL     OW30541   1.857   2.880   8.252  0.3244  0.0489  0.3421
 6303SOL    HW130542   1.827   2.813   8.190  0.5213  1.0721 -0.8478
 6303SOL    HW230543   1.930   2.834   8.294 -1.0535 -0.3948  2.2906
 6304SOL     OW30544   2.535   3.755   6.941 -0.0854 -0.0628  0.1030
 6304SOL    HW130545   2.464   3.782   6.999  0.4190 -0.5464  0.9477
 6304SOL    HW230546   2.616   3.793   6.973 -0.3265  0.3800  0.1798
 6305SOL     OW30547   1.913   0.439   7.715 -0.1473  0.0516  0.3094
 6305SOL    HW130548   1.848   0.424   7.646 -1.4178  0.4392  1.4242
 6305SOL    HW230549   1.980   0.470   7.653 -0.8473  0.6638 -0.1468
 6306SOL     OW30550   1.602   0.045   9.008 -0.5814 -0.1427 -0.1812
 6306SOL    HW130551   1.552   0.098   8.945 -0.5651 -0.2312 -0.2689
 6306SOL    HW230552   1.597   0.092   9.091  1.9657 -0.1041 -0.0473
 6307SOL     OW30553   1.687   3.621   4.340  0.0860 -0.3052  0.4058
 6307SOL    HW130554   1.774   3.584   4.327 -0.5915 -1.0335 -2.1105
 6307SOL    HW230555   1.714   3.701   4.385 -0.2178 -0.1248  0.2677
 6308SOL     OW30556   0.434   0.462  12.648  0.0150  0.2244  0.8896
 6308SOL    HW130557   0.411   0.528  12.713 -0.8140  0.5547  0.2537
 6308SOL    HW230558   0.407   0.495  12.562  0.7345  3.2599  1.8268
 6309SOL     OW30559   0.760   3.720   2.794 -0.0344  0.7676 -0.0429
 6309SOL    HW130560   0.693   3.670   2.843  1.3243  0.9907  2.0382
 6309SOL    HW230561   0.794   3.642   2.752  1.5746  2.7529 -2.3796
 6310SOL     OW30562   4.462   2.108   8.471  0.5833  0.6489  0.1484
 6310SOL    HW130563   4.370   2.134   8.480  0.4937  0.7074 -0.8811
 6310SOL    HW230564   4.472   2.056   8.550  0.1057  0.0699 -0.1668
 6311SOL     OW30565   1.156   3.059   2.932  0.9176  0.7986  0.2839
 6311SOL    HW130566   1.148   3.078   2.839  0.3973  0.4485  0.2651
 6311SOL    HW230567   1.169   3.141   2.980 -1.8349  1.5532 -0.2658
 6312SOL     OW30568   2.526   2.154   4.108 -0.3874  0.2747  0.0790
 6312SOL    HW130569   2.475   2.107   4.042  0.7489  0.0520 -0.6502
 6312SOL    HW230570   2.543   2.083   4.170  0.1869 -0.7078 -1.1944
 6313SOL     OW30571   3.989   4.661   5.991  0.0767 -0.2259 -0.0519
 6313SOL    HW130572   4.064   4.719   6.007  0.7326 -1.3341  0.9197
 6313SOL    HW230573   4.037   4.580   5.973  0.5993  0.2306 -0.7501
 6314SOL     OW30574   3.823   0.730   7.650  0.5791  0.1094  0.3266
 6314SOL    HW130575   3.820   0.644   7.608  1.6686 -0.9230  2.3820
 6314SOL    HW230576   3.884   0.770   7.588  0.4427 -0.7978 -0.3930
 6315SOL     OW30577   1.971   3.893   7.732 -0.5668 -1.2145 -0.1578
 6315SOL    HW130578   1.900   3.869   7.673 -0.2183  1.7336 -1.7742
 6315SOL    HW230579   1.932   3.866   7.816  2.1873  0.2662  1.5759
 6316SOL     OW30580   3.604   3.495   2.692 -0.0861  0.1969 -0.3807
 6316SOL    HW130581   3.683   3.458   2.732 -1.4514 -0.8039  1.3594
 6316SOL    HW230582   3.648   3.574   2.660 -1.1343  1.3323  0.9838
 6317SOL     OW30583   2.358   3.115   3.501  0.6153 -0.0445 -0.1640
 6317SOL    HW130584   2.424   3.048   3.517 -0.0201 -0.9952 -1.5770
 6317SOL    HW230585   2.278   3.064   3.518 -0.8011  1.9072 -0.9659
 6318SOL     OW30586   1.923   3.843   2.426  0.1197 -0.2479 -0.5639
 6318SOL    HW130587   1.988   3.786   2.384  1.1429  0.3159  0.2421
 6318SOL    HW230588   1.842   3.810   2.389  0.5555 -1.1733 -0.7072
 6319SOL     OW30589   3.720   1.424  15.336 -0.5356 -0.0678 -0.1406
 6319SOL    HW130590   3.734   1.442  15.429 -2.1384  1.8122 -0.2658
 6319SOL    HW230591   3.683   1.506  15.304  1.5798  1.8914  2.4524
 6320SOL     OW30592   3.852   4.336   5.109 -0.0490 -0.1817  0.4113
 6320SOL    HW130593   3.794   4.263   5.129  0.4889 -0.6560  0.2615
 6320SOL    HW230594   3.792   4.399   5.069  1.0799  0.2129 -0.6545
 6321SOL     OW30595   0.846   0.629   0.555 -0.8557  0.0749 -0.1127
 6321SOL    HW130596   0.895   0.681   0.491  1.0409 -1.6240 -0.0564
 6321SOL    HW230597   0.906   0.610   0.627  0.5201 -0.8245 -1.4910
 6322SOL     OW30598   2.052   3.841   2.665  0.2084  0.0647  0.1223
 6322SOL    HW130599   1.992   3.849   2.591  0.2836 -3.3962 -0.3272
 6322SOL    HW230600   2.113   3.772   2.637  0.1255 -0.6361  1.6440
 6323SOL     OW30601   1.089   3.515   3.715 -0.5495 -0.0091  0.2253
 6323SOL    HW130602   1.090   3.611   3.717  0.3083 -0.0187  0.2650
 6323SOL    HW230603   1.014   3.501   3.658  0.9248  0.1754 -1.7852
 6324SOL     OW30604   1.517   1.323   4.970 -0.3829  0.7094 -0.6709
 6324SOL    HW130605   1.570   1.328   4.891  1.2911 -0.8796  0.3469
 6324SOL    HW230606   1.524   1.228   4.978 -2.2982  0.7554  1.6034
 6325SOL     OW30607   3.584   3.415   7.303  0.2074 -0.0064 -0.0045
 6325SOL    HW130608   3.528   3.399   7.378 -2.0007  3.0063 -0.9890
 6325SOL    HW230609   3.523   3.444   7.235  1.0312 -0.1866 -0.8266
 6326SOL     OW30610   4.174   0.905   0.633  0.3963  0.4672  0.4379
 6326SOL    HW130611   4.250   0.932   0.685  0.1054 -1.3592  1.8381
 6326SOL    HW230612   4.203   0.849   0.561 -0.8710  0.9784 -0.4775
 6327SOL     OW30613   4.532   4.568   3.310  0.1674  0.0768 -0.1572
 6327SOL    HW130614   4.469   4.565   3.239  0.7273  1.0130 -0.7010
 6327SOL    HW230615   4.465   4.572   3.378  0.4049 -0.6689  0.1200
 6328SOL     OW30616   0.139   0.687   4.471 -0.0195  0.1662  0.2592
 6328SOL    HW130617   0.206   0.740   4.428 -2.0249  1.2213 -1.5522
 6328SOL    HW230618   0.069   0.744   4.500 -0.1435  0.1917 -0.0837
 6329SOL     OW30619   0.485   0.842   8.731  0.4228  0.0556 -0.4329
 6329SOL    HW130620   0.413   0.896   8.764 -0.7024 -0.8301 -1.3908
 6329SOL    HW230621   0.553   0.907   8.745  0.3902  0.2611 -1.2188
 6330SOL     OW30622   2.418   0.532   8.165  0.4455 -0.4729 -0.6049
 6330SOL    HW130623   2.398   0.590   8.091 -1.3409 -0.7991 -0.3867
 6330SOL    HW230624   2.336   0.482   8.167 -0.7803  1.5798  0.9444
 6331SOL     OW30625   0.232   1.243   7.185 -0.1989 -0.4903 -0.1537
 6331SOL    HW130626   0.157   1.215   7.238  0.1985  0.5472  0.9827
 6331SOL    HW230627   0.190   1.289   7.112  0.7815  3.4239  1.7694
 6332SOL     OW30628   4.371   4.237   5.754 -0.0946 -0.4029  0.2227
 6332SOL    HW130629   4.363   4.145   5.779 -0.8923 -1.0189 -2.3666
 6332SOL    HW230630   4.442   4.232   5.690 -1.8868 -0.8182 -1.7369
 6333SOL     OW30631   3.876   0.355  16.297  0.1104  0.5428  0.7460
 6333SOL    HW130632   3.807   0.294  16.271  1.9055 -2.0989  2.2236
 6333SOL    HW230633   3.882   0.418  16.225  1.8409 -1.6670 -1.0327
 6334SOL     OW30634   1.486   3.569   5.936 -0.1471 -0.5549 -0.0840
 6334SOL    HW130635   1.545   3.639   5.908  0.7707 -1.8001 -1.2285
 6334SOL    HW230636   1.409   3.625   5.951 -0.3572 -0.7168 -0.5593
 6335SOL     OW30637   4.240   1.448  12.226  0.2096  0.0186  0.1445
 6335SOL    HW130638   4.211   1.513  12.162 -0.5079  3.9741  4.4891
 6335SOL    HW230639   4.333   1.469  12.225 -0.0256  0.9937 -1.0473
 6336SOL     OW30640   1.694   3.686  11.730 -0.1730  0.0489 -0.2875
 6336SOL    HW130641   1.728   3.600  11.708 -1.8341 -0.6272 -0.2780
 6336SOL    HW230642   1.765   3.715  11.787  1.4843 -1.1044 -1.7928
 6337SOL     OW30643   1.203   3.897   9.185  0.5846  0.0313 -0.0402
 6337SOL    HW130644   1.209   3.825   9.248 -0.3724 -0.0976 -0.1001
 6337SOL    HW230645   1.143   3.866   9.117  0.7446  2.5371 -1.3258
 6338SOL     OW30646   2.218   1.721  16.216  0.1558  0.0693 -0.7182
 6338SOL    HW130647   2.244   1.646  16.269  1.0093  1.5669  0.9970
 6338SOL    HW230648   2.273   1.792  16.250  0.1051  0.3598 -1.2450
 6339SOL     OW30649   2.035   0.707  17.028  0.0589 -0.4964  0.5447
 6339SOL    HW130650   2.107   0.659  16.987 -0.0594 -0.6238  0.4867
 6339SOL    HW230651   2.001   0.758  16.954  0.8794  2.6170  2.3072
 6340SOL     OW30652   1.372   3.362  12.983  0.1833  0.2107  0.0236
 6340SOL    HW130653   1.322   3.391  13.060 -1.6911 -0.2264 -1.0290
 6340SOL    HW230654   1.450   3.416  12.996 -0.4167  0.8963  0.8498
 6341SOL     OW30655   1.737   2.006  10.143  0.6154 -0.4149 -0.4282
 6341SOL    HW130656   1.798   2.029  10.072  0.6265  1.8724  0.3130
 6341SOL    HW230657   1.726   1.914  10.122  0.1991 -0.6033  0.6006
 6342SOL     OW30658   4.205   3.109  15.765  0.0708  0.3186 -0.2621
 6342SOL    HW130659   4.185   3.177  15.829  0.0966  0.2729 -0.2058
 6342SOL    HW230660   4.272   3.065  15.817  0.4861 -2.6252 -3.3519
 6343SOL     OW30661   4.460   1.773  17.579  0.1566  0.0936 -0.0858
 6343SOL    HW130662   4.371   1.742  17.595  0.0945  2.0975  3.4625
 6343SOL    HW230663   4.503   1.704  17.631  0.8203  0.0884 -0.6391
 6344SOL     OW30664   4.732   4.409   3.451  0.9898 -0.4551  0.6325
 6344SOL    HW130665   4.655   4.416   3.507  0.2474 -0.0732 -0.4548
 6344SOL    HW230666   4.694   4.413   3.363 -0.3828 -2.4046  1.1307
 6345SOL     OW30667   1.694   1.828   2.864  0.2480  0.2231  0.2632
 6345SOL    HW130668   1.745   1.810   2.943 -0.8373 -2.4066  0.3618
 6345SOL    HW230669   1.748   1.894   2.819 -0.3525  0.0080 -0.7659
 6346SOL     OW30670   4.158   0.737   6.444  0.4037 -0.1790  0.4554
 6346SOL    HW130671   4.223   0.789   6.397  1.5551 -1.6464  0.4191
 6346SOL    HW230672   4.172   0.780   6.529  1.4025  1.1507 -0.3804
 6347SOL     OW30673   1.212   2.548   6.792  0.0739 -0.1794 -0.1961
 6347SOL    HW130674   1.273   2.614   6.758  0.5446 -1.5660 -2.0519
 6347SOL    HW230675   1.246   2.529   6.879 -0.0474 -0.6701 -0.2522
 6348SOL     OW30676   2.281   0.167   3.515 -0.0636  0.3652 -0.4398
 6348SOL    HW130677   2.307   0.081   3.548 -1.5516 -0.7261 -2.0620
 6348SOL    HW230678   2.358   0.223   3.524  1.2960 -1.6619  0.4270
 6349SOL     OW30679   4.613   1.408   1.651 -0.1457  1.2445 -0.6828
 6349SOL    HW130680   4.547   1.383   1.716 -0.3460  2.9936 -0.2023
 6349SOL    HW230681   4.562   1.427   1.573 -1.5803  0.1806  0.0027
 6350SOL     OW30682   0.986   2.769   5.217  0.3207  0.1676  0.6913
 6350SOL    HW130683   1.047   2.826   5.264  1.3520 -0.1792 -0.2063
 6350SOL    HW230684   1.049   2.706   5.181  1.3515  1.2733  0.5167
 6351SOL     OW30685   1.861   3.125   2.485 -0.3623 -0.1643 -0.0087
 6351SOL    HW130686   1.808   3.201   2.461 -1.5573 -0.2029  2.4801
 6351SOL    HW230687   1.832   3.109   2.575 -1.0249  0.2821 -0.1451
 6352SOL     OW30688   0.889   3.593   3.324 -0.4280  0.0457 -0.4490
 6352SOL    HW130689   0.861   3.670   3.373 -1.7387 -0.9240  0.3164
 6352SOL    HW230690   0.877   3.521   3.386  0.5582 -0.0720 -0.3821
 6353SOL     OW30691   0.818   2.236   8.763  0.0323 -0.4660  0.3638
 6353SOL    HW130692   0.816   2.316   8.816 -1.3682 -1.3894  1.7171
 6353SOL    HW230693   0.876   2.258   8.690 -2.0578  0.8947 -0.8942
 6354SOL     OW30694   3.491   3.376  15.565  0.4798  0.2075 -0.7059
 6354SOL    HW130695   3.482   3.467  15.595 -1.4813  0.7436 -2.8907
 6354SOL    HW230696   3.455   3.381  15.476  1.2927 -2.8515 -1.1877
 6355SOL     OW30697   1.695   2.965  15.634 -0.2473  0.2462 -0.0963
 6355SOL    HW130698   1.616   2.960  15.580 -0.8376  2.7460  0.5460
 6355SOL    HW230699   1.757   2.907  15.588  0.9285  2.1140 -0.8825
 6356SOL     OW30700   1.550   1.135  12.193 -0.2777 -0.2098  0.1191
 6356SOL    HW130701   1.530   1.170  12.106 -0.6192 -0.9735 -0.1061
 6356SOL    HW230702   1.519   1.210  12.243  1.0386  1.3734 -1.4422
 6357SOL     OW30703   0.208   2.242   3.168 -0.3011 -0.3089  0.1212
 6357SOL    HW130704   0.261   2.184   3.113 -0.0528 -0.8056  0.8796
 6357SOL    HW230705   0.122   2.242   3.125 -0.6764  0.8505  0.8733
 6358SOL     OW30706   4.162   3.395   7.435 -0.3505 -0.0062 -0.8801
 6358SOL    HW130707   4.174   3.304   7.463 -0.6346  0.0159 -0.6918
 6358SOL    HW230708   4.108   3.433   7.504 -0.2266 -0.0829 -0.7410
 6359SOL     OW30709   3.384   1.134   0.436  0.4067 -1.0632 -0.0861
 6359SOL    HW130710   3.400   1.160   0.346 -1.5123  0.4225  0.0151
 6359SOL    HW230711   3.406   1.215   0.482  1.5082 -0.7721 -1.1484
 6360SOL     OW30712   1.356   4.475  11.491  0.1441 -0.0506  0.8928
 6360SOL    HW130713   1.370   4.388  11.453  1.7944  0.2553  0.8342
 6360SOL    HW230714   1.276   4.453  11.539 -0.8824  0.2702 -0.6769
 6361SOL     OW30715   0.318   1.576   1.879  0.0979  0.1088 -0.2653
 6361SOL    HW130716   0.263   1.641   1.837  0.7195  0.2502 -0.8594
 6361SOL    HW230717   0.274   1.491   1.882  0.8473 -0.2777 -0.2237
 6362SOL     OW30718   3.478   3.674  16.883 -0.2447  0.2810  0.1390
 6362SOL    HW130719   3.404   3.713  16.836  0.0411  1.2615  0.5129
 6362SOL    HW230720   3.437   3.628  16.957 -0.5701  1.5867  0.7670
 6363SOL     OW30721   4.164   2.850   2.376 -0.1313  0.6197 -0.7001
 6363SOL    HW130722   4.169   2.755   2.388 -0.2052  0.5891 -0.9061
 6363SOL    HW230723   4.085   2.856   2.322  1.2698 -1.0900 -2.9743
 6364SOL     OW30724   0.538   2.811   6.473  0.1947  0.5925  0.4994
 6364SOL    HW130725   0.579   2.871   6.535  0.3600  1.0807 -0.0789
 6364SOL    HW230726   0.492   2.877   6.421  1.9046  2.0844  0.8970
 6365SOL     OW30727   3.602   1.710   6.252 -0.1064 -0.1128 -0.5371
 6365SOL    HW130728   3.537   1.655   6.297  0.5177 -0.8576 -0.5472
 6365SOL    HW230729   3.610   1.800   6.284 -0.5788  0.0375 -0.8376
 6366SOL     OW30730   0.597   2.452  13.868  0.1919  0.5575  0.0469
 6366SOL    HW130731   0.623   2.544  13.871  1.7069  0.1631 -0.9340
 6366SOL    HW230732   0.684   2.419  13.845 -1.9556 -5.5390  0.7005
 6367SOL     OW30733   3.686   0.164  16.202 -0.2196  0.0559 -0.2362
 6367SOL    HW130734   3.722   0.076  16.208  1.8688  0.9287 -0.1179
 6367SOL    HW230735   3.622   0.168  16.273  1.3981 -1.5424  1.2870
 6368SOL     OW30736   3.185   0.798   0.356  0.0863 -0.2920 -0.2892
 6368SOL    HW130737   3.183   0.721   0.299  2.5747  0.3668 -1.2753
 6368SOL    HW230738   3.093   0.800   0.383  0.2461  1.7731  0.1049
 6369SOL     OW30739   2.105   0.267  10.881 -0.0712  0.0424  0.7431
 6369SOL    HW130740   2.050   0.235  10.952 -0.3827  1.8578  1.2951
 6369SOL    HW230741   2.174   0.300  10.938 -0.6334  1.6186  0.5032
 6370SOL     OW30742   2.166   1.322   2.358 -0.0957 -0.7507 -0.1702
 6370SOL    HW130743   2.149   1.412   2.387  0.6616 -1.5066  2.6413
 6370SOL    HW230744   2.078   1.287   2.376 -0.5204  0.4340  0.0584
 6371SOL     OW30745   1.625   4.177  13.901 -0.0899 -0.0740  0.0148
 6371SOL    HW130746   1.655   4.233  13.973  0.6070 -0.0498 -0.2939
 6371SOL    HW230747   1.666   4.097  13.934  1.6915  0.6584 -0.3972
 6372SOL     OW30748   4.539   0.390   8.648  0.1177  0.1316 -0.8749
 6372SOL    HW130749   4.532   0.368   8.741  0.8165 -0.9071 -1.0642
 6372SOL    HW230750   4.634   0.401   8.639  0.4472 -1.0281  1.2331
 6373SOL     OW30751   4.602   4.044  10.442  0.4047 -0.1186  0.5324
 6373SOL    HW130752   4.572   4.054  10.352  0.6293 -0.1759  0.4525
 6373SOL    HW230753   4.634   3.954  10.451  0.1672 -0.3398 -0.8090
 6374SOL     OW30754   1.425   3.811   2.311  0.1052 -0.0802 -0.0107
 6374SOL    HW130755   1.352   3.766   2.354 -0.5194 -0.6595 -1.6691
 6374SOL    HW230756   1.381   3.878   2.258  0.2405 -1.3023 -1.6620
 6375SOL     OW30757   4.189   3.308   6.420 -0.1883  0.5564 -0.9689
 6375SOL    HW130758   4.179   3.404   6.417 -1.0828  0.5329  1.8784
 6375SOL    HW230759   4.175   3.303   6.514 -0.4493  0.5007 -1.0103
 6376SOL     OW30760   0.559   3.217   4.371  0.1220 -0.1838 -0.1791
 6376SOL    HW130761   0.516   3.205   4.286  0.9292 -0.5856 -0.5264
 6376SOL    HW230762   0.632   3.159   4.350 -1.3134 -2.0398 -0.0407
 6377SOL     OW30763   2.038   2.028  11.159  0.9364 -0.1178 -0.7567
 6377SOL    HW130764   2.065   1.940  11.185  0.6769  0.5712  1.8252
 6377SOL    HW230765   2.029   2.003  11.067 -0.1564 -0.7454 -0.4774
 6378SOL     OW30766   0.559   3.495   4.715 -0.3488  0.2050  0.2008
 6378SOL    HW130767   0.579   3.401   4.713  0.6552  0.4678 -1.1523
 6378SOL    HW230768   0.506   3.504   4.795 -1.9168  0.7819 -0.9039
 6379SOL     OW30769   1.107   2.901  16.796 -0.5472  0.2020  0.5939
 6379SOL    HW130770   1.046   2.881  16.725  0.1872  1.0307 -0.2748
 6379SOL    HW230771   1.087   2.821  16.845  1.1034  0.8203  2.3094
 6380SOL     OW30772   4.079   0.092   6.770 -0.3083  0.2265 -0.5451
 6380SOL    HW130773   4.068   0.186   6.761  0.7732  0.5268  1.3909
 6380SOL    HW230774   4.157   0.086   6.715  0.9407  1.6149  1.1096
 6381SOL     OW30775   1.601   0.725   0.008 -0.1381  0.0270 -0.4435
 6381SOL    HW130776   1.621   0.746   0.099  0.3165 -0.9078 -0.3269
 6381SOL    HW230777   1.646   0.641   0.003  0.3749  0.3013 -0.3479
 6382SOL     OW30778   3.701   1.920   9.247  0.1866 -0.4085 -0.8359
 6382SOL    HW130779   3.744   2.004   9.231 -2.2464  0.9768 -0.2287
 6382SOL    HW230780   3.609   1.945   9.237  0.2800 -0.1284 -0.9961
 6383SOL     OW30781   1.955   2.046   1.110 -0.6584  0.7635  0.4005
 6383SOL    HW130782   2.030   2.016   1.060 -2.4179 -0.9484 -1.2187
 6383SOL    HW230783   1.892   1.980   1.080  1.3596 -0.7862 -0.3900
 6384SOL     OW30784   1.197   1.291   6.516 -0.1923  0.1854 -0.0006
 6384SOL    HW130785   1.132   1.278   6.585 -0.4164 -1.4762 -0.5229
 6384SOL    HW230786   1.189   1.204   6.479  1.7223 -0.4364  1.0509
 6385SOL     OW30787   3.163   1.137   9.919  0.0338 -0.5206  0.3287
 6385SOL    HW130788   3.255   1.146   9.896 -0.7770 -0.4480 -2.8280
 6385SOL    HW230789   3.126   1.225   9.922 -0.8073 -0.9136  1.7072
 6386SOL     OW30790   0.983   0.000   8.448 -0.4086 -0.3528  0.1214
 6386SOL    HW130791   1.017   4.659   8.404  2.5614  0.1859  1.4686
 6386SOL    HW230792   1.046   0.012   8.519 -1.7821  0.7099  1.1521
 6387SOL     OW30793   3.042   0.663   2.152 -0.1123 -0.3070  0.5429
 6387SOL    HW130794   3.136   0.645   2.146  0.0816  0.7087  0.6049
 6387SOL    HW230795   3.035   0.755   2.175 -1.3912 -0.7160  1.7747
 6388SOL     OW30796   3.908   2.373   8.225 -0.4016  0.3085  0.4584
 6388SOL    HW130797   3.916   2.419   8.141 -2.5432 -0.2679 -0.0682
 6388SOL    HW230798   3.959   2.296   8.200 -2.3883 -0.4276 -1.3546
 6389SOL     OW30799   0.760   4.268   5.163 -0.1825  0.2255 -0.7690
 6389SOL    HW130800   0.760   4.241   5.071  2.7433 -0.4296 -0.5937
 6389SOL    HW230801   0.760   4.364   5.157  1.5171  0.3245  0.6321
 6390SOL     OW30802   4.396   1.083   3.197  0.3732 -0.0848  0.2054
 6390SOL    HW130803   4.387   0.987   3.198 -0.6557  0.0269  0.8753
 6390SOL    HW230804   4.318   1.113   3.150  1.8444  2.0724 -0.8575
 6391SOL     OW30805   1.950   0.077   9.145  0.0666 -0.4163  0.1607
 6391SOL    HW130806   1.965   0.161   9.101 -1.1136 -1.3547 -2.0554
 6391SOL    HW230807   1.991   0.087   9.231  0.1523 -0.1162  0.0854
 6392SOL     OW30808   1.806   3.572   7.375 -0.2602  0.3025 -0.4857
 6392SOL    HW130809   1.874   3.548   7.438 -0.1261  0.5269 -0.5451
 6392SOL    HW230810   1.770   3.486   7.352 -2.7934  1.5349 -1.1537
 6393SOL     OW30811   2.717   2.084   7.204 -0.3701 -0.2113 -0.0463
 6393SOL    HW130812   2.622   2.070   7.211 -0.5491  0.2271 -1.5259
 6393SOL    HW230813   2.753   1.997   7.221  0.6423  0.3110  0.4888
 6394SOL     OW30814   3.863   3.212   3.699  0.4425 -0.1658  0.4484
 6394SOL    HW130815   3.806   3.282   3.732  2.7378  0.1473  3.8261
 6394SOL    HW230816   3.823   3.206   3.613  2.9273  1.7989 -0.8576
 6395SOL     OW30817   3.226   3.865  13.811 -0.8008 -0.0252  0.4112
 6395SOL    HW130818   3.278   3.794  13.849  2.2251  3.0543  1.9610
 6395SOL    HW230819   3.158   3.879  13.877 -0.1030 -2.2618  1.6210
 6396SOL     OW30820   1.086   1.139  14.470  0.0503  0.4619  0.3548
 6396SOL    HW130821   1.154   1.089  14.424 -0.6152 -0.7894  0.7371
 6396SOL    HW230822   1.137   1.204  14.519 -1.6150  1.8034  0.3096
 6397SOL     OW30823   0.878   3.807   7.174 -0.2750 -0.1251 -0.6407
 6397SOL    HW130824   0.932   3.882   7.200  1.6489 -1.6187 -0.3940
 6397SOL    HW230825   0.803   3.814   7.233 -0.2370  3.8755 -1.0494
 6398SOL     OW30826   1.439   3.130   5.573 -0.3078  0.0821  0.7260
 6398SOL    HW130827   1.463   3.165   5.487  1.7918  0.2657  1.4016
 6398SOL    HW230828   1.489   3.178   5.639  3.1719  0.3171 -2.1090
 6399SOL     OW30829   4.266   4.595  11.319  0.2438 -0.7729 -0.1684
 6399SOL    HW130830   4.205   4.522  11.328  1.5328 -1.8740 -0.3158
 6399SOL    HW230831   4.350   4.550  11.310  0.0542 -1.4077  1.1885
 6400SOL     OW30832   0.818   4.180   2.292  0.2637 -0.3439  0.5544
 6400SOL    HW130833   0.844   4.271   2.277 -1.6495  0.7364  3.8053
 6400SOL    HW230834   0.771   4.169   2.209 -1.8050  1.2041  1.5324
 6401SOL     OW30835   4.173   3.031  17.256 -0.0471 -0.4149 -0.3920
 6401SOL    HW130836   4.111   3.102  17.237  1.2108  1.3301  2.1135
 6401SOL    HW230837   4.185   3.003  17.165  1.2353 -0.2315 -0.2722
 6402SOL     OW30838   4.331   0.278  10.971 -0.1168  0.8706  0.3769
 6402SOL    HW130839   4.330   0.286  11.066 -0.2132  1.4112  0.3279
 6402SOL    HW230840   4.263   0.338  10.940 -1.5834 -0.0334  1.8235
 6403SOL     OW30841   0.878   3.749  14.423 -0.3372 -0.3434 -0.5381
 6403SOL    HW130842   0.855   3.712  14.508 -0.9281 -1.2780 -1.1093
 6403SOL    HW230843   0.802   3.732  14.368  0.0789  1.9860 -1.8172
 6404SOL     OW30844   1.723   2.977   5.533  0.4401 -0.1451 -0.2355
 6404SOL    HW130845   1.636   3.018   5.542 -0.7577 -2.5807 -0.6388
 6404SOL    HW230846   1.720   2.975   5.438 -0.2150  0.0877 -0.2195
 6405SOL     OW30847   1.003   2.149   8.155  0.2121  0.0327 -0.1066
 6405SOL    HW130848   0.936   2.082   8.141  0.0601  0.0788  0.3917
 6405SOL    HW230849   0.954   2.197   8.222 -0.8445  1.0110 -1.5833
 6406SOL     OW30850   1.627   3.222   6.861  0.1212 -0.1191 -0.0379
 6406SOL    HW130851   1.533   3.233   6.877  0.5340  0.1092  2.3336
 6406SOL    HW230852   1.634   3.298   6.803  1.0223  0.3750  0.7176
 6407SOL     OW30853   3.917   4.425   7.194 -0.3405  0.3034  0.3669
 6407SOL    HW130854   3.902   4.514   7.163 -2.3680  0.0647  0.6937
 6407SOL    HW230855   4.013   4.420   7.188 -0.4730 -1.8712  0.2948
 6408SOL     OW30856   4.587   0.220   6.863  0.2807 -0.6658 -0.4793
 6408SOL    HW130857   4.607   0.301   6.816 -0.2576 -1.4090 -1.9853
 6408SOL    HW230858   4.609   0.242   6.954 -0.2792  0.8133 -0.7113
 6409SOL     OW30859   0.663   1.588   4.731  0.4936  0.3265 -0.3260
 6409SOL    HW130860   0.705   1.519   4.680  1.8759  1.4925 -0.7677
 6409SOL    HW230861   0.740   1.640   4.753  0.5953 -1.0838  2.6224
 6410SOL     OW30862   4.568   0.857  12.051 -0.1328  0.0775 -0.2755
 6410SOL    HW130863   4.592   0.929  12.110 -1.4946  0.2580  0.0486
 6410SOL    HW230864   4.477   0.881  12.032 -0.3259 -0.8211 -0.4850
 6411SOL     OW30865   4.612   0.410   8.146 -0.6383  0.0163 -0.4657
 6411SOL    HW130866   4.538   0.363   8.184 -0.7541 -0.1687 -0.9185
 6411SOL    HW230867   4.564   0.491   8.132  1.7854  2.0335  3.0467
 6412SOL     OW30868   2.206   1.783   2.753 -0.2522 -0.0067 -0.7735
 6412SOL    HW130869   2.164   1.859   2.794  1.2420  0.3393  0.0986
 6412SOL    HW230870   2.151   1.705   2.763  0.4586 -0.4508 -0.2918
 6413SOL     OW30871   3.313   1.713  12.637  0.7781 -0.1590 -0.3390
 6413SOL    HW130872   3.405   1.695  12.615  1.2683 -0.3601  1.8719
 6413SOL    HW230873   3.311   1.804  12.610  1.0734 -0.1112 -0.1991
 6414SOL     OW30874   4.726   4.165   6.787 -0.1455 -0.7593 -0.1409
 6414SOL    HW130875   4.640   4.135   6.758 -0.0431 -2.7117  1.6283
 6414SOL    HW230876   0.043   4.097   6.747  1.2354 -0.6809  1.5660
 6415SOL     OW30877   3.541   1.802   8.709  0.5170  0.4583  0.2697
 6415SOL    HW130878   3.603   1.789   8.780  0.1642 -1.5159  0.2155
 6415SOL    HW230879   3.476   1.856   8.754  0.0736  0.4825 -0.3945
 6416SOL     OW30880   0.283   4.694   5.795  0.3564  0.0848 -0.5472
 6416SOL    HW130881   0.188   4.700   5.801  0.2927 -1.7907  0.1698
 6416SOL    HW230882   0.302   4.650   5.878  2.5448  0.0128 -1.0717
 6417SOL     OW30883   2.465   0.640   5.979  0.3896 -0.1100  0.5418
 6417SOL    HW130884   2.442   0.733   5.976 -1.5587 -0.5149  2.9987
 6417SOL    HW230885   2.559   0.643   5.993  0.6457  2.7186 -1.8485
 6418SOL     OW30886   2.396   1.258   9.028  0.1398 -0.6282 -0.1336
 6418SOL    HW130887   2.459   1.242   9.098 -1.0266 -0.9885  0.8394
 6418SOL    HW230888   2.306   1.272   9.058  1.0955 -1.1186  3.0292
 6419SOL     OW30889   4.238   2.388   4.841  0.1350 -0.1395  0.0941
 6419SOL    HW130890   4.174   2.459   4.843  0.1471 -0.0839 -1.1444
 6419SOL    HW230891   4.267   2.386   4.750  0.0365  0.7796  0.0371
 6420SOL     OW30892   3.090   4.567   5.665 -0.0251 -0.1325  0.0602
 6420SOL    HW130893   3.129   4.617   5.593 -0.2382 -1.2877 -0.8442
 6420SOL    HW230894   3.014   4.624   5.676  0.6140 -0.0046  3.8803
 6421SOL     OW30895   3.229   1.038   6.129  0.4636  0.6143  0.5385
 6421SOL    HW130896   3.169   0.981   6.178  0.6061  0.0378  0.0357
 6421SOL    HW230897   3.310   0.995   6.155 -0.6003 -1.8457 -0.1770
 6422SOL     OW30898   1.762   3.049   0.808  0.6140  0.3553 -0.0479
 6422SOL    HW130899   1.774   3.088   0.721  0.8011  1.1788  0.3532
 6422SOL    HW230900   1.830   2.983   0.822 -0.2348 -0.4547  0.2525
 6423SOL     OW30901   2.660   0.877   7.423  0.9794 -0.0495 -0.2508
 6423SOL    HW130902   2.709   0.928   7.359  0.9823 -0.4529 -0.5749
 6423SOL    HW230903   2.642   0.943   7.491  0.0618  0.0661 -0.6056
 6424SOL     OW30904   2.801   1.384   5.489  0.2217 -0.3951 -0.2614
 6424SOL    HW130905   2.717   1.391   5.534  0.6630  0.5549  0.4149
 6424SOL    HW230906   2.822   1.474   5.465 -2.0714  0.1336 -0.2359
 6425SOL     OW30907   1.855   3.576  14.768 -0.1192 -0.1827 -0.1818
 6425SOL    HW130908   1.876   3.662  14.804  0.8492  0.4195 -2.1738
 6425SOL    HW230909   1.760   3.580  14.756 -0.1615 -0.2868  0.1255
 6426SOL     OW30910   0.361   1.101   3.395 -0.4422 -0.7767 -0.2965
 6426SOL    HW130911   0.391   1.010   3.389  1.8328 -0.0333  0.0081
 6426SOL    HW230912   0.308   1.112   3.316  0.3238  0.4202 -0.6283
 6427SOL     OW30913   3.227   3.076   2.203 -0.2097 -0.4296  0.3258
 6427SOL    HW130914   3.282   3.153   2.221 -1.9949  0.9347 -0.0775
 6427SOL    HW230915   3.144   3.104   2.165 -0.5518 -0.3428  1.1394
 6428SOL     OW30916   4.487   3.075   7.629  0.0449 -0.2252  0.2386
 6428SOL    HW130917   4.464   2.986   7.602 -2.3726  1.5807 -3.6745
 6428SOL    HW230918   4.566   3.092   7.578  0.1053 -1.0944  0.0335
 6429SOL     OW30919   3.999   1.210   0.331  0.6192 -0.6944 -0.0616
 6429SOL    HW130920   4.002   1.187   0.238  0.0958  0.2848 -0.3157
 6429SOL    HW230921   3.915   1.254   0.343  1.1211  0.3125 -0.3075
 6430SOL     OW30922   2.346   0.589   5.747  0.3392  0.2265 -0.3877
 6430SOL    HW130923   2.389   0.622   5.826 -1.0076 -0.3646  0.5900
 6430SOL    HW230924   2.347   0.494   5.763 -1.9764  0.1324 -0.8909
 6431SOL     OW30925   3.043   2.047   4.020 -0.3152 -0.4207 -0.5661
 6431SOL    HW130926   2.959   2.019   3.984 -0.4743  0.1489 -0.6380
 6431SOL    HW230927   3.060   2.124   3.966 -0.5992 -1.7096 -2.4874
 6432SOL     OW30928   1.326   1.562   4.005 -0.2536 -0.4454 -0.0520
 6432SOL    HW130929   1.298   1.635   3.948  2.0515  0.2087 -0.3235
 6432SOL    HW230930   1.245   1.511   4.010 -0.6269 -0.0327 -1.6402
 6433SOL     OW30931   3.692   3.656  11.471 -0.0319 -0.1185  0.4542
 6433SOL    HW130932   3.695   3.679  11.564  0.1475  1.4433  0.0567
 6433SOL    HW230933   3.742   3.575  11.459  0.5732  0.3210  0.0228
 6434SOL     OW30934   4.621   2.221   7.509 -0.3248  0.0183  0.1199
 6434SOL    HW130935   4.602   2.216   7.602 -0.0320  0.2877  0.1904
 6434SOL    HW230936   4.579   2.136   7.492  0.9364 -0.8658  1.4004
 6435SOL     OW30937   1.228   0.152   0.444  0.5150  0.1632 -0.3594
 6435SOL    HW130938   1.316   0.123   0.420  0.0427 -2.4029  0.9513
 6435SOL    HW230939   1.196   0.075   0.492  0.3202  0.7836  0.5195
 6436SOL     OW30940   4.585   2.724   2.461 -0.1975  0.3935 -0.6531
 6436SOL    HW130941   4.505   2.702   2.509  0.4715  0.3453  0.4448
 6436SOL    HW230942   4.579   2.668   2.383  1.4181  0.4214 -0.7957
 6437SOL     OW30943   2.467   1.108   1.283 -0.0189 -0.2183  0.8993
 6437SOL    HW130944   2.392   1.097   1.341 -2.2154 -1.5617 -2.2538
 6437SOL    HW230945   2.520   1.170   1.334 -0.9281  0.9908  0.3564
 6438SOL     OW30946   2.398   2.806   2.181 -0.5098  0.5576 -0.4459
 6438SOL    HW130947   2.424   2.767   2.097 -1.2206  0.0161 -0.4170
 6438SOL    HW230948   2.356   2.886   2.150 -0.3077  0.9418  0.3023
 6439SOL     OW30949   3.835   4.086   7.738 -0.1586 -0.0225 -0.2528
 6439SOL    HW130950   3.869   4.106   7.651  1.2873 -2.1724 -0.1980
 6439SOL    HW230951   3.837   4.176   7.771  1.2668  0.0178 -0.4445
 6440SOL     OW30952   1.770   3.658   0.326 -0.1997  0.1199  0.8778
 6440SOL    HW130953   1.791   3.565   0.325 -0.0244  0.1644  0.5962
 6440SOL    HW230954   1.740   3.672   0.237  3.6754  1.9421 -0.1413
 6441SOL     OW30955   3.550   4.469  16.231  0.7919 -0.1299  0.0269
 6441SOL    HW130956   3.536   4.474  16.326  2.3243  0.7647  0.1994
 6441SOL    HW230957   3.567   4.376  16.223  1.2137  0.0551 -1.2469
 6442SOL     OW30958   3.656   2.621   8.656 -0.5079  0.1194  0.1470
 6442SOL    HW130959   3.706   2.697   8.628 -0.9904 -0.7331 -3.0224
 6442SOL    HW230960   3.566   2.655   8.660  0.1143  1.8002 -0.3253
 6443SOL     OW30961   1.189   2.542   4.877  0.5965  0.3824  0.0062
 6443SOL    HW130962   1.210   2.452   4.853 -1.1932 -0.3173  1.0787
 6443SOL    HW230963   1.140   2.565   4.798 -1.3409  2.3017  1.7703
 6444SOL     OW30964   0.497   2.425   4.163  0.3302  0.1573  0.5373
 6444SOL    HW130965   0.547   2.366   4.106  0.7635 -0.4050  1.5057
 6444SOL    HW230966   0.524   2.506   4.121 -1.0159  1.6435  2.5662
 6445SOL     OW30967   0.170   2.230   0.814  0.4257 -0.3285  0.1479
 6445SOL    HW130968   0.103   2.235   0.746  0.6274 -0.0720 -0.0387
 6445SOL    HW230969   0.147   2.297   0.878 -1.6760  0.6448 -1.6105
 6446SOL     OW30970   4.355   2.961   2.515  0.0706 -0.1382 -0.0899
 6446SOL    HW130971   4.295   2.909   2.463 -0.4463  0.6446 -0.2782
 6446SOL    HW230972   4.443   2.941   2.482 -0.4204 -2.6858  0.1712
 6447SOL     OW30973   1.059   3.979   8.770 -0.3151  0.0165  0.4353
 6447SOL    HW130974   1.081   3.899   8.818  2.1031  0.6850  0.4463
 6447SOL    HW230975   1.100   4.042   8.830  2.4213  0.9062 -2.3561
 6448SOL     OW30976   4.150   0.470   7.783 -0.1886 -0.7060  0.0568
 6448SOL    HW130977   4.190   0.550   7.817  1.7376 -1.8048  0.3888
 6448SOL    HW230978   4.088   0.449   7.854  1.2037  0.9969  1.7791
 6449SOL     OW30979   0.741   1.240   9.940 -0.1555  0.3877 -0.1331
 6449SOL    HW130980   0.663   1.252   9.994  2.1076  0.8933  2.9627
 6449SOL    HW230981   0.755   1.145   9.939  3.1415  0.8736  0.6388
 6450SOL     OW30982   0.174   4.310  14.254 -0.9987  0.2358 -0.1476
 6450SOL    HW130983   0.221   4.269  14.181 -0.7692  0.0419  0.1090
 6450SOL    HW230984   0.190   4.402  14.233  0.5633  0.0167  0.0790
 6451SOL     OW30985   0.280   4.517   6.455  0.1515 -0.7140  0.2774
 6451SOL    HW130986   0.248   4.438   6.498 -0.5028 -0.9102 -0.5807
 6451SOL    HW230987   0.250   4.486   6.370 -1.2429  3.6941 -0.8050
 6452SOL     OW30988   2.021   1.288  17.671  0.0582 -0.1379  0.1019
 6452SOL    HW130989   2.008   1.357  17.736 -0.3808  0.1927 -0.3372
 6452SOL    HW230990   1.957   1.314  17.604 -0.5062 -1.0904  0.2731
 6453SOL     OW30991   2.613   1.459   0.674  0.3749 -0.6179 -0.1243
 6453SOL    HW130992   2.604   1.374   0.716  1.6040 -0.3803  0.6479
 6453SOL    HW230993   2.524   1.462   0.639 -0.7059  0.2548  2.6950
 6454SOL     OW30994   0.459   1.768   5.227 -0.1212  0.8338  0.3992
 6454SOL    HW130995   0.406   1.837   5.186 -2.1931  0.3649  2.3653
 6454SOL    HW230996   0.516   1.821   5.283  0.2083 -0.0333  0.8841
 6455SOL     OW30997   3.720   3.201   6.286 -0.1781  0.0670  0.2222
 6455SOL    HW130998   3.737   3.120   6.238  2.4062  2.5206 -2.9861
 6455SOL    HW230999   3.754   3.179   6.373  0.9364  0.6434 -0.0646
 6456SOL     OW31000   3.665   0.302  17.487  0.0738 -0.4935  0.1722
 6456SOL    HW131001   3.736   0.238  17.479  0.2299 -0.4755  1.4000
 6456SOL    HW231002   3.688   0.346  17.569  1.9149  1.2433 -1.2657
 6457SOL     OW31003   3.098   3.577  15.288 -1.1126  0.5906  0.2456
 6457SOL    HW131004   3.119   3.633  15.213 -0.1972  2.3114  1.7927
 6457SOL    HW231005   3.003   3.575  15.296 -1.2778  1.4258 -1.7003
 6458SOL     OW31006   2.135   2.236  12.541  0.9380 -0.5209  0.1273
 6458SOL    HW131007   2.150   2.171  12.610 -0.2897  1.3780  2.1757
 6458SOL    HW231008   2.041   2.227  12.525  0.6061 -1.8872  2.7665
 6459SOL     OW31009   1.744   2.384  10.528  0.2021 -0.0359 -0.2841
 6459SOL    HW131010   1.758   2.334  10.447  0.7708  0.3674 -0.4324
 6459SOL    HW231011   1.828   2.371  10.572  0.6016  1.5434 -0.5681
 6460SOL     OW31012   1.768   4.601  11.617  0.1715 -0.2034  0.2929
 6460SOL    HW131013   1.710   4.530  11.643  0.6071 -0.0447  1.6991
 6460SOL    HW231014   1.707   4.662  11.575  0.2878 -2.4389 -3.1907
 6461SOL     OW31015   3.503   1.605  12.502  0.4625  0.1592 -0.1159
 6461SOL    HW131016   3.432   1.545  12.478  1.2448 -0.8578  0.0764
 6461SOL    HW231017   3.576   1.544  12.492  1.1397  0.7381  1.4083
 6462SOL     OW31018   3.100   0.579   5.933  0.0555  0.0028 -0.0892
 6462SOL    HW131019   3.021   0.605   5.887 -0.3317  0.5039  0.8484
 6462SOL    HW231020   3.067   0.502   5.979 -2.1343  0.6939 -0.5071
 6463SOL     OW31021   3.215   3.001   9.294  0.0814 -0.1171  0.2927
 6463SOL    HW131022   3.297   3.018   9.248  0.2577  0.4108  0.8018
 6463SOL    HW231023   3.215   3.068   9.362 -0.5322  1.0503 -0.8404
 6464SOL     OW31024   3.768   4.628  16.198  0.1773 -0.1061  0.7932
 6464SOL    HW131025   3.835   4.596  16.138 -0.3917 -0.5062  0.3722
 6464SOL    HW231026   3.697   4.565  16.189  0.1213  0.0791 -0.0844
 6465SOL     OW31027   1.895   0.485   6.656  0.1232  0.3775  0.1525
 6465SOL    HW131028   1.902   0.541   6.579 -2.6717  0.9104  0.2947
 6465SOL    HW231029   1.963   0.524   6.711  0.5750  0.4385 -0.4487
 6466SOL     OW31030   1.907   4.242   3.442  0.1046  0.0637 -0.1771
 6466SOL    HW131031   1.883   4.232   3.534  0.0618  0.1213 -0.1820
 6466SOL    HW231032   1.843   4.308   3.416 -0.0537  0.4248  1.1108
 6467SOL     OW31033   0.851   0.635   9.583  0.5743 -0.3171 -0.4464
 6467SOL    HW131034   0.844   0.726   9.553  1.1906  0.1231  0.7331
 6467SOL    HW231035   0.823   0.644   9.674  0.3149  0.0846 -0.5663
 6468SOL     OW31036   2.383   3.874   2.230  0.2546 -0.4336 -0.1742
 6468SOL    HW131037   2.455   3.811   2.233  1.9840  1.5677 -0.0961
 6468SOL    HW231038   2.367   3.903   2.319  2.7506  1.7215 -0.4389
 6469SOL     OW31039   0.143   2.453   5.837  0.8852  0.5810 -0.2231
 6469SOL    HW131040   0.067   2.400   5.860  0.4513  0.7274 -1.2990
 6469SOL    HW231041   0.195   2.458   5.917 -0.7912 -3.3586  1.0888
 6470SOL     OW31042   1.943   0.446   0.727  0.0572 -0.6745  0.4389
 6470SOL    HW131043   1.870   0.389   0.701 -2.3622  2.2986  0.7629
 6470SOL    HW231044   1.954   0.408   0.814  4.2971  1.8886  1.0197
 6471SOL     OW31045   4.210   1.412  11.852 -0.4133  0.7178 -0.1354
 6471SOL    HW131046   4.208   1.494  11.902  1.7389 -0.6886  2.2796
 6471SOL    HW231047   4.116   1.402  11.840 -0.3015 -0.8365  0.3588
 6472SOL     OW31048   3.303   0.100   4.198 -0.3460 -0.2245 -0.4614
 6472SOL    HW131049   3.312   0.182   4.247  0.8702 -2.0735  2.4266
 6472SOL    HW231050   3.298   0.035   4.269 -1.9684  0.4544  0.0552
 6473SOL     OW31051   1.865   4.689  11.847 -0.0800  0.1689  0.1403
 6473SOL    HW131052   1.812   4.680  11.768  0.2807  0.7591 -0.1657
 6473SOL    HW231053   1.814   4.640  11.912  1.0095  1.4542  1.9906
 6474SOL     OW31054   4.511   4.403   3.655 -0.1567  0.0778 -0.2753
 6474SOL    HW131055   4.477   4.483   3.614 -1.0489  0.8762  2.0501
 6474SOL    HW231056   4.427   4.358   3.657  0.2241 -0.6240 -0.2391
 6475SOL     OW31057   3.784   1.007  12.356 -0.4083 -0.4840  0.4123
 6475SOL    HW131058   3.711   1.068  12.351 -0.8049 -1.0099 -0.2271
 6475SOL    HW231059   3.815   1.018  12.266  0.1035  0.3613  0.6917
 6476SOL     OW31060   1.787   4.082  11.911  0.7363  0.1279  0.1514
 6476SOL    HW131061   1.818   4.093  11.821  0.5920  2.6022  0.3976
 6476SOL    HW231062   1.802   3.987  11.918 -2.1161 -0.2192  1.2410
 6477SOL     OW31063   2.050   1.819   4.650  0.4680  0.5160  0.0518
 6477SOL    HW131064   2.125   1.811   4.592 -1.9354 -1.6441 -2.7157
 6477SOL    HW231065   2.013   1.731   4.645  1.1590  0.1726  0.9916
 6478SOL     OW31066   2.537   2.470   4.632 -0.4117 -0.1511  0.0292
 6478SOL    HW131067   2.555   2.516   4.714 -1.3243 -0.3652  0.3391
 6478SOL    HW231068   2.623   2.485   4.591 -0.3138 -0.2871  0.1870
 6479SOL     OW31069   1.102   3.423   2.537 -0.1768 -0.8870 -0.1497
 6479SOL    HW131070   1.068   3.442   2.450 -3.0442  0.6729  1.3196
 6479SOL    HW231071   1.178   3.482   2.540  0.2978 -1.5116  0.3245
 6480SOL     OW31072   0.677   0.819   1.452 -0.5388  0.2286 -0.0213
 6480SOL    HW131073   0.748   0.777   1.403 -1.2580 -1.6201  0.5348
 6480SOL    HW231074   0.727   0.885   1.501  1.5186 -1.6531  0.4217
 6481SOL     OW31075   3.256   1.333   4.893  0.2943 -0.1376 -0.2715
 6481SOL    HW131076   3.225   1.303   4.807  0.5011 -0.5398 -0.2080
 6481SOL    HW231077   3.278   1.423   4.869 -0.2109 -0.2577 -1.1793
 6482SOL     OW31078   3.508   2.265   6.692  0.1199  0.2008 -0.4448
 6482SOL    HW131079   3.462   2.313   6.760  1.9967  0.5884  0.5465
 6482SOL    HW231080   3.569   2.217   6.747  0.3164  0.1729 -0.6885
 6483SOL     OW31081   1.917   4.720  12.162 -0.3452  0.1638  0.6584
 6483SOL    HW131082   1.984   4.656  12.138 -0.4529  0.7767 -1.2821
 6483SOL    HW231083   1.843   4.681  12.115  0.5840  0.0627 -0.7066
 6484SOL     OW31084   0.657   2.211   3.523  0.4056 -0.3039  0.3233
 6484SOL    HW131085   0.650   2.188   3.430  2.3831 -2.3294  0.6826
 6484SOL    HW231086   0.615   2.297   3.531  2.5652  0.8731 -0.7787
 6485SOL     OW31087   0.145   4.032   7.839  0.6916  0.1882  0.9026
 6485SOL    HW131088   0.162   3.937   7.840  0.7095  0.1889  0.7645
 6485SOL    HW231089   0.066   4.028   7.891  0.6145 -0.5865  0.7337
 6486SOL     OW31090   0.405   0.239   2.441  0.3305  0.3267 -0.1790
 6486SOL    HW131091   0.329   0.296   2.448 -0.9443 -0.8092 -4.3797
 6486SOL    HW231092   0.362   0.162   2.403  0.6222  0.1074 -0.0756
 6487SOL     OW31093   2.741   1.068  10.581 -0.0095 -0.2761  0.3082
 6487SOL    HW131094   2.686   1.122  10.524 -1.9362 -2.1442  0.4027
 6487SOL    HW231095   2.752   1.116  10.662 -0.3032  0.1417  0.1034
 6488SOL     OW31096   3.899   2.365   1.025 -0.1728  0.0919  0.0299
 6488SOL    HW131097   3.810   2.360   1.061  0.1153  1.1998  0.9050
 6488SOL    HW231098   3.930   2.427   1.091  1.1233  0.7555 -1.2227
 6489SOL     OW31099   4.443   3.860  13.715 -0.0908 -0.4888 -0.5332
 6489SOL    HW131100   4.471   3.797  13.649 -0.7764  0.1649 -1.4610
 6489SOL    HW231101   4.507   3.844  13.784 -0.2114 -0.0434 -0.3168
 6490SOL     OW31102   2.788   4.256   8.934  0.6557 -0.4825  0.3221
 6490SOL    HW131103   2.794   4.161   8.947 -3.7824 -0.6734  1.0193
 6490SOL    HW231104   2.702   4.268   8.893 -0.0886 -0.7454  1.8120
 6491SOL     OW31105   1.541   1.766   6.723  0.3275 -0.0880 -0.3210
 6491SOL    HW131106   1.447   1.779   6.738  0.1770 -1.8379  0.3241
 6491SOL    HW231107   1.556   1.675   6.698 -0.9137 -0.4673  0.2945
 6492SOL     OW31108   0.574   0.914   3.520 -0.2112  0.0129 -0.8595
 6492SOL    HW131109   0.571   0.988   3.581 -1.4137  0.4911 -1.4934
 6492SOL    HW231110   0.669   0.901   3.525 -0.6504 -2.9485 -0.1210
 6493SOL     OW31111   0.122   3.604  12.975 -0.2793  0.1469  0.2686
 6493SOL    HW131112   0.183   3.665  13.017 -0.8230  0.8945 -0.0333
 6493SOL    HW231113   0.190   3.548  12.938  0.4143  0.8101  0.5226
 6494SOL     OW31114   4.256   1.491  12.831 -0.0743  0.1481 -0.3246
 6494SOL    HW131115   4.203   1.481  12.911  0.3530  0.9310  0.0582
 6494SOL    HW231116   4.209   1.567  12.796 -1.4394 -0.6601 -0.2416
 6495SOL     OW31117   1.310   2.403  13.002 -0.4695 -0.8317 -0.1785
 6495SOL    HW131118   1.352   2.483  12.971  0.2777 -1.6492 -1.2593
 6495SOL    HW231119   1.218   2.419  12.981 -0.5621 -0.8004  0.2614
 6496SOL     OW31120   0.603   3.101   9.379  0.1738 -0.2150  0.0120
 6496SOL    HW131121   0.651   3.106   9.461 -0.1339 -1.3410  0.2547
 6496SOL    HW231122   0.516   3.112   9.418 -0.5285 -3.0876 -0.7819
 6497SOL     OW31123   4.494   1.254   1.872 -0.6642  0.2216 -0.1563
 6497SOL    HW131124   4.399   1.246   1.881 -0.8119  0.2985 -1.5933
 6497SOL    HW231125   4.514   1.333   1.922  2.0895 -0.7747  0.3487
 6498SOL     OW31126   4.238   3.458   3.676  0.1870  0.5048  0.0808
 6498SOL    HW131127   4.217   3.525   3.612 -0.6360  0.9825  0.8432
 6498SOL    HW231128   4.174   3.466   3.748 -0.9235 -2.1228 -0.6369
 6499SOL     OW31129   0.425   3.959   3.039 -0.7786 -0.0218 -0.4186
 6499SOL    HW131130   0.444   4.049   3.013  0.2162  0.1748  0.9906
 6499SOL    HW231131   0.513   3.923   3.025 -0.5375  0.3942  0.0451
 6500SOL     OW31132   1.490   1.163   0.565 -0.2702 -0.4349  0.1409
 6500SOL    HW131133   1.401   1.166   0.600  1.1351  2.6892  3.3752
 6500SOL    HW231134   1.475   1.217   0.487 -0.0445  2.2796  1.9937
 6501SOL     OW31135   0.936   2.242   4.150  0.2849 -0.1965  0.0384
 6501SOL    HW131136   0.858   2.198   4.183  0.5008 -0.0828  0.7066
 6501SOL    HW231137   0.963   2.172   4.091  1.9174  0.9420 -0.5745
 6502SOL     OW31138   0.737   2.196  14.191  0.1748  0.0033 -0.1740
 6502SOL    HW131139   0.825   2.195  14.154  1.4922  0.1091  3.0226
 6502SOL    HW231140   0.697   2.123  14.144 -1.6170 -1.3646  3.5479
 6503SOL     OW31141   0.669   3.012   6.159  0.2592 -0.4248  0.3480
 6503SOL    HW131142   0.695   2.939   6.102 -2.0716 -0.1275 -1.0952
 6503SOL    HW231143   0.758   3.043   6.176  0.6713 -1.7207  0.5386
 6504SOL     OW31144   3.312   3.124   8.642 -0.1119  0.4161  0.1126
 6504SOL    HW131145   3.396   3.132   8.688  0.9015 -1.9723 -1.3526
 6504SOL    HW231146   3.297   3.032   8.661 -0.7950  0.2810 -1.1053
 6505SOL     OW31147   4.017   1.277   2.178  0.2730 -0.0808 -0.3537
 6505SOL    HW131148   3.987   1.323   2.256  2.0386 -0.9199  0.7949
 6505SOL    HW231149   4.035   1.353   2.122 -1.0280 -0.1906 -0.9409
 6506SOL     OW31150   2.586   4.264   9.223  0.1907 -0.1468  0.4474
 6506SOL    HW131151   2.635   4.345   9.206  1.4667 -1.3625 -1.5145
 6506SOL    HW231152   2.632   4.228   9.299  0.2216 -0.4278  0.2959
 6507SOL     OW31153   3.620   4.209   5.421 -0.0023 -0.0989 -0.1788
 6507SOL    HW131154   3.547   4.254   5.463 -1.6756 -1.8368 -1.2255
 6507SOL    HW231155   3.579   4.138   5.372 -0.8338  1.2410 -1.4160
 6508SOL     OW31156   2.398   2.237   3.821 -0.0781  0.1234 -0.2029
 6508SOL    HW131157   2.359   2.321   3.848  1.2848  0.7074 -0.0737
 6508SOL    HW231158   2.354   2.193   3.894  0.0986 -1.5293 -1.0966
 6509SOL     OW31159   4.185   3.213   2.539  0.1915 -0.3439  0.4439
 6509SOL    HW131160   4.215   3.161   2.614 -1.4469 -0.8476  0.7571
 6509SOL    HW231161   4.201   3.300   2.575 -1.8064  0.8674 -1.6445
 6510SOL     OW31162   1.377   1.843   2.219  0.1890 -0.2758  0.4314
 6510SOL    HW131163   1.310   1.785   2.255 -1.6668  1.0029 -0.9632
 6510SOL    HW231164   1.321   1.901   2.168  0.7571 -1.3911 -1.4546
 6511SOL     OW31165   1.490   3.840   8.331 -0.0730 -0.0236  0.0803
 6511SOL    HW131166   1.398   3.863   8.323 -0.4208 -1.6022 -0.5049
 6511SOL    HW231167   1.514   3.812   8.243  1.3559  1.3893  0.0185
 6512SOL     OW31168   4.074   1.945   7.980 -0.4224  0.1856  0.4847
 6512SOL    HW131169   4.038   1.946   8.069  0.3053  0.2266  0.7773
 6512SOL    HW231170   4.112   1.858   7.979 -2.2065 -0.6194  1.7534
 6513SOL     OW31171   3.911   3.122   1.569 -0.2697 -0.5366  0.0005
 6513SOL    HW131172   3.832   3.069   1.570  1.3047 -2.8940 -1.0393
 6513SOL    HW231173   3.915   3.161   1.656  1.3279  0.0390 -0.3283
 6514SOL     OW31174   2.801   4.394   8.249 -0.3220  0.3409 -0.4676
 6514SOL    HW131175   2.804   4.451   8.172 -0.9717 -0.4823 -1.0997
 6514SOL    HW231176   2.721   4.432   8.285 -1.1123 -0.4208 -1.4386
 6515SOL     OW31177   4.329   3.600   3.190  0.1415  0.0156 -0.1988
 6515SOL    HW131178   4.405   3.542   3.185 -0.7802 -1.2142 -0.0734
 6515SOL    HW231179   4.277   3.558   3.121  1.1707 -0.6910 -0.5440
 6516SOL     OW31180   0.540   1.373  11.495 -0.0671  0.1939 -0.1191
 6516SOL    HW131181   0.623   1.337  11.464  0.5479  1.4516  0.0816
 6516SOL    HW231182   0.559   1.459  11.533  0.0460 -0.6354  1.6865
 6517SOL     OW31183   4.248   0.164  12.847 -0.1966  0.4781  0.0738
 6517SOL    HW131184   4.335   0.126  12.856 -0.5788  0.1722  2.4767
 6517SOL    HW231185   4.232   0.174  12.941 -1.8302  1.9501 -0.3704
 6518SOL     OW31186   3.487   2.051   5.444 -0.1350  0.3761 -0.0924
 6518SOL    HW131187   3.502   2.127   5.501  0.0630 -0.5577  1.1044
 6518SOL    HW231188   3.442   1.996   5.508  0.6682 -0.1077  0.0611
 6519SOL     OW31189   3.716   2.266   6.908  0.1409  0.3861 -0.3035
 6519SOL    HW131190   3.776   2.258   6.983 -0.0023 -2.3141 -0.4872
 6519SOL    HW231191   3.685   2.176   6.907 -1.9839  1.1074  0.4048
 6520SOL     OW31192   2.644   0.121   8.803 -0.0663  0.3520 -0.3852
 6520SOL    HW131193   2.572   0.150   8.747  1.6951 -0.8568 -3.2498
 6520SOL    HW231194   2.714   0.169   8.760  1.2565 -2.2856 -1.1736
 6521SOL     OW31195   4.214   2.734  14.439 -0.4210 -0.3646  0.4881
 6521SOL    HW131196   4.127   2.698  14.456  0.3918 -2.4672  0.1833
 6521SOL    HW231197   4.265   2.702  14.513  0.0504  2.2042  1.2861
 6522SOL     OW31198   3.030   2.166   6.237 -0.5944  0.2094 -0.4628
 6522SOL    HW131199   3.019   2.074   6.215  0.4022  0.2483 -1.1080
 6522SOL    HW231200   3.004   2.159   6.329 -0.5128 -1.7254 -0.5887
 6523SOL     OW31201   1.709   2.411   2.460 -0.0588  0.0207 -0.1599
 6523SOL    HW131202   1.786   2.354   2.467  0.0492  0.1992  0.1465
 6523SOL    HW231203   1.666   2.383   2.541 -0.7864 -1.0751 -0.9389
 6524SOL     OW31204   3.111   3.968  16.672  0.0282  0.0057  0.7634
 6524SOL    HW131205   3.057   4.018  16.609 -0.4413  0.9296  1.8964
 6524SOL    HW231206   3.197   4.007  16.685 -0.0513  1.1055 -2.0336
 6525SOL     OW31207   3.948   1.715   1.003 -0.4023  0.1275 -0.4553
 6525SOL    HW131208   4.017   1.651   0.984 -1.4286 -0.5204 -1.9425
 6525SOL    HW231209   3.999   1.789   0.969 -1.1762  1.6254  1.6479
 6526SOL     OW31210   3.031   2.761   2.942 -0.0854 -0.2539 -0.3279
 6526SOL    HW131211   3.012   2.761   2.848 -2.6303 -0.6696  0.1796
 6526SOL    HW231212   3.122   2.788   2.947 -1.3122  2.9755  4.2537
 6527SOL     OW31213   4.203   4.053   7.076  0.1010  0.4802 -0.3866
 6527SOL    HW131214   4.239   4.098   7.153  3.3186  1.5092 -2.5030
 6527SOL    HW231215   4.168   3.978   7.124  1.9156 -1.3144 -1.8882
 6528SOL     OW31216   4.656   0.881   0.550  0.1602  0.5830 -0.0840
 6528SOL    HW131217   4.632   0.896   0.458  0.1903 -1.0936 -0.3717
 6528SOL    HW231218   4.630   0.791   0.566  3.2582 -0.4758 -0.9789
 6529SOL     OW31219   1.437   0.781   2.393 -0.0522 -0.2821 -0.1329
 6529SOL    HW131220   1.432   0.875   2.406  3.1583 -0.3348  1.5865
 6529SOL    HW231221   1.353   0.759   2.354  0.3674 -1.6293 -0.2846
 6530SOL     OW31222   2.832   4.241   0.608 -0.1020  0.2142 -0.1048
 6530SOL    HW131223   2.829   4.336   0.597  1.0168  0.3040  0.3529
 6530SOL    HW231224   2.874   4.236   0.694 -0.8726 -2.6645  0.1094
 6531SOL     OW31225   0.384   0.281   8.174  0.8207 -0.4640 -0.0427
 6531SOL    HW131226   0.389   0.334   8.094  0.6609 -0.3996 -0.0106
 6531SOL    HW231227   0.477   0.257   8.174  1.1325  0.7270  0.6964
 6532SOL     OW31228   2.676   2.983   6.079  0.1099 -0.1399  0.3589
 6532SOL    HW131229   2.603   2.921   6.077 -0.8951  1.0617 -0.2443
 6532SOL    HW231230   2.681   3.008   5.987 -1.8906  0.4724  0.4135
 6533SOL     OW31231   4.509   3.850   7.646  0.3422  0.3993 -0.1454
 6533SOL    HW131232   4.513   3.840   7.741  1.0143 -0.1012 -0.2212
 6533SOL    HW231233   4.424   3.810   7.628  1.5258 -2.1750 -0.0166
 6534SOL     OW31234   0.126   4.734   3.541 -0.1569  0.3351  0.1275
 6534SOL    HW131235   0.194   4.667   3.537  0.8072  1.3323 -0.2302
 6534SOL    HW231236   0.048   4.679   3.535  0.7741 -0.7709 -1.9829
 6535SOL     OW31237   2.754   2.553   2.847  0.0393  0.1314 -0.3207
 6535SOL    HW131238   2.841   2.548   2.807 -0.1694  0.6766 -0.8427
 6535SOL    HW231239   2.718   2.470   2.816  1.2858 -0.8270  0.7759
 6536SOL     OW31240   1.188   1.677   2.344  0.3986 -0.3878  0.0892
 6536SOL    HW131241   1.131   1.603   2.368 -1.6512  0.8662 -0.9356
 6536SOL    HW231242   1.191   1.721   2.428  2.2153  0.5687 -0.4812
 6537SOL     OW31243   2.114   2.180   9.321  1.0674  0.3636 -0.5907
 6537SOL    HW131244   2.060   2.149   9.394  1.6681 -0.2334 -0.3949
 6537SOL    HW231245   2.169   2.104   9.301  0.3531 -0.1133 -0.7445
 6538SOL     OW31246   2.243   2.533   3.077  0.3857  0.0894  0.4655
 6538SOL    HW131247   2.242   2.580   2.994 -0.0086  2.0917  1.6001
 6538SOL    HW231248   2.154   2.557   3.104  0.7972  0.7103  1.2795
 6539SOL     OW31249   4.191   2.574  13.362  0.3123 -0.2555  0.2261
 6539SOL    HW131250   4.156   2.534  13.441  0.9233 -0.3268  0.4638
 6539SOL    HW231251   4.226   2.652  13.404  0.1029  0.2164 -0.4845
 6540SOL     OW31252   1.742   2.974   6.738  0.1671 -0.5163  0.1385
 6540SOL    HW131253   1.671   3.039   6.739 -0.0798 -0.7925  0.9173
 6540SOL    HW231254   1.772   2.993   6.827  1.3815 -0.2571 -0.3231
 6541SOL     OW31255   1.952   1.652   9.359 -0.8276  0.0484 -0.1567
 6541SOL    HW131256   1.974   1.579   9.302  1.9806  0.5842  0.2807
 6541SOL    HW231257   2.026   1.650   9.420 -0.5024 -0.7873 -0.5876
 6542SOL     OW31258   2.241   1.177   5.516  0.4093  0.1110 -0.3883
 6542SOL    HW131259   2.193   1.241   5.570  1.3859  0.0656  0.5419
 6542SOL    HW231260   2.239   1.098   5.570  0.9199 -0.3468 -1.0565
 6543SOL     OW31261   0.838   3.824   5.352  0.5473 -0.5607  0.6125
 6543SOL    HW131262   0.811   3.767   5.424 -1.1519 -0.1717  0.2835
 6543SOL    HW231263   0.807   3.905   5.392  0.6652 -0.2572  0.0837
 6544SOL     OW31264   1.242   3.606  14.559 -0.2708  0.2948  0.0398
 6544SOL    HW131265   1.164   3.554  14.541  0.9489 -1.2305 -0.7961
 6544SOL    HW231266   1.311   3.542  14.581  0.2635  0.2609 -1.7668
 6545SOL     OW31267   0.510   0.242   1.482  0.0184 -0.0044  0.3266
 6545SOL    HW131268   0.580   0.306   1.464  0.8986 -0.7406  1.1391
 6545SOL    HW231269   0.432   0.272   1.436  0.0373 -0.9557 -0.3313
 6546SOL     OW31270   0.432   2.615   8.708 -0.5139  0.0114  0.4494
 6546SOL    HW131271   0.454   2.649   8.795 -2.2966 -0.6730  1.1748
 6546SOL    HW231272   0.339   2.614   8.733 -1.1975  2.1196 -1.9795
 6547SOL     OW31273   3.675   2.068   6.442 -0.1107 -0.4088  0.2614
 6547SOL    HW131274   3.590   2.053   6.484 -0.8464 -1.0753 -1.4769
 6547SOL    HW231275   3.652   2.155   6.409  0.7829 -1.1104 -2.2132
 6548SOL     OW31276   2.826   3.131   5.287  0.3893 -0.0339  0.1518
 6548SOL    HW131277   2.800   3.041   5.266  0.6078 -0.0457 -0.0686
 6548SOL    HW231278   2.828   3.168   5.199  0.8840 -0.4390 -0.0105
 6549SOL     OW31279   4.222   4.314   6.342 -0.4149  0.6617  0.8996
 6549SOL    HW131280   4.181   4.228   6.341 -1.0054  0.9759 -1.5774
 6549SOL    HW231281   4.315   4.289   6.346 -0.0355  1.7105 -1.4759
 6550SOL     OW31282   0.025   2.647   7.252  0.6076 -0.1813 -0.2817
 6550SOL    HW131283   4.679   2.601   7.273 -0.5192  1.5166 -1.0019
 6550SOL    HW231284   0.092   2.586   7.281 -0.2166 -1.0603 -0.2078
 6551SOL     OW31285   2.102   2.664  12.340 -0.3594  0.2442  0.2277
 6551SOL    HW131286   2.070   2.650  12.251 -0.5579  1.2727  0.1403
 6551SOL    HW231287   2.034   2.621  12.392 -0.9467 -0.4553 -1.1355
 6552SOL     OW31288   2.406   2.496  10.327 -0.1654  0.6243  0.0839
 6552SOL    HW131289   2.442   2.484  10.239 -2.1384 -0.1821 -0.6230
 6552SOL    HW231290   2.366   2.582  10.316 -0.2394  0.3861 -1.5682
 6553SOL     OW31291   3.436   1.591   8.343  0.1484 -0.0561 -0.1338
 6553SOL    HW131292   3.498   1.520   8.329  0.6197  0.7640 -2.1620
 6553SOL    HW231293   3.421   1.586   8.438  1.2444 -1.9219 -0.0720
 6554SOL     OW31294   3.876   2.858   8.046  0.3997 -0.6866  0.3101
 6554SOL    HW131295   3.821   2.934   8.027  1.3834  0.2635  1.2087
 6554SOL    HW231296   3.841   2.842   8.134  1.6725  0.8052  1.0971
 6555SOL     OW31297   2.030   0.769   2.583  0.0040  0.4042  0.0683
 6555SOL    HW131298   2.042   0.710   2.509 -1.0947  0.5612 -0.2483
 6555SOL    HW231299   2.062   0.852   2.548 -0.3359  0.1070 -0.9443
 6556SOL     OW31300   3.300   0.196   9.740 -0.2292  0.2608 -0.6287
 6556SOL    HW131301   3.329   0.113   9.779  1.2811 -0.1548 -2.6498
 6556SOL    HW231302   3.363   0.210   9.670 -0.4885  0.1589 -0.8861
 6557SOL     OW31303   0.509   2.541   6.565  0.2429  0.2973 -0.0011
 6557SOL    HW131304   0.519   2.633   6.543 -1.2627  0.7002  0.9972
 6557SOL    HW231305   0.531   2.531   6.658  0.0964  1.2886  0.1447
 6558SOL     OW31306   4.140   0.096   5.200  0.1616 -0.3484  0.1263
 6558SOL    HW131307   4.222   0.083   5.151  1.4008 -0.0048  2.1058
 6558SOL    HW231308   4.085   0.034   5.152 -2.6592  1.3720  1.1672
 6559SOL     OW31309   3.736   0.422   9.277  0.2862  0.0781  0.2096
 6559SOL    HW131310   3.675   0.419   9.203  2.4284 -0.8159 -1.5309
 6559SOL    HW231311   3.790   0.495   9.248  1.0642 -0.8509 -0.6692
 6560SOL     OW31312   4.220   3.111   3.517 -0.2319 -0.0189 -0.0295
 6560SOL    HW131313   4.217   3.147   3.429  2.4522 -3.4316 -1.4970
 6560SOL    HW231314   4.278   3.170   3.565  0.9021 -1.2807  0.1608
 6561SOL     OW31315   3.017   0.369   9.419 -0.0481  0.0560  0.8318
 6561SOL    HW131316   3.090   0.315   9.388 -1.4847 -1.7482  0.5390
 6561SOL    HW231317   2.973   0.408   9.344  0.0135  1.5721  1.5886
 6562SOL     OW31318   1.656   1.321  11.353  0.5050  0.2270  0.1719
 6562SOL    HW131319   1.741   1.281  11.336  0.6535  0.5488  0.1661
 6562SOL    HW231320   1.675   1.388  11.419  0.3638 -0.0535  0.4996
 6563SOL     OW31321   1.329   1.210   3.696 -0.2786 -0.4325  0.3798
 6563SOL    HW131322   1.425   1.210   3.693 -0.1748 -1.3914  3.3228
 6563SOL    HW231323   1.320   1.121   3.730 -0.6059  0.1135  1.7229
 6564SOL     OW31324   2.975   0.978   5.135 -0.1233 -0.6476 -0.6173
 6564SOL    HW131325   2.965   1.054   5.078  0.1162  0.4744  0.8281
 6564SOL    HW231326   3.069   0.969   5.145  0.2013  4.2906  0.8247
 6565SOL     OW31327   2.077   2.118   7.951  0.1300  0.1599 -0.0216
 6565SOL    HW131328   2.153   2.137   8.005  0.4971 -0.0521 -0.4613
 6565SOL    HW231329   2.126   2.105   7.870  2.3520 -0.1811  1.3744
 6566SOL     OW31330   3.225   4.175   5.485  0.0227 -0.2442  0.3227
 6566SOL    HW131331   3.143   4.142   5.522  0.1177 -1.4979 -0.5927
 6566SOL    HW231332   3.216   4.269   5.470 -0.3957 -0.9445 -3.7001
 6567SOL     OW31333   4.265   0.151  13.117  0.0642 -0.2303  0.0945
 6567SOL    HW131334   4.333   0.122  13.177  1.4047  2.2246 -0.2467
 6567SOL    HW231335   4.189   0.111  13.159  1.0198 -2.5974 -0.4495
 6568SOL     OW31336   3.517   2.802   9.555 -0.1191  0.1572 -0.0224
 6568SOL    HW131337   3.578   2.852   9.609 -1.0699  2.4485 -1.0734
 6568SOL    HW231338   3.438   2.830   9.602  0.7737 -0.3747  1.7974
 6569SOL     OW31339   1.791   2.624   2.837 -0.0198  0.2033  0.2526
 6569SOL    HW131340   1.710   2.575   2.857  1.4739 -1.6369  1.8224
 6569SOL    HW231341   1.770   2.654   2.749 -2.7441 -0.1469  0.7656
 6570SOL     OW31342   1.224   4.346  12.512 -0.0096 -0.3967  0.4584
 6570SOL    HW131343   1.220   4.292  12.591  1.1860 -1.9298 -0.5435
 6570SOL    HW231344   1.132   4.368  12.496  0.5392  1.6592  0.0916
 6571SOL     OW31345   0.190   0.475  16.726  0.1839  0.0180  1.0020
 6571SOL    HW131346   0.108   0.425  16.728  0.1006  0.0597 -1.4432
 6571SOL    HW231347   0.213   0.468  16.634 -1.9877 -0.2114  0.4651
 6572SOL     OW31348   4.564   2.870  14.634 -0.4035 -0.3904 -0.4909
 6572SOL    HW131349   4.556   2.926  14.711  1.1360  0.7255 -1.1414
 6572SOL    HW231350   4.520   2.926  14.571  1.9988  1.3883 -0.6081
 6573SOL     OW31351   1.650   2.470   3.295 -0.1136  0.4091 -0.3127
 6573SOL    HW131352   1.665   2.425   3.378 -1.2207 -0.2213 -0.4601
 6573SOL    HW231353   1.725   2.431   3.249 -1.1918 -1.6112 -0.3827
 6574SOL     OW31354   2.734   3.702  16.611  0.6432  0.7667 -0.0017
 6574SOL    HW131355   2.786   3.673  16.537 -0.5295 -1.0586 -0.1107
 6574SOL    HW231356   2.680   3.623  16.615  0.2523  1.0230 -0.2670
 6575SOL     OW31357   2.607   4.735  16.559 -0.0362  0.7746 -0.2327
 6575SOL    HW131358   2.530   4.727  16.503 -0.8940 -0.7638  1.1672
 6575SOL    HW231359   2.573   4.701  16.642 -0.4585 -0.9926 -1.1197
 6576SOL     OW31360   0.354   3.559   1.810 -0.5963  0.3087 -0.4154
 6576SOL    HW131361   0.283   3.498   1.833  0.9416 -1.9397 -1.6475
 6576SOL    HW231362   0.312   3.619   1.749 -1.3924 -1.4152 -1.5776
 6577SOL     OW31363   3.449   0.148   1.263 -0.1507 -0.6071  0.1839
 6577SOL    HW131364   3.443   0.208   1.188 -0.2496  0.5764  1.1399
 6577SOL    HW231365   3.453   0.217   1.330  1.0196 -0.4246 -0.0799
 6578SOL     OW31366   3.166   3.516   1.288 -0.3542  0.0277 -0.1580
 6578SOL    HW131367   3.176   3.479   1.200  1.0993 -1.2974  0.5465
 6578SOL    HW231368   3.254   3.506   1.326 -0.3467  1.8674  0.2744
 6579SOL     OW31369   1.394   4.704   9.480 -1.1554  0.1722 -0.4625
 6579SOL    HW131370   1.399   4.626   9.534 -0.3532  0.6343  0.1327
 6579SOL    HW231371   1.414   0.038   9.543  1.6408 -1.2914  0.2765
 6580SOL     OW31372   3.279   0.595   4.168 -0.4553  0.2007 -0.0361
 6580SOL    HW131373   3.289   0.669   4.108  1.3269 -1.1977 -1.4657
 6580SOL    HW231374   3.192   0.561   4.148 -1.5817  0.3324  4.6384
 6581SOL     OW31375   1.824   4.134   2.437  0.3618 -0.5672  0.2512
 6581SOL    HW131376   1.834   4.134   2.342 -0.3603  1.0232  0.1693
 6581SOL    HW231377   1.833   4.041   2.459  0.8360 -0.4694  0.4603
 6582SOL     OW31378   2.233   3.486   0.766 -0.0559 -0.0331  0.0183
 6582SOL    HW131379   2.211   3.564   0.817  0.4529 -2.0844  3.3268
 6582SOL    HW231380   2.269   3.528   0.688 -0.8983 -0.7411 -0.7656
 6583SOL     OW31381   1.437   0.362   0.240 -0.1060  0.3586 -0.6548
 6583SOL    HW131382   1.447   0.307   0.162  1.7099  0.7418 -0.6862
 6583SOL    HW231383   1.342   0.362   0.254 -0.3016  0.8579 -1.9676
 6584SOL     OW31384   3.727   1.185   0.207  0.3280  0.3386 -0.9690
 6584SOL    HW131385   3.720   1.139   0.123 -0.5805 -1.0531 -0.1358
 6584SOL    HW231386   3.663   1.255   0.218 -1.4404 -1.5128  0.5346
 6585SOL     OW31387   4.340   2.635   6.938 -0.1916 -0.9170 -0.6188
 6585SOL    HW131388   4.248   2.642   6.914 -0.2289 -0.3917 -0.3162
 6585SOL    HW231389   4.347   2.660   7.030  1.1665 -0.8384 -0.7455
 6586SOL     OW31390   0.370   3.165   9.519  0.3299  0.4178 -0.1898
 6586SOL    HW131391   0.338   3.239   9.569  2.1640  0.7746  0.4691
 6586SOL    HW231392   0.319   3.095   9.559  0.5296  0.5699  0.3359
 6587SOL     OW31393   4.313   3.799  11.997  0.1722 -0.6751  0.6991
 6587SOL    HW131394   4.332   3.889  12.025 -0.8843 -0.5905  1.1323
 6587SOL    HW231395   4.231   3.790  12.046  0.4758 -0.1154  1.3172
 6588SOL     OW31396   4.347   1.236  14.771 -0.1726 -0.0114  0.9002
 6588SOL    HW131397   4.371   1.326  14.748  0.1503  0.8924  4.8807
 6588SOL    HW231398   4.426   1.184  14.753 -0.1728  0.2325  0.1992
 6589SOL     OW31399   4.579   2.331   5.486  0.0779 -0.5201 -0.4567
 6589SOL    HW131400   4.577   2.276   5.565  0.9094 -0.6529 -0.5282
 6589SOL    HW231401   4.645   2.398   5.507 -0.3706 -0.2374  0.0423
 6590SOL     OW31402   2.635   0.141   7.416  0.6203  0.5572 -0.4959
 6590SOL    HW131403   2.612   0.156   7.508 -1.4317 -0.8110 -0.7912
 6590SOL    HW231404   2.589   0.213   7.373 -0.3699  0.9029  1.1313
 6591SOL     OW31405   4.384   2.452  11.308 -0.0436 -0.6083  0.3010
 6591SOL    HW131406   4.419   2.401  11.381  1.7899 -2.2906 -1.7415
 6591SOL    HW231407   4.324   2.505  11.360 -2.4568 -2.3632 -0.6914
 6592SOL     OW31408   2.549   3.611  15.959  0.3196 -0.1907  0.1446
 6592SOL    HW131409   2.547   3.527  16.005 -1.5687  1.1524  2.4730
 6592SOL    HW231410   2.475   3.657  15.998 -0.3758 -0.7195 -0.5415
 6593SOL     OW31411   2.152   3.082   7.494 -0.1757  0.2261 -0.3900
 6593SOL    HW131412   2.057   3.070   7.491  0.1388 -3.0284  2.4420
 6593SOL    HW231413   2.186   3.044   7.414  0.9549 -0.4683  0.4210
 6594SOL     OW31414   3.113   0.611   8.438  0.0280  0.3142 -0.1942
 6594SOL    HW131415   3.173   0.677   8.472  0.0672  0.2199 -0.0752
 6594SOL    HW231416   3.181   0.544   8.432 -0.8552 -0.5601 -0.4647
 6595SOL     OW31417   0.520   1.341   3.450  0.8727  0.4887  0.7538
 6595SOL    HW131418   0.576   1.282   3.401  0.3636 -0.9297  1.8878
 6595SOL    HW231419   0.440   1.289   3.450  1.7469 -0.8503 -0.7936
 6596SOL     OW31420   3.355   1.359  10.643 -0.0092 -0.3381  0.2538
 6596SOL    HW131421   3.310   1.337  10.562 -0.7066 -0.0590  0.5656
 6596SOL    HW231422   3.436   1.401  10.611  0.3249 -1.5427 -0.4959
 6597SOL     OW31423   3.573   2.716   2.009 -0.2040  0.1178  0.5215
 6597SOL    HW131424   3.546   2.762   2.088  0.3207 -0.1045  0.8251
 6597SOL    HW231425   3.510   2.645   2.024  0.3129  0.3003  3.3759
 6598SOL     OW31426   3.751   1.449   6.420 -0.0203 -0.0657  0.1122
 6598SOL    HW131427   3.794   1.448   6.505  1.7114  0.4272 -0.7584
 6598SOL    HW231428   3.801   1.514   6.371 -0.8820  1.2694  1.0033
 6599SOL     OW31429   1.618   0.290  17.482 -0.8060  0.5925 -0.6327
 6599SOL    HW131430   1.528   0.265  17.460 -1.1031 -0.0711  1.3826
 6599SOL    HW231431   1.614   0.383  17.459 -2.9774  0.4855 -0.7279
 6600SOL     OW31432   3.684   2.717  14.551 -0.4436  0.0482  0.0781
 6600SOL    HW131433   3.711   2.713  14.459  0.9633  0.2559  0.4711
 6600SOL    HW231434   3.597   2.681  14.536 -0.8396  0.9534  0.2423
 6601SOL     OW31435   3.984   1.838   8.983 -0.1514  0.0499 -0.0036
 6601SOL    HW131436   4.015   1.901   9.048  0.8739  0.9555 -1.3730
 6601SOL    HW231437   4.046   1.766   8.994 -1.7148 -1.5429 -1.6547
 6602SOL     OW31438   0.686   0.702  10.343  0.4583 -0.1305  0.4806
 6602SOL    HW131439   0.593   0.713  10.364  0.8734 -1.9618  3.3611
 6602SOL    HW231440   0.719   0.666  10.426  0.5228 -1.8924 -0.3126
 6603SOL     OW31441   2.318   0.950   7.290 -0.4023  0.0608  0.0878
 6603SOL    HW131442   2.338   0.917   7.202  2.9191  0.4194  0.7268
 6603SOL    HW231443   2.237   1.000   7.277  0.5940  1.4561 -0.8058
 6604SOL     OW31444   1.094   2.094   2.596 -0.3227  0.4354  0.3483
 6604SOL    HW131445   1.044   2.104   2.677 -1.2750 -0.0603 -0.1826
 6604SOL    HW231446   1.170   2.143   2.626 -0.8628  1.6028 -0.1991
 6605SOL     OW31447   4.630   3.229   4.074 -0.2463 -0.6244 -0.2858
 6605SOL    HW131448   4.658   3.311   4.115  0.5360 -1.2089  0.3555
 6605SOL    HW231449   4.622   3.176   4.153  0.6781 -1.2759 -0.6356
 6606SOL     OW31450   2.126   4.019   8.234  0.2857  0.2325 -0.1884
 6606SOL    HW131451   2.196   3.967   8.194 -2.0906 -1.7484 -1.7776
 6606SOL    HW231452   2.086   3.948   8.284  0.4892 -0.4395 -0.9714
 6607SOL     OW31453   4.216   3.624  10.272  0.1315 -0.2873  0.2558
 6607SOL    HW131454   4.284   3.557  10.271  0.6366  0.2030  1.3212
 6607SOL    HW231455   4.267   3.703  10.290 -2.8105  1.1017  2.4354
 6608SOL     OW31456   3.798   1.181   1.128  0.2900  0.1800  0.0311
 6608SOL    HW131457   3.795   1.224   1.214 -0.1689  0.6270 -0.2106
 6608SOL    HW231458   3.875   1.221   1.086 -1.1706  1.8698 -1.0476
 6609SOL     OW31459   0.470   2.918   2.215 -0.1534  0.3204 -0.4887
 6609SOL    HW131460   0.516   3.001   2.226 -0.6996  0.2317  2.3754
 6609SOL    HW231461   0.379   2.940   2.193 -0.2901 -0.9225 -1.1885
 6610SOL     OW31462   4.505   1.615   0.763  0.1903 -0.1183  0.3437
 6610SOL    HW131463   4.500   1.536   0.709  1.3284 -0.3241  0.5272
 6610SOL    HW231464   4.595   1.614   0.796 -0.3291  1.0637  1.7737
 6611SOL     OW31465   4.498   0.518  11.111 -0.2077 -0.0462 -0.7852
 6611SOL    HW131466   4.573   0.531  11.169  0.7153  0.4441 -2.0725
 6611SOL    HW231467   4.529   0.438  11.068  0.3101  0.4181 -1.2665
 6612SOL     OW31468   3.180   1.407   6.384 -0.1461  0.9641 -0.2089
 6612SOL    HW131469   3.119   1.480   6.392 -1.9441 -0.3689 -1.6889
 6612SOL    HW231470   3.123   1.337   6.352 -0.1070  0.1469  1.5769
 6613SOL     OW31471   0.895   2.756   7.298 -0.0792 -0.2184  0.0295
 6613SOL    HW131472   0.819   2.779   7.352  0.8108  1.3658  0.6000
 6613SOL    HW231473   0.904   2.666   7.328  1.3344  0.3515  1.3455
 6614SOL     OW31474   4.677   4.510  10.656  0.1205  0.6027 -0.1988
 6614SOL    HW131475   4.735   4.435  10.662  1.3582  1.4484 -1.5710
 6614SOL    HW231476   4.596   4.478  10.695  0.4952 -0.4013 -0.2482
 6615SOL     OW31477   3.899   4.221   4.845  0.5968  0.0691  0.1991
 6615SOL    HW131478   3.898   4.127   4.830  0.0512 -0.1560  1.5959
 6615SOL    HW231479   3.963   4.220   4.917  1.1030  2.3834 -0.2059
 6616SOL     OW31480   3.422   1.566  15.461 -0.9831  0.5024  0.0569
 6616SOL    HW131481   3.455   1.620  15.389 -1.2341  0.1559 -0.3109
 6616SOL    HW231482   3.349   1.517  15.425  0.3405  0.0437 -1.9461
 6617SOL     OW31483   0.653   1.717   0.930 -0.1365  0.0888  0.6875
 6617SOL    HW131484   0.588   1.781   0.960  1.4169  1.6654  0.6439
 6617SOL    HW231485   0.628   1.646   0.989  0.3484 -0.5383  0.1345
 6618SOL     OW31486   0.208   4.125  15.592 -0.4813  0.0959 -0.1034
 6618SOL    HW131487   0.199   4.051  15.652  0.6613 -0.0889 -0.1603
 6618SOL    HW231488   0.128   4.171  15.617 -1.0868 -1.0206  0.0192
 6619SOL     OW31489   2.492   2.785   7.997  0.2342 -0.0076 -0.2008
 6619SOL    HW131490   2.505   2.851   7.929 -0.4761  0.9872  0.6214
 6619SOL    HW231491   2.549   2.713   7.970  0.6711  0.0491  0.5655
 6620SOL     OW31492   4.416   3.034   7.984  0.4175 -0.0461  0.1716
 6620SOL    HW131493   4.328   2.999   7.967  0.3595 -0.2929  1.0012
 6620SOL    HW231494   4.403   3.128   7.980 -0.3096 -0.1082  1.0214
 6621SOL     OW31495   1.631   4.419   4.258  0.1522  0.2899  0.2067
 6621SOL    HW131496   1.626   4.514   4.246  1.1626  0.1862 -0.9246
 6621SOL    HW231497   1.594   4.391   4.175 -0.0447  0.6816  0.1641
 6622SOL     OW31498   0.247   4.507   9.399 -0.0016  0.3855 -0.9039
 6622SOL    HW131499   0.185   4.434   9.400 -0.2412  0.5759 -1.6812
 6622SOL    HW231500   0.326   4.456   9.384 -1.4303 -2.4072  1.0386
 6623SOL     OW31501   2.974   2.273  12.307 -0.5642  0.2473  0.5837
 6623SOL    HW131502   2.886   2.301  12.333 -1.7739  0.0051 -3.2419
 6623SOL    HW231503   2.992   2.353  12.257 -0.6612 -0.0634  0.0655
 6624SOL     OW31504   1.068   1.404   4.024 -0.2825  0.5000 -0.1935
 6624SOL    HW131505   1.073   1.370   3.934 -2.0978  2.3512 -0.9934
 6624SOL    HW231506   0.976   1.385   4.042  0.5608 -2.1013  1.3070
 6625SOL     OW31507   2.916   3.730   9.642  0.5356  0.0348  0.2751
 6625SOL    HW131508   2.878   3.653   9.685  1.7743  0.1887  1.6649
 6625SOL    HW231509   2.971   3.694   9.572 -0.4694  2.0215 -1.5230
 6626SOL     OW31510   0.719   0.154  11.478  0.4847 -0.0350  0.1370
 6626SOL    HW131511   0.632   0.129  11.447  2.2155 -2.9267 -2.4281
 6626SOL    HW231512   0.721   0.240  11.436 -2.8546  0.5074  1.0801
 6627SOL     OW31513   3.878   4.539   3.611  0.8167 -0.6735  0.4783
 6627SOL    HW131514   3.784   4.523   3.603  0.7338 -0.8239  1.6857
 6627SOL    HW231515   3.889   4.606   3.679  0.3464  0.4747 -0.5732
 6628SOL     OW31516   4.359   3.030   7.007 -0.3709 -0.0294 -0.0084
 6628SOL    HW131517   4.287   3.026   6.945 -1.0785  0.2134  0.8080
 6628SOL    HW231518   4.313   3.031   7.090 -1.0575  0.0686 -0.3867
 6629SOL     OW31519   3.018   2.930   9.097  0.7973 -0.2649 -0.2287
 6629SOL    HW131520   2.956   2.989   9.140  0.0376 -1.5486  0.4466
 6629SOL    HW231521   3.094   2.925   9.154 -0.3375  1.6921  1.4435
 6630SOL     OW31522   2.727   3.977   8.951  0.1105 -0.4835 -0.4060
 6630SOL    HW131523   2.679   3.907   8.997 -1.5243  0.9208  0.0096
 6630SOL    HW231524   2.777   3.925   8.889  1.3272 -1.2052  1.1702
 6631SOL     OW31525   2.588   3.781   6.263  0.0334 -0.5291  0.2380
 6631SOL    HW131526   2.548   3.778   6.350  0.7850 -0.3023  0.5897
 6631SOL    HW231527   2.672   3.818   6.291 -1.4253  1.9419  1.4339
 6632SOL     OW31528   4.212   0.841   2.386 -0.4273 -0.0502  0.0314
 6632SOL    HW131529   4.293   0.866   2.343 -0.2875 -1.1931 -0.3779
 6632SOL    HW231530   4.173   0.785   2.319 -3.0247  0.5671  1.0464
 6633SOL     OW31531   1.852   1.461   6.673  0.0647 -0.2121  0.1939
 6633SOL    HW131532   1.882   1.548   6.645  1.1763 -1.2078 -1.7330
 6633SOL    HW231533   1.900   1.446   6.755 -1.3605 -0.4853  0.9790
 6634SOL     OW31534   0.891   0.363  11.605 -0.0040 -0.1466 -0.2043
 6634SOL    HW131535   0.822   0.347  11.540 -0.4545  1.9891 -0.2545
 6634SOL    HW231536   0.861   0.441  11.652 -0.0961  0.0511 -0.5899
 6635SOL     OW31537   4.478   1.334   1.426  0.2176  0.5429  0.1690
 6635SOL    HW131538   4.417   1.280   1.476 -1.5634  0.5866 -1.9789
 6635SOL    HW231539   4.423   1.367   1.356 -0.5591 -1.3468 -0.1112
 6636SOL     OW31540   3.558   2.787   4.839 -0.5901  0.4111 -0.7820
 6636SOL    HW131541   3.488   2.745   4.888  0.4717 -0.1913  0.2298
 6636SOL    HW231542   3.573   2.855   4.906  3.0910  0.0917 -1.2660
 6637SOL     OW31543   0.034   2.637   0.530 -0.4638  0.2321 -0.2172
 6637SOL    HW131544   0.046   2.653   0.436 -0.3738  3.2645  0.2858
 6637SOL    HW231545   0.018   2.543   0.523 -3.4843  0.8876 -1.9562
 6638SOL     OW31546   4.226   4.517   3.437  0.2502 -0.4355 -0.0930
 6638SOL    HW131547   4.263   4.441   3.392  1.8994 -0.0384  0.5893
 6638SOL    HW231548   4.135   4.512   3.408  0.0864  1.5951  0.0669
 6639SOL     OW31549   4.616   1.185   3.100  0.5037  0.1383 -0.6872
 6639SOL    HW131550   4.553   1.139   3.154  1.4639  0.8780  1.0457
 6639SOL    HW231551   4.559   1.234   3.040 -1.3589 -1.8992 -0.5359
 6640SOL     OW31552   0.408   3.192   8.160  0.6920  0.3882  0.2163
 6640SOL    HW131553   0.400   3.127   8.229 -0.2559 -2.2051 -2.3670
 6640SOL    HW231554   0.445   3.260   8.217 -0.4792  0.7737  0.5081
 6641SOL     OW31555   2.552   1.724   8.404 -0.9511  0.2558 -0.3443
 6641SOL    HW131556   2.463   1.694   8.389 -1.2123  0.8837 -0.0507
 6641SOL    HW231557   2.547   1.775   8.484  2.5233 -1.0627  0.7240
 6642SOL     OW31558   1.389   4.401   7.572 -0.6182 -0.0981  0.0952
 6642SOL    HW131559   1.295   4.420   7.582 -0.3551 -0.0083  2.3848
 6642SOL    HW231560   1.421   4.487   7.599  2.1304 -1.2318  0.4253
 6643SOL     OW31561   4.439   4.129   6.707  0.6168  0.3779 -0.3679
 6643SOL    HW131562   4.380   4.055   6.695 -0.8583  1.2402  1.4604
 6643SOL    HW231563   4.382   4.204   6.726 -0.0600 -0.1308 -0.4184
 6644SOL     OW31564   4.670   1.831   9.460 -0.0620 -0.4487 -0.0572
 6644SOL    HW131565   0.002   1.892   9.487  1.5237 -2.3274  0.2082
 6644SOL    HW231566   4.730   1.756   9.460  1.8802  1.1162 -0.3316
 6645SOL     OW31567   2.744   1.833   7.287 -0.3771 -0.0928  0.2349
 6645SOL    HW131568   2.657   1.840   7.324  0.1185  0.4807  1.2912
 6645SOL    HW231569   2.790   1.796   7.362  0.4918  0.2262 -0.1391
 6646SOL     OW31570   4.187   1.786   7.329  0.5719  0.8543  0.4082
 6646SOL    HW131571   4.178   1.805   7.235 -0.3402 -3.2595 -0.3453
 6646SOL    HW231572   4.094   1.776   7.350  0.2731  1.5403 -0.5548
 6647SOL     OW31573   0.098   3.754  10.760 -0.3200 -0.0335 -0.5595
 6647SOL    HW131574   0.120   3.808  10.684  2.8089 -0.3286  0.1282
 6647SOL    HW231575   0.098   3.662  10.735 -1.0974 -0.5638  1.4191
 6648SOL     OW31576   1.407   2.617  12.861 -0.0781  0.2914 -0.1762
 6648SOL    HW131577   1.377   2.706  12.879 -3.1508 -0.4235 -1.8120
 6648SOL    HW231578   1.473   2.626  12.792 -1.2367 -0.8026 -1.4059
 6649SOL     OW31579   1.865   2.629   7.771 -0.4696  0.0291 -0.3541
 6649SOL    HW131580   1.956   2.601   7.761 -1.1659 -2.9367  1.3753
 6649SOL    HW231581   1.822   2.544   7.763 -0.0094 -0.3951  1.4521
 6650SOL     OW31582   4.664   2.809  15.217  0.2857  0.0182  0.0808
 6650SOL    HW131583   4.656   2.873  15.287  0.7104 -0.1112  0.2476
 6650SOL    HW231584   4.734   2.751  15.247  2.7864  2.6507 -0.7356
 6651SOL     OW31585   0.684   4.385   7.098 -0.1456  0.4336  0.3500
 6651SOL    HW131586   0.640   4.433   7.028 -1.0839  1.3498  1.5786
 6651SOL    HW231587   0.618   4.404   7.165  0.1606 -1.2996  1.1557
 6652SOL     OW31588   0.972   4.443   3.608 -0.1776 -0.7655  0.1200
 6652SOL    HW131589   0.900   4.383   3.590  0.7749 -1.9000  0.0440
 6652SOL    HW231590   1.000   4.459   3.518  0.4692  1.0198  0.6390
 6653SOL     OW31591   2.912   3.089   4.801 -0.3366 -0.5895  0.7504
 6653SOL    HW131592   2.942   3.053   4.717 -1.6315 -1.7231  0.7796
 6653SOL    HW231593   2.856   3.159   4.770  1.5779  0.0891 -1.2165
 6654SOL     OW31594   0.639   3.011   4.871  0.5857  0.0104  0.2044
 6654SOL    HW131595   0.627   3.056   4.955  1.7476  1.6478 -0.5101
 6654SOL    HW231596   0.702   2.945   4.899  0.5006 -1.1124 -2.2319
 6655SOL     OW31597   0.568   2.959  14.869 -0.1605 -0.1842  0.1382
 6655SOL    HW131598   0.501   2.975  14.936  1.1701  2.0701  0.9014
 6655SOL    HW231599   0.563   3.035  14.811  2.4145 -1.4566 -1.7370
 6656SOL     OW31600   3.449   0.136  16.384  1.0464 -0.6601  0.3447
 6656SOL    HW131601   3.479   0.114  16.472  0.1536 -1.0728  0.5524
 6656SOL    HW231602   3.357   0.156  16.404  0.9224  1.2091 -2.1329
 6657SOL     OW31603   3.494   0.799   2.026  0.2389  0.5863 -0.3559
 6657SOL    HW131604   3.564   0.756   1.977  1.0151 -1.7171  2.7624
 6657SOL    HW231605   3.442   0.729   2.065  2.7537 -0.9047  0.3129
 6658SOL     OW31606   1.063   3.641   7.485 -0.1417 -0.2733  0.1192
 6658SOL    HW131607   1.110   3.714   7.445  2.1926  0.1663  3.6919
 6658SOL    HW231608   0.982   3.674   7.525 -0.9226 -1.0669 -0.8070
 6659SOL     OW31609   0.412   0.941  12.221  0.0676 -0.3034 -0.4793
 6659SOL    HW131610   0.320   0.927  12.197 -0.1112 -0.3836  0.2391
 6659SOL    HW231611   0.438   1.026  12.185 -1.3602  0.7082  0.8298
 6660SOL     OW31612   1.811   2.078  11.632  0.7150 -0.0664 -0.0585
 6660SOL    HW131613   1.824   2.078  11.538  0.7225 -2.1532 -0.0540
 6660SOL    HW231614   1.898   2.106  11.661 -0.7943  0.9170  3.5828
 6661SOL     OW31615   1.657   0.469   3.836  0.0915  0.2999  0.2154
 6661SOL    HW131616   1.729   0.524   3.868 -0.3261  0.2462  1.2628
 6661SOL    HW231617   1.609   0.457   3.919  0.3234  0.6667  0.4019
 6662SOL     OW31618   1.972   2.121   2.072 -0.0739 -0.0625  0.2037
 6662SOL    HW131619   1.881   2.129   2.102 -0.4630  2.4594 -1.6456
 6662SOL    HW231620   1.992   2.210   2.044 -1.7495  0.3911  0.4286
 6663SOL     OW31621   1.141   0.912   5.415  0.1572  0.3517 -0.2985
 6663SOL    HW131622   1.090   0.993   5.414  0.0744  0.3151  1.1864
 6663SOL    HW231623   1.142   0.892   5.509 -0.6886 -0.7881 -0.5383
 6664SOL     OW31624   0.394   3.689   5.336  0.2172 -0.1114 -0.2545
 6664SOL    HW131625   0.440   3.722   5.260 -0.6973  1.3257 -0.1843
 6664SOL    HW231626   0.315   3.659   5.291 -0.3035 -0.8254  1.1389
 6665SOL     OW31627   0.166   1.148  17.558  0.3729 -0.2777 -0.4496
 6665SOL    HW131628   0.247   1.155  17.506  0.0557  1.2943 -0.7436
 6665SOL    HW231629   0.182   1.072  17.613  1.1211 -0.5504 -1.0438
 6666SOL     OW31630   3.534   3.724  12.591  0.1423  0.3548  0.4488
 6666SOL    HW131631   3.578   3.780  12.528  1.8440  2.0096  3.0967
 6666SOL    HW231632   3.452   3.699  12.549  0.0567  0.1870  0.7108
 6667SOL     OW31633   0.689   1.654   1.583 -0.6016  0.8022  0.0125
 6667SOL    HW131634   0.723   1.725   1.637  1.3522 -0.3146  0.2531
 6667SOL    HW231635   0.682   1.692   1.496 -3.2942 -1.1489 -0.6539
 6668SOL     OW31636   3.101   0.376   7.134 -0.1996 -0.3171 -0.6144
 6668SOL    HW131637   3.194   0.371   7.154 -0.3026 -1.4553 -0.4523
 6668SOL    HW231638   3.068   0.296   7.174  1.6021 -1.9689 -2.4712
 6669SOL     OW31639   1.110   1.176   4.236 -0.3384 -0.1983 -0.3451
 6669SOL    HW131640   1.120   1.264   4.200 -1.6769 -0.4624 -1.3804
 6669SOL    HW231641   1.191   1.133   4.209 -0.0590  1.6572 -2.4116
 6670SOL     OW31642   1.389   1.785   5.822  0.0525  0.1375 -0.0246
 6670SOL    HW131643   1.447   1.818   5.753  0.8589  0.5957  0.8603
 6670SOL    HW231644   1.319   1.742   5.773 -0.5822  2.4858 -1.1839
 6671SOL     OW31645   4.327   2.572  14.669 -0.0216 -0.4276  0.7397
 6671SOL    HW131646   4.310   2.642  14.733  1.3648 -1.1624  1.9117
 6671SOL    HW231647   4.280   2.501  14.713  0.1725 -0.9790  0.0575
 6672SOL     OW31648   3.099   4.064   6.763 -0.4913  0.9289 -0.1938
 6672SOL    HW131649   3.101   4.143   6.816 -1.6101  0.1794  0.9681
 6672SOL    HW231650   3.061   3.996   6.818  0.6447  0.7253  0.3363
 6673SOL     OW31651   3.414   3.398   7.514 -0.1558 -0.3375 -0.3173
 6673SOL    HW131652   3.397   3.411   7.608 -1.2616  0.9643 -0.7061
 6673SOL    HW231653   3.336   3.349   7.486 -1.1946  2.5184 -2.3882
 6674SOL     OW31654   3.854   1.535   6.668 -1.0186  0.3168  0.5156
 6674SOL    HW131655   3.943   1.567   6.680 -0.7860 -0.7403  1.5691
 6674SOL    HW231656   3.806   1.617   6.682  1.6260  1.8771  0.3708
 6675SOL     OW31657   3.333   0.115   2.067  0.0628  0.2054  0.0112
 6675SOL    HW131658   3.280   0.186   2.031  0.7619  1.0317  0.6269
 6675SOL    HW231659   3.403   0.175   2.092  0.7936 -0.1798 -1.0852
 6676SOL     OW31660   3.231   2.130   5.797 -1.1516  0.2164 -0.3681
 6676SOL    HW131661   3.288   2.205   5.817 -1.9100  0.9799 -1.0628
 6676SOL    HW231662   3.301   2.067   5.785 -2.2607 -1.0257 -0.3570
 6677SOL     OW31663   1.710   2.997  15.908  0.3902 -0.2128  0.2968
 6677SOL    HW131664   1.711   3.093  15.900  0.8477 -0.2288  0.2097
 6677SOL    HW231665   1.708   2.969  15.817  0.3656  1.0879 -0.1089
 6678SOL     OW31666   0.600   0.142  13.650  0.4173  0.3434 -0.1828
 6678SOL    HW131667   0.552   0.106  13.575 -0.5639  0.0200  0.6127
 6678SOL    HW231668   0.677   0.178  13.604  1.2524 -0.1219  0.8633
 6679SOL     OW31669   0.612   1.617   5.895  0.3737  0.5427  0.3727
 6679SOL    HW131670   0.546   1.674   5.934 -0.2232 -0.2564  0.5485
 6679SOL    HW231671   0.569   1.532   5.904 -0.2237  0.7634 -0.4061
 6680SOL     OW31672   0.234   3.506   4.765  0.2955 -0.1103 -0.1769
 6680SOL    HW131673   0.284   3.443   4.713  0.6619  0.8789 -1.0252
 6680SOL    HW231674   0.239   3.462   4.849 -0.5784  2.4690  1.2285
 6681SOL     OW31675   1.492   1.577   7.086 -0.2605  0.5510 -0.1528
 6681SOL    HW131676   1.468   1.647   7.146  0.9910  0.1262  0.8384
 6681SOL    HW231677   1.408   1.551   7.048 -0.3736  1.5987 -0.6235
 6682SOL     OW31678   2.846   0.817  10.573  0.0878  0.7074 -0.2811
 6682SOL    HW131679   2.812   0.906  10.581  1.0299  1.1728 -1.4143
 6682SOL    HW231680   2.907   0.811  10.499  0.9474 -0.3853  0.5100
 6683SOL     OW31681   1.356   0.385   2.268  0.3850  0.4502 -0.0467
 6683SOL    HW131682   1.448   0.406   2.287  0.1810 -0.6195  2.0650
 6683SOL    HW231683   1.316   0.455   2.318  3.0228  1.9850 -0.0799
 6684SOL     OW31684   0.480   0.076   7.774  0.7216  0.2670 -0.0961
 6684SOL    HW131685   0.498   0.076   7.681  0.6923  1.7852 -0.1052
 6684SOL    HW231686   0.387   0.097   7.777  1.2628  2.7318 -0.4067
 6685SOL     OW31687   2.944   1.118   8.511 -0.1935 -0.3174  0.6728
 6685SOL    HW131688   2.947   1.024   8.491 -0.1121 -0.2934  0.5747
 6685SOL    HW231689   2.861   1.127   8.559 -1.5251 -3.7263 -0.9608
 6686SOL     OW31690   1.746   1.060   6.196 -0.2165  0.0698 -0.0205
 6686SOL    HW131691   1.706   0.999   6.257  1.0731  0.2670  1.0143
 6686SOL    HW231692   1.702   1.141   6.223  0.0683 -0.2932  1.5355
 6687SOL     OW31693   0.853   1.261  16.222 -0.3275 -0.5668  0.0860
 6687SOL    HW131694   0.825   1.306  16.142  0.2416  2.7335  1.7138
 6687SOL    HW231695   0.774   1.208  16.229 -1.6434  1.2592 -0.6640
 6688SOL     OW31696   3.594   3.018  15.689 -0.6571 -0.0915 -0.5007
 6688SOL    HW131697   3.667   3.002  15.630 -0.2752 -1.5445  0.3799
 6688SOL    HW231698   3.516   3.025  15.634 -0.9789 -0.9067 -0.1507
 6689SOL     OW31699   0.409   0.969   6.580  0.1591  1.3331 -0.0882
 6689SOL    HW131700   0.423   1.010   6.666  0.0505 -2.0236  1.5257
 6689SOL    HW231701   0.445   0.882   6.595  0.6618  1.0957 -2.7442
 6690SOL     OW31702   2.497   4.302   5.895 -0.1704  0.2551 -0.1221
 6690SOL    HW131703   2.476   4.210   5.880 -1.4341  1.0203 -3.0776
 6690SOL    HW231704   2.579   4.314   5.846  0.3102  2.1243  1.1225
 6691SOL     OW31705   3.187   2.075   2.174  0.0906  0.6101  0.4077
 6691SOL    HW131706   3.150   2.154   2.215  1.0386  0.8789  0.7437
 6691SOL    HW231707   3.106   2.024   2.167 -0.6551  1.9301 -0.6500
 6692SOL     OW31708   2.950   1.935   2.190 -0.1724 -0.3097  0.0502
 6692SOL    HW131709   2.943   1.847   2.153 -2.2580  0.3927 -1.2107
 6692SOL    HW231710   2.861   1.951   2.219 -0.1102  3.6798 -1.8271
 6693SOL     OW31711   4.096   2.394   4.148  0.4770 -0.5202 -0.1500
 6693SOL    HW131712   4.048   2.436   4.076  3.0623  1.5166 -0.6849
 6693SOL    HW231713   4.022   2.370   4.204 -0.4182  0.4476 -0.9229
 6694SOL     OW31714   2.653   2.681   6.862 -0.4828  0.0615 -0.3643
 6694SOL    HW131715   2.640   2.587   6.852  1.4865 -0.1918 -0.3913
 6694SOL    HW231716   2.587   2.717   6.803 -2.7442 -0.5071  1.7777
 6695SOL     OW31717   3.303   2.592   2.848  0.2271  0.2391  0.2160
 6695SOL    HW131718   3.384   2.541   2.855 -0.2728 -0.1602  3.1051
 6695SOL    HW231719   3.333   2.680   2.871 -0.8581  0.6288  0.1074
 6696SOL     OW31720   2.002   0.627   8.720 -0.4153 -0.1271 -0.5566
 6696SOL    HW131721   1.983   0.705   8.773  0.0569  1.7195 -3.1344
 6696SOL    HW231722   2.082   0.648   8.672  1.3083 -2.1465  1.4065
 6697SOL     OW31723   2.901   4.044   7.616  0.2187 -0.1879  0.4676
 6697SOL    HW131724   2.924   4.017   7.527  1.3851 -1.2186  1.0760
 6697SOL    HW231725   2.917   3.978   7.684 -2.2896 -0.5609  0.6781
 6698SOL     OW31726   2.172   2.445   8.589  0.4660 -0.4203 -0.1469
 6698SOL    HW131727   2.266   2.461   8.584  0.5106 -0.4883  0.4774
 6698SOL    HW231728   2.145   2.489   8.669  0.2146  1.2034 -1.1204
 6699SOL     OW31729   0.440   3.061   7.865  0.5583 -0.0680 -0.0320
 6699SOL    HW131730   0.351   3.095   7.880  0.3114 -0.7585  0.0659
 6699SOL    HW231731   0.481   3.139   7.903  0.0334  0.7517 -1.1420
 6700SOL     OW31732   2.068   4.104   6.160 -0.2999 -0.3348  0.0441
 6700SOL    HW131733   2.112   4.046   6.221  0.6361 -0.1515 -0.4528
 6700SOL    HW231734   2.148   4.117   6.108 -0.1447  1.4776  0.7296
 6701SOL     OW31735   2.542   4.631   7.357  0.2675  0.3100 -0.0840
 6701SOL    HW131736   2.552   4.592   7.444 -0.9545 -0.9813 -0.5262
 6701SOL    HW231737   2.562   4.724   7.369 -0.3167  0.4461 -0.1595
 6702SOL     OW31738   3.694   1.709  15.315  0.5589  0.1422 -0.2315
 6702SOL    HW131739   3.672   1.767  15.388 -0.6233 -1.7405  0.9383
 6702SOL    HW231740   3.788   1.719  15.301  0.3511  3.3242  0.6169
 6703SOL     OW31741   0.791   2.434  10.578  0.3398  0.7078  0.1167
 6703SOL    HW131742   0.818   2.525  10.588  0.7934  0.5967 -0.0859
 6703SOL    HW231743   0.802   2.431  10.482  0.9133 -2.1234  0.2588
 6704SOL     OW31744   1.904   3.569   6.353 -0.3199  0.7179  0.9722
 6704SOL    HW131745   1.841   3.508   6.314 -0.1439  0.9682  0.2958
 6704SOL    HW231746   1.962   3.508   6.397  1.4140  0.7399 -1.2618
 6705SOL     OW31747   0.345   3.750  12.838 -0.2458 -0.5846  0.3248
 6705SOL    HW131748   0.291   3.793  12.904  0.5101  1.6485 -0.4967
 6705SOL    HW231749   0.432   3.787  12.853 -1.2204  1.1294  1.8208
 6706SOL     OW31750   0.226   1.742   7.309 -0.3940  0.0267  0.3553
 6706SOL    HW131751   0.319   1.738   7.285 -0.1454  0.0382  1.3226
 6706SOL    HW231752   0.237   1.716   7.400  1.8758  0.9809  0.3646
 6707SOL     OW31753   3.142   2.682   8.945  0.3988  0.6236  0.1861
 6707SOL    HW131754   3.109   2.740   9.014 -1.6402 -0.9591  0.5511
 6707SOL    HW231755   3.068   2.621   8.939 -0.1593  1.5041 -1.7736
 6708SOL     OW31756   0.037   3.409  14.337  0.0807  0.3667  0.2139
 6708SOL    HW131757   0.015   3.338  14.397 -0.6659 -0.4918 -1.0715
 6708SOL    HW231758   0.071   3.356  14.264 -1.1140 -0.8592  0.5485
 6709SOL     OW31759   1.835   0.023   7.208 -0.3238 -0.1243 -0.0051
 6709SOL    HW131760   1.828   4.688   7.272 -0.4051  1.0895  1.3544
 6709SOL    HW231761   1.790   4.714   7.137  2.0762 -2.4490 -0.0020
 6710SOL     OW31762   2.315   0.827   7.049 -0.4001 -0.3270  0.3124
 6710SOL    HW131763   2.337   0.735   7.037  0.8001 -0.0601  0.4585
 6710SOL    HW231764   2.242   0.841   6.989  0.1289 -0.1834 -0.2997
 6711SOL     OW31765   2.512   4.545   8.232  0.0270 -0.3392  0.8387
 6711SOL    HW131766   2.442   4.610   8.237  1.0026  0.8233 -0.3958
 6711SOL    HW231767   2.557   4.558   8.316 -1.1790 -1.4470  1.6427
 6712SOL     OW31768   4.324   4.683   8.290  0.3647  0.1998 -0.3445
 6712SOL    HW131769   4.353   0.038   8.280  0.7601  0.0814 -0.2800
 6712SOL    HW231770   4.302   4.660   8.200 -1.4693 -2.1572  0.7099
 6713SOL     OW31771   2.622   2.367   2.728 -0.1872  0.5447 -0.0455
 6713SOL    HW131772   2.633   2.365   2.633  2.6043  0.1665  0.3024
 6713SOL    HW231773   2.563   2.293   2.742  1.6228 -1.0182 -0.6393
 6714SOL     OW31774   2.353   0.411   8.442  0.0196  0.0559  0.1204
 6714SOL    HW131775   2.322   0.400   8.352 -0.5848 -0.4867  0.3946
 6714SOL    HW231776   2.305   0.488   8.471 -2.1771 -1.5673  0.7857
 6715SOL     OW31777   1.266   0.106   6.003  0.0872  0.6403 -0.1066
 6715SOL    HW131778   1.275   0.192   5.961 -1.6534 -0.1140 -2.0296
 6715SOL    HW231779   1.309   0.043   5.945 -0.0419 -0.1419  0.6498
 6716SOL     OW31780   1.419   3.215  12.522 -0.6642 -0.0528  0.5085
 6716SOL    HW131781   1.415   3.147  12.589 -2.7074 -1.8847 -1.4558
 6716SOL    HW231782   1.357   3.275  12.564 -1.4071 -1.2547  1.1511
 6717SOL     OW31783   2.392   3.196   3.186  0.3074  0.1977 -0.4232
 6717SOL    HW131784   2.424   3.132   3.250  0.7054  2.3107  1.4896
 6717SOL    HW231785   2.331   3.250   3.236 -2.6433 -1.3882 -2.3176
 6718SOL     OW31786   3.283   3.421  17.193 -0.1762  0.1058 -0.3363
 6718SOL    HW131787   3.276   3.506  17.150  3.5046  0.6992  0.2189
 6718SOL    HW231788   3.301   3.370  17.114  4.0125 -1.3695  1.5400
 6719SOL     OW31789   2.685   4.478   5.686 -0.5122 -0.4443  0.3164
 6719SOL    HW131790   2.726   4.563   5.668  0.2689 -1.3323 -2.1037
 6719SOL    HW231791   2.756   4.414   5.695 -1.2732 -0.8986  3.0916
 6720SOL     OW31792   2.909   2.344  14.996 -0.0328  0.1556 -0.2442
 6720SOL    HW131793   2.886   2.379  15.082  0.7746 -1.4223  0.6130
 6720SOL    HW231794   2.886   2.410  14.931 -0.0519  3.4792  3.1749
 6721SOL     OW31795   1.405   2.034   6.124  0.0496  0.2562 -0.8083
 6721SOL    HW131796   1.468   2.019   6.054  0.7136  0.2780 -0.2074
 6721SOL    HW231797   1.326   2.059   6.075 -0.0645 -0.6046 -1.0533
 6722SOL     OW31798   3.090   2.712  14.806 -0.2401  0.2313 -0.4434
 6722SOL    HW131799   3.054   2.642  14.752 -0.3082  0.5206 -0.7755
 6722SOL    HW231800   3.149   2.764  14.752 -0.4040  0.8109 -0.0676
 6723SOL     OW31801   1.972   3.886  14.255  0.0417 -0.7039 -0.1998
 6723SOL    HW131802   2.011   3.807  14.218 -1.2248 -1.2707 -0.3280
 6723SOL    HW231803   2.009   3.949  14.194  1.7740 -1.6136 -0.0862
 6724SOL     OW31804   3.798   4.629   7.918 -0.3134 -0.1654 -0.2938
 6724SOL    HW131805   3.711   4.647   7.953 -1.1086 -1.3596 -1.6794
 6724SOL    HW231806   3.808   4.711   7.871 -0.3881 -0.1517 -0.2857
 6725SOL     OW31807   1.400   2.113   7.366 -0.4474 -0.3573  0.0755
 6725SOL    HW131808   1.409   2.071   7.451 -0.9648 -2.4001 -0.8969
 6725SOL    HW231809   1.435   2.050   7.304  0.9572  1.1756 -0.6946
 6726SOL     OW31810   1.105   1.214   9.068  0.0767  0.5302 -0.3428
 6726SOL    HW131811   1.115   1.134   9.119 -0.5768 -0.5104 -1.8513
 6726SOL    HW231812   1.013   1.230   9.089 -0.2102 -0.3860 -0.9325
 6727SOL     OW31813   3.240   1.334  15.082  0.1535 -0.9315  0.3021
 6727SOL    HW131814   3.317   1.291  15.046 -0.3429 -1.7598  0.2306
 6727SOL    HW231815   3.192   1.365  15.005  0.6835 -0.9841 -0.0488
 6728SOL     OW31816   3.650   0.565   2.645 -0.4470  0.0303  0.1914
 6728SOL    HW131817   3.587   0.634   2.625  0.1831  0.5050 -0.1486
 6728SOL    HW231818   3.669   0.581   2.737  1.9506  2.0743 -0.6559
 6729SOL     OW31819   3.942   0.152   7.884 -0.4658 -0.0615 -1.0767
 6729SOL    HW131820   3.867   0.207   7.906  0.3211 -0.2988  2.3111
 6729SOL    HW231821   3.911   0.119   7.800  2.1236  0.2399 -2.1433
 6730SOL     OW31822   0.541   0.828   1.834  0.3061 -0.6527  0.2606
 6730SOL    HW131823   0.483   0.862   1.902 -1.5051 -1.2441 -0.9824
 6730SOL    HW231824   0.524   0.735   1.847  1.5273 -1.1255 -1.4401
 6731SOL     OW31825   3.255   0.645  13.824  0.6566  0.3458 -0.5973
 6731SOL    HW131826   3.296   0.656  13.909  1.4684  0.0284 -0.9482
 6731SOL    HW231827   3.321   0.600  13.772  0.8119 -1.0228  0.7811
 6732SOL     OW31828   4.290   1.290   3.850  0.2253  0.1390 -0.5457
 6732SOL    HW131829   4.343   1.310   3.773  1.4376  0.7857  0.4551
 6732SOL    HW231830   4.221   1.357   3.852 -0.1597 -0.2191 -1.8242
 6733SOL     OW31831   0.713   0.988   7.614 -0.0968 -0.0968  0.0600
 6733SOL    HW131832   0.770   0.925   7.570  0.4391  0.1395  0.4128
 6733SOL    HW231833   0.639   0.994   7.554  1.3789  2.0652 -1.5393
 6734SOL     OW31834   4.269   2.955   0.119  0.2040  0.3600  0.4057
 6734SOL    HW131835   4.258   2.860   0.124 -1.5430  0.4100 -2.7265
 6734SOL    HW231836   4.291   2.975   0.028  0.1660  1.1663  0.5791
 6735SOL     OW31837   4.133   4.169   4.984 -0.4693  0.1573  0.1687
 6735SOL    HW131838   4.149   4.076   4.999 -1.0216  0.1308  0.5877
 6735SOL    HW231839   4.199   4.200   4.922  1.2466 -0.3797  1.7247
 6736SOL     OW31840   1.029   1.050   8.466 -0.3088 -0.3966 -0.3893
 6736SOL    HW131841   1.070   0.965   8.478  2.7165  0.9762 -1.1140
 6736SOL    HW231842   1.106   1.099   8.436 -0.5819  0.0056 -0.4402
 6737SOL     OW31843   3.558   4.598   6.691 -0.8859  0.4582  0.7538
 6737SOL    HW131844   3.467   4.600   6.661 -1.1379  1.3098  1.6023
 6737SOL    HW231845   3.594   4.522   6.644 -1.3270  1.2156 -0.8278
 6738SOL     OW31846   1.158   3.530   5.889  0.4880 -0.1608  0.1306
 6738SOL    HW131847   1.128   3.528   5.798 -0.4759 -1.2559  0.4691
 6738SOL    HW231848   1.174   3.439   5.913  0.1807 -0.5764 -1.2445
 6739SOL     OW31849   4.517   1.512   1.152 -0.4307 -0.1779  0.6379
 6739SOL    HW131850   4.593   1.538   1.100 -1.2888 -0.1742 -0.6245
 6739SOL    HW231851   4.475   1.598   1.160  1.0941  0.6517 -0.3192
 6740SOL     OW31852   1.590   2.036   3.433  0.2590 -0.7109 -0.1125
 6740SOL    HW131853   1.526   2.105   3.421 -1.0603 -2.4792 -3.5123
 6740SOL    HW231854   1.530   1.965   3.456 -0.4472 -0.1077 -0.1373
 6741SOL     OW31855   2.624   0.349   4.952 -0.2953  0.2677 -0.5216
 6741SOL    HW131856   2.573   0.401   4.889  0.4609 -0.4581 -1.7328
 6741SOL    HW231857   2.683   0.310   4.887 -0.9178 -2.7132  0.7416
 6742SOL     OW31858   2.033   1.491   9.597  0.5540 -0.7882 -0.1742
 6742SOL    HW131859   2.015   1.443   9.678 -0.8833  0.6758  0.3692
 6742SOL    HW231860   2.085   1.566   9.628 -1.1015  0.8248 -1.3193
 6743SOL     OW31861   1.951   3.724  14.509 -0.0245 -0.2582  0.2061
 6743SOL    HW131862   1.874   3.685  14.549 -0.3003 -0.9206 -0.9651
 6743SOL    HW231863   1.929   3.742  14.417 -3.7964 -2.1902  0.7490
 6744SOL     OW31864   2.040   1.482   7.350 -0.8156  0.5474 -0.7141
 6744SOL    HW131865   2.131   1.479   7.319 -1.0655 -1.0153 -1.2843
 6744SOL    HW231866   2.040   1.574   7.378 -1.2445 -0.1764  1.6322
 6745SOL     OW31867   2.131   4.613   6.979  0.1571 -0.0959  0.2945
 6745SOL    HW131868   2.207   4.557   6.966 -0.5237 -1.0769  0.5539
 6745SOL    HW231869   2.141   4.641   7.070  0.0254  0.2358  0.2071
 6746SOL     OW31870   0.898   0.048   3.174 -0.2352  0.1462  0.5603
 6746SOL    HW131871   0.961   0.115   3.201  0.8960 -0.0730 -1.5762
 6746SOL    HW231872   0.902   0.046   3.079  3.7930 -0.8921  0.7727
 6747SOL     OW31873   4.070   3.796   6.322 -0.3678  0.4809  0.6489
 6747SOL    HW131874   4.090   3.706   6.347 -1.4010 -0.2157 -1.0362
 6747SOL    HW231875   3.977   3.798   6.346 -0.0982 -1.3511  1.8451
 6748SOL     OW31876   1.197   1.689  10.887  0.3198  0.0351 -0.2164
 6748SOL    HW131877   1.278   1.689  10.836  0.1631 -0.4116 -0.4725
 6748SOL    HW231878   1.192   1.776  10.926  0.1762 -1.4295  2.9703
 6749SOL     OW31879   2.086   4.068  10.616  0.1493 -0.2930  0.6318
 6749SOL    HW131880   2.168   4.022  10.599  0.7468  0.7621  0.6071
 6749SOL    HW231881   2.096   4.102  10.705 -2.0548 -0.7673  1.0581
 6750SOL     OW31882   4.344   0.976   1.725 -0.0923 -0.0069  0.3517
 6750SOL    HW131883   4.393   1.018   1.656 -0.6115  0.5827  0.3396
 6750SOL    HW231884   4.257   1.010   1.704 -0.2150 -0.5186  0.0437
 6751SOL     OW31885   3.880   0.394   3.945 -0.0657 -0.4350 -0.1068
 6751SOL    HW131886   3.813   0.447   3.989  0.7077 -1.3581  2.1766
 6751SOL    HW231887   3.836   0.310   3.952  0.2806 -0.6021  0.0292
 6752SOL     OW31888   1.778   2.728   4.423  0.9559  0.4596  0.0516
 6752SOL    HW131889   1.806   2.730   4.515  2.4963 -0.7180 -0.3873
 6752SOL    HW231890   1.863   2.716   4.381  0.9559 -1.3246  0.5572
 6753SOL     OW31891   4.258   1.141  12.225 -0.1094 -0.2915 -0.2043
 6753SOL    HW131892   4.254   1.237  12.221 -2.4621 -0.3509  0.7549
 6753SOL    HW231893   4.331   1.142  12.287  0.5125 -0.5262 -0.9377
 6754SOL     OW31894   0.866   1.127   1.969  0.0050 -0.0084  0.1948
 6754SOL    HW131895   0.816   1.146   1.889 -0.1432  0.7035  0.4557
 6754SOL    HW231896   0.837   1.036   1.972  0.2042 -0.0835 -0.1119
 6755SOL     OW31897   1.109   4.092   5.571  0.6964  0.1937  0.1478
 6755SOL    HW131898   1.074   4.004   5.583  2.1325 -0.2698  0.9515
 6755SOL    HW231899   1.197   4.068   5.540  1.5265  2.0280  1.0689
 6756SOL     OW31900   2.305   3.965  14.353  0.3223 -0.4886  0.2236
 6756SOL    HW131901   2.248   3.985  14.278  0.5497  1.0985  0.4696
 6756SOL    HW231902   2.312   3.872  14.332  3.3749 -0.7705  2.4777
 6757SOL     OW31903   3.586   1.223   6.350 -0.2034  0.4386 -0.6342
 6757SOL    HW131904   3.638   1.302   6.364 -0.0186  0.3927 -1.0633
 6757SOL    HW231905   3.643   1.147   6.347 -1.2293 -0.3612 -0.0138
 6758SOL     OW31906   4.028   4.120   5.932  0.6910  0.1658  0.0407
 6758SOL    HW131907   4.014   4.186   6.001 -3.5203 -1.3498  0.6603
 6758SOL    HW231908   3.962   4.060   5.967  0.1348  0.1960 -0.9782
 6759SOL     OW31909   2.253   0.701   4.187  0.3800 -0.0174  0.1133
 6759SOL    HW131910   2.284   0.690   4.097  0.6957 -1.6970  0.4313
 6759SOL    HW231911   2.332   0.698   4.242 -0.5045  0.4558  1.4164
 6760SOL     OW31912   3.927   3.957   4.793  0.3719 -0.5155 -0.3411
 6760SOL    HW131913   3.901   3.890   4.856  1.6150  0.0377  0.7439
 6760SOL    HW231914   4.019   3.935   4.781  0.8665  2.8929 -2.6762
 6761SOL     OW31915   0.087   2.709   4.871  0.9569 -0.7066 -0.2993
 6761SOL    HW131916   0.048   2.739   4.789 -2.3504 -0.7845  1.2695
 6761SOL    HW231917   0.026   2.637   4.888  0.3918  0.3897  2.3187
 6762SOL     OW31918   2.691   2.992   5.816 -0.4443 -0.0925  0.1112
 6762SOL    HW131919   2.682   2.899   5.795 -1.1811  0.0788 -0.3586
 6762SOL    HW231920   2.714   3.035   5.733 -0.5271  0.5980  0.4487
 6763SOL     OW31921   0.906   0.486   8.351  0.9328 -0.7491  0.4100
 6763SOL    HW131922   0.816   0.517   8.354  1.1920  0.0916 -0.3730
 6763SOL    HW231923   0.897   0.391   8.341  0.2473 -0.8485  1.9991
 6764SOL     OW31924   1.099   0.967   2.889 -0.0501 -0.6719  0.4973
 6764SOL    HW131925   1.020   0.916   2.908 -0.5405  0.1751  0.7128
 6764SOL    HW231926   1.071   1.011   2.809  1.1941 -0.4265  0.2078
 6765SOL     OW31927   0.410   1.606   8.403 -0.4786  0.0454 -0.2276
 6765SOL    HW131928   0.355   1.611   8.481 -2.2858 -1.2601 -1.4220
 6765SOL    HW231929   0.498   1.626   8.435  0.7867 -2.3696 -2.1826
 6766SOL     OW31930   1.701   4.420   5.204 -0.4054  0.0741  0.3110
 6766SOL    HW131931   1.670   4.334   5.174 -0.0235 -0.4721  1.4931
 6766SOL    HW231932   1.651   4.439   5.283 -0.5639 -0.2176  0.2797
 6767SOL     OW31933   3.350   0.815  14.018  0.2371  0.0272 -0.3821
 6767SOL    HW131934   3.265   0.847  14.048  1.4842  2.5676  0.4683
 6767SOL    HW231935   3.406   0.888  14.045 -0.8806  0.7276  0.0269
 6768SOL     OW31936   1.088   0.550   8.120 -0.2893  0.6683 -0.5263
 6768SOL    HW131937   0.996   0.536   8.141  0.5256 -0.6869  2.1274
 6768SOL    HW231938   1.106   0.620   8.182 -1.3755  0.2110  0.3116
 6769SOL     OW31939   3.772   0.164   8.682 -0.2037  0.1431 -0.5632
 6769SOL    HW131940   3.811   0.111   8.752  0.9964  2.0877  0.2407
 6769SOL    HW231941   3.693   0.190   8.729  1.8814 -0.1159  3.1275
 6770SOL     OW31942   0.474   2.947   8.787  0.2725  0.2514 -0.6381
 6770SOL    HW131943   0.463   2.943   8.882 -0.0776 -1.3591 -0.7452
 6770SOL    HW231944   0.475   3.042   8.774  2.3001  0.1164 -1.3745
 6771SOL     OW31945   1.824   4.149   5.384  0.3651  0.7359  0.4428
 6771SOL    HW131946   1.786   4.232   5.414 -2.1270 -0.2232 -0.0344
 6771SOL    HW231947   1.792   4.086   5.448  0.3821  0.9909  0.7061
 6772SOL     OW31948   0.630   4.720   4.402  0.1050  1.3644  0.4647
 6772SOL    HW131949   0.631   0.074   4.434 -1.6461  2.0736 -1.4317
 6772SOL    HW231950   0.709   4.721   4.349 -1.2875  0.6022 -1.6633
 6773SOL     OW31951   3.809   4.484   8.797  0.1170 -0.2330 -0.2614
 6773SOL    HW131952   3.898   4.454   8.783 -0.7819 -2.5494 -1.0160
 6773SOL    HW231953   3.826   4.578   8.791  1.0700 -0.4273 -0.4347
 6774SOL     OW31954   1.354   0.366   9.389 -0.5178 -0.6472 -0.4616
 6774SOL    HW131955   1.273   0.392   9.345 -0.0052  0.5523 -0.7103
 6774SOL    HW231956   1.312   0.313   9.456 -2.6337  0.7124 -0.6976
 6775SOL     OW31957   4.381   2.829   2.033 -0.0074 -0.2832  0.7302
 6775SOL    HW131958   4.323   2.901   2.058 -1.7068 -0.9915 -1.1738
 6775SOL    HW231959   4.440   2.874   1.973 -1.5236 -0.6335 -1.0084
 6776SOL     OW31960   3.170   4.224   4.942 -0.0065 -0.0589  0.0546
 6776SOL    HW131961   3.263   4.246   4.940  0.0770 -0.4861 -0.7878
 6776SOL    HW231962   3.146   4.307   4.981 -0.8812 -0.1895 -0.2186
 6777SOL     OW31963   0.252   0.694   6.454 -0.2615 -0.1163 -0.5602
 6777SOL    HW131964   0.273   0.606   6.424 -2.5050 -1.4688  1.7561
 6777SOL    HW231965   0.260   0.677   6.548 -2.2057 -2.2763 -0.7999
 6778SOL     OW31966   2.655   0.154  14.115 -0.1245 -0.3401  0.0175
 6778SOL    HW131967   2.600   0.192  14.046 -1.0373  0.0363  0.9434
 6778SOL    HW231968   2.641   0.213  14.189 -0.3752 -0.3597 -0.0123
 6779SOL     OW31969   3.712   2.329   1.475 -0.1509 -0.1596 -0.0212
 6779SOL    HW131970   3.670   2.405   1.516 -1.3553  0.0861 -1.7201
 6779SOL    HW231971   3.666   2.261   1.524 -0.3565 -0.6316 -0.8695
 6780SOL     OW31972   4.063   0.364   5.324 -0.3077 -0.0799 -0.5165
 6780SOL    HW131973   4.084   0.287   5.272  0.3454 -0.9653  1.0514
 6780SOL    HW231974   4.032   0.325   5.406  3.4922 -1.9228  0.0684
 6781SOL     OW31975   4.151   0.976  11.249  0.1868 -0.1369  0.1049
 6781SOL    HW131976   4.087   0.905  11.255  0.9059 -0.7311  0.7882
 6781SOL    HW231977   4.196   0.974  11.164  0.7498  1.5645  0.3576
 6782SOL     OW31978   4.088   2.985   9.548 -0.4770 -0.4640  0.6723
 6782SOL    HW131979   4.097   3.075   9.579 -0.9693 -0.5108  0.9372
 6782SOL    HW231980   4.018   2.990   9.483  1.9610 -0.8430 -2.0319
 6783SOL     OW31981   1.192   0.259   9.032 -0.2448 -0.3075  0.1049
 6783SOL    HW131982   1.226   0.260   8.942  0.3318  1.7811  0.3562
 6783SOL    HW231983   1.105   0.296   9.018 -0.5641 -1.4157 -0.9080
 6784SOL     OW31984   0.141   4.634   5.379  0.3798  0.4723 -0.6028
 6784SOL    HW131985   0.150   4.566   5.446 -0.1402  0.0045 -0.9963
 6784SOL    HW231986   0.142   4.716   5.429  2.9054  0.6263 -0.9053
 6785SOL     OW31987   1.835   2.314   8.714  0.0038  1.0686 -1.0541
 6785SOL    HW131988   1.846   2.406   8.689  0.1527  0.9985 -1.2515
 6785SOL    HW231989   1.767   2.316   8.780  2.4182  3.5814  1.3600
 6786SOL     OW31990   4.370   3.057   8.458 -0.3279 -0.6252  0.9717
 6786SOL    HW131991   4.409   3.097   8.380 -0.8475 -0.1309  0.9696
 6786SOL    HW231992   4.418   2.975   8.471 -0.5486 -1.0498 -0.9521
 6787SOL     OW31993   1.252   3.115  10.198  0.2855 -0.7436 -0.1304
 6787SOL    HW131994   1.167   3.151  10.171  0.4971 -0.5791 -0.5914
 6787SOL    HW231995   1.244   3.136  10.291  1.9053 -1.3580  0.1362
 6788SOL     OW31996   3.755   3.512  12.604 -0.0832 -1.1283  0.0257
 6788SOL    HW131997   3.700   3.587  12.627 -0.1396 -1.2866  0.4106
 6788SOL    HW231998   3.709   3.445  12.656 -3.0285  0.5716 -0.4182
 6789SOL     OW31999   2.177   1.701   9.707  0.3499 -0.5652  0.3742
 6789SOL    HW132000   2.175   1.774   9.645 -1.4698  0.2886  1.4445
 6789SOL    HW232001   2.174   1.755   9.785  2.3250  0.8426 -0.5280
 6790SOL     OW32002   3.440   0.987  16.297  0.1506 -0.0930  0.2207
 6790SOL    HW132003   3.483   0.924  16.239  0.3206 -0.2554  0.5205
 6790SOL    HW232004   3.509   1.009  16.359  0.0932 -0.9858  0.6034
 6791SOL     OW32005   0.769   0.891   5.959  0.3033  0.0180 -0.0992
 6791SOL    HW132006   0.676   0.880   5.936  0.0108  0.7850  0.7060
 6791SOL    HW232007   0.773   0.873   6.053 -2.3773  1.5159  0.2974
 6792SOL     OW32008   3.430   0.202   0.708  0.5282 -0.1371 -0.0975
 6792SOL    HW132009   3.462   0.292   0.711  0.1800  0.0444 -1.5103
 6792SOL    HW232010   3.496   0.169   0.647  0.3872 -0.5549 -0.0268
 6793SOL     OW32011   2.022   1.237  13.175  0.2317  0.0470 -0.2950
 6793SOL    HW132012   2.113   1.232  13.145  1.0209 -0.2506  2.1526
 6793SOL    HW232013   2.023   1.329  13.202 -0.8622  0.2448 -0.9529
 6794SOL     OW32014   3.759   3.084   1.247 -0.1342  0.2852  0.0896
 6794SOL    HW132015   3.677   3.120   1.281 -0.0890  0.1871  0.3006
 6794SOL    HW232016   3.816   3.160   1.260  0.7767 -0.6430  1.4254
 6795SOL     OW32017   2.712   0.227   5.706 -0.2128  0.4232 -0.2260
 6795SOL    HW132018   2.702   0.322   5.717  3.2104  0.7714 -0.0926
 6795SOL    HW232019   2.694   0.215   5.799  2.4293  0.0224  0.2032
 6796SOL     OW32020   4.068   1.095   3.878  0.0024  0.2144 -0.3327
 6796SOL    HW132021   4.145   1.148   3.859 -1.1654  2.2666  0.7081
 6796SOL    HW232022   4.099   1.025   3.935 -0.7686 -0.6647 -0.9795
 6797SOL     OW32023   0.606   3.910   3.580  0.5469  0.0019  0.2261
 6797SOL    HW132024   0.621   3.973   3.650  0.6587 -0.6945  0.8215
 6797SOL    HW232025   0.516   3.885   3.601  0.5301 -1.0640 -1.1043
 6798SOL     OW32026   3.017   1.278  12.284  0.3867  0.3130  0.0708
 6798SOL    HW132027   3.054   1.215  12.346  1.5097  2.1140  1.2284
 6798SOL    HW232028   3.093   1.295  12.228 -1.3507  1.6531 -1.8764
 6799SOL     OW32029   3.933   2.920   4.965  0.1176  0.3304  0.4387
 6799SOL    HW132030   3.887   2.884   4.890 -0.3090  0.8519  0.4504
 6799SOL    HW232031   3.862   2.930   5.029 -0.1716 -1.6882  0.4294
 6800SOL     OW32032   2.637   4.294   1.945 -0.1981  0.2907 -0.0091
 6800SOL    HW132033   2.613   4.217   1.996  0.9955 -0.3138 -0.3640
 6800SOL    HW232034   2.727   4.283   1.913 -0.1406 -1.9697  0.9282
 6801SOL     OW32035   1.709   2.715   6.638 -0.4460  0.2301 -0.1033
 6801SOL    HW132036   1.730   2.793   6.689 -0.6908  1.5977 -2.1202
 6801SOL    HW232037   1.762   2.724   6.559  1.0785  0.9296  1.0092
 6802SOL     OW32038   1.774   1.248   5.965  0.4263  0.1528  0.2491
 6802SOL    HW132039   1.820   1.214   5.888 -0.8407  0.2021 -0.5435
 6802SOL    HW232040   1.789   1.180   6.031  1.3925  0.0943 -0.0389
 6803SOL     OW32041   4.710   3.440   7.597 -0.7312 -0.6200 -0.4804
 6803SOL    HW132042   4.630   3.475   7.636  0.5764  0.0324  1.6001
 6803SOL    HW232043   0.010   3.521   7.561 -0.9600  0.3599  1.4905
 6804SOL     OW32044   1.819   1.821  13.991 -0.6547  0.4816 -0.2455
 6804SOL    HW132045   1.849   1.912  13.993  0.1377  0.2243 -0.3403
 6804SOL    HW232046   1.727   1.834  13.971 -1.1527 -0.6832  1.3047
 6805SOL     OW32047   2.471   1.041   1.003 -0.1604  0.4908 -0.1073
 6805SOL    HW132048   2.464   1.070   1.094  1.3412  3.2190 -0.8458
 6805SOL    HW232049   2.440   1.122   0.960  1.7118  0.3087 -1.8115
 6806SOL     OW32050   4.079   3.440   8.638  0.3135 -0.1176 -0.3173
 6806SOL    HW132051   4.055   3.366   8.694 -1.2760 -0.3170 -1.2602
 6806SOL    HW232052   4.042   3.516   8.683 -3.9110 -0.9305 -2.3567
 6807SOL     OW32053   0.323   2.596   2.566  0.0551 -0.4065  0.0364
 6807SOL    HW132054   0.228   2.602   2.575  0.1436 -0.7157  1.2061
 6807SOL    HW232055   0.350   2.529   2.628  0.6552 -1.8442 -1.7719
 6808SOL     OW32056   4.386   2.905   5.066  0.3270 -0.5802  0.3131
 6808SOL    HW132057   4.326   2.838   5.098  2.4000 -2.3231  0.5427
 6808SOL    HW232058   4.402   2.866   4.980  0.9434 -0.7426  0.5017
 6809SOL     OW32059   1.809   0.873   3.989  0.1807 -0.3311  0.0837
 6809SOL    HW132060   1.875   0.880   4.057 -0.9847  1.1685  1.0605
 6809SOL    HW232061   1.807   0.780   3.965  0.7613 -0.3746  0.2075
 6810SOL     OW32062   0.648   1.702   2.327  0.6652  0.3849  0.1358
 6810SOL    HW132063   0.660   1.779   2.382  0.7374  0.0221  0.6314
 6810SOL    HW232064   0.705   1.722   2.253  0.4324  1.9392  0.3809
 6811SOL     OW32065   3.144   1.878  15.440 -0.8142 -0.3536  0.0632
 6811SOL    HW132066   3.073   1.817  15.460 -1.0679  0.4047  1.4613
 6811SOL    HW232067   3.119   1.898  15.350 -0.1797  0.0618 -0.0171
 6812SOL     OW32068   2.748   3.959   5.361  0.1763 -0.5524 -0.2403
 6812SOL    HW132069   2.756   4.013   5.282  0.3403  1.0050  0.8336
 6812SOL    HW232070   2.757   4.026   5.430 -0.6061 -1.5466  0.8235
 6813SOL     OW32071   2.937   1.739   5.647  0.1479  0.3560  0.9095
 6813SOL    HW132072   2.935   1.725   5.552  2.9010 -1.2145  1.0797
 6813SOL    HW232073   2.846   1.711   5.657 -0.1329  1.1273  0.5302
 6814SOL     OW32074   2.278   2.216   8.428  0.0632 -0.2662 -0.2918
 6814SOL    HW132075   2.296   2.125   8.454  1.6172  0.0698 -0.2277
 6814SOL    HW232076   2.353   2.261   8.465 -0.1380 -1.4427  1.5585
 6815SOL     OW32077   2.917   1.935   4.512  0.3065  0.1217  0.0877
 6815SOL    HW132078   2.969   2.004   4.470  2.6361 -1.0125  1.0940
 6815SOL    HW232079   2.835   1.975   4.541  0.7585  1.5913 -0.6671
 6816SOL     OW32080   4.697   2.100  16.948  0.3478 -0.2094  0.2898
 6816SOL    HW132081   4.621   2.044  16.963  1.1669 -1.4091 -0.0534
 6816SOL    HW232082   4.655   2.185  16.934  0.0033 -0.5039 -0.5009
 6817SOL     OW32083   3.173   1.383   2.570 -0.1079  0.5823  0.1432
 6817SOL    HW132084   3.230   1.457   2.550  0.2532  0.3436  0.2956
 6817SOL    HW232085   3.085   1.400   2.535 -0.1842  0.8310  0.4556
 6818SOL     OW32086   4.230   1.380  10.151 -0.0069  0.1505  0.0721
 6818SOL    HW132087   4.278   1.447  10.103 -0.7242  1.0754  0.6368
 6818SOL    HW232088   4.144   1.387  10.110  0.3595 -2.3517 -1.1181
 6819SOL     OW32089   3.049   2.743   7.300 -0.4465  0.2233  0.0994
 6819SOL    HW132090   3.056   2.661   7.251 -1.7129  0.9306 -1.2748
 6819SOL    HW232091   3.138   2.743   7.335  0.8595 -0.4347 -3.1702
 6820SOL     OW32092   3.545   2.053   0.580  0.5325 -1.1723 -0.3549
 6820SOL    HW132093   3.627   2.027   0.538  1.5940 -1.0049  1.5970
 6820SOL    HW232094   3.567   2.041   0.673 -2.2427 -0.8306  0.3257
 6821SOL     OW32095   0.814   0.875   3.649 -0.4715 -0.3822  0.7098
 6821SOL    HW132096   0.902   0.867   3.614 -1.1574 -2.6887 -0.4973
 6821SOL    HW232097   0.812   0.799   3.706 -0.8501 -0.1269  1.0392
 6822SOL     OW32098   4.614   0.784   7.586 -0.0934 -0.4155  0.3271
 6822SOL    HW132099   4.613   0.770   7.680  1.7622 -2.4115  0.0432
 6822SOL    HW232100   4.609   0.696   7.549  1.3742  1.2875 -4.0136
 6823SOL     OW32101   3.993   2.209   5.933  0.5458 -0.0644 -0.1267
 6823SOL    HW132102   3.938   2.221   6.010 -0.5118 -1.2680 -0.6887
 6823SOL    HW232103   4.043   2.290   5.935  1.9358 -0.9184 -0.4465
 6824SOL     OW32104   4.051   0.509  10.662  0.3198 -0.2830 -0.2190
 6824SOL    HW132105   4.022   0.600  10.662 -0.6307 -0.5775  0.3906
 6824SOL    HW232106   4.060   0.494  10.568  0.7309  0.4787 -0.3008
 6825SOL     OW32107   4.289   2.365   7.617 -0.0732 -0.2955  0.1476
 6825SOL    HW132108   4.318   2.351   7.707  1.5578  1.1783 -0.1376
 6825SOL    HW232109   4.308   2.278   7.581 -2.9655  0.3398 -2.8539
 6826SOL     OW32110   3.474   1.329   0.189  0.4357  0.1957  0.0614
 6826SOL    HW132111   3.446   1.351   0.100  1.5654  0.1022 -0.3124
 6826SOL    HW232112   3.393   1.325   0.239 -1.1035 -0.8760 -2.5368
 6827SOL     OW32113   0.446   1.285   0.705  0.3254 -0.5990  0.4552
 6827SOL    HW132114   0.419   1.338   0.630 -0.1322  0.7121  1.5702
 6827SOL    HW232115   0.404   1.200   0.690 -1.6472  0.4894 -0.1586
 6828SOL     OW32116   0.813   1.525  16.319  0.4026  0.2095  0.1378
 6828SOL    HW132117   0.766   1.477  16.387 -1.6774  0.3930 -1.1635
 6828SOL    HW232118   0.845   1.450  16.269  1.2975  1.2002 -0.7770
 6829SOL     OW32119   0.153   4.703   9.829  0.1436  0.1614 -0.0109
 6829SOL    HW132120   0.190   4.625   9.787  2.0091  0.5748  0.8583
 6829SOL    HW232121   0.084   4.663   9.881  0.8041  1.0668  1.5373
 6830SOL     OW32122   0.327   1.615  12.960 -0.1647  0.4440  0.6771
 6830SOL    HW132123   0.275   1.535  12.957 -0.7712  0.8838 -0.7997
 6830SOL    HW232124   0.398   1.574  13.010 -0.6670 -0.9499  0.2609
 6831SOL     OW32125   3.276   2.484   0.171 -0.0547 -0.1529 -0.1768
 6831SOL    HW132126   3.229   2.442   0.099  0.0186 -1.0129  0.2762
 6831SOL    HW232127   3.205   2.522   0.223 -0.0974 -1.1171  0.4721
 6832SOL     OW32128   1.186   4.546  16.607 -0.0148  0.1620  0.0440
 6832SOL    HW132129   1.118   4.569  16.670  0.1055 -2.4752  1.1564
 6832SOL    HW232130   1.232   4.482  16.661  0.1137  0.0904 -0.1498
 6833SOL     OW32131   0.652   0.594   4.287  0.4385 -1.0040  0.6128
 6833SOL    HW132132   0.697   0.591   4.372  0.2717 -1.0069  0.7010
 6833SOL    HW232133   0.679   0.679   4.253 -2.2633 -1.3150 -2.2727
 6834SOL     OW32134   3.700   1.635   5.980 -0.6580 -0.1787  0.3976
 6834SOL    HW132135   3.679   1.664   6.069 -0.1997  0.4879  0.2927
 6834SOL    HW232136   3.629   1.576   5.957 -1.4427  0.5825  0.8729
 6835SOL     OW32137   1.111   3.937   5.283  0.1562  0.3117 -0.0208
 6835SOL    HW132138   1.097   3.850   5.247  0.7402 -0.3974  1.4610
 6835SOL    HW232139   1.035   3.953   5.339 -0.1146  0.9364 -0.5707
 6836SOL     OW32140   3.264   3.824   0.623  0.3864 -0.0278 -0.1737
 6836SOL    HW132141   3.214   3.747   0.653 -0.7595  0.7269 -0.1454
 6836SOL    HW232142   3.219   3.889   0.677  2.7218  2.0666 -0.7860
 6837SOL     OW32143   4.302   1.774   0.582  0.3798  0.1053  0.0070
 6837SOL    HW132144   4.265   1.686   0.574  0.1733  0.1883  0.0545
 6837SOL    HW232145   4.364   1.767   0.510 -0.6084 -2.9420 -0.5625
 6838SOL     OW32146   3.273   2.278   6.195 -0.4860 -0.0584  0.1486
 6838SOL    HW132147   3.186   2.241   6.212 -0.6207  1.1647  2.1390
 6838SOL    HW232148   3.314   2.243   6.273  2.0103  0.2572 -1.0096
 6839SOL     OW32149   4.007   3.700   8.783  0.3573  0.2522  0.3742
 6839SOL    HW132150   3.924   3.746   8.773  0.3461 -0.3500 -2.4324
 6839SOL    HW232151   4.053   3.753   8.717  0.4662 -0.2828  0.0267
 6840SOL     OW32152   3.535   0.916  12.985  0.0022 -0.2009  0.7402
 6840SOL    HW132153   3.557   0.934  13.077 -0.4232  0.7734  0.6430
 6840SOL    HW232154   3.541   0.820  12.977  0.9615 -0.0302 -0.5688
 6841SOL     OW32155   0.755   1.408   1.687 -0.0410 -0.2567  0.5577
 6841SOL    HW132156   0.727   1.499   1.685  1.4567  0.1276 -2.0695
 6841SOL    HW232157   0.795   1.406   1.601 -0.8227  0.4093  0.1797
 6842SOL     OW32158   2.502   4.336   8.035 -0.6226  0.4854 -0.3177
 6842SOL    HW132159   2.520   4.393   8.110  0.7451 -0.0555 -0.2262
 6842SOL    HW232160   2.408   4.350   8.028 -0.9345 -0.5443  1.7029
 6843SOL     OW32161   1.586   1.699   7.365  0.3026  0.6929  0.6022
 6843SOL    HW132162   1.651   1.645   7.320  2.0160  2.3681  1.0679
 6843SOL    HW232163   1.547   1.622   7.406 -0.4257  0.4575 -0.5120
 6844SOL     OW32164   3.811   4.441   8.358 -0.3217 -0.0873  0.1283
 6844SOL    HW132165   3.873   4.512   8.378 -3.8399  2.9831 -0.0344
 6844SOL    HW232166   3.826   4.418   8.266 -2.7993  3.1934 -1.0685
 6845SOL     OW32167   3.247   2.888   6.534 -0.1590  0.2820 -0.1600
 6845SOL    HW132168   3.163   2.895   6.580  0.0160 -0.0224  0.2022
 6845SOL    HW232169   3.303   2.876   6.610  0.3701  1.0722 -0.4256
 6846SOL     OW32170   2.621   4.460   4.207  0.0951  0.2530 -0.2227
 6846SOL    HW132171   2.646   4.543   4.166  0.6022 -0.6866 -1.8102
 6846SOL    HW232172   2.656   4.472   4.296 -2.1735  0.6595  0.6074
 6847SOL     OW32173   2.168   3.960   8.597 -0.4028 -0.2126  0.3109
 6847SOL    HW132174   2.209   3.975   8.682 -1.7245 -1.3536  1.1610
 6847SOL    HW232175   2.244   3.945   8.540 -1.3139  0.6491 -1.1353
 6848SOL     OW32176   0.869   1.230  16.859  0.3836  0.1092 -0.8788
 6848SOL    HW132177   0.799   1.285  16.894 -1.3868 -2.5273 -0.2377
 6848SOL    HW232178   0.849   1.225  16.765 -2.1777  0.3937 -0.3512
 6849SOL     OW32179   1.089   2.929   4.559 -0.2696 -0.3858 -0.1733
 6849SOL    HW132180   1.102   2.851   4.504 -0.4653 -0.7291  0.2704
 6849SOL    HW232181   1.148   2.994   4.520  0.5623 -0.7435  0.4741
 6850SOL     OW32182   3.625   4.360   2.528 -0.3697 -0.3839  0.6163
 6850SOL    HW132183   3.664   4.285   2.574 -0.6044 -0.7000  0.2948
 6850SOL    HW232184   3.590   4.416   2.597 -1.1077 -0.8313  0.6013
 6851SOL     OW32185   3.912   3.163  17.209  0.2209 -0.0876 -0.1780
 6851SOL    HW132186   3.889   3.255  17.197 -0.9401 -0.4925 -1.1128
 6851SOL    HW232187   3.829   3.123  17.182  1.2661 -2.1042 -0.3702
 6852SOL     OW32188   4.268   1.774   3.680  0.3008 -0.3136 -0.1002
 6852SOL    HW132189   4.270   1.832   3.756  1.2651  0.5834 -0.8255
 6852SOL    HW232190   4.337   1.710   3.699  1.1127  1.0718  1.5938
 6853SOL     OW32191   0.862   3.351  14.177 -0.1893 -0.0763 -0.0801
 6853SOL    HW132192   0.840   3.394  14.094 -2.2113 -0.1156  0.4334
 6853SOL    HW232193   0.770   3.340  14.203 -0.3643  0.4463 -0.4685
 6854SOL     OW32194   1.203   0.062   1.641 -0.2413  0.3226  0.1771
 6854SOL    HW132195   1.265   0.046   1.712 -2.7719  0.4692  2.4118
 6854SOL    HW232196   1.163   0.142   1.676 -1.5532 -0.7968  1.2103
 6855SOL     OW32197   4.201   4.136   3.946 -0.4728 -0.4807 -0.1199
 6855SOL    HW132198   4.236   4.109   3.861  1.5209 -0.4352  0.6869
 6855SOL    HW232199   4.169   4.049   3.970 -0.6190 -0.4601 -0.2391
 6856SOL     OW32200   0.290   1.029   3.667  0.2984 -0.8295 -0.0526
 6856SOL    HW132201   0.328   1.070   3.589  0.1216  1.0319  0.8289
 6856SOL    HW232202   0.245   0.955   3.626  0.3743 -0.2796 -1.1189
 6857SOL     OW32203   1.407   4.046   2.525  0.0716  0.4312  0.7802
 6857SOL    HW132204   1.348   4.106   2.479  1.4530  1.2809  0.1180
 6857SOL    HW232205   1.383   3.966   2.478  0.2804  0.4652  0.6184
 6858SOL     OW32206   0.223   1.248   2.387  0.4651  0.6197  0.2554
 6858SOL    HW132207   0.230   1.343   2.378 -0.9222  0.5741 -1.2223
 6858SOL    HW232208   0.129   1.241   2.369  0.0956  0.3697  2.2602
 6859SOL     OW32209   2.389   2.798   9.942  0.1824 -0.2624  0.0822
 6859SOL    HW132210   2.405   2.764  10.030  0.5743  3.5333  1.4543
 6859SOL    HW232211   2.325   2.866   9.959 -2.0488 -1.5899 -3.0832
 6860SOL     OW32212   0.182   3.299   4.989 -0.1541  0.0041 -0.3487
 6860SOL    HW132213   0.197   3.228   5.051 -1.2224  0.4833  0.4709
 6860SOL    HW232214   0.097   3.265   4.959 -0.7804  1.0412  0.2553
 6861SOL     OW32215   1.859   2.610   6.992  0.1200 -0.1197  0.4022
 6861SOL    HW132216   1.864   2.574   6.903  1.5952 -0.4889  0.6285
 6861SOL    HW232217   1.795   2.679   6.974  0.0751 -0.2768 -0.0464
 6862SOL     OW32218   4.400   0.491   1.106 -0.0254 -0.2939 -0.0455
 6862SOL    HW132219   4.460   0.426   1.143 -0.7924 -0.5293  0.7551
 6862SOL    HW232220   4.462   0.563   1.113  1.2169 -1.4393  0.8627
 6863SOL     OW32221   2.652   0.186   3.051  0.6655  0.1774 -0.2339
 6863SOL    HW132222   2.623   0.139   2.972 -1.0954 -1.0844  1.1722
 6863SOL    HW232223   2.652   0.122   3.122  1.3131 -1.6396 -1.8470
 6864SOL     OW32224   0.339   4.071   6.367 -0.9573  0.2553  0.3815
 6864SOL    HW132225   0.309   3.982   6.380  2.4264 -1.3568 -2.6616
 6864SOL    HW232226   0.263   4.113   6.327  0.8226  2.0503 -1.2077
 6865SOL     OW32227   2.501   0.390   5.513 -0.7412 -0.3298 -0.0064
 6865SOL    HW132228   2.525   0.313   5.566  1.8534 -0.7611 -1.7852
 6865SOL    HW232229   2.588   0.428   5.498 -1.9595  1.2659 -2.8832
 6866SOL     OW32230   0.123   2.518   4.514 -0.8625  0.7036  0.4103
 6866SOL    HW132231   0.101   2.608   4.488 -1.5153  0.4894  0.2132
 6866SOL    HW232232   0.048   2.490   4.567 -1.3299 -1.4510 -1.4158
 6867SOL     OW32233   0.123   1.685   8.140 -0.1576  0.0244 -0.4518
 6867SOL    HW132234   0.102   1.593   8.151 -0.1160  0.0500 -0.1630
 6867SOL    HW232235   0.105   1.713   8.230 -1.5963  0.0199 -0.7449
 6868SOL     OW32236   2.771   2.140   3.977  0.7395  0.0703 -0.0063
 6868SOL    HW132237   2.824   2.215   4.006  0.1859  1.1081 -1.7093
 6868SOL    HW232238   2.690   2.164   4.023 -0.4655 -0.4317 -1.8908
 6869SOL     OW32239   2.308   3.689  14.828 -0.0816 -0.6772 -0.2102
 6869SOL    HW132240   2.266   3.688  14.742 -0.1788  0.2317 -0.1707
 6869SOL    HW232241   2.327   3.595  14.831 -3.4194 -1.2984  1.3977
 6870SOL     OW32242   3.251   3.701   6.285 -0.0530  0.3702 -0.3358
 6870SOL    HW132243   3.297   3.757   6.348 -1.1735  0.7236  0.1782
 6870SOL    HW232244   3.253   3.752   6.205  3.8783 -0.9471 -1.0629
 6871SOL     OW32245   0.912   3.190  14.878 -0.0306 -0.6422  0.5565
 6871SOL    HW132246   0.838   3.141  14.912 -1.1264  0.9684  0.5198
 6871SOL    HW232247   0.885   3.211  14.789 -0.5307 -1.5963  0.4892
 6872SOL     OW32248   0.631   1.402  11.877  0.1824  0.7174 -0.3182
 6872SOL    HW132249   0.650   1.489  11.842  0.0419  0.5165 -0.8796
 6872SOL    HW232250   0.552   1.424  11.926 -0.2010 -0.1772 -0.5316
 6873SOL     OW32251   4.539   1.543  10.935 -0.1905  0.7826 -0.3533
 6873SOL    HW132252   4.511   1.623  10.891 -1.4617  0.6975  0.3087
 6873SOL    HW232253   4.585   1.583  11.008  0.0059  1.1766 -0.6934
 6874SOL     OW32254   4.367   3.699   2.125 -0.0235  0.2862  0.0312
 6874SOL    HW132255   4.396   3.664   2.209  2.1780  4.3076  0.9284
 6874SOL    HW232256   4.445   3.693   2.069 -0.1497 -1.7041  0.0813
 6875SOL     OW32257   3.711   3.581   6.778 -0.4654  0.1385 -0.4195
 6875SOL    HW132258   3.649   3.509   6.789 -0.0234 -0.4675 -1.8801
 6875SOL    HW232259   3.686   3.616   6.692  0.3741 -0.5337 -0.9356
 6876SOL     OW32260   0.631   3.165   9.969  0.1478 -0.1170  0.2821
 6876SOL    HW132261   0.623   3.091   9.908 -0.2717 -0.4879  0.7761
 6876SOL    HW232262   0.715   3.199   9.940 -0.2746  0.8588  0.2269
 6877SOL     OW32263   1.622   0.486   9.929  0.1007  0.0262  0.4702
 6877SOL    HW132264   1.575   0.409   9.961 -0.3991  0.5194  0.9420
 6877SOL    HW232265   1.702   0.477   9.981  0.2200  2.0786  0.6691
 6878SOL     OW32266   1.493   2.819   9.183  0.1580 -0.2062 -0.0564
 6878SOL    HW132267   1.506   2.772   9.100  0.2386 -0.6139  0.1867
 6878SOL    HW232268   1.564   2.788   9.239  0.7127  1.7732  0.3417
 6879SOL     OW32269   0.726   3.333   6.128 -0.7741 -0.4074 -0.5588
 6879SOL    HW132270   0.639   3.348   6.164  0.8595  1.0390  2.7774
 6879SOL    HW232271   0.694   3.312   6.040 -1.8009  0.5958 -0.4202
 6880SOL     OW32272   1.771   4.113   1.011  0.1884  0.6118 -0.1161
 6880SOL    HW132273   1.772   4.053   1.085  0.4602 -1.4385 -1.7931
 6880SOL    HW232274   1.728   4.077   0.933  0.6855 -2.0616  0.8644
 6881SOL     OW32275   0.576   0.218   5.473 -0.1490  0.2304 -0.0111
 6881SOL    HW132276   0.535   0.216   5.560 -3.1132 -0.1894 -1.4243
 6881SOL    HW232277   0.638   0.148   5.493 -1.4156 -0.6543  0.7883
 6882SOL     OW32278   1.032   3.873  16.677  0.3755  0.0489  0.5815
 6882SOL    HW132279   1.000   3.798  16.627  1.2529  0.3935 -0.4828
 6882SOL    HW232280   1.095   3.915  16.619 -1.8688  0.5209 -1.4754
 6883SOL     OW32281   2.570   1.873   5.700  0.4124  0.4807 -0.3509
 6883SOL    HW132282   2.611   1.936   5.760  1.1747  0.1469 -0.5168
 6883SOL    HW232283   2.500   1.929   5.669 -0.0535  0.2689  0.3110
 6884SOL     OW32284   2.680   2.842   1.006  0.4390 -0.0928 -0.7126
 6884SOL    HW132285   2.652   2.903   0.939  0.0599 -0.4159 -0.8478
 6884SOL    HW232286   2.767   2.812   0.981  0.9344  0.4721  0.3318
 6885SOL     OW32287   2.503   3.642   7.958  0.5219  0.6304  0.3784
 6885SOL    HW132288   2.559   3.564   7.962 -1.7060 -0.8431  3.1554
 6885SOL    HW232289   2.580   3.699   7.955 -0.5744  2.0978  0.3135
 6886SOL     OW32290   2.957   2.899   3.720 -0.3024  0.4321  0.4123
 6886SOL    HW132291   2.992   2.832   3.661 -1.9652  0.9439 -1.1438
 6886SOL    HW232292   2.995   2.978   3.681 -2.6929  1.2222 -0.2606
 6887SOL     OW32293   3.188   2.927   0.339  0.0090 -0.8676 -0.1893
 6887SOL    HW132294   3.151   2.953   0.423 -0.9977  0.0975 -0.9373
 6887SOL    HW232295   3.184   3.009   0.290 -0.7089 -0.3767  0.6867
 6888SOL     OW32296   0.417   1.472   6.630 -0.1457 -0.4997 -0.1662
 6888SOL    HW132297   0.466   1.420   6.566 -1.5381  1.0845 -2.5133
 6888SOL    HW232298   0.329   1.438   6.614 -0.6173  0.4158  0.4928
 6889SOL     OW32299   3.329   1.704   1.202 -0.0400 -0.5385  0.3452
 6889SOL    HW132300   3.388   1.778   1.185 -0.2728 -0.5633 -0.5684
 6889SOL    HW232301   3.345   1.692   1.296  0.2299  0.1180  0.3814
 6890SOL     OW32302   2.284   3.438   6.157  0.2548 -0.2607 -0.4371
 6890SOL    HW132303   2.281   3.445   6.061  1.4536 -4.9074 -0.8176
 6890SOL    HW232304   2.273   3.530   6.184 -1.4299 -0.5472 -0.1328
 6891SOL     OW32305   3.445   4.638   4.617  0.1267 -0.2568 -0.1026
 6891SOL    HW132306   3.417   4.629   4.708 -1.5104 -0.2034 -0.5998
 6891SOL    HW232307   3.467   4.552   4.582  4.9743  1.2621 -0.7821
 6892SOL     OW32308   1.143   4.573   3.064  0.1383  0.1829  0.1212
 6892SOL    HW132309   1.058   4.609   3.041 -0.6195 -0.9860  1.0691
 6892SOL    HW232310   1.196   4.649   3.040 -1.4748  0.8681 -1.3036
 6893SOL     OW32311   3.879   1.909   2.534 -0.8122 -0.1673  0.7684
 6893SOL    HW132312   3.854   1.991   2.577  1.8627  2.2344 -2.2697
 6893SOL    HW232313   3.843   1.918   2.446  2.8861  0.4012 -0.6889
 6894SOL     OW32314   4.226   0.794   3.864 -0.1515  0.0967  0.6679
 6894SOL    HW132315   4.202   0.722   3.923  2.1947  0.9223  2.6099
 6894SOL    HW232316   4.205   0.751   3.781  1.5412  2.4567 -0.9687
 6895SOL     OW32317   1.694   2.851   8.761  0.1476 -0.0027  0.0897
 6895SOL    HW132318   1.660   2.860   8.672  2.1628 -1.1601 -0.7960
 6895SOL    HW232319   1.789   2.856   8.747  0.1834  1.5186  0.8790
 6896SOL     OW32320   3.480   3.421   5.412 -0.2199 -0.3844 -0.0476
 6896SOL    HW132321   3.451   3.486   5.476  0.8409  1.0001 -0.9916
 6896SOL    HW232322   3.423   3.431   5.335  1.1381 -1.6211 -1.2151
 6897SOL     OW32323   3.468   2.544   1.417 -0.0613 -0.0914 -0.3452
 6897SOL    HW132324   3.441   2.529   1.507 -0.5530 -3.3258 -1.0378
 6897SOL    HW232325   3.450   2.457   1.383 -2.2689  0.8710 -1.5784
 6898SOL     OW32326   2.158   1.051   7.768  0.1518 -0.7067  0.5150
 6898SOL    HW132327   2.216   1.101   7.825 -0.6469 -1.6861  2.2095
 6898SOL    HW232328   2.222   0.991   7.729  1.0443  0.2590  0.5097
 6899SOL     OW32329   1.945   3.941   9.042  0.2707 -0.5496  1.3357
 6899SOL    HW132330   1.885   3.957   9.114  0.8739 -0.0113  1.7197
 6899SOL    HW232331   2.019   3.933   9.103  0.7569  0.7134  0.9233
 6900SOL     OW32332   2.541   4.127   2.875 -0.2271 -0.4194 -0.4057
 6900SOL    HW132333   2.589   4.092   2.951 -0.0996  2.6764  0.9372
 6900SOL    HW232334   2.579   4.070   2.808  0.5848 -1.0313  0.5774
 6901SOL     OW32335   4.467   3.013  15.876  0.6800  0.1298  0.3106
 6901SOL    HW132336   4.532   3.035  15.942  0.8227 -0.2138  0.2896
 6901SOL    HW232337   4.445   2.925  15.908  1.7185  0.4140  1.7915
 6902SOL     OW32338   2.083   3.101   6.979  0.6452 -0.0673  0.1298
 6902SOL    HW132339   1.988   3.091   6.969  0.2973  2.9398  0.5388
 6902SOL    HW232340   2.115   3.021   6.938  0.4086  0.1163 -0.4143
 6903SOL     OW32341   4.735   0.256   5.696  0.1194  0.5974 -0.0113
 6903SOL    HW132342   4.697   0.315   5.630  1.3899  3.3177  1.6917
 6903SOL    HW232343   4.711   0.305   5.775  3.9961 -0.2272  1.6499
 6904SOL     OW32344   1.888   1.374  17.447  0.0205 -0.3885 -0.0108
 6904SOL    HW132345   1.938   1.430  17.387  0.4170 -2.2387 -1.4080
 6904SOL    HW232346   1.823   1.435  17.482  2.7132  1.5902  1.5097
 6905SOL     OW32347   1.442   2.666  15.469  0.5137  0.0028  0.2002
 6905SOL    HW132348   1.461   2.695  15.380 -3.7050 -1.7688 -1.2928
 6905SOL    HW232349   1.440   2.571  15.461 -2.2522  0.0650  0.0657
 6906SOL     OW32350   3.562   4.641   7.722  0.7106 -0.1323  0.5316
 6906SOL    HW132351   3.482   4.617   7.768  0.3999 -0.1958 -0.0490
 6906SOL    HW232352   3.584   4.551   7.695  0.2674  0.4689 -1.7751
 6907SOL     OW32353   1.492   3.561   8.542 -0.2936  0.0624  0.1350
 6907SOL    HW132354   1.469   3.652   8.523 -1.3596 -0.3472 -0.5256
 6907SOL    HW232355   1.429   3.534   8.608 -0.0828  0.1705  0.3820
 6908SOL     OW32356   0.269   4.180   2.196 -0.3264  0.5073 -0.3197
 6908SOL    HW132357   0.364   4.193   2.202 -0.4299 -0.0316  2.7251
 6908SOL    HW232358   0.247   4.166   2.289  1.6775  0.8973  0.2086
 6909SOL     OW32359   4.324   0.481   2.308 -0.1159  0.1470 -0.1588
 6909SOL    HW132360   4.315   0.398   2.261  1.8561  0.6305 -1.3764
 6909SOL    HW232361   4.236   0.477   2.347  0.3947 -3.9162  0.5454
 6910SOL     OW32362   1.891   3.674   2.810 -0.3982 -0.6096  0.6819
 6910SOL    HW132363   1.955   3.737   2.777 -1.4919 -0.5898 -1.4464
 6910SOL    HW232364   1.945   3.626   2.872 -0.4082 -1.0738  0.3336
 6911SOL     OW32365   2.838   2.552   6.491  0.1727  0.3987  0.4131
 6911SOL    HW132366   2.787   2.606   6.431 -2.0170 -2.5754 -0.4281
 6911SOL    HW232367   2.809   2.580   6.578 -0.9347  0.0217  0.1664
 6912SOL     OW32368   3.541   4.042   8.000 -0.3959  0.2804  0.1520
 6912SOL    HW132369   3.584   4.127   8.005 -1.2243  0.7461 -0.5614
 6912SOL    HW232370   3.452   4.075   7.984 -1.5467 -3.3280 -0.9192
 6913SOL     OW32371   2.870   2.630   3.114 -1.1341 -0.1752  0.3615
 6913SOL    HW132372   2.938   2.687   3.076 -1.8907  1.1019  0.9118
 6913SOL    HW232373   2.838   2.597   3.030  0.3070 -0.1966 -0.1967
 6914SOL     OW32374   4.400   1.075  15.674  0.1378  0.5262 -0.4066
 6914SOL    HW132375   4.437   1.108  15.592 -1.9100  3.4194 -0.1341
 6914SOL    HW232376   4.307   1.077  15.650 -0.2529  0.8166  1.2036
 6915SOL     OW32377   1.373   0.068   3.056  0.1244 -0.4840  0.3590
 6915SOL    HW132378   1.454   0.019   3.073  0.9738  0.5881 -0.5618
 6915SOL    HW232379   1.350   0.113   3.137 -0.4052 -1.5920  0.8223
 6916SOL     OW32380   0.651   0.808   8.203  0.9890  0.3447 -0.2098
 6916SOL    HW132381   0.736   0.850   8.216  0.0059  2.2220  0.1832
 6916SOL    HW232382   0.589   0.881   8.192  0.1063 -0.1994  1.1719
 6917SOL     OW32383   3.274   4.531   1.883  0.1364  0.0567 -0.3852
 6917SOL    HW132384   3.309   4.620   1.879 -1.4552  0.6646 -0.8277
 6917SOL    HW232385   3.248   4.533   1.975 -0.6441 -2.0143 -0.5532
 6918SOL     OW32386   0.152   3.078   5.495 -0.6909 -0.1682  0.0557
 6918SOL    HW132387   0.133   3.121   5.579 -1.4309 -0.9571  0.3044
 6918SOL    HW232388   0.219   3.137   5.462  0.9291 -1.6294  0.7402
 6919SOL     OW32389   1.291   2.943   4.778  0.0522  0.2381  0.9206
 6919SOL    HW132390   1.229   2.938   4.705  0.9343  1.9379  0.0577
 6919SOL    HW232391   1.247   2.987   4.851 -0.7312 -0.5468  0.9168
 6920SOL     OW32392   1.388   2.850  12.502  0.7535 -0.9338  0.8346
 6920SOL    HW132393   1.293   2.859  12.494  1.1273  1.1311 -1.6153
 6920SOL    HW232394   1.397   2.900  12.583  1.8996  3.1396 -1.7479
 6921SOL     OW32395   1.549   0.975   3.480  0.2329  0.2046 -1.0988
 6921SOL    HW132396   1.519   1.045   3.422 -1.4170  0.0278 -0.4657
 6921SOL    HW232397   1.577   1.018   3.560 -0.9249 -0.8865 -0.1104
 6922SOL     OW32398   1.668   2.988   8.446 -0.3865  0.2357 -0.0491
 6922SOL    HW132399   1.729   3.057   8.421 -0.6829 -0.0023 -1.4549
 6922SOL    HW232400   1.696   2.925   8.379  0.7060 -0.0611  0.6930
 6923SOL     OW32401   3.298   3.903  13.228 -0.2786  0.1064 -0.3310
 6923SOL    HW132402   3.251   3.986  13.216 -0.2831  0.2604  0.7436
 6923SOL    HW232403   3.300   3.894  13.323 -0.3267 -2.1726 -0.5575
 6924SOL     OW32404   2.389   2.001  16.848 -0.0828  0.1588 -0.5200
 6924SOL    HW132405   2.446   2.071  16.817 -0.5455  0.2754 -1.1213
 6924SOL    HW232406   2.372   1.967  16.760 -0.6950 -2.6045  0.6561
 6925SOL     OW32407   0.624   1.759  12.796 -0.1485 -0.5420  0.2638
 6925SOL    HW132408   0.621   1.783  12.889  2.4927 -1.1510  0.5344
 6925SOL    HW232409   0.639   1.664  12.801 -0.6000 -0.5902  0.7508
 6926SOL     OW32410   2.352   3.516   6.483  0.5665 -0.0013 -0.0566
 6926SOL    HW132411   2.426   3.474   6.439  0.0271 -1.4370  0.3920
 6926SOL    HW232412   2.362   3.609   6.466  0.1622  0.2215  0.9106
 6927SOL     OW32413   2.179   1.625   4.425  0.2037  0.2103 -0.0753
 6927SOL    HW132414   2.216   1.568   4.493  0.3414 -0.1607 -0.4670
 6927SOL    HW232415   2.179   1.559   4.357 -2.4432 -1.0076  1.0774
 6928SOL     OW32416   4.021   2.005   3.913 -0.1472 -0.3010  0.2793
 6928SOL    HW132417   3.948   2.066   3.916  0.2728  0.2776 -1.1549
 6928SOL    HW232418   3.981   1.920   3.935  0.1187 -0.7230 -0.8245
 6929SOL     OW32419   3.122   1.523   5.139  0.2662  0.2295 -0.5839
 6929SOL    HW132420   3.216   1.537   5.149  0.5171 -2.5351  0.8160
 6929SOL    HW232421   3.110   1.575   5.059  0.3798  1.9418  0.5213
 6930SOL     OW32422   1.355   2.921   6.845 -0.0810  0.5615 -0.4143
 6930SOL    HW132423   1.278   2.970   6.815 -0.5431  0.5234  0.7248
 6930SOL    HW232424   1.379   2.887   6.759 -2.2601  0.9568 -1.1849
 6931SOL     OW32425   1.769   0.539  16.298 -0.5460 -0.1961  0.0231
 6931SOL    HW132426   1.747   0.484  16.374  1.7759 -1.1490  0.0242
 6931SOL    HW232427   1.680   0.574  16.298 -1.1992 -1.8479  0.3551
 6932SOL     OW32428   4.353   3.789   7.271  0.2134  0.2890 -0.3220
 6932SOL    HW132429   4.414   3.791   7.197  1.1350 -2.0399  0.3926
 6932SOL    HW232430   4.384   3.709   7.312 -0.9850  0.4424  0.8603
 6933SOL     OW32431   2.308   1.253  16.667 -0.1223 -0.0537  0.3729
 6933SOL    HW132432   2.271   1.305  16.738  0.4785 -0.3526  0.9063
 6933SOL    HW232433   2.228   1.207  16.640 -0.2069  1.2275 -1.5809
 6934SOL     OW32434   1.824   3.600  17.358 -0.5222 -0.4637 -0.4075
 6934SOL    HW132435   1.902   3.547  17.342 -0.3528 -0.1065 -0.7482
 6934SOL    HW232436   1.776   3.542  17.417  1.5710 -3.3969 -1.5533
 6935SOL     OW32437   1.425   4.095   8.831 -0.0727  0.0237 -0.5481
 6935SOL    HW132438   1.377   4.171   8.863  0.8497 -0.5552  2.2489
 6935SOL    HW232439   1.429   4.051   8.916 -1.2605 -0.7204 -0.8643
 6936SOL     OW32440   0.729   4.139   7.973 -0.2181  0.3535 -0.1261
 6936SOL    HW132441   0.706   4.099   7.888 -0.2263 -0.0410  0.0596
 6936SOL    HW232442   0.800   4.081   8.001 -0.4459 -0.9198 -2.1083
 6937SOL     OW32443   3.694   3.369   2.268 -0.1138 -0.9798  0.4719
 6937SOL    HW132444   3.609   3.361   2.312 -0.3106 -0.1967  0.2406
 6937SOL    HW232445   3.700   3.464   2.277 -0.4940 -0.7406 -1.8899
 6938SOL     OW32446   1.550   0.965   3.940 -0.2331 -0.8393  0.0789
 6938SOL    HW132447   1.628   0.949   3.993  1.0886  0.4060 -1.4805
 6938SOL    HW232448   1.545   0.880   3.896 -2.2504 -0.9473  0.5138
 6939SOL     OW32449   3.047   4.087  10.001  0.0548 -0.4596 -0.4666
 6939SOL    HW132450   3.079   4.053   9.917  1.4886 -1.6798  0.5712
 6939SOL    HW232451   3.107   4.151  10.037 -2.2965  2.1021 -1.1130
 6940SOL     OW32452   0.342   0.285   1.262 -0.1570 -0.1378  0.2425
 6940SOL    HW132453   0.272   0.319   1.207  0.0718  1.6878  1.1043
 6940SOL    HW232454   0.383   0.223   1.201  0.1043 -1.3685  1.6673
 6941SOL     OW32455   2.284   0.522   3.826  0.0452 -0.6979 -0.4774
 6941SOL    HW132456   2.340   0.460   3.780 -0.9851 -0.4884 -2.0059
 6941SOL    HW232457   2.209   0.475   3.863 -0.7854  0.3392 -0.8647
 6942SOL     OW32458   3.706   4.301   9.516 -0.1251 -0.6760  0.0263
 6942SOL    HW132459   3.729   4.209   9.532 -0.1576 -0.7080 -0.1146
 6942SOL    HW232460   3.739   4.343   9.596 -2.1086 -0.3847  0.6966
 6943SOL     OW32461   2.309   0.025   5.666  0.5166  0.7143  0.0129
 6943SOL    HW132462   2.348   4.692   5.719 -0.6062  2.1597  2.6712
 6943SOL    HW232463   2.365   0.016   5.588 -0.5058  2.0332 -0.8775
 6944SOL     OW32464   2.277   1.447   4.595 -0.3525 -0.4237  0.3638
 6944SOL    HW132465   2.233   1.466   4.678  1.9332 -0.7524  1.6587
 6944SOL    HW232466   2.370   1.461   4.617 -0.9394  1.2885  1.7943
 6945SOL     OW32467   2.070   0.420   0.321  0.0320 -0.4436 -0.0720
 6945SOL    HW132468   2.156   0.391   0.350  1.6025  2.7002 -1.5735
 6945SOL    HW232469   2.091   0.476   0.245 -1.6299  1.8127  1.1143
 6946SOL     OW32470   4.429   1.497  13.787 -0.5119 -0.6801 -0.7580
 6946SOL    HW132471   4.448   1.545  13.707  0.0726 -0.6047 -0.5743
 6946SOL    HW232472   4.474   1.413  13.775  0.3189 -0.2332 -0.6962
 6947SOL     OW32473   1.743   1.875   5.449  0.2861  0.8345 -0.1249
 6947SOL    HW132474   1.718   1.783   5.442  2.8532  0.2203 -1.3894
 6947SOL    HW232475   1.740   1.907   5.359 -1.9074  0.4380 -0.1791
 6948SOL     OW32476   0.645   0.841  11.674  1.1554 -0.5409  0.3005
 6948SOL    HW132477   0.560   0.849  11.717 -0.0008  1.4149 -2.3305
 6948SOL    HW232478   0.663   0.925  11.633 -1.0714  0.7986  2.0744
 6949SOL     OW32479   2.758   0.082  13.188 -0.0750 -0.0282 -0.4419
 6949SOL    HW132480   2.696   0.150  13.165  0.2159  0.2299 -0.4557
 6949SOL    HW232481   2.825   0.137  13.229  1.4622 -0.6701 -2.1189
 6950SOL     OW32482   2.586   0.200  11.636 -0.7702  0.5681  0.2666
 6950SOL    HW132483   2.525   0.272  11.622 -0.8802  0.8061  1.9316
 6950SOL    HW232484   2.556   0.141  11.567 -0.1216  0.3534  0.1641
 6951SOL     OW32485   1.609   3.728   6.858 -0.3467  0.3891  0.2213
 6951SOL    HW132486   1.688   3.679   6.880 -0.8733 -0.7290 -0.3747
 6951SOL    HW232487   1.648   3.801   6.810  0.8283 -0.8419 -0.7004
 6952SOL     OW32488   4.322   3.018   4.242 -0.0801 -0.1525 -0.2871
 6952SOL    HW132489   4.269   3.078   4.190 -1.7949 -2.4073 -1.1765
 6952SOL    HW232490   4.331   3.052   4.331  0.2178 -0.2347 -0.2862
 6953SOL     OW32491   2.688   3.864  12.038  0.3651 -0.1142 -0.0680
 6953SOL    HW132492   2.683   3.819  12.123 -0.9769  0.2758  0.0631
 6953SOL    HW232493   2.724   3.794  11.984  0.9572  0.3008 -0.2013
 6954SOL     OW32494   3.635   2.175   4.716 -0.4955 -0.5868 -0.2529
 6954SOL    HW132495   3.671   2.187   4.803 -1.5138 -2.9060  0.4898
 6954SOL    HW232496   3.544   2.166   4.743 -0.4017 -0.0594  0.2228
 6955SOL     OW32497   0.751   4.091   5.395 -0.5201  0.1685  0.2432
 6955SOL    HW132498   0.773   4.145   5.319 -2.3804  0.4700 -0.0804
 6955SOL    HW232499   0.705   4.161   5.442 -0.3965 -1.0236  2.1498
 6956SOL     OW32500   3.370   4.422   8.127 -0.0429 -0.2111 -0.1246
 6956SOL    HW132501   3.282   4.384   8.119  0.9258 -2.3620 -0.6387
 6956SOL    HW232502   3.353   4.508   8.163 -1.1747 -0.3751 -0.2827
 6957SOL     OW32503   3.062   3.553   4.887  0.0005  0.3050  0.1768
 6957SOL    HW132504   2.989   3.535   4.947 -1.2952  2.1077 -0.8833
 6957SOL    HW232505   3.098   3.465   4.873 -0.3552  0.3774 -1.1736
 6958SOL     OW32506   1.989   4.725   6.365  0.1255 -0.3648 -0.1554
 6958SOL    HW132507   2.061   0.046   6.337 -2.5590  1.4724 -3.4158
 6958SOL    HW232508   1.917   0.052   6.356 -0.8249 -1.4799 -0.4072
 6959SOL     OW32509   3.994   3.756   5.679 -0.6217 -0.3038  0.0582
 6959SOL    HW132510   4.004   3.695   5.606 -1.0360  0.2956 -0.5077
 6959SOL    HW232511   4.084   3.762   5.710 -0.9938  3.0385  0.5359
 6960SOL     OW32512   0.834   4.157   7.039 -0.0526 -0.2465  0.3741
 6960SOL    HW132513   0.832   4.145   7.134 -3.0294  0.8382  0.4506
 6960SOL    HW232514   0.801   4.247   7.035 -0.5223 -0.3438  2.2447
 6961SOL     OW32515   2.205   4.278   3.981 -0.1039  0.2481  0.4461
 6961SOL    HW132516   2.293   4.252   4.008  0.0301  0.8859  0.6420
 6961SOL    HW232517   2.166   4.289   4.067  0.9677 -0.0183  0.9665
 6962SOL     OW32518   4.490   4.660   0.533 -0.4291 -0.0238 -0.2876
 6962SOL    HW132519   4.548   4.695   0.601  0.3941 -1.5904 -0.1805
 6962SOL    HW232520   4.403   4.688   0.562 -0.0858  0.9465 -0.2016
 6963SOL     OW32521   2.791   2.755   0.553  0.3423  0.0258  0.5034
 6963SOL    HW132522   2.747   2.671   0.563  0.4379 -0.2273 -1.0996
 6963SOL    HW232523   2.872   2.740   0.600  1.8622 -1.0348 -2.4445
 6964SOL     OW32524   3.084   3.960   0.778  0.0842  0.5533  0.3217
 6964SOL    HW132525   3.005   3.925   0.736  1.9330 -0.2387 -2.4589
 6964SOL    HW232526   3.059   4.050   0.797 -1.6827  0.8620 -3.3545
 6965SOL     OW32527   0.127   3.209   2.250  0.2316  0.0310 -0.0743
 6965SOL    HW132528   0.123   3.305   2.251  0.1974  0.0288 -0.0133
 6965SOL    HW232529   0.058   3.180   2.309  0.7952 -1.2083 -0.0040
 6966SOL     OW32530   1.184   2.392   2.389 -0.2838  0.4169  0.0817
 6966SOL    HW132531   1.234   2.472   2.406 -0.3650  0.3596  0.5894
 6966SOL    HW232532   1.096   2.417   2.417  0.0076  3.5087 -1.7504
 6967SOL     OW32533   2.045   1.943   3.794  0.2948 -0.7714  0.4016
 6967SOL    HW132534   2.033   1.852   3.768  2.6729 -1.2591  1.0789
 6967SOL    HW232535   2.010   1.946   3.883  0.9851 -0.2087  0.6540
 6968SOL     OW32536   3.547   0.294   2.140  0.1933  0.2970 -0.3165
 6968SOL    HW132537   3.592   0.326   2.219 -0.5038  1.1776 -0.2741
 6968SOL    HW232538   3.613   0.254   2.084  0.2246 -0.8274  0.5205
 6969SOL     OW32539   2.700   3.376   5.719  0.0299 -0.1771 -0.3954
 6969SOL    HW132540   2.635   3.315   5.685 -0.6278  0.3492 -0.0883
 6969SOL    HW232541   2.753   3.385   5.640  2.9875 -1.7748  1.4489
 6970SOL     OW32542   4.302   0.831   8.005  0.0262 -0.2214  0.5860
 6970SOL    HW132543   4.374   0.794   8.055  0.2053 -0.9726 -0.2321
 6970SOL    HW232544   4.234   0.825   8.073  0.0895  2.6474  0.8967
 6971SOL     OW32545   0.065   2.664   2.671  0.5931  0.3065 -0.3252
 6971SOL    HW132546   4.727   2.612   2.701 -0.9577  2.7340  0.0432
 6971SOL    HW232547   0.025   2.704   2.594 -1.7258  3.6808  2.6260
 6972SOL     OW32548   3.262   4.730  15.222 -0.1874 -0.1455  0.1585
 6972SOL    HW132549   3.318   0.031  15.154  0.1190  1.3355  1.1918
 6972SOL    HW232550   3.249   0.068  15.282 -0.5754  0.5560 -0.8085
 6973SOL     OW32551   4.349   2.981  10.730 -0.1877 -0.5940  0.1071
 6973SOL    HW132552   4.288   3.039  10.775  0.7166  1.6190 -1.5166
 6973SOL    HW232553   4.378   2.925  10.802  4.1409 -1.3110 -2.1783
 6974SOL     OW32554   1.771   1.011  12.371 -0.1401  0.0627  0.2096
 6974SOL    HW132555   1.698   1.058  12.330  0.7458  2.8282  1.7775
 6974SOL    HW232556   1.733   0.925  12.354  1.7770 -1.5279  3.9485
 6975SOL     OW32557   2.360   2.885   1.486 -0.2714  0.5024 -0.1185
 6975SOL    HW132558   2.418   2.959   1.501 -0.6348  0.7358  0.1236
 6975SOL    HW232559   2.347   2.890   1.391  2.1076  0.5172 -0.4449
 6976SOL     OW32560   3.947   2.298   3.661  0.2346 -0.0014 -0.0173
 6976SOL    HW132561   3.856   2.320   3.680  0.4904  1.0403  0.0012
 6976SOL    HW232562   3.949   2.305   3.565 -0.0239  0.1221 -0.0142
 6977SOL     OW32563   1.334   1.990   8.906  0.1968 -0.5115 -0.0333
 6977SOL    HW132564   1.320   2.043   8.984 -1.2239 -0.0629 -0.5932
 6977SOL    HW232565   1.270   2.031   8.847 -1.4322  0.8438  2.7020
 6978SOL     OW32566   0.158   2.328   8.779  0.4214  0.2948  0.0181
 6978SOL    HW132567   0.102   2.403   8.762  0.1094  0.1773  0.5190
 6978SOL    HW232568   0.211   2.359   8.852  0.7286  0.0933 -0.1155
 6979SOL     OW32569   3.928   1.119   7.853 -0.0250 -0.5295  0.1669
 6979SOL    HW132570   3.882   1.155   7.777 -0.8385  2.9244  2.2884
 6979SOL    HW232571   3.852   1.089   7.901 -1.4409  1.2250 -0.9807
 6980SOL     OW32572   4.273   2.993   8.908  0.5488  0.8600  0.1482
 6980SOL    HW132573   4.282   3.060   8.840  0.3237 -0.8681 -1.5877
 6980SOL    HW232574   4.229   2.928   8.854  2.2818  1.2925 -1.7631
 6981SOL     OW32575   3.578   3.448   7.856  0.0387  0.2688  0.2136
 6981SOL    HW132576   3.519   3.515   7.823 -1.1553 -0.8954 -0.0256
 6981SOL    HW232577   3.663   3.476   7.822 -1.2039  2.3012 -1.1321
 6982SOL     OW32578   3.842   3.739  17.429  0.5232  0.3550  0.2898
 6982SOL    HW132579   3.782   3.803  17.467  0.2562 -0.3569  1.0594
 6982SOL    HW232580   3.922   3.743  17.482  0.9600  0.4153 -0.3628
 6983SOL     OW32581   2.330   0.453   9.358  0.2261  0.4651  0.9226
 6983SOL    HW132582   2.323   0.549   9.364 -0.2663  0.5546 -1.1821
 6983SOL    HW232583   2.412   0.434   9.403  1.4441 -1.3082 -2.0452
 6984SOL     OW32584   3.121   4.648   3.837 -0.7176  0.2028  0.2367
 6984SOL    HW132585   3.105   4.612   3.924 -1.9730 -2.1300 -0.9694
 6984SOL    HW232586   3.176   4.723   3.860  0.3068 -0.4530 -0.0778
 6985SOL     OW32587   4.112   3.233   1.395 -0.4506 -0.2598  0.2718
 6985SOL    HW132588   4.024   3.208   1.425 -0.8450  0.7526 -0.0247
 6985SOL    HW232589   4.095   3.223   1.301 -0.9699  0.6833  0.2625
 6986SOL     OW32590   3.234   3.953   3.134  0.2764 -0.3879  0.0740
 6986SOL    HW132591   3.237   4.021   3.067 -0.4724 -1.0983 -0.6966
 6986SOL    HW232592   3.191   3.878   3.093  1.8535 -0.8350 -0.7941
 6987SOL     OW32593   0.002   3.458   6.509 -0.0220  0.2947 -0.0281
 6987SOL    HW132594   0.031   3.431   6.597  2.2744 -1.3831 -1.3020
 6987SOL    HW232595   4.729   3.553   6.513  1.5917  0.4640 -0.3035
 6988SOL     OW32596   3.980   1.656  14.334 -0.1907  0.0156 -0.0959
 6988SOL    HW132597   4.023   1.611  14.407  1.5469 -1.8785 -2.2781
 6988SOL    HW232598   3.965   1.744  14.368 -0.5449 -0.0200 -0.1696
 6989SOL     OW32599   0.035   3.352  14.717 -0.3187  0.0429  0.2289
 6989SOL    HW132600   4.684   3.361  14.679 -0.8693  0.0869  1.4918
 6989SOL    HW232601   0.028   3.265  14.757  1.8414  0.4471  1.5067
 6990SOL     OW32602   3.890   1.427   7.762  0.0057  0.2790  0.0196
 6990SOL    HW132603   3.833   1.504   7.759 -0.1494  0.1405 -0.5228
 6990SOL    HW232604   3.835   1.368   7.711 -0.8746  0.9999  0.1209
 6991SOL     OW32605   1.085   3.120  15.801 -0.2093  0.0141 -0.1494
 6991SOL    HW132606   1.175   3.151  15.807 -0.8509  1.4124  2.4351
 6991SOL    HW232607   1.083   3.102  15.708 -0.1180 -4.7435  0.7696
 6992SOL     OW32608   0.251   2.383   8.501  0.0081 -0.5513 -0.5648
 6992SOL    HW132609   0.166   2.339   8.509  0.7149 -1.2102  3.2166
 6992SOL    HW232610   0.310   2.334   8.558 -0.4709  2.1215  2.2218
 6993SOL     OW32611   2.783   1.523   3.095  0.4356 -0.3287 -0.0994
 6993SOL    HW132612   2.780   1.553   3.186  0.6246  0.3656 -0.3190
 6993SOL    HW232613   2.737   1.439   3.099  0.8797 -0.6862 -2.3559
 6994SOL     OW32614   1.374   4.310   0.416  0.1333 -0.0655 -0.5481
 6994SOL    HW132615   1.292   4.277   0.379  1.8765 -3.4715 -1.4155
 6994SOL    HW232616   1.397   4.226   0.455  0.4807  0.6757  0.8340
 6995SOL     OW32617   4.684   1.162   8.601  0.3075 -0.4268  0.2144
 6995SOL    HW132618   0.003   1.217   8.656  1.3561  1.0399 -2.3183
 6995SOL    HW232619   4.603   1.153   8.650  1.4947 -0.7110  2.1171
 6996SOL     OW32620   4.675   4.045   7.573 -0.3112 -0.3579  0.1092
 6996SOL    HW132621   4.641   3.965   7.614 -2.1897 -0.4958 -1.7057
 6996SOL    HW232622   0.031   4.025   7.589  0.0430  0.4379 -0.9537
 6997SOL     OW32623   2.195   0.369   8.207  0.7952  1.0123  0.6236
 6997SOL    HW132624   2.149   0.305   8.261  2.1339  0.8317  1.5564
 6997SOL    HW232625   2.213   0.318   8.128 -0.1761 -1.7128  2.1657
 6998SOL     OW32626   4.144   4.365   5.618  0.2163 -0.1355 -0.1053
 6998SOL    HW132627   4.169   4.282   5.657  0.7729 -1.2177 -2.7158
 6998SOL    HW232628   4.209   4.375   5.548  0.3660  1.8734  0.3227
 6999SOL     OW32629   1.435   4.218   8.149  0.5927  0.1265  0.0309
 6999SOL    HW132630   1.419   4.298   8.099  0.0059 -0.2512 -0.3948
 6999SOL    HW232631   1.492   4.169   8.091  3.1079  1.9591  0.9491
 7000SOL     OW32632   1.825   1.935   2.647  0.3651 -0.0949  0.0632
 7000SOL    HW132633   1.815   2.014   2.594  0.4945 -0.1087  0.0179
 7000SOL    HW232634   1.848   1.879   2.573 -0.4370  0.3919 -0.5594
 7001SOL     OW32635   2.321   0.254   9.949 -0.1263 -0.3882 -0.6644
 7001SOL    HW132636   2.300   0.328   9.891 -0.1882 -0.7162 -1.0544
 7001SOL    HW232637   2.416   0.259   9.960 -0.1100 -2.2056 -0.0473
 7002SOL     OW32638   1.325   4.606   2.498  0.2479 -0.0073  0.3037
 7002SOL    HW132639   1.332   4.700   2.481  1.2816 -0.4751 -1.8660
 7002SOL    HW232640   1.235   4.599   2.530  1.0250 -0.8409  2.3659
 7003SOL     OW32641   2.854   3.430  10.908 -0.6654  0.0339  0.3385
 7003SOL    HW132642   2.771   3.444  10.953 -0.0643  0.3805  1.3293
 7003SOL    HW232643   2.883   3.351  10.954 -1.0661 -0.0660  0.4252
 7004SOL     OW32644   2.450   2.155   6.923 -0.5963 -0.2121 -0.3377
 7004SOL    HW132645   2.470   2.063   6.938 -0.6737  0.0251  1.2586
 7004SOL    HW232646   2.463   2.162   6.828 -0.1411  0.5474 -0.2217
 7005SOL     OW32647   4.437   2.022   7.167  0.2205  0.0416  0.0568
 7005SOL    HW132648   4.477   1.941   7.134 -1.3090 -0.6276 -0.1325
 7005SOL    HW232649   4.502   2.082   7.130  0.2471  0.6561  1.1028
 7006SOL     OW32650   0.988   1.034   2.646  0.1713  0.4014 -0.1577
 7006SOL    HW132651   0.997   1.051   2.553  0.5814  0.3759 -0.1226
 7006SOL    HW232652   0.901   0.995   2.639  0.3359 -0.2912  1.4891
 7007SOL     OW32653   0.619   0.572  15.808 -0.4361 -0.1455  0.2175
 7007SOL    HW132654   0.586   0.628  15.878 -2.1276 -1.1461  0.1947
 7007SOL    HW232655   0.535   0.538  15.777 -0.1735 -1.4633  1.0089
 7008SOL     OW32656   3.740   3.392  16.001  0.0886 -0.7312  0.0002
 7008SOL    HW132657   3.797   3.342  15.943 -1.0819  0.7123 -2.4108
 7008SOL    HW232658   3.700   3.332  16.064 -0.6824 -0.5650 -0.3289
 7009SOL     OW32659   3.223   3.045   4.971 -0.2078  0.2207  0.3462
 7009SOL    HW132660   3.260   3.017   4.887 -0.3954  1.6273 -0.2178
 7009SOL    HW232661   3.233   2.964   5.020 -0.3998 -0.1233 -0.1746
 7010SOL     OW32662   0.783   1.498  14.317  0.2499  0.3513 -0.3655
 7010SOL    HW132663   0.801   1.576  14.370 -1.7664  0.3865  0.2715
 7010SOL    HW232664   0.696   1.519  14.283 -0.3923  0.0568  1.0908
 7011SOL     OW32665   3.115   1.526   8.719 -0.1295  1.0577 -0.7799
 7011SOL    HW132666   3.067   1.481   8.649 -2.3264  0.8229  0.8566
 7011SOL    HW232667   3.060   1.503   8.794  0.4042 -0.1061 -0.7422
 7012SOL     OW32668   3.227   1.716  17.246 -0.2270 -0.2834  0.1715
 7012SOL    HW132669   3.174   1.701  17.167  1.3297 -1.0156 -0.7393
 7012SOL    HW232670   3.166   1.749  17.312 -0.5800 -2.3341  0.8720
 7013SOL     OW32671   2.263   2.608   9.737  0.1829 -0.7133 -0.1714
 7013SOL    HW132672   2.197   2.596   9.806  0.8641 -0.3113  0.5571
 7013SOL    HW232673   2.305   2.686   9.774  1.2927 -0.8075 -1.2415
 7014SOL     OW32674   2.558   3.036  11.710  0.0764  0.0576 -0.1228
 7014SOL    HW132675   2.531   3.110  11.764  0.0168  0.6361 -0.9384
 7014SOL    HW232676   2.565   2.959  11.766  2.3402  1.6501  1.7622
 7015SOL     OW32677   2.955   1.682   6.235  0.8009  0.7337  0.2673
 7015SOL    HW132678   2.907   1.623   6.293 -0.3144  1.3749  0.0005
 7015SOL    HW232679   2.893   1.726   6.178  2.3891  0.5513 -1.6035
 7016SOL     OW32680   0.147   0.601   8.332  0.0325  0.6227  0.0675
 7016SOL    HW132681   0.112   0.516   8.359  3.2741 -0.7883 -0.1526
 7016SOL    HW232682   0.221   0.614   8.392 -0.5800  0.1240  0.9307
 7017SOL     OW32683   2.884   1.855   6.507  0.5605  0.0500 -0.0530
 7017SOL    HW132684   2.914   1.814   6.588  2.8440 -0.0391 -0.9414
 7017SOL    HW232685   2.834   1.788   6.460 -1.8817  0.8692  1.3931
 7018SOL     OW32686   1.470   4.722  12.074 -0.5636 -0.3732 -0.8137
 7018SOL    HW132687   1.465   0.072  12.033  0.6494  1.1957  2.3491
 7018SOL    HW232688   1.404   4.732  12.142  2.0775 -0.7131  1.7964
 7019SOL     OW32689   3.894   4.404   4.018  0.2100 -0.2253  0.2294
 7019SOL    HW132690   3.902   4.499   4.015  0.0361 -0.1338  2.4260
 7019SOL    HW232691   3.811   4.395   3.972  0.9196 -1.1982 -0.8714
 7020SOL     OW32692   2.002   3.646   5.584 -0.2462  0.1828 -0.0101
 7020SOL    HW132693   1.941   3.666   5.512 -1.4190  2.1121  1.5183
 7020SOL    HW232694   1.985   3.553   5.600 -0.3646 -0.1061 -1.8283
 7021SOL     OW32695   3.214   3.160   8.959  0.3152  0.2017  0.2037
 7021SOL    HW132696   3.146   3.092   8.964  0.1189  0.4658  1.1583
 7021SOL    HW232697   3.288   3.102   8.939 -1.1252 -0.3771 -3.4128
 7022SOL     OW32698   3.672   4.593   9.947  0.4905  0.2526 -0.4329
 7022SOL    HW132699   3.726   4.554  10.015 -0.7051  1.7742  1.4182
 7022SOL    HW232700   3.586   4.555   9.963  0.6990  0.8420  2.2674
 7023SOL     OW32701   0.956   1.918   3.001  0.0849 -0.7766 -0.6879
 7023SOL    HW132702   1.036   1.881   2.963  1.2416  1.4949 -0.4415
 7023SOL    HW232703   0.935   1.862   3.076  0.2363 -0.9153 -0.7505
 7024SOL     OW32704   3.258   0.010   3.323  0.6457 -0.4616 -0.2705
 7024SOL    HW132705   3.229   4.694   3.248  2.4453  0.3016 -1.5125
 7024SOL    HW232706   3.175   0.011   3.370  0.9766  0.1457  0.2913
 7025SOL     OW32707   1.168   3.956   4.782  0.4236  0.3913 -0.4235
 7025SOL    HW132708   1.153   4.042   4.744 -2.2339  0.0847 -0.0733
 7025SOL    HW232709   1.107   3.900   4.734  0.2708  2.1793 -2.3230
 7026SOL     OW32710   1.662   3.290   9.221 -0.0567 -0.1456  0.3477
 7026SOL    HW132711   1.741   3.250   9.184  0.3576 -1.2862  2.5364
 7026SOL    HW232712   1.605   3.273   9.146  1.3747 -0.4394 -0.6779
 7027SOL     OW32713   0.116   2.228   1.157  0.5447 -0.2395  0.1662
 7027SOL    HW132714   0.127   2.313   1.198 -1.0823 -0.6223  1.3729
 7027SOL    HW232715   0.054   2.193   1.221  0.8889 -2.0793 -0.5065
 7028SOL     OW32716   2.362   3.495   8.650  0.4746 -0.0687 -0.2436
 7028SOL    HW132717   2.301   3.480   8.578  0.5855 -0.6598 -0.2088
 7028SOL    HW232718   2.322   3.556   8.712  1.8535  0.9670 -0.3775
 7029SOL     OW32719   4.123   1.091   8.691  0.2725  0.3012 -0.0294
 7029SOL    HW132720   4.053   1.128   8.637  1.1014  3.0288  0.7673
 7029SOL    HW232721   4.092   1.113   8.779  0.5174  4.1103 -0.9115
 7030SOL     OW32722   3.019   2.177   8.511 -0.2167 -0.3645  0.1044
 7030SOL    HW132723   2.939   2.203   8.465 -0.5505 -0.3973  0.6675
 7030SOL    HW232724   3.053   2.106   8.456  0.4816  1.3988 -1.7570
 7031SOL     OW32725   1.180   1.838   2.880 -0.0700 -0.0951  0.2368
 7031SOL    HW132726   1.174   1.823   2.786 -0.0477  1.3339  0.0194
 7031SOL    HW232727   1.272   1.863   2.881 -0.7812  2.4635  1.0515
 7032SOL     OW32728   2.053   3.115   9.052 -0.0890 -0.4186  0.2163
 7032SOL    HW132729   2.043   3.160   9.136  1.5887 -0.3754  0.3871
 7032SOL    HW232730   1.960   3.097   9.035  0.9771 -3.4101 -2.3357
 7033SOL     OW32731   1.365   4.286   9.052 -0.0433  0.5789 -0.2488
 7033SOL    HW132732   1.366   4.365   9.106 -0.8304  0.6599 -0.3620
 7033SOL    HW232733   1.455   4.260   9.071  0.9763  3.0130 -1.7372
 7034SOL     OW32734   3.977   1.229   6.545  0.2565 -0.0653 -0.2486
 7034SOL    HW132735   3.954   1.199   6.457 -0.5402 -0.9498  0.2595
 7034SOL    HW232736   4.033   1.304   6.525 -0.6903  0.9936  1.1108
 7035SOL     OW32737   1.436   4.061   0.565  0.0407 -0.3491 -0.1256
 7035SOL    HW132738   1.474   3.984   0.521 -0.9377 -0.3210 -1.0092
 7035SOL    HW232739   1.460   4.035   0.654  1.2334 -2.6663 -1.1020
 7036SOL     OW32740   3.919   0.260   5.558 -0.0481  0.5734  0.0931
 7036SOL    HW132741   3.931   0.166   5.545 -1.9835  0.4538 -0.8605
 7036SOL    HW232742   3.960   0.266   5.645  0.7110 -1.3847 -0.1283
 7037SOL     OW32743   4.002   4.180  16.059 -0.5084  0.6608  0.3652
 7037SOL    HW132744   4.023   4.139  15.975 -0.4498 -0.4320  0.9109
 7037SOL    HW232745   3.933   4.243  16.039 -1.4038  0.1665  1.8891
 7038SOL     OW32746   2.132   1.084   8.691 -0.6619  0.6219  0.1591
 7038SOL    HW132747   2.134   1.122   8.603 -0.1995  0.0661 -0.0775
 7038SOL    HW232748   2.199   1.143   8.725 -0.3997  0.6914 -0.4611
 7039SOL     OW32749   4.735   1.654   6.486 -0.0224 -0.0250  0.4858
 7039SOL    HW132750   0.019   1.571   6.442 -1.4244 -1.1677  1.9679
 7039SOL    HW232751   0.002   1.627   6.578 -2.1605 -0.7641  0.3348
 7040SOL     OW32752   3.758   0.512   7.035 -0.0636 -0.4439 -0.6139
 7040SOL    HW132753   3.726   0.438   7.086 -0.5032 -1.9841 -3.1229
 7040SOL    HW232754   3.851   0.513   7.057 -0.3503 -0.4479  0.5651
 7041SOL     OW32755   1.429   4.507   6.620 -0.1163 -0.0951  0.2254
 7041SOL    HW132756   1.367   4.495   6.548 -1.6917  1.0445  1.3756
 7041SOL    HW232757   1.370   4.475   6.689  0.3504 -0.6766  0.3542
 7042SOL     OW32758   3.487   0.120   8.559  0.0767  0.1004  0.1966
 7042SOL    HW132759   3.531   0.037   8.544 -0.2536 -0.0104 -0.1643
 7042SOL    HW232760   3.537   0.177   8.500  0.8224  1.2814  1.9880
 7043SOL     OW32761   0.983   0.611   2.262 -0.0819  0.1718  0.2095
 7043SOL    HW132762   0.961   0.605   2.169  1.0679  1.2938 -0.1244
 7043SOL    HW232763   0.905   0.660   2.287 -0.0841  0.2566  0.0379
 7044SOL     OW32764   1.104   3.982   7.853  0.0423  0.1223  0.4295
 7044SOL    HW132765   1.045   4.002   7.927  1.0637  2.0203  0.7328
 7044SOL    HW232766   1.045   3.922   7.809 -0.4317  1.2024 -0.4153
 7045SOL     OW32767   2.535   3.495  16.548 -0.8254  0.3367 -0.0478
 7045SOL    HW132768   2.588   3.425  16.510 -1.1694 -0.7812  1.5071
 7045SOL    HW232769   2.485   3.519  16.470 -0.5723  0.1702 -0.2573
 7046SOL     OW32770   3.522   2.070   7.294 -0.4267 -0.7143  0.5399
 7046SOL    HW132771   3.507   2.001   7.229  1.0121 -1.0202  0.5434
 7046SOL    HW232772   3.503   2.143   7.235 -0.2679  0.6384  2.1772
 7047SOL     OW32773   3.015   4.402   5.132 -0.2032  0.0067  0.0148
 7047SOL    HW132774   3.029   4.416   5.225 -0.5955  1.2108 -0.1063
 7047SOL    HW232775   3.052   4.475   5.081  0.4181 -1.3402 -1.4430
 7048SOL     OW32776   0.525   3.742   3.870 -0.3606  0.0205 -0.3779
 7048SOL    HW132777   0.500   3.832   3.888 -0.2032  0.1710 -0.9087
 7048SOL    HW232778   0.439   3.706   3.850  0.4239 -1.3030 -1.4155
 7049SOL     OW32779   3.838   3.025  15.513  0.5996 -0.5680 -0.2420
 7049SOL    HW132780   3.929   3.009  15.539  0.1046 -1.8883  0.6592
 7049SOL    HW232781   3.829   3.120  15.518 -1.1198 -0.8187  1.2401
 7050SOL     OW32782   1.754   2.257  13.349 -0.3704 -0.3359 -0.0127
 7050SOL    HW132783   1.676   2.223  13.392  0.9023 -2.7779  0.3496
 7050SOL    HW232784   1.831   2.262  13.405 -0.3432 -0.0055 -0.0815
 7051SOL     OW32785   0.455   0.231  15.042 -0.0362 -0.1058  0.1529
 7051SOL    HW132786   0.448   0.142  15.006  0.0640  0.2461 -0.7366
 7051SOL    HW232787   0.530   0.253  14.987 -1.7800 -1.0862 -2.6400
 7052SOL     OW32788   1.861   3.289  10.853 -0.9246  0.0726 -0.0047
 7052SOL    HW132789   1.833   3.272  10.943 -0.1414  2.8751  0.8041
 7052SOL    HW232790   1.839   3.383  10.851  1.6344  0.6531 -0.8918
 7053SOL     OW32791   4.051   2.041   5.644 -0.2833 -0.6422 -0.7907
 7053SOL    HW132792   3.996   1.971   5.680 -0.0506 -0.6508 -0.4509
 7053SOL    HW232793   3.982   2.105   5.625 -2.0548 -2.2338  0.1591
 7054SOL     OW32794   3.911   1.665   4.180  0.2434 -0.3214  0.0245
 7054SOL    HW132795   3.827   1.621   4.190  0.1823  0.4718  3.1123
 7054SOL    HW232796   3.940   1.654   4.270 -1.4298  1.0284  0.7414
 7055SOL     OW32797   2.858   0.937   2.871 -0.0331  0.1001 -0.0638
 7055SOL    HW132798   2.764   0.921   2.880  0.1858 -0.8795  0.5020
 7055SOL    HW232799   2.865   1.032   2.871 -1.1139  0.1868  0.8124
 7056SOL     OW32800   0.705   3.507  12.415 -0.1578  0.0614  0.1823
 7056SOL    HW132801   0.737   3.518  12.504 -1.6726 -0.8060  0.8232
 7056SOL    HW232802   0.625   3.459  12.436 -0.8146  0.7581 -0.7369
 7057SOL     OW32803   2.686   3.042  16.139  0.2741  0.0610 -0.2905
 7057SOL    HW132804   2.775   3.045  16.173  0.0553 -0.0148  0.2880
 7057SOL    HW232805   2.642   3.116  16.182  0.2586 -0.0189 -0.1692
 7058SOL     OW32806   4.474   2.044   5.412  0.3677  0.0864 -0.1529
 7058SOL    HW132807   4.502   2.133   5.392  0.4565  0.5907  2.2100
 7058SOL    HW232808   4.431   2.060   5.497  0.4042  2.2461 -0.5307
 7059SOL     OW32809   2.240   3.419   2.296  0.1075 -0.2086  0.1159
 7059SOL    HW132810   2.238   3.327   2.269  0.4630 -0.4966  1.0921
 7059SOL    HW232811   2.272   3.476   2.226 -1.2397 -1.0954 -1.2323
 7060SOL     OW32812   3.961   0.502  11.376  1.0273 -0.2898  0.0409
 7060SOL    HW132813   3.998   0.498  11.464  0.6693 -1.3912  0.1478
 7060SOL    HW232814   3.976   0.590  11.342 -0.9151  0.1604  0.3681
 7061SOL     OW32815   4.064   2.732   6.151  0.0063  0.5350  0.6320
 7061SOL    HW132816   4.094   2.710   6.063  1.2370 -0.3139  1.2619
 7061SOL    HW232817   4.107   2.662   6.200 -0.7785  0.3250  1.0318
 7062SOL     OW32818   3.478   1.520   5.741  0.2311 -0.5669  0.0408
 7062SOL    HW132819   3.383   1.530   5.734  0.3237  0.7422  0.7408
 7062SOL    HW232820   3.470   1.451   5.806 -0.3510  0.2069  0.7878
 7063SOL     OW32821   2.481   1.126  13.086  0.3147  0.9152  0.0575
 7063SOL    HW132822   2.542   1.063  13.045 -0.8769 -0.4898  0.4403
 7063SOL    HW232823   2.458   1.071  13.161  1.0970 -2.3309 -2.0870
 7064SOL     OW32824   2.777   0.478  12.845  0.7320 -0.1087  0.4635
 7064SOL    HW132825   2.820   0.551  12.801 -0.3717  0.0432 -0.3969
 7064SOL    HW232826   2.686   0.508  12.835  0.7018 -0.0861  0.8061
 7065SOL     OW32827   1.701   4.008   8.500 -0.0351  0.6467  0.5554
 7065SOL    HW132828   1.637   4.076   8.521 -1.9074 -1.1137  0.5081
 7065SOL    HW232829   1.645   3.931   8.505  2.4428 -1.3401 -1.7791
 7066SOL     OW32830   3.708   0.092   9.147  0.4067  0.1157  0.4046
 7066SOL    HW132831   3.759   0.067   9.224 -1.3748 -0.2436  1.4722
 7066SOL    HW232832   3.623   0.089   9.190  1.0417  2.6059  1.8625
 7067SOL     OW32833   0.272   3.246   7.442 -0.3226  0.2876  0.0492
 7067SOL    HW132834   0.299   3.190   7.515 -1.0668  0.0391  0.1300
 7067SOL    HW232835   0.177   3.242   7.438 -0.3024  0.0738 -0.1851
 7068SOL     OW32836   1.551   3.419   7.555 -0.2638  0.0968  0.2603
 7068SOL    HW132837   1.633   3.383   7.522 -0.7094 -1.2277  0.5827
 7068SOL    HW232838   1.564   3.406   7.649  0.9466  0.3568  0.1283
 7069SOL     OW32839   3.158   4.250   1.032 -0.1122 -0.6285  0.0768
 7069SOL    HW132840   3.108   4.195   1.092  1.4032  0.1609  2.0737
 7069SOL    HW232841   3.227   4.277   1.093 -0.2960 -0.7651  0.3461
 7070SOL     OW32842   4.667   0.855   0.136 -0.6015 -0.6271  0.1237
 7070SOL    HW132843   4.625   0.845   0.221 -1.9036  0.3735 -0.4186
 7070SOL    HW232844   4.630   0.778   0.093 -2.9305 -1.1752  3.1621
 7071SOL     OW32845   2.491   0.143   0.110 -0.5189  0.1760  0.1068
 7071SOL    HW132846   2.444   0.066   0.141 -1.5901  1.8729  2.6868
 7071SOL    HW232847   2.493   0.132   0.015  0.0129 -2.4016  0.4223
 7072SOL     OW32848   2.283   4.388  12.154  0.3533 -1.0022  0.7374
 7072SOL    HW132849   2.314   4.315  12.208 -0.7041  0.3385  3.1526
 7072SOL    HW232850   2.354   4.450  12.171 -1.1784  0.8543  0.4215
 7073SOL     OW32851   3.301   4.185   2.016 -0.1992  0.2648  0.0161
 7073SOL    HW132852   3.212   4.155   1.995 -0.9560  2.3951  0.2002
 7073SOL    HW232853   3.316   4.243   1.942 -2.5242  0.5916 -0.2176
 7074SOL     OW32854   2.599   2.402   9.640  0.2566 -0.2149  0.1463
 7074SOL    HW132855   2.555   2.344   9.702  0.2216  2.5569  2.6864
 7074SOL    HW232856   2.681   2.355   9.651  0.0522 -0.3168  1.2111
 7075SOL     OW32857   4.334   1.293  11.555  0.1625  0.0876 -0.2068
 7075SOL    HW132858   4.404   1.277  11.492  1.6100 -0.6318  1.5515
 7075SOL    HW232859   4.327   1.203  11.587 -1.5793 -0.0242 -0.9089
 7076SOL     OW32860   1.076   1.189  11.632 -0.0316 -0.0357  0.0972
 7076SOL    HW132861   1.116   1.161  11.550  0.4684 -0.2117  0.4015
 7076SOL    HW232862   1.070   1.112  11.689 -1.2061 -0.0887 -0.0874
 7077SOL     OW32863   1.652   4.387   2.058  0.2714  0.1742 -0.3271
 7077SOL    HW132864   1.605   4.347   2.131  3.0034 -2.2044  0.1449
 7077SOL    HW232865   1.674   4.310   2.005 -1.8960  0.0760 -1.0751
 7078SOL     OW32866   2.468   0.326   3.715 -0.0079 -0.1077 -0.1721
 7078SOL    HW132867   2.431   0.249   3.758 -2.1281  2.1939  2.1751
 7078SOL    HW232868   2.517   0.372   3.783  0.0001 -0.4724  0.0674
 7079SOL     OW32869   4.187   3.977   6.665 -0.0245 -0.7375 -0.2595
 7079SOL    HW132870   4.112   3.920   6.648 -0.7589  0.8202 -2.2718
 7079SOL    HW232871   4.150   4.038   6.728  2.1647 -1.6876  1.9194
 7080SOL     OW32872   1.807   1.942  13.200 -0.1306  0.4441 -0.5193
 7080SOL    HW132873   1.811   2.034  13.225 -0.6168  0.4548 -0.4783
 7080SOL    HW232874   1.748   1.908  13.268 -0.2877  0.9254 -0.4191
 7081SOL     OW32875   3.449   1.311   1.919 -0.1204 -0.4663 -0.0693
 7081SOL    HW132876   3.439   1.217   1.913 -0.3191 -0.3710 -1.1419
 7081SOL    HW232877   3.368   1.341   1.878  2.1682  1.7675 -2.9525
 7082SOL     OW32878   2.399   3.155   5.923 -0.1670 -0.6754 -0.9132
 7082SOL    HW132879   2.385   3.086   5.858 -0.2711  0.9445 -2.6047
 7082SOL    HW232880   2.495   3.157   5.927 -0.0735  0.0668 -3.2904
 7083SOL     OW32881   0.388   0.025   4.216 -0.2820 -0.1177  0.1410
 7083SOL    HW132882   0.458   4.704   4.248 -2.3752 -2.5898  0.2945
 7083SOL    HW232883   0.396   0.094   4.282  0.7369 -0.1486  0.0576
 7084SOL     OW32884   0.270   2.715   0.722 -0.0050 -0.4515  0.2884
 7084SOL    HW132885   0.190   2.763   0.743  1.0382  2.6825 -3.0233
 7084SOL    HW232886   0.227   2.649   0.667 -1.7915  2.0233 -1.2886
 7085SOL     OW32887   1.141   0.761   8.251 -0.0464  0.5438 -0.1047
 7085SOL    HW132888   1.174   0.765   8.341 -2.1638 -2.0626  0.7963
 7085SOL    HW232889   1.057   0.805   8.262  0.1728  0.8644  0.2785
 7086SOL     OW32890   0.646   3.444   5.753  0.0653 -0.6247  0.0415
 7086SOL    HW132891   0.648   3.423   5.660 -0.3240 -0.4600 -0.0058
 7086SOL    HW232892   0.577   3.510   5.757  0.8115 -0.0365  3.3640
 7087SOL     OW32893   0.938   2.302   3.543 -0.3332 -0.0782 -0.5829
 7087SOL    HW132894   0.852   2.271   3.573 -0.5449  0.8503 -0.2367
 7087SOL    HW232895   1.001   2.285   3.612 -1.6087  1.8782  1.0619
 7088SOL     OW32896   2.528   4.590  10.097 -0.5622 -0.1719 -0.0685
 7088SOL    HW132897   2.454   4.626  10.145 -0.4366 -1.6142  1.2210
 7088SOL    HW232898   2.592   4.568  10.165  1.2802  2.3511 -1.0226
 7089SOL     OW32899   1.832   2.668  10.503  0.2719  0.1059 -0.1429
 7089SOL    HW132900   1.798   2.724  10.573 -0.1493  0.5160 -0.6745
 7089SOL    HW232901   1.789   2.586  10.527 -1.4375  0.8264 -0.6875
 7090SOL     OW32902   2.226   3.451   8.425 -0.2197 -0.0625 -0.1373
 7090SOL    HW132903   2.293   3.387   8.400 -1.9093 -2.1841  0.7834
 7090SOL    HW232904   2.198   3.495   8.344 -1.4816  1.5991  1.2105
 7091SOL     OW32905   0.227   3.946   6.668 -0.3731  0.1377  0.3220
 7091SOL    HW132906   0.322   3.940   6.660 -0.4454 -0.5017 -0.0162
 7091SOL    HW232907   0.202   3.854   6.676  1.6234 -0.3941  0.4399
 7092SOL     OW32908   3.099   4.552   1.681  0.1907 -0.8240  0.2083
 7092SOL    HW132909   3.157   4.518   1.750  1.1542  1.0458  0.3031
 7092SOL    HW232910   3.118   4.492   1.609  2.2861  2.8072 -2.2638
 7093SOL     OW32911   4.293   2.079   7.626 -0.2054  0.2342 -0.4570
 7093SOL    HW132912   4.357   2.093   7.696 -0.7157 -0.5694  0.1664
 7093SOL    HW232913   4.342   2.029   7.561 -0.0697  0.1289 -0.2707
 7094SOL     OW32914   1.121   3.901  10.876 -0.4234 -0.6048  0.2324
 7094SOL    HW132915   1.193   3.881  10.937  2.2263  0.7321 -2.4422
 7094SOL    HW232916   1.148   3.984  10.837  0.9702 -0.3457  1.7251
 7095SOL     OW32917   3.743   1.100   9.341  0.3699  0.0032  0.3776
 7095SOL    HW132918   3.662   1.079   9.386 -0.0735 -0.3352 -0.5604
 7095SOL    HW232919   3.774   1.172   9.395 -1.6064  1.4744 -0.4389
 7096SOL     OW32920   3.672   2.394   4.047 -0.6494 -0.3583 -0.2637
 7096SOL    HW132921   3.646   2.318   4.099 -1.6019 -0.1040 -0.3630
 7096SOL    HW232922   3.643   2.461   4.108  0.8037  0.4613 -0.4919
 7097SOL     OW32923   3.502   4.523  10.547 -0.6324  0.5007  0.2550
 7097SOL    HW132924   3.460   4.559  10.624 -0.1355  2.2671 -0.2932
 7097SOL    HW232925   3.467   4.434  10.547  1.6794 -0.4292 -1.5653
 7098SOL     OW32926   3.048   3.434   0.415 -0.2848 -0.0807  0.2681
 7098SOL    HW132927   3.025   3.462   0.326  1.0048  2.3728  0.6942
 7098SOL    HW232928   3.135   3.471   0.431  0.2431 -0.2890 -2.2152
 7099SOL     OW32929   1.210   3.054   6.010 -0.3823  0.1215 -0.4728
 7099SOL    HW132930   1.240   2.964   5.992  0.3216  0.1794  0.4100
 7099SOL    HW232931   1.171   3.048   6.097 -1.5874  0.4607 -0.9963
 7100SOL     OW32932   1.019   4.317   5.453 -0.1891  0.4916  0.0195
 7100SOL    HW132933   1.055   4.246   5.505  2.2478  0.9287 -1.0518
 7100SOL    HW232934   0.936   4.320   5.501  0.2284  1.2061  0.6912
 7101SOL     OW32935   0.076   0.669   5.728 -0.4716  0.0029  0.5526
 7101SOL    HW132936   0.076   0.677   5.633  2.7945  0.4951  0.6130
 7101SOL    HW232937   4.730   0.714   5.749 -0.7255  0.2464 -0.9651
 7102SOL     OW32938   4.369   3.801   9.000  0.6392  0.3076  0.3634
 7102SOL    HW132939   4.294   3.745   9.020  2.2354 -1.2810  1.9349
 7102SOL    HW232940   4.342   3.893   9.000  3.5135  1.1654  1.4817
 7103SOL     OW32941   2.701   3.002   5.499  0.1187  0.1770 -0.0577
 7103SOL    HW132942   2.766   2.935   5.522 -0.4219  0.2083  1.5807
 7103SOL    HW232943   2.751   3.054   5.437  0.0948  0.8534  0.4944
 7104SOL     OW32944   3.044   3.535   5.454  0.0951  0.4774 -0.6465
 7104SOL    HW132945   3.113   3.599   5.475 -0.8910  0.9332  1.1663
 7104SOL    HW232946   2.990   3.596   5.404 -0.1808  1.0464  0.3503
 7105SOL     OW32947   0.189   4.322   4.477 -0.4525  0.3168  0.2331
 7105SOL    HW132948   0.198   4.319   4.381  0.3024 -0.0325  0.3202
 7105SOL    HW232949   0.276   4.304   4.510 -1.0729 -2.1008  0.5519
 7106SOL     OW32950   1.136   3.812   6.510 -0.2199  0.2233 -0.4383
 7106SOL    HW132951   1.063   3.803   6.570 -1.2156  2.6759 -1.2610
 7106SOL    HW232952   1.163   3.899   6.541 -1.8088  1.5618 -2.7667
 7107SOL     OW32953   1.597   1.577  17.176 -0.0447 -0.1401 -0.3556
 7107SOL    HW132954   1.662   1.626  17.127  1.4421  0.3255  2.0833
 7107SOL    HW232955   1.516   1.626  17.163 -1.7044 -2.3664  1.4385
 7108SOL     OW32956   2.369   3.438  14.867  0.0691 -0.4206  0.2981
 7108SOL    HW132957   2.331   3.460  14.953  1.2846 -1.3067  1.0627
 7108SOL    HW232958   2.413   3.357  14.894  0.4056 -0.6782 -1.0529
 7109SOL     OW32959   1.917   0.558   4.475 -0.0474 -0.4722 -0.8009
 7109SOL    HW132960   1.839   0.606   4.506 -0.9245 -1.5028 -1.4193
 7109SOL    HW232961   1.939   0.602   4.393  2.8401  0.5602  0.5386
 7110SOL     OW32962   2.897   2.146   4.774 -0.8081  0.3663  0.2187
 7110SOL    HW132963   2.851   2.063   4.764 -0.1988  0.1531 -0.7641
 7110SOL    HW232964   2.980   2.125   4.732 -2.6015  0.1045 -3.1742
 7111SOL     OW32965   2.636   0.696  11.102  0.2638  0.1667 -0.2219
 7111SOL    HW132966   2.705   0.725  11.163  0.6521 -1.4261  0.0899
 7111SOL    HW232967   2.561   0.735  11.146  1.0731 -0.0508  1.3729
 7112SOL     OW32968   1.225   0.894  14.516  0.0651 -0.0243 -0.5155
 7112SOL    HW132969   1.170   0.920  14.591  2.2272  1.7270  0.4681
 7112SOL    HW232970   1.162   0.840  14.468  0.5792 -0.4986 -0.6515
 7113SOL     OW32971   4.638   1.939   6.081 -0.3128  0.6958 -0.6152
 7113SOL    HW132972   4.634   1.930   5.985 -0.3528  0.3267 -0.5770
 7113SOL    HW232973   4.676   2.026   6.090 -0.5049  0.4997  2.0403
 7114SOL     OW32974   3.793   0.152   3.975  0.5630  0.1240  0.6432
 7114SOL    HW132975   3.702   0.136   4.002 -0.1052  1.3602 -0.9032
 7114SOL    HW232976   3.839   0.083   4.023 -3.8018 -1.0324  3.2501
 7115SOL     OW32977   3.971   1.005  13.081 -0.0613 -0.2952 -0.1161
 7115SOL    HW132978   3.946   1.096  13.094 -3.8415 -1.2747 -0.7134
 7115SOL    HW232979   3.939   0.996  12.991  2.0268 -1.9041 -0.7028
 7116SOL     OW32980   1.955   1.381   4.427  0.0746 -0.4246 -0.1087
 7116SOL    HW132981   1.919   1.326   4.358  0.6938 -0.4824 -0.3888
 7116SOL    HW232982   2.048   1.386   4.404  0.2538 -1.9508  0.2559
 7117SOL     OW32983   4.104   0.528   6.270  0.4087 -0.4250 -0.1119
 7117SOL    HW132984   4.123   0.581   6.347 -0.0501 -1.5380  0.7575
 7117SOL    HW232985   4.054   0.454   6.304  0.3666 -0.5496 -0.4374
 7118SOL     OW32986   3.892   0.001   7.634 -0.0805 -0.7079  0.2467
 7118SOL    HW132987   3.906   4.648   7.665  0.4725  0.0563  2.1689
 7118SOL    HW232988   3.916   4.724   7.542 -0.6788 -0.4803  0.0554
 7119SOL     OW32989   0.943   0.396   9.079 -0.4952  0.0354  0.2088
 7119SOL    HW132990   0.905   0.380   9.165  0.9676 -0.5134  0.7599
 7119SOL    HW232991   0.970   0.488   9.089 -0.2238  0.1683 -1.6749
 7120SOL     OW32992   4.307   0.095   1.251  0.6774 -0.2781  0.0913
 7120SOL    HW132993   4.256   0.171   1.223 -0.1508 -1.1069 -0.6609
 7120SOL    HW232994   4.287   0.038   1.176 -0.6277  1.6065 -0.9858
 7121SOL     OW32995   0.048   2.360   8.019  0.0475 -0.4257 -0.7053
 7121SOL    HW132996   0.022   2.280   8.064  1.2955  0.2385  1.1747
 7121SOL    HW232997   0.091   2.311   7.949 -2.2366  1.3618 -3.3465
 7122SOL     OW32998   2.272   1.728   6.446  0.0362  0.3094  0.6555
 7122SOL    HW132999   2.230   1.799   6.494  0.3851  2.7792 -2.6314
 7122SOL    HW233000   2.309   1.667   6.510  0.0255 -0.5214 -0.1213
 7123SOL     OW33001   2.378   0.301   5.269 -0.0781  0.3456  0.0157
 7123SOL    HW133002   2.291   0.340   5.263  0.3590  1.0163 -1.9260
 7123SOL    HW233003   2.391   0.316   5.362 -0.2349 -1.0536  0.2667
 7124SOL     OW33004   3.871   4.679   4.637  0.6551  0.0820 -0.0890
 7124SOL    HW133005   3.874   4.596   4.686  0.4442  2.1960  3.4903
 7124SOL    HW233006   3.964   4.700   4.629  0.5812 -0.4896 -2.4470
 7125SOL     OW33007   0.755   0.611   3.411  0.5402  0.0492 -0.3517
 7125SOL    HW133008   0.785   0.701   3.406  1.1800 -0.0279  2.4781
 7125SOL    HW233009   0.789   0.571   3.331 -0.4659 -1.0874 -0.2155
 7126SOL     OW33010   3.290   0.187   2.432 -0.0533 -0.0056 -0.1969
 7126SOL    HW133011   3.238   0.216   2.506  0.7656  1.3117 -0.1460
 7126SOL    HW233012   3.268   0.258   2.372  0.5637 -0.3880 -0.8901
 7127SOL     OW33013   1.935   0.229  11.111 -0.4093  0.5232  0.4136
 7127SOL    HW133014   1.978   0.312  11.133 -1.8654  0.8341  2.1497
 7127SOL    HW233015   1.886   0.194  11.185 -2.1976 -2.5379 -2.2432
 7128SOL     OW33016   0.428   4.593   3.953  0.2679  0.2241  0.2183
 7128SOL    HW133017   0.490   4.659   3.925  0.9992  0.3700  2.1604
 7128SOL    HW233018   0.383   4.644   4.021  1.3759  1.3271  0.1166
 7129SOL     OW33019   2.860   1.218   4.892 -0.5737  0.9208 -0.4497
 7129SOL    HW133020   2.884   1.293   4.947  3.0554 -1.2417  0.8724
 7129SOL    HW233021   2.767   1.203   4.905 -0.7554  1.2284 -1.3836
 7130SOL     OW33022   1.642   3.402  17.653  0.3654  0.2464 -0.1479
 7130SOL    HW133023   1.672   3.319  17.617 -1.6327 -1.0261  1.0781
 7130SOL    HW233024   1.587   3.423  17.578 -0.3945  1.4860  0.7601
 7131SOL     OW33025   2.287   2.806   4.482  0.4395 -0.1288  0.1754
 7131SOL    HW133026   2.348   2.879   4.477  3.3431 -2.3587  2.9072
 7131SOL    HW233027   2.338   2.728   4.460  2.1887  0.6655  1.4283
 7132SOL     OW33028   4.476   2.864   3.123  0.2749  0.0826  0.0547
 7132SOL    HW133029   4.518   2.817   3.195  0.1564 -0.6416 -0.3400
 7132SOL    HW233030   4.557   2.903   3.088 -0.0263  0.3077 -0.3919
 7133SOL     OW33031   3.975   1.301   4.645 -0.1202  0.5646  0.0738
 7133SOL    HW133032   3.942   1.385   4.613  0.3606  0.1491 -1.5330
 7133SOL    HW233033   3.913   1.238   4.610  1.9973 -0.4846 -1.8141
 7134SOL     OW33034   4.111   0.635   2.548 -0.3854 -0.3919 -0.8607
 7134SOL    HW133035   4.141   0.715   2.506 -1.2547  0.1295 -0.4925
 7134SOL    HW233036   4.071   0.663   2.631  0.1893 -1.6059 -0.1606
 7135SOL     OW33037   0.056   0.999   0.751 -0.2410 -0.4186 -0.1222
 7135SOL    HW133038   0.126   1.032   0.695 -0.8422  0.3774 -0.4024
 7135SOL    HW233039   4.727   0.962   0.691 -1.0248 -0.0337  0.4960
 7136SOL     OW33040   0.881   3.255   0.707  0.3630 -0.1457  0.1598
 7136SOL    HW133041   0.961   3.307   0.700  0.0918  0.6955  3.5367
 7136SOL    HW233042   0.901   3.190   0.775  3.1036  0.0177 -0.4955
 7137SOL     OW33043   0.739   0.285  11.904  0.4859  0.2925 -0.2131
 7137SOL    HW133044   0.681   0.322  11.838  1.3012  0.6647 -0.7245
 7137SOL    HW233045   0.679   0.264  11.975 -0.1194  0.9349 -0.5350
 7138SOL     OW33046   2.615   4.075   4.753  0.1057 -0.4283  0.5472
 7138SOL    HW133047   2.700   4.101   4.717 -0.5588  1.1003  0.0923
 7138SOL    HW233048   2.618   3.983   4.728 -0.3551 -0.3339  0.1589
 7139SOL     OW33049   1.663   4.132   1.896  0.1927 -0.2714 -0.0478
 7139SOL    HW133050   1.737   4.125   1.835 -0.4771 -0.7921 -0.8096
 7139SOL    HW233051   1.587   4.121   1.838  0.9416  2.3295 -1.4994
 7140SOL     OW33052   0.312   1.521  13.798 -0.1052  0.1595  0.3869
 7140SOL    HW133053   0.384   1.570  13.759 -1.6799  2.2375  0.1470
 7140SOL    HW233054   0.241   1.557  13.745 -0.8593  1.8892  2.6154
 7141SOL     OW33055   4.017   0.643   1.590 -0.4433  0.5221  0.8676
 7141SOL    HW133056   3.958   0.683   1.526  0.9273 -1.2083 -1.5154
 7141SOL    HW233057   4.096   0.638   1.536  0.2851  0.5405  1.9351
 7142SOL     OW33058   0.997   3.454   3.958  0.0161 -0.1933 -0.4623
 7142SOL    HW133059   0.931   3.522   3.973  0.4428 -0.1691  1.3687
 7142SOL    HW233060   1.042   3.489   3.881  0.7926  0.2683  0.1986
 7143SOL     OW33061   1.184   4.053   5.965  0.2318 -0.3768 -0.0958
 7143SOL    HW133062   1.176   3.968   5.920  2.2838 -0.8534  0.4665
 7143SOL    HW233063   1.200   4.029   6.056 -0.5764 -0.2304  0.0845
 7144SOL     OW33064   3.952   1.058   5.105 -0.0881  0.1269  0.3707
 7144SOL    HW133065   3.997   1.130   5.060 -1.4017  0.7951  0.1301
 7144SOL    HW233066   4.033   1.012   5.128  1.0723  0.8840 -2.1987
 7145SOL     OW33067   4.230   3.612   3.449  0.0466  0.3865  0.0495
 7145SOL    HW133068   4.145   3.603   3.407  0.6903 -1.9259 -0.7990
 7145SOL    HW233069   4.285   3.610   3.371 -2.5582  2.7997 -1.8286
 7146SOL     OW33070   1.405   4.213   6.416  0.3608  0.5884  0.8131
 7146SOL    HW133071   1.438   4.214   6.506 -0.4280  1.8015  1.0822
 7146SOL    HW233072   1.349   4.290   6.423 -1.0702 -0.1229 -2.9335
 7147SOL     OW33073   3.535   1.056   9.086 -1.1220 -0.1338 -0.5722
 7147SOL    HW133074   3.568   0.967   9.086  0.2837  0.3989 -2.2323
 7147SOL    HW233075   3.605   1.103   9.133 -0.9542 -3.3190  2.3551
 7148SOL     OW33076   1.520   4.584  15.632  0.2245 -0.0340  0.0829
 7148SOL    HW133077   1.545   4.491  15.630  0.1778 -0.0474  0.1224
 7148SOL    HW233078   1.428   4.571  15.611 -0.1541  0.2772  1.5491
 7149SOL     OW33079   0.992   2.688   7.009 -0.3203  0.0500  0.2837
 7149SOL    HW133080   1.054   2.649   6.947 -0.0128  1.5024 -0.3148
 7149SOL    HW233081   1.034   2.667   7.093  0.0280 -0.4757 -0.0220
 7150SOL     OW33082   3.593   0.699   6.958 -0.0919  0.7001  0.0769
 7150SOL    HW133083   3.663   0.637   6.980 -0.3535  0.8463  1.3360
 7150SOL    HW233084   3.533   0.676   7.029 -1.8257 -0.9521 -1.9304
 7151SOL     OW33085   0.313   1.692   2.599 -0.0698 -0.1065 -0.2273
 7151SOL    HW133086   0.396   1.649   2.619 -0.4280  0.8293  3.3108
 7151SOL    HW233087   0.273   1.625   2.543  1.1702 -0.7877 -0.3057
 7152SOL     OW33088   3.272   2.663   3.338  0.3214 -0.1390 -0.1260
 7152SOL    HW133089   3.285   2.758   3.344  0.8370 -0.1846 -0.5290
 7152SOL    HW233090   3.352   2.636   3.293  0.4854 -0.9808  0.6723
 7153SOL     OW33091   1.542   0.827  15.399 -0.0476  0.2365 -0.0707
 7153SOL    HW133092   1.507   0.878  15.326 -2.0601 -0.4472  0.3996
 7153SOL    HW233093   1.635   0.821  15.381  0.0933  1.6904  0.2111
 7154SOL     OW33094   3.855   3.267   7.651 -0.2931  0.0739 -0.5340
 7154SOL    HW133095   3.897   3.222   7.725  1.5973  1.9753 -0.4448
 7154SOL    HW233096   3.886   3.215   7.577  2.6924  0.5238  0.4080
 7155SOL     OW33097   1.918   0.849  17.231  0.2275  0.2146  0.3116
 7155SOL    HW133098   1.837   0.858  17.182  0.5884  0.1836 -0.2910
 7155SOL    HW233099   1.961   0.798  17.163  1.2835 -0.5088  1.5234
 7156SOL     OW33100   2.330   4.137   2.683 -0.6456  0.2746  0.0287
 7156SOL    HW133101   2.237   4.125   2.704 -0.0145  1.4647  3.4678
 7156SOL    HW233102   2.378   4.147   2.766  0.6824 -1.3238 -0.5482
 7157SOL     OW33103   2.461   3.329   8.368 -0.2760  0.3277 -0.4252
 7157SOL    HW133104   2.519   3.405   8.372  1.0826 -0.6415 -1.8014
 7157SOL    HW233105   2.525   3.260   8.386 -0.1499  0.4511 -0.4034
 7158SOL     OW33106   2.589   0.298   9.019  0.2783  0.2964 -0.3264
 7158SOL    HW133107   2.635   0.239   9.078  0.7942  2.1690  1.1766
 7158SOL    HW233108   2.560   0.239   8.949 -0.4979 -1.0262  1.1113
 7159SOL     OW33109   3.745   3.271  15.579 -0.0824 -0.1033 -0.0359
 7159SOL    HW133110   3.654   3.282  15.607  0.4244  1.9940  0.7573
 7159SOL    HW233111   3.787   3.261  15.664 -0.1109  1.2898  0.1529
 7160SOL     OW33112   0.674   3.543   7.123  0.4245  0.1916  0.2230
 7160SOL    HW133113   0.677   3.520   7.216  1.2001 -1.7609 -0.2793
 7160SOL    HW233114   0.765   3.569   7.105  0.7111 -1.0503 -0.0744
 7161SOL     OW33115   0.896   1.537   8.805 -0.9005 -0.1710  0.0784
 7161SOL    HW133116   0.863   1.627   8.797 -1.6796 -0.5442 -0.8962
 7161SOL    HW233117   0.987   1.552   8.779 -0.3014 -4.8448 -0.4902
 7162SOL     OW33118   1.379   0.372   8.597  0.3502 -0.3439 -0.7435
 7162SOL    HW133119   1.451   0.395   8.539  2.2478 -1.4052  1.1937
 7162SOL    HW233120   1.335   0.457   8.594 -0.3286 -0.6534  0.3091
 7163SOL     OW33121   0.689   2.599   0.924 -0.0348 -0.0037 -0.1426
 7163SOL    HW133122   0.605   2.575   0.885  1.2889 -0.1363 -2.8998
 7163SOL    HW233123   0.701   2.542   1.000  3.1126 -0.5920 -1.1021
 7164SOL     OW33124   4.578   1.972  13.302 -0.5989  0.4247  0.0104
 7164SOL    HW133125   4.607   2.025  13.228 -0.2275  0.2577  0.0324
 7164SOL    HW233126   4.580   1.883  13.265  0.5616  1.1588 -1.6809
 7165SOL     OW33127   2.786   1.598   8.765 -0.0848 -0.4434 -0.0084
 7165SOL    HW133128   2.829   1.681   8.789 -0.1407  0.0639 -1.6549
 7165SOL    HW233129   2.856   1.534   8.781 -1.4386 -1.7590  0.6623
 7166SOL     OW33130   3.269   0.871   8.854  0.0779  0.2595  0.1846
 7166SOL    HW133131   3.201   0.900   8.915 -0.5381 -0.6045 -0.1011
 7166SOL    HW233132   3.306   0.796   8.901 -2.4089 -0.5793  0.7878
 7167SOL     OW33133   2.757   3.841   7.111 -0.0167  0.2064  0.4815
 7167SOL    HW133134   2.747   3.933   7.135  0.8066  0.7174 -1.2036
 7167SOL    HW233135   2.812   3.806   7.182  0.3603 -0.4084 -0.1148
 7168SOL     OW33136   1.381   2.505   7.014  0.2436  0.0139  0.4762
 7168SOL    HW133137   1.446   2.462   6.959 -0.6025 -0.0158 -0.5180
 7168SOL    HW233138   1.345   2.435   7.069  1.0555  1.1205  2.4376
 7169SOL     OW33139   2.269   1.977   3.608 -0.2678  0.0388 -0.2593
 7169SOL    HW133140   2.208   1.981   3.681  0.2528 -0.7179  0.2105
 7169SOL    HW233141   2.340   1.933   3.654 -1.1243 -0.8411  0.2060
 7170SOL     OW33142   3.702   0.209   1.931  0.8758 -0.2420  0.7653
 7170SOL    HW133143   3.701   0.181   1.839 -1.1560 -1.7758  1.2620
 7170SOL    HW233144   3.777   0.158   1.961  0.7184 -1.5233 -1.0556
 7171SOL     OW33145   3.450   0.460   1.677  0.2750 -0.0320 -0.1789
 7171SOL    HW133146   3.514   0.525   1.703 -0.5662  0.6872  0.0677
 7171SOL    HW233147   3.412   0.454   1.764  1.3123  0.7749  0.3232
 7172SOL     OW33148   1.964   0.534   2.157 -0.2319  0.0844  0.1123
 7172SOL    HW133149   1.946   0.441   2.172  2.1865 -0.6251 -1.5246
 7172SOL    HW233150   1.875   0.561   2.133  0.7705  0.2086 -3.3431
 7173SOL     OW33151   0.626   2.259   6.048  0.0531  0.1953  0.0892
 7173SOL    HW133152   0.580   2.316   6.110  1.6109  0.8714  0.6238
 7173SOL    HW233153   0.647   2.317   5.975  0.6955  1.1981  1.0665
 7174SOL     OW33154   4.407   2.771  15.965  0.3516  0.3580 -0.8203
 7174SOL    HW133155   4.450   2.740  16.045  1.7174  2.0146 -0.9240
 7174SOL    HW233156   4.365   2.689  15.937  0.5330 -0.3629  1.0012
 7175SOL     OW33157   1.177   2.742  13.318  0.1512 -0.1505  0.3443
 7175SOL    HW133158   1.223   2.659  13.309  1.7558  0.7237  0.4721
 7175SOL    HW233159   1.151   2.735  13.226 -0.2571 -2.2601  0.6094
 7176SOL     OW33160   1.121   2.587   7.615  0.0513  0.1627 -0.0291
 7176SOL    HW133161   1.139   2.602   7.708  2.1859  0.4307 -0.4866
 7176SOL    HW233162   1.210   2.594   7.581  0.2240  0.5792  0.5134
 7177SOL     OW33163   2.154   0.045   9.947 -0.6494 -0.3494  0.5743
 7177SOL    HW133164   2.084   0.110   9.953 -0.7796 -0.3919 -0.6023
 7177SOL    HW233165   2.225   0.108   9.943 -0.8277 -0.2146 -0.3555
 7178SOL     OW33166   4.614   0.136   4.426 -0.0607 -0.0270 -0.2954
 7178SOL    HW133167   4.529   0.136   4.470 -0.0409  0.6982 -0.2643
 7178SOL    HW233168   4.604   0.077   4.351 -0.1198  1.9253 -1.8050
 7179SOL     OW33169   0.697   4.005   4.058 -0.3205  0.1793  0.4981
 7179SOL    HW133170   0.714   3.922   4.104 -0.8496  0.1949  0.7164
 7179SOL    HW233171   0.765   4.061   4.095 -0.2493  0.3257  0.1465
 7180SOL     OW33172   0.735   3.018   1.136  0.0333 -0.1998 -0.7195
 7180SOL    HW133173   0.777   2.933   1.125  1.6436  0.6467 -1.1791
 7180SOL    HW233174   0.725   3.052   1.047  0.8777 -0.5138 -0.9279
 7181SOL     OW33175   0.051   0.343   8.387  0.4372  0.1430 -0.5836
 7181SOL    HW133176   0.019   0.345   8.297 -0.6494 -1.0864 -0.2171
 7181SOL    HW233177   4.722   0.282   8.420  1.7709 -0.2940  1.2512
 7182SOL     OW33178   4.694   1.493   2.834 -0.3823  0.8853 -0.4418
 7182SOL    HW133179   4.715   1.442   2.756  0.3747 -1.3850  1.2372
 7182SOL    HW233180   4.606   1.464   2.857  0.4620 -0.9179  0.5003
 7183SOL     OW33181   1.248   2.162  13.221 -0.7428  0.0341 -0.5439
 7183SOL    HW133182   1.247   2.218  13.143  2.5402  0.9060  0.0494
 7183SOL    HW233183   1.212   2.081  13.184  2.2881 -1.3343 -0.4922
 7184SOL     OW33184   3.315   2.364   7.699 -0.1771 -1.0914  0.4555
 7184SOL    HW133185   3.231   2.328   7.670 -1.1123  0.7202  0.9157
 7184SOL    HW233186   3.309   2.351   7.794  1.2836  0.4763  0.7550
 7185SOL     OW33187   3.405   2.072   0.863  0.1268 -0.7068 -0.5050
 7185SOL    HW133188   3.402   1.985   0.823 -2.1332 -1.6320  1.7331
 7185SOL    HW233189   3.339   2.115   0.810  0.4698  0.1241 -0.2553
 7186SOL     OW33190   1.914   4.202   8.325 -0.1467  0.1922  0.2871
 7186SOL    HW133191   1.923   4.265   8.253  3.2756  0.3488  0.8257
 7186SOL    HW233192   1.973   4.132   8.296 -2.1818 -1.8756  1.1013
 7187SOL     OW33193   1.849   1.557   1.946 -0.2391 -0.0242 -0.3334
 7187SOL    HW133194   1.755   1.571   1.962 -0.4710 -0.5967 -1.1439
 7187SOL    HW233195   1.877   1.542   2.036 -1.3511 -0.2797 -0.0300
 7188SOL     OW33196   4.207   3.503   4.247  0.0368  0.8430 -0.1545
 7188SOL    HW133197   4.280   3.528   4.303 -2.0368  0.3509  2.7729
 7188SOL    HW233198   4.135   3.503   4.310 -0.9423 -0.8929 -1.2798
 7189SOL     OW33199   3.457   1.023   4.564 -0.1930 -0.0055 -0.1447
 7189SOL    HW133200   3.383   1.060   4.612  0.6019 -2.0733  2.6271
 7189SOL    HW233201   3.512   0.995   4.637  0.9947 -1.3793 -1.5576
 7190SOL     OW33202   0.898   3.404   6.818 -0.4760 -0.8278 -0.2069
 7190SOL    HW133203   0.936   3.359   6.743  1.4085  3.0790 -1.5872
 7190SOL    HW233204   0.977   3.442   6.858 -0.6691 -2.1471  1.4654
 7191SOL     OW33205   4.622   4.069   2.948 -0.2536  0.0496 -0.2131
 7191SOL    HW133206   4.592   4.153   2.984 -3.6829 -1.0628 -0.5253
 7191SOL    HW233207   4.570   4.004   2.996  0.5743 -0.6614 -0.2781
 7192SOL     OW33208   2.867   3.209   0.272  0.0946 -0.4267 -0.0102
 7192SOL    HW133209   2.821   3.132   0.239  0.2181 -0.0738 -1.0107
 7192SOL    HW233210   2.932   3.163   0.325  0.4633  0.7566  0.5765
 7193SOL     OW33211   1.229   1.586   7.984 -0.1317 -0.0909  0.1925
 7193SOL    HW133212   1.211   1.676   8.012 -0.4207 -0.2266  0.4314
 7193SOL    HW233213   1.219   1.537   8.065 -0.3275  0.1728  0.3284
 7194SOL     OW33214   3.089   2.223   5.592  0.1516 -0.1285  0.3278
 7194SOL    HW133215   3.123   2.179   5.670  1.1384 -1.8385 -1.1050
 7194SOL    HW233216   3.121   2.169   5.521 -2.3197 -0.1248 -0.8069
 7195SOL     OW33217   2.342   0.131   3.876 -0.2240  0.3112 -0.1213
 7195SOL    HW133218   2.259   0.093   3.905  0.1825  0.3477  1.0527
 7195SOL    HW233219   2.347   0.101   3.785  1.3661 -1.2786  0.4845
 7196SOL     OW33220   2.848   0.839   7.108  0.0413 -0.2613 -0.2747
 7196SOL    HW133221   2.881   0.914   7.157 -1.1266  0.8596 -1.1955
 7196SOL    HW233222   2.914   0.771   7.120  0.4802 -0.3360 -3.1161
 7197SOL     OW33223   0.349   2.947   1.842  0.3937 -0.3036  0.4077
 7197SOL    HW133224   0.344   3.025   1.898  1.3024 -0.5052  0.7643
 7197SOL    HW233225   0.297   2.886   1.893  2.8121 -2.7864 -0.1058
 7198SOL     OW33226   1.242   2.521   3.803 -0.1620  0.0298 -0.5209
 7198SOL    HW133227   1.200   2.604   3.779  0.8550  1.3837  2.4448
 7198SOL    HW233228   1.246   2.531   3.898 -1.2761 -0.3292 -0.4387
 7199SOL     OW33229   4.727   1.405  10.796  0.2474 -0.0639 -0.0036
 7199SOL    HW133230   0.048   1.478  10.820  1.1311 -1.2621  1.5152
 7199SOL    HW233231   4.653   1.436  10.848  0.5832  0.8148 -0.0535
 7200SOL     OW33232   4.117   0.321   7.543  0.2268 -0.0054 -0.0296
 7200SOL    HW133233   4.209   0.301   7.557  0.4844  1.0259 -0.2017
 7200SOL    HW233234   4.112   0.371   7.625  0.4043 -0.0194 -0.0110
 7201SOL     OW33235   4.629   3.018  15.440 -0.3811  0.3986 -0.2903
 7201SOL    HW133236   4.579   3.060  15.510  0.2545 -1.5986  1.3507
 7201SOL    HW233237   4.679   3.091  15.403  2.3510 -0.1629  2.2339
 7202SOL     OW33238   3.474   2.562   3.592  0.4596  0.1433 -0.1118
 7202SOL    HW133239   3.471   2.517   3.677 -2.2483  1.2881  0.3989
 7202SOL    HW233240   3.424   2.502   3.536 -0.6370  0.3914  0.5945
 7203SOL     OW33241   2.401   2.112   5.807 -0.5206  0.2149  0.0274
 7203SOL    HW133242   2.321   2.141   5.763 -0.2300 -0.6946 -1.1061
 7203SOL    HW233243   2.438   2.187   5.854  0.4864 -1.6002  2.1308
 7204SOL     OW33244   2.370   2.127   4.515 -0.3164 -0.3642  0.7987
 7204SOL    HW133245   2.395   2.094   4.602 -3.4483  1.0725  2.2665
 7204SOL    HW233246   2.316   2.055   4.481 -0.1517  0.6944 -1.6547
 7205SOL     OW33247   4.646   3.555   6.046 -0.1667  0.3766 -0.3729
 7205SOL    HW133248   4.556   3.560   6.081  0.2522  0.8205  0.6447
 7205SOL    HW233249   4.640   3.471   6.000 -3.2703  1.2157 -1.4977
 7206SOL     OW33250   3.398   4.040   8.695  0.0893 -0.4465 -0.1396
 7206SOL    HW133251   3.318   4.072   8.654  0.1919  0.8157  0.6408
 7206SOL    HW233252   3.465   4.068   8.633 -3.1231 -0.0117 -3.3867
 7207SOL     OW33253   4.621   2.806   7.710  0.0369 -0.1353  0.5066
 7207SOL    HW133254   4.551   2.756   7.753 -0.1497 -0.5940 -0.3335
 7207SOL    HW233255   4.663   2.841   7.789  0.5009  0.5385 -0.0361
 7208SOL     OW33256   0.556   3.508   7.821 -0.5794  0.6822 -0.5682
 7208SOL    HW133257   0.503   3.571   7.869  0.2312 -0.3365  1.6633
 7208SOL    HW233258   0.552   3.430   7.876  1.3934  1.8298  1.2077
 7209SOL     OW33259   0.948   4.613  10.355  0.1872  0.4076 -0.0837
 7209SOL    HW133260   0.951   4.601  10.260 -1.3537  1.7380 -0.2774
 7209SOL    HW233261   0.854   4.627  10.355  0.2789  1.0550  1.0497
 7210SOL     OW33262   1.093   1.713   5.193 -0.3531 -0.4015 -0.3835
 7210SOL    HW133263   1.017   1.678   5.147 -0.6814  0.8292 -0.7914
 7210SOL    HW233264   1.093   1.808   5.176  1.2292 -0.1408  1.0420
 7211SOL     OW33265   0.110   2.397   6.883  0.6922 -0.6388  0.2086
 7211SOL    HW133266   0.015   2.408   6.879  1.0342  2.5262  0.8881
 7211SOL    HW233267   0.106   2.320   6.940  2.6185 -1.9146 -1.3719
 7212SOL     OW33268   3.831   2.668   7.720 -0.1598  0.5171 -0.3568
 7212SOL    HW133269   3.770   2.595   7.735  0.6085  0.0886  0.6669
 7212SOL    HW233270   3.849   2.669   7.626 -3.3590  1.5537 -0.9781
 7213SOL     OW33271   2.775   0.693   2.008 -0.0090  0.3885  0.4477
 7213SOL    HW133272   2.814   0.779   2.023 -0.5276  0.8521 -0.8390
 7213SOL    HW233273   2.801   0.682   1.916  0.2492 -1.2667  0.7263
 7214SOL     OW33274   2.103   0.230   6.348 -0.0721 -0.0696  0.0765
 7214SOL    HW133275   2.124   0.307   6.295  0.4934 -0.0291  0.3491
 7214SOL    HW233276   2.025   0.266   6.392 -0.7502 -0.3518 -0.9173
 7215SOL     OW33277   3.693   1.231   4.579 -0.0220  0.0273  0.1738
 7215SOL    HW133278   3.632   1.303   4.557 -2.8264 -2.2521  0.4956
 7215SOL    HW233279   3.639   1.179   4.639 -0.6072  2.1821  1.5365
 7216SOL     OW33280   0.189   3.538   6.851 -0.3979  0.5228  0.1886
 7216SOL    HW133281   0.281   3.555   6.871 -0.0621  1.3034 -2.0392
 7216SOL    HW233282   0.190   3.447   6.819 -0.7855 -0.0466  1.7824
 7217SOL     OW33283   2.437   0.905   8.014  0.2167 -0.1270 -0.3867
 7217SOL    HW133284   2.506   0.943   7.960  0.6961 -0.1606  0.2085
 7217SOL    HW233285   2.436   0.814   7.985 -0.4716  0.1196 -1.1286
 7218SOL     OW33286   1.130   2.267   3.731  0.3265 -0.0299  0.2573
 7218SOL    HW133287   1.126   2.199   3.799  2.0155 -3.0619 -2.6424
 7218SOL    HW233288   1.155   2.349   3.773 -0.8360  0.0574  0.7643
 7219SOL     OW33289   0.041   2.643  12.223  0.5044  0.0710 -0.5169
 7219SOL    HW133290   0.133   2.668  12.233  0.2313  0.5464  0.8955
 7219SOL    HW233291   0.025   2.604  12.309 -0.2632  1.3319 -0.0724
 7220SOL     OW33292   1.820   0.891   8.626  0.4496  0.1860  0.1338
 7220SOL    HW133293   1.837   0.968   8.571 -1.0285  2.0107  2.1884
 7220SOL    HW233294   1.891   0.900   8.689 -0.0787 -0.3223  0.7978
 7221SOL     OW33295   3.867   0.774  16.315  0.3931  0.7079 -0.1780
 7221SOL    HW133296   3.787   0.768  16.262  0.0224 -0.3256  0.5064
 7221SOL    HW233297   3.842   0.729  16.395 -0.7423  0.2565 -0.7857
 7222SOL     OW33298   2.886   2.044   8.060  0.4816 -0.3619 -0.5771
 7222SOL    HW133299   2.975   2.068   8.034 -0.2955  1.5482 -1.4903
 7222SOL    HW233300   2.835   2.120   8.032  0.5846 -0.0403  0.1315
 7223SOL     OW33301   4.062   2.596   6.897  0.2775 -0.1315 -0.1945
 7223SOL    HW133302   4.031   2.539   6.827  1.5420 -0.4983 -0.4594
 7223SOL    HW233303   3.997   2.666   6.903 -0.5136 -0.8731 -0.0164
 7224SOL     OW33304   0.709   4.190  16.945 -0.7121  0.1135 -0.3287
 7224SOL    HW133305   0.682   4.140  16.868  1.4476 -1.3694 -0.1305
 7224SOL    HW233306   0.640   4.167  17.008  0.9567 -0.1424  1.4029
 7225SOL     OW33307   1.845   2.345   7.740 -0.0765 -0.0497  0.6327
 7225SOL    HW133308   1.925   2.300   7.711 -0.1326  1.0695 -1.2195
 7225SOL    HW233309   1.780   2.318   7.675 -0.9175  0.6111  1.2162
 7226SOL     OW33310   1.903   3.037   3.500 -0.1246  0.2303 -0.1553
 7226SOL    HW133311   1.821   2.994   3.523 -0.6287  1.0933 -0.3172
 7226SOL    HW233312   1.874   3.084   3.422  0.0783 -0.6740 -0.7591
 7227SOL     OW33313   1.346   3.773   8.765  0.2414  0.3696  0.4043
 7227SOL    HW133314   1.328   3.824   8.686 -0.5746 -0.2998  0.1523
 7227SOL    HW233315   1.423   3.815   8.804  1.3640 -3.6634  2.5698
 7228SOL     OW33316   0.235   0.764  17.487  0.2157  0.0700 -0.0889
 7228SOL    HW133317   0.186   0.688  17.520 -0.7780 -0.0758 -1.8741
 7228SOL    HW233318   0.194   0.774  17.401  0.2536 -0.8020 -0.2129
 7229SOL     OW33319   4.151   3.145   7.509  0.4074 -0.2671 -0.2783
 7229SOL    HW133320   4.208   3.077   7.474  0.2706  0.3537 -1.6805
 7229SOL    HW233321   4.063   3.106   7.507  0.3377 -0.2374  2.1519
 7230SOL     OW33322   3.290   3.867  14.711  0.2981 -0.5160 -0.4168
 7230SOL    HW133323   3.365   3.924  14.729 -1.5442  0.9055  2.8141
 7230SOL    HW233324   3.296   3.801  14.781 -0.8235  1.1042  1.1894
 7231SOL     OW33325   3.353   4.734  11.918  0.0762 -0.0336  0.4888
 7231SOL    HW133326   3.347   0.083  11.960  1.7328  0.7112 -0.8092
 7231SOL    HW233327   3.310   0.012  11.834 -0.2839  1.6705  0.9763
 7232SOL     OW33328   1.125   4.721   4.790 -0.5269  0.4132 -1.0070
 7232SOL    HW133329   1.169   0.006   4.872  0.0510  0.3227 -1.2974
 7232SOL    HW233330   1.101   4.629   4.798 -1.6327  0.9707  2.2267
 7233SOL     OW33331   1.643   3.861   1.513  0.2313  0.2193 -0.4086
 7233SOL    HW133332   1.724   3.820   1.543 -0.5741 -0.5604  0.6625
 7233SOL    HW233333   1.578   3.793   1.528 -1.3817  1.5183 -1.6087
 7234SOL     OW33334   0.727   2.227  10.721  0.0415  0.3998 -0.5762
 7234SOL    HW133335   0.813   2.223  10.764 -0.0315  0.7395 -0.3984
 7234SOL    HW233336   0.748   2.289  10.650  0.5778  1.4498  0.4977
 7235SOL     OW33337   2.380   3.990   6.773  0.7844  0.2860 -0.2597
 7235SOL    HW133338   2.472   3.979   6.746  0.5073  0.2974 -1.2346
 7235SOL    HW233339   2.387   3.969   6.866 -0.6481 -0.2733 -0.2762
 7236SOL     OW33340   3.599   1.690  14.235 -0.0595 -1.1733  0.1793
 7236SOL    HW133341   3.519   1.702  14.183  0.0989  2.5977  0.8367
 7236SOL    HW233342   3.619   1.602  14.203 -1.2364 -0.9362 -1.2397
 7237SOL     OW33343   1.242   2.394  10.495 -0.0229  0.3856 -0.0665
 7237SOL    HW133344   1.252   2.305  10.462 -2.0423 -0.3019  1.1293
 7237SOL    HW233345   1.327   2.434  10.479 -0.0500  0.3026 -0.4213
 7238SOL     OW33346   0.980   2.653   3.150  0.3038  0.0296 -0.1658
 7238SOL    HW133347   0.929   2.579   3.182  1.9469 -2.2120 -2.7389
 7238SOL    HW233348   0.922   2.715   3.195 -0.5061 -0.0817 -1.0629
 7239SOL     OW33349   0.307   2.239   2.536 -0.1717 -0.5779 -0.3622
 7239SOL    HW133350   0.302   2.143   2.533  1.1779 -0.6303 -0.8122
 7239SOL    HW233351   0.242   2.259   2.604  0.5251 -0.3082  0.2192
 7240SOL     OW33352   0.752   3.917  14.178  0.1437 -0.6530 -0.3717
 7240SOL    HW133353   0.758   3.868  14.261 -1.6621 -2.7727 -1.4772
 7240SOL    HW233354   0.662   3.890  14.160 -0.2426 -0.4684  1.2795
 7241SOL     OW33355   2.963   1.521   2.887 -0.1098  0.2186 -0.3429
 7241SOL    HW133356   2.873   1.509   2.917 -0.2665  2.4691  0.1041
 7241SOL    HW233357   3.007   1.554   2.965 -0.6376 -1.1868  0.5488
 7242SOL     OW33358   1.124   2.040   8.680 -0.2601  0.4338 -0.0615
 7242SOL    HW133359   1.080   2.111   8.633 -0.2437  0.5053  0.0302
 7242SOL    HW233360   1.052   1.981   8.698  1.9106 -1.7127  1.6554
 7243SOL     OW33361   4.136   2.488  13.614 -0.4982 -0.2445 -0.1537
 7243SOL    HW133362   4.192   2.429  13.664 -1.4449 -1.4898 -0.5675
 7243SOL    HW233363   4.101   2.539  13.687  2.2763  0.5014  0.6810
 7244SOL     OW33364   0.090   1.509   4.740  0.2236 -0.3507  0.4720
 7244SOL    HW133365   0.108   1.599   4.714  0.0362 -0.5805 -0.4591
 7244SOL    HW233366   0.007   1.496   4.693  1.0037 -0.7141 -0.8004
 7245SOL     OW33367   3.345   4.297  17.730 -0.2987 -0.0446 -0.8069
 7245SOL    HW133368   3.289   4.373   0.001  1.1593  0.5391  1.7963
 7245SOL    HW233369   3.434   4.331  17.740  0.0405 -1.7632  1.9938
 7246SOL     OW33370   3.315   0.071   3.607  0.5413 -0.1036 -0.3069
 7246SOL    HW133371   3.370   0.118   3.545  0.7398 -1.3295 -1.0508
 7246SOL    HW233372   3.340   0.111   3.690 -1.2824  0.6998 -0.1437
 7247SOL     OW33373   0.340   1.900   6.438  0.0905  0.3848 -0.1224
 7247SOL    HW133374   0.315   1.968   6.376  0.0759 -2.4537 -3.2771
 7247SOL    HW233375   0.385   1.833   6.386 -1.6179 -1.0342  0.2228
 7248SOL     OW33376   0.003   3.455   7.027 -0.0663 -0.0362 -0.2956
 7248SOL    HW133377   0.077   3.491   6.978  1.6261 -2.1214  0.7313
 7248SOL    HW233378   0.018   3.508   7.105 -0.8123  0.0654 -0.2190
 7249SOL     OW33379   4.633   1.169  10.711 -0.2035 -0.4298 -0.2365
 7249SOL    HW133380   4.676   1.248  10.743  2.2123 -1.0166 -2.0320
 7249SOL    HW233381   4.595   1.212  10.634 -0.9496  0.0358  0.3819
 7250SOL     OW33382   3.362   2.212  13.637  0.2318  0.4013  0.5633
 7250SOL    HW133383   3.427   2.176  13.577  0.1066  1.2206 -0.0678
 7250SOL    HW233384   3.303   2.256  13.575  0.0852  1.0056  1.1325
 7251SOL     OW33385   3.931   3.460   1.362  0.0548  0.2361 -0.0898
 7251SOL    HW133386   4.026   3.451   1.361  0.0289  0.0413 -0.4673
 7251SOL    HW233387   3.916   3.440   1.270  1.7154 -1.4920  0.0069
 7252SOL     OW33388   1.566   1.439   8.010 -0.0578 -0.2213 -0.2107
 7252SOL    HW133389   1.653   1.400   8.012 -0.6644 -1.5872 -1.0761
 7252SOL    HW233390   1.518   1.379   8.066 -1.0895 -0.2284 -1.1097
 7253SOL     OW33391   1.936   3.403   4.084 -0.1428 -0.2864  0.2576
 7253SOL    HW133392   2.007   3.458   4.118  1.0441 -2.1449  0.8045
 7253SOL    HW233393   1.917   3.435   3.995  2.4955 -1.4912 -0.7462
 7254SOL     OW33394   0.518   3.206   5.869  0.3299  0.5566  0.0326
 7254SOL    HW133395   0.437   3.229   5.824 -0.8648 -1.9470  0.9474
 7254SOL    HW233396   0.578   3.278   5.848 -0.5232  1.3449  0.3008
 7255SOL     OW33397   1.238   0.453   7.932 -0.4741  0.5846  0.4548
 7255SOL    HW133398   1.225   0.513   7.859 -1.0311  0.5343  0.5097
 7255SOL    HW233399   1.176   0.484   7.998 -0.7752 -0.8992  0.8628
 7256SOL     OW33400   3.567   3.768  11.250  0.4324 -0.2614 -0.2188
 7256SOL    HW133401   3.581   3.692  11.193 -0.0526 -0.6197  0.1437
 7256SOL    HW233402   3.617   3.737  11.326  0.6954  1.6152  0.3880
 7257SOL     OW33403   2.785   0.614   7.289 -0.0610  0.3966 -0.7296
 7257SOL    HW133404   2.866   0.640   7.245  1.2212 -2.0150  0.2290
 7257SOL    HW233405   2.722   0.656   7.230  1.4790  1.4575 -1.6005
 7258SOL     OW33406   2.842   2.000  13.635 -0.1735 -0.2242 -0.2951
 7258SOL    HW133407   2.924   2.001  13.586  1.2104  0.5117  2.0520
 7258SOL    HW233408   2.876   2.045  13.711  1.7515 -3.9482  1.0698
 7259SOL     OW33409   0.429   0.537   5.512  0.4057  0.4562  0.4609
 7259SOL    HW133410   0.509   0.511   5.558 -0.7480 -2.5969  0.7334
 7259SOL    HW233411   0.429   0.631   5.531  2.1461  0.4341  0.5593
 7260SOL     OW33412   4.466   1.825  14.415 -0.2805 -0.7203  0.0875
 7260SOL    HW133413   4.404   1.822  14.342 -1.2711  0.1100  0.8980
 7260SOL    HW233414   4.486   1.918  14.414  1.0124 -1.0066 -0.7126
 7261SOL     OW33415   0.597   0.933   3.184 -0.4451  0.7742  0.2959
 7261SOL    HW133416   0.538   0.884   3.242  0.6090 -0.8893 -0.0377
 7261SOL    HW233417   0.540   0.943   3.108  1.9358  0.6338 -1.5075
 7262SOL     OW33418   3.709   2.806  15.419  0.0400  0.1288 -0.3883
 7262SOL    HW133419   3.767   2.875  15.450 -0.0284  0.1211 -0.2455
 7262SOL    HW233420   3.643   2.798  15.487  0.4541  1.2829  0.1422
 7263SOL     OW33421   3.359   2.379   6.902 -0.3298  0.1855 -0.1704
 7263SOL    HW133422   3.362   2.442   6.975  0.4330 -0.4632  0.3540
 7263SOL    HW233423   3.309   2.427   6.836 -0.2442  0.2142 -0.2135
 7264SOL     OW33424   0.981   3.097  10.101  0.6328 -0.5126 -0.7644
 7264SOL    HW133425   0.965   3.047  10.021 -2.2624  0.1389 -0.5868
 7264SOL    HW233426   0.930   3.175  10.079  0.4565 -0.9480 -1.9174
 7265SOL     OW33427   1.438   4.561   4.577  0.3458 -0.3480 -0.2442
 7265SOL    HW133428   1.420   4.532   4.488 -1.7280 -0.8433  0.3265
 7265SOL    HW233429   1.383   4.501   4.627  0.5475 -0.5114 -0.2209
 7266SOL     OW33430   0.089   1.043   2.754  0.3658  0.4565  0.1258
 7266SOL    HW133431   0.174   1.079   2.777  0.2928  0.9199 -0.3248
 7266SOL    HW233432   0.059   1.038   2.845 -1.7012  0.8539 -0.5251
 7267SOL     OW33433   4.258   3.194   8.196  0.2836  0.1275 -0.3668
 7267SOL    HW133434   4.192   3.131   8.223  0.0570  0.6756  0.3586
 7267SOL    HW233435   4.209   3.242   8.130  0.1683  0.3894 -0.0875
 7268SOL     OW33436   1.152   0.681   7.778  0.1741  0.3038  0.3239
 7268SOL    HW133437   1.151   0.740   7.853 -3.5393 -2.1851  2.2470
 7268SOL    HW233438   1.061   0.651   7.786  1.8457 -4.7120  0.3509
 7269SOL     OW33439   0.776   0.343   1.554  0.3541 -0.1559 -0.2577
 7269SOL    HW133440   0.733   0.427   1.538 -1.2126 -0.6707  1.3157
 7269SOL    HW233441   0.848   0.369   1.497 -0.1488 -0.2650 -0.9392
 7270SOL     OW33442   0.263   2.451   2.933  0.4931 -0.0392 -0.1377
 7270SOL    HW133443   0.223   2.419   3.014 -3.4897 -1.0595 -2.5272
 7270SOL    HW233444   0.218   2.532   2.909  0.8828 -0.0604 -0.9524
 7271SOL     OW33445   3.196   1.537  13.706  0.1406 -0.0655 -0.6442
 7271SOL    HW133446   3.189   1.518  13.800  1.4480 -1.6675 -0.8757
 7271SOL    HW233447   3.139   1.471  13.667 -2.2182  0.2752  2.2013
 7272SOL     OW33448   0.167   4.385   5.914 -0.5448 -0.3827 -0.2459
 7272SOL    HW133449   0.262   4.397   5.909 -0.5609 -0.0124  0.4276
 7272SOL    HW233450   0.137   4.420   5.830 -2.6958  0.1724  0.7656
 7273SOL     OW33451   0.632   1.349   0.908  0.4765 -0.0339 -0.3965
 7273SOL    HW133452   0.560   1.324   0.851  0.7409  0.2875 -0.8729
 7273SOL    HW233453   0.653   1.267   0.952 -2.1701 -0.4023  0.1999
 7274SOL     OW33454   1.185   0.180   5.490  0.3681 -0.0539 -0.2165
 7274SOL    HW133455   1.224   0.244   5.550 -3.0815  0.1395  1.7806
 7274SOL    HW233456   1.097   0.216   5.491  0.5197  0.3188 -0.0883
 7275SOL     OW33457   2.843   2.326   9.361 -0.1425 -0.6750  0.1854
 7275SOL    HW133458   2.792   2.406   9.344 -2.8737 -1.6981  3.6279
 7275SOL    HW233459   2.774   2.260   9.358 -0.6516 -0.0857 -1.2577
 7276SOL     OW33460   1.764   2.486   8.355 -0.2639  0.1582  0.3785
 7276SOL    HW133461   1.760   2.533   8.272 -2.0358  1.9233  1.4833
 7276SOL    HW233462   1.858   2.469   8.343 -0.4611 -0.2309 -0.6867
 7277SOL     OW33463   0.006   4.682   3.930  0.2564  0.1200  0.1053
 7277SOL    HW133464   0.060   4.674   4.008 -0.4000 -1.8941  0.3471
 7277SOL    HW233465   4.680   4.611   3.945 -0.4482  0.7501  0.1876
 7278SOL     OW33466   4.631   3.799   6.357 -0.2699 -0.5825  0.7252
 7278SOL    HW133467   4.598   3.752   6.434 -2.2010  0.8905  0.8067
 7278SOL    HW233468   4.559   3.777   6.299  0.7188 -0.5898 -0.4861
 7279SOL     OW33469   1.408   2.247   3.411  0.0675 -0.2639 -0.2367
 7279SOL    HW133470   1.438   2.331   3.447 -0.3091  0.5546 -1.8562
 7279SOL    HW233471   1.357   2.273   3.335  0.3465 -0.0680 -0.3575
 7280SOL     OW33472   4.163   1.262   3.274 -0.1184  0.6968  0.4308
 7280SOL    HW133473   4.142   1.258   3.367  0.8762 -0.0413  0.6304
 7280SOL    HW233474   4.164   1.357   3.268  2.4793  0.6055 -0.6723
 7281SOL     OW33475   0.517   4.243   3.515  0.3309 -0.3411 -0.0794
 7281SOL    HW133476   0.427   4.276   3.519  1.1019  1.9288 -1.2327
 7281SOL    HW233477   0.535   4.277   3.427 -1.8377 -0.8589 -0.7218
 7282SOL     OW33478   3.897   2.479  16.024  0.2927 -0.3312  0.5984
 7282SOL    HW133479   3.886   2.562  15.978  2.1318 -0.8927 -0.8640
 7282SOL    HW233480   3.928   2.504  16.110  1.3948  2.1248 -0.5216
 7283SOL     OW33481   3.490   2.857   7.210 -0.0465  0.1097  0.0533
 7283SOL    HW133482   3.457   2.935   7.254  1.1909  0.3746  0.5034
 7283SOL    HW233483   3.489   2.892   7.121  1.1263  0.8893  0.3461
 7284SOL     OW33484   4.324   3.835   6.484  0.0745  0.0297  0.1076
 7284SOL    HW133485   4.248   3.880   6.520  1.0334  1.4162  0.4355
 7284SOL    HW233486   4.324   3.863   6.392  1.5397  0.6819  0.3011
 7285SOL     OW33487   1.847   0.297   2.224 -0.0596 -0.1828 -0.8056
 7285SOL    HW133488   1.891   0.236   2.284 -0.4921  0.6545  0.3676
 7285SOL    HW233489   1.764   0.312   2.269  1.2656  0.6514  1.4054
 7286SOL     OW33490   2.471   3.633  11.575 -0.0905  0.0237  0.5204
 7286SOL    HW133491   2.427   3.558  11.535 -1.1651  1.0827 -0.3105
 7286SOL    HW233492   2.408   3.705  11.566 -1.9451 -1.7353 -0.4600
 7287SOL     OW33493   1.950   3.765  13.853 -0.0141  0.2514 -0.0451
 7287SOL    HW133494   2.021   3.796  13.796 -1.6627  1.1142 -1.6447
 7287SOL    HW233495   1.987   3.733  13.935  0.0335  0.0397 -0.1477
 7288SOL     OW33496   1.698   0.994  14.950  0.1566  0.7764 -0.0517
 7288SOL    HW133497   1.719   1.064  14.888  2.8509  3.0880  3.4946
 7288SOL    HW233498   1.604   0.984  14.935  0.1853  1.0097 -0.3873
 7289SOL     OW33499   2.391   1.290  15.052 -0.7025 -0.2988  0.6701
 7289SOL    HW133500   2.417   1.314  15.141  0.3342  2.5907 -0.4035
 7289SOL    HW233501   2.424   1.202  15.033  2.1278  0.1843  3.2256
 7290SOL     OW33502   1.178   1.736   1.633 -0.4379  0.1992  0.6476
 7290SOL    HW133503   1.221   1.730   1.719  1.5632 -0.0353 -0.3643
 7290SOL    HW233504   1.097   1.693   1.658 -1.4519  1.6321 -0.1395
 7291SOL     OW33505   1.085   3.551   5.617 -0.3373  0.2118  0.1050
 7291SOL    HW133506   1.170   3.533   5.577 -1.1577 -0.4866 -1.3316
 7291SOL    HW233507   1.048   3.463   5.622  2.4030 -0.9078  0.6034
 7292SOL     OW33508   1.056   2.313  14.044 -0.2086  0.1466 -0.2819
 7292SOL    HW133509   1.138   2.277  14.078 -0.5109  1.1727  1.5558
 7292SOL    HW233510   1.061   2.274  13.957  0.5568  0.8607 -0.5603
 7293SOL     OW33511   4.462   3.938   4.876 -0.1358  0.0581  0.5227
 7293SOL    HW133512   4.467   3.860   4.930  2.7680  0.5982  1.0215
 7293SOL    HW233513   4.532   3.912   4.816 -0.9910  1.7353 -1.1947
 7294SOL     OW33514   0.908   0.772   0.315 -0.0025 -0.3036 -0.2114
 7294SOL    HW133515   0.994   0.814   0.325 -0.6723  0.5994  1.6382
 7294SOL    HW233516   0.920   0.715   0.239  0.7991 -1.1550  0.5509
 7295SOL     OW33517   1.938   3.525   3.442  0.0705  0.8662  0.3310
 7295SOL    HW133518   1.912   3.612   3.472 -1.1097  0.9213 -0.8904
 7295SOL    HW233519   2.029   3.519   3.472 -0.9288 -1.5647  2.9604
 7296SOL     OW33520   4.170   3.572  12.736 -0.1738 -0.2942 -0.5437
 7296SOL    HW133521   4.151   3.485  12.772  3.0917 -0.2285  1.3571
 7296SOL    HW233522   4.248   3.600  12.784  0.2826 -3.1622  0.4336
 7297SOL     OW33523   2.730   0.658   6.015 -0.2187 -0.3829  0.1212
 7297SOL    HW133524   2.772   0.734   6.054  0.3225  0.3926 -1.9725
 7297SOL    HW233525   2.714   0.605   6.093  2.3266 -0.2640  0.7484
 7298SOL     OW33526   3.369   3.709  12.822 -0.1619  0.3901  0.0666
 7298SOL    HW133527   3.430   3.715  12.749  1.8871  0.5428  1.8269
 7298SOL    HW233528   3.393   3.792  12.862  2.1779  0.1319 -0.8147
 7299SOL     OW33529   1.711   3.939   6.710  0.2562 -0.7287 -0.3970
 7299SOL    HW133530   1.631   3.992   6.716  0.1000 -1.1401  1.2257
 7299SOL    HW233531   1.774   3.996   6.667 -1.2142  1.0636 -0.1908
 7300SOL     OW33532   3.067   4.390   5.446 -0.0043 -0.4200 -0.0655
 7300SOL    HW133533   3.085   4.479   5.415 -0.8383  0.5315  2.1408
 7300SOL    HW233534   3.044   4.397   5.539 -0.4501 -0.1382 -0.1942
 7301SOL     OW33535   4.520   3.377  16.722 -0.6821  0.9731 -0.2846
 7301SOL    HW133536   4.582   3.358  16.793 -1.3904  0.7662  0.2800
 7301SOL    HW233537   4.543   3.465  16.693  3.5427 -0.0192  0.0593
 7302SOL     OW33538   0.307   3.040   1.579 -0.1262  0.8917  0.1158
 7302SOL    HW133539   0.375   3.025   1.514  0.0963 -2.1581  1.0516
 7302SOL    HW233540   0.331   2.982   1.650  1.6528  0.6887 -0.6520
 7303SOL     OW33541   0.893   4.026   3.050 -0.2924  0.0340 -0.4423
 7303SOL    HW133542   0.865   4.116   3.069 -2.5463 -0.5768 -0.8306
 7303SOL    HW233543   0.938   4.001   3.131  1.4844 -0.7543 -1.6943
 7304SOL     OW33544   2.795   3.269  13.885  0.0316  0.7871  0.1283
 7304SOL    HW133545   2.805   3.191  13.939 -2.2314  1.4609  1.5058
 7304SOL    HW233546   2.871   3.270  13.826  0.2148 -0.8172  0.3320
 7305SOL     OW33547   1.625   3.849   4.962 -0.3810  0.4578 -0.1186
 7305SOL    HW133548   1.552   3.811   4.914  0.0695  1.1890 -1.3960
 7305SOL    HW233549   1.669   3.906   4.899  0.6222 -0.2677 -0.0739
 7306SOL     OW33550   0.389   3.980   7.994  0.4134  0.2634  0.1059
 7306SOL    HW133551   0.306   4.018   7.965  1.5596  3.0366  0.4800
 7306SOL    HW233552   0.418   4.043   8.060  0.6759 -0.0818  0.3202
 7307SOL     OW33553   3.360   3.507   4.223 -0.0032 -0.1997  0.0261
 7307SOL    HW133554   3.407   3.529   4.143  0.6614  1.1131  0.7787
 7307SOL    HW233555   3.390   3.585   4.269 -0.9566 -0.2853  0.7969
 7308SOL     OW33556   0.296   3.775  16.608 -0.3743 -0.0888  0.5903
 7308SOL    HW133557   0.340   3.715  16.547  1.0951  1.5759  0.0035
 7308SOL    HW233558   0.258   3.711  16.667 -0.2711 -1.7058 -1.1098
 7309SOL     OW33559   2.634   4.489  15.480 -0.2353 -0.4417  0.0549
 7309SOL    HW133560   2.656   4.431  15.407  0.7394 -0.7877  0.6234
 7309SOL    HW233561   2.721   4.527  15.493 -0.6783  0.0451  1.5972
 7310SOL     OW33562   1.224   3.560   8.302  0.6834  0.1611 -0.3668
 7310SOL    HW133563   1.302   3.517   8.267  0.5857 -1.0789  0.9570
 7310SOL    HW233564   1.162   3.488   8.314 -0.1088  0.6904 -1.2587
 7311SOL     OW33565   4.479   2.929   6.250 -0.9782 -0.6730 -0.5558
 7311SOL    HW133566   4.441   2.883   6.325  2.3384 -1.2890  0.7197
 7311SOL    HW233567   4.555   2.966   6.295 -0.4722 -0.8021 -1.3263
 7312SOL     OW33568   4.401   4.455   4.936 -0.1013 -0.2989 -1.2522
 7312SOL    HW133569   4.402   4.362   4.913  0.5797 -0.0552 -2.2235
 7312SOL    HW233570   4.336   4.466   5.006 -1.7772 -2.1599 -2.5217
 7313SOL     OW33571   3.636   1.158   3.323 -0.1259  0.4251  0.3591
 7313SOL    HW133572   3.622   1.075   3.368 -2.9818  0.4355 -0.5541
 7313SOL    HW233573   3.696   1.198   3.386  0.5822  1.0354 -0.6848
 7314SOL     OW33574   0.283   2.711   5.281 -0.0366 -0.1705  0.2942
 7314SOL    HW133575   0.203   2.750   5.316  1.0902  1.1551  1.3679
 7314SOL    HW233576   0.250   2.621   5.267 -1.3325  0.4701 -0.8034
 7315SOL     OW33577   2.576   4.181   2.434  0.0940  0.4350 -0.5577
 7315SOL    HW133578   2.629   4.248   2.476  1.4832 -1.6158  1.0050
 7315SOL    HW233579   2.496   4.228   2.412 -0.7953  0.0350  1.8798
 7316SOL     OW33580   0.602   3.468  15.524  0.1926 -0.2199  0.2169
 7316SOL    HW133581   0.685   3.515  15.521  1.9038 -3.2557  0.0136
 7316SOL    HW233582   0.618   3.374  15.527  0.6140 -0.1624 -0.4727
 7317SOL     OW33583   1.180   3.454   4.389 -0.6091  0.2392  0.3410
 7317SOL    HW133584   1.090   3.423   4.381 -0.9297  1.2782 -0.1211
 7317SOL    HW233585   1.213   3.440   4.300 -1.5654  1.8745 -0.2701
 7318SOL     OW33586   3.084   0.093   8.280  0.2804 -0.5965  0.2695
 7318SOL    HW133587   3.121   0.102   8.368 -1.7619  0.2654  1.0258
 7318SOL    HW233588   3.035   0.174   8.271  0.8676 -0.0646  2.0850
 7319SOL     OW33589   4.101   0.016   9.012  0.4637 -0.2374 -0.3037
 7319SOL    HW133590   4.174   0.029   8.951 -0.6330  0.6277 -1.4293
 7319SOL    HW233591   4.112   0.102   9.053 -3.2616  0.2193 -0.2506
 7320SOL     OW33592   1.010   0.147  15.225  0.7484 -0.2292 -0.1485
 7320SOL    HW133593   0.917   0.134  15.207  0.3671  1.1844  0.7692
 7320SOL    HW233594   1.010   0.199  15.306  1.3591 -1.5836  0.7271
 7321SOL     OW33595   3.525   2.094   1.893 -0.0920  0.4623  0.2834
 7321SOL    HW133596   3.608   2.121   1.854  0.4433  1.4779  2.1137
 7321SOL    HW233597   3.495   2.061   1.808  0.3804  2.3701 -0.6095
 7322SOL     OW33598   4.585   3.852  15.779 -0.0895 -0.2733 -0.0164
 7322SOL    HW133599   4.534   3.779  15.745 -1.3372  0.0343  1.1939
 7322SOL    HW233600   4.531   3.904  15.839 -0.3343 -0.0449 -0.4374
 7323SOL     OW33601   2.289   1.636   8.100 -0.1334  0.1526  0.0720
 7323SOL    HW133602   2.234   1.597   8.033 -0.0733  0.1196  0.0414
 7323SOL    HW233603   2.304   1.562   8.159 -0.5491 -1.4757 -1.8634
 7324SOL     OW33604   2.335   1.096  13.737 -0.2318 -0.1472  0.3348
 7324SOL    HW133605   2.282   1.069  13.812 -1.0085  0.0492 -0.1450
 7324SOL    HW233606   2.362   1.014  13.697 -1.2695 -0.6815  0.7238
 7325SOL     OW33607   4.142   1.746   5.737  0.2097  0.5006  0.6161
 7325SOL    HW133608   4.082   1.709   5.672 -2.9205  2.6841  2.2783
 7325SOL    HW233609   4.082   1.768   5.808 -3.3464 -1.0068 -1.8819
 7326SOL     OW33610   4.021   1.615  12.984 -0.2629  0.0346  0.2452
 7326SOL    HW133611   3.945   1.596  12.930 -0.5374  2.2099 -0.1536
 7326SOL    HW233612   4.015   1.710  13.000 -0.2504  0.2984 -1.3606
 7327SOL     OW33613   3.616   3.503   9.331  0.0374 -0.2802  0.0703
 7327SOL    HW133614   3.588   3.411   9.321 -0.4589 -0.0103 -1.0419
 7327SOL    HW233615   3.698   3.504   9.380  0.0448  2.3442 -0.0348
 7328SOL     OW33616   2.657   3.100   4.086  0.0751  0.0997 -0.1182
 7328SOL    HW133617   2.707   3.092   4.167  0.4152 -1.5886 -0.5002
 7328SOL    HW233618   2.715   3.151   4.028  1.5869 -0.3081  1.0137
 7329SOL     OW33619   4.687   3.177   3.324  0.2375 -0.3918 -1.0768
 7329SOL    HW133620   4.730   3.096   3.352  0.3126  0.0724  0.1293
 7329SOL    HW233621   4.718   3.182   3.233  0.1634  0.1562 -1.0692
 7330SOL     OW33622   2.289   4.247   6.062  0.4799 -0.5212 -0.0328
 7330SOL    HW133623   2.357   4.276   6.001  0.7044  1.2256  1.0725
 7330SOL    HW233624   2.250   4.328   6.093 -2.2210 -1.7751 -0.1345
 7331SOL     OW33625   2.788   2.654   8.289  0.3954 -0.4662 -0.4497
 7331SOL    HW133626   2.784   2.748   8.303 -1.1482 -0.8424  1.5879
 7331SOL    HW233627   2.880   2.652   8.261  1.1224  0.2461  1.9112
 7332SOL     OW33628   2.665   2.293   6.246 -0.0293  0.1756  0.3066
 7332SOL    HW133629   2.613   2.305   6.167 -0.6164  3.2267  1.1281
 7332SOL    HW233630   2.645   2.206   6.281  2.7753 -0.6778 -0.1898
 7333SOL     OW33631   1.386   0.182  17.393  0.2919  0.0186  0.1219
 7333SOL    HW133632   1.291   0.176  17.379  0.0147 -0.0658  2.1527
 7333SOL    HW233633   1.405   0.211  17.304  1.2970 -3.9559 -0.9600
 7334SOL     OW33634   2.644   1.815  13.687  0.7380 -0.5786 -0.0652
 7334SOL    HW133635   2.701   1.881  13.648  2.5005 -1.1083  1.6471
 7334SOL    HW233636   2.645   1.743  13.624  1.2593  0.2649 -1.0101
 7335SOL     OW33637   4.302   0.285   6.433 -0.1408  0.2400  0.2732
 7335SOL    HW133638   4.344   0.354   6.485  2.0945 -1.0977  0.2417
 7335SOL    HW233639   4.356   0.295   6.355 -0.5951  0.6293  0.0052
 7336SOL     OW33640   0.079   3.165  11.661  0.1273  0.4327  0.1871
 7336SOL    HW133641   0.173   3.184  11.670  0.2636 -0.9985  2.0751
 7336SOL    HW233642   0.059   3.110  11.738 -1.0541  1.2944  0.4888
 7337SOL     OW33643   2.809   4.416   7.127 -0.5334  0.2393 -0.0603
 7337SOL    HW133644   2.885   4.469   7.151 -0.3692 -0.5959  1.2585
 7337SOL    HW233645   2.761   4.397   7.207  0.1821 -1.8742 -0.1340
 7338SOL     OW33646   2.227   3.230  17.265 -0.3736  0.3433  0.0695
 7338SOL    HW133647   2.306   3.177  17.259 -0.2394  0.6593 -1.0119
 7338SOL    HW233648   2.171   3.167  17.311 -2.0367 -0.1931 -2.6323
 7339SOL     OW33649   0.463   2.408   3.571 -0.3025  0.4760 -0.1781
 7339SOL    HW133650   0.426   2.337   3.623 -2.9987  1.2620 -0.9706
 7339SOL    HW233651   0.394   2.400   3.504 -1.1811 -0.9783  0.9005
 7340SOL     OW33652   4.186   3.937  16.006  0.0923  0.5010 -0.2497
 7340SOL    HW133653   4.145   3.981  15.931 -1.2736 -1.1065 -0.4210
 7340SOL    HW233654   4.159   3.984  16.085 -3.3776  0.9109 -1.6919
 7341SOL     OW33655   4.090   2.396   9.792 -0.2265 -0.0013 -0.3902
 7341SOL    HW133656   4.150   2.323   9.805 -0.1786  0.0254 -0.4580
 7341SOL    HW233657   4.042   2.373   9.713  0.5808  0.0474 -0.8973
 7342SOL     OW33658   1.492   0.126   0.353  0.1607 -0.1879  0.3781
 7342SOL    HW133659   1.497   0.216   0.321  1.4921  0.1578  1.5539
 7342SOL    HW233660   1.585   0.105   0.351 -0.0144 -1.1686  2.8244
 7343SOL     OW33661   1.492   2.443  13.467  0.7130  0.4889  0.4547
 7343SOL    HW133662   1.572   2.495  13.459  0.3639  1.0722  0.7260
 7343SOL    HW233663   1.491   2.426  13.562 -0.7059 -0.7193  0.2178
 7344SOL     OW33664   2.421   4.385   6.436  0.3049  0.0017 -0.2290
 7344SOL    HW133665   2.385   4.305   6.473 -3.5590  0.7358 -2.3859
 7344SOL    HW233666   2.424   4.439   6.515  1.4984 -0.5697  0.1187
 7345SOL     OW33667   1.344   3.018  15.722 -0.2088 -0.0123  0.0563
 7345SOL    HW133668   1.360   3.107  15.755  2.6134 -0.6034  0.3338
 7345SOL    HW233669   1.391   3.022  15.638  0.9334 -1.4225  0.6311
 7346SOL     OW33670   2.517   3.492  13.279  1.1640  0.3135  0.2528
 7346SOL    HW133671   2.568   3.537  13.346  1.4686 -0.7601  0.7386
 7346SOL    HW233672   2.576   3.481  13.205 -2.1424 -0.4097 -2.3082
 7347SOL     OW33673   0.832   3.166  11.464 -0.2844 -0.2443 -0.6172
 7347SOL    HW133674   0.850   3.125  11.379  2.8105  0.3379 -0.2305
 7347SOL    HW233675   0.901   3.233  11.462  0.4339 -0.9943 -0.6267
 7348SOL     OW33676   1.162   2.134   5.172 -0.1600  0.1956 -0.0409
 7348SOL    HW133677   1.142   2.063   5.111 -0.2058  1.2385 -1.2244
 7348SOL    HW233678   1.096   2.198   5.146  0.5988  0.5038 -1.2172
 7349SOL     OW33679   0.523   2.528   6.845  0.2574  0.5633 -0.0898
 7349SOL    HW133680   0.590   2.571   6.898 -0.5590  0.4551  1.0393
 7349SOL    HW233681   0.493   2.465   6.911  2.3018  0.3291  0.6156
 7350SOL     OW33682   3.701   2.261   4.955  0.2646  0.2016 -0.4566
 7350SOL    HW133683   3.793   2.273   4.981  0.4071 -0.7150 -0.5263
 7350SOL    HW233684   3.674   2.353   4.949  3.6874  1.2334 -0.1725
 7351SOL     OW33685   0.071   0.485  12.291  0.1626  0.6752 -0.4974
 7351SOL    HW133686   0.025   0.513  12.212 -1.5894 -0.2796  0.1828
 7351SOL    HW233687   0.073   0.389  12.295  3.1118  0.6656 -2.2007
 7352SOL     OW33688   0.566   2.235   3.947 -0.6402  0.1512  0.4143
 7352SOL    HW133689   0.582   2.141   3.950  1.0448  0.3941 -0.5615
 7352SOL    HW233690   0.647   2.275   3.913  1.3663 -4.4985 -0.3045
 7353SOL     OW33691   4.612   4.001   0.104 -0.0802 -0.0248 -0.5835
 7353SOL    HW133692   4.653   4.016   0.019  0.4280 -1.7715 -0.6475
 7353SOL    HW233693   4.629   4.081   0.154  1.3620  0.8331 -2.4773
 7354SOL     OW33694   1.924   3.726   3.892  0.1480 -0.2886  0.2597
 7354SOL    HW133695   1.915   3.809   3.847 -2.1148 -0.2650  0.7822
 7354SOL    HW233696   1.956   3.762   3.975  1.2036  1.6630 -1.0051
 7355SOL     OW33697   0.089   2.472   2.445  0.1662 -0.2469 -0.8057
 7355SOL    HW133698   0.003   2.429   2.448 -0.3598  0.8266 -0.4080
 7355SOL    HW233699   0.152   2.401   2.434  1.2780  0.0892  3.1579
 7356SOL     OW33700   2.128   4.579   2.521 -0.9291 -0.1221  0.2964
 7356SOL    HW133701   2.222   4.588   2.505 -0.7444 -0.5915  1.1544
 7356SOL    HW233702   2.126   4.605   2.613 -0.7054 -1.3154  0.6375
 7357SOL     OW33703   1.539   0.436   5.567 -0.0521 -0.1337  0.0595
 7357SOL    HW133704   1.507   0.447   5.478  0.8193  1.0759 -0.1071
 7357SOL    HW233705   1.552   0.528   5.594 -1.5453  1.0417 -3.2445
 7358SOL     OW33706   1.099   0.418   1.996 -0.1564 -0.4882 -0.7272
 7358SOL    HW133707   1.174   0.476   1.984 -0.0668  0.2048  3.2980
 7358SOL    HW233708   1.025   0.478   2.004  1.8283  1.5460  2.0799
 7359SOL     OW33709   1.511   1.942   7.915 -0.2865  0.1225 -0.0723
 7359SOL    HW133710   1.594   1.975   7.880 -1.1072  3.5594  1.2402
 7359SOL    HW233711   1.531   1.849   7.922 -2.8468 -0.4634 -0.7664
 7360SOL     OW33712   3.061   1.945   2.427 -0.5045 -0.1085  0.4002
 7360SOL    HW133713   3.020   2.020   2.470  1.3292  1.3873 -0.5078
 7360SOL    HW233714   3.022   1.947   2.340  0.8916  0.6140 -0.2040
 7361SOL     OW33715   1.905   2.472   7.318 -0.2924  0.7636 -0.5254
 7361SOL    HW133716   1.810   2.458   7.327  0.0780 -1.2198  0.4312
 7361SOL    HW233717   1.911   2.543   7.381 -0.6274  0.3884 -0.0679
 7362SOL     OW33718   3.503   3.636   9.098  0.2814 -0.6289 -0.4726
 7362SOL    HW133719   3.446   3.581   9.045 -1.7149  0.9243  0.0608
 7362SOL    HW233720   3.500   3.583   9.178 -1.8275 -1.6335 -1.2299
 7363SOL     OW33721   2.959   0.762   5.771  0.7706  0.1171  0.0693
 7363SOL    HW133722   2.938   0.848   5.734 -1.4293 -1.1657 -1.6728
 7363SOL    HW233723   2.917   0.766   5.857  0.0338  0.2147 -0.2954
 7364SOL     OW33724   0.475   1.262   4.522 -0.5087 -0.0397  0.2090
 7364SOL    HW133725   0.398   1.247   4.577  1.1233 -1.5966  2.0247
 7364SOL    HW233726   0.508   1.174   4.506 -1.7397 -0.1441 -1.8683
 7365SOL     OW33727   3.119   2.669   7.727 -0.1760 -0.1754 -0.8881
 7365SOL    HW133728   3.058   2.726   7.775 -0.0168  0.4407 -1.4186
 7365SOL    HW233729   3.064   2.639   7.655 -1.0875 -0.2009 -0.1863
 7366SOL     OW33730   1.053   3.797   4.597 -0.1184  0.4903 -0.2161
 7366SOL    HW133731   0.986   3.750   4.548 -0.9557  0.8276  0.6161
 7366SOL    HW233732   1.118   3.814   4.529  1.1140 -1.7961  0.3936
 7367SOL     OW33733   3.302   0.370   7.709  0.0990 -0.1569 -0.1566
 7367SOL    HW133734   3.324   0.288   7.753  1.1004  0.2432  0.0774
 7367SOL    HW233735   3.249   0.415   7.775 -1.0853 -1.6222 -0.0936
 7368SOL     OW33736   2.183   0.020   4.410  0.4377 -0.3616  0.1338
 7368SOL    HW133737   2.161   4.671   4.372  0.6118 -1.0885  1.6173
 7368SOL    HW233738   2.160   0.001   4.501  0.7631  0.0201  0.2960
 7369SOL     OW33739   2.086   3.632   1.392  0.5215 -0.7418 -0.0502
 7369SOL    HW133740   2.065   3.678   1.311 -1.2659 -0.2598  0.6857
 7369SOL    HW233741   2.181   3.622   1.381  0.5486  0.8659 -1.2018
 7370SOL     OW33742   3.700   1.086   7.338 -0.2301  0.1079 -0.4070
 7370SOL    HW133743   3.757   1.096   7.262 -1.4664 -1.5416 -1.5493
 7370SOL    HW233744   3.616   1.128   7.318  1.4130  3.7362  0.2980
 7371SOL     OW33745   0.395   2.630   7.617 -0.0488 -0.0977 -0.1739
 7371SOL    HW133746   0.410   2.605   7.526  0.1389  3.3520 -1.0979
 7371SOL    HW233747   0.423   2.722   7.613 -1.3197  0.2135 -2.0066
 7372SOL     OW33748   0.007   2.539   5.251 -0.4021 -0.0611  0.1968
 7372SOL    HW133749   4.681   2.577   5.190 -0.8107 -1.2548 -0.1313
 7372SOL    HW233750   4.723   2.584   5.333 -1.5918  2.2833 -1.4139
 7373SOL     OW33751   3.095   1.898   6.194 -0.1002  0.3772  0.1304
 7373SOL    HW133752   3.104   1.886   6.099 -0.3244  1.1756  0.0105
 7373SOL    HW233753   3.044   1.821   6.220  2.1391 -1.0175  0.3623
 7374SOL     OW33754   1.788   2.628   8.127 -0.1281 -0.2885  0.6472
 7374SOL    HW133755   1.751   2.692   8.067 -0.5676 -2.3395 -1.2431
 7374SOL    HW233756   1.815   2.560   8.066 -0.3602  0.9044 -0.7847
 7375SOL     OW33757   2.433   3.365   2.498  0.1569 -0.1384  0.2690
 7375SOL    HW133758   2.346   3.374   2.459  0.5374 -0.7282 -0.6956
 7375SOL    HW233759   2.485   3.429   2.450  1.4905 -1.1666  0.3623
 7376SOL     OW33760   4.130   3.469   7.063  0.3358  0.0153 -0.2624
 7376SOL    HW133761   4.219   3.443   7.042 -0.5350 -2.5393 -0.8129
 7376SOL    HW233762   4.086   3.430   6.987 -2.7986  0.6186  1.2355
 7377SOL     OW33763   3.432   4.057   9.603 -0.3429  0.1751  0.1436
 7377SOL    HW133764   3.422   3.968   9.569  0.5472  0.3307 -0.5393
 7377SOL    HW233765   3.514   4.042   9.651  1.1011 -1.4320 -2.8404
 7378SOL     OW33766   2.693   4.482   4.738 -0.6361 -0.0820 -0.0955
 7378SOL    HW133767   2.699   4.516   4.827  0.2596  1.0178 -0.5764
 7378SOL    HW233768   2.609   4.520   4.715  0.0153  1.6155  0.3351
 7379SOL     OW33769   2.053   2.454  16.071  0.1561  0.3065 -1.1218
 7379SOL    HW133770   2.076   2.522  16.007 -0.6960 -0.8768 -2.6927
 7379SOL    HW233771   2.037   2.515  16.143 -0.1209 -1.6315  0.4396
 7380SOL     OW33772   3.857   3.212  15.830 -0.7959 -0.5442  0.2448
 7380SOL    HW133773   3.877   3.139  15.888  2.3997  0.9384  1.0025
 7380SOL    HW233774   3.945   3.231  15.796 -0.9840  1.3131  0.7711
 7381SOL     OW33775   0.438   4.495   4.743  0.1973  0.6006 -0.6710
 7381SOL    HW133776   0.515   4.509   4.688  0.6258 -0.9701 -0.4834
 7381SOL    HW233777   0.429   4.402   4.724  2.3647 -0.1661  2.0526
 7382SOL     OW33778   1.266   3.566  15.086  0.5934 -0.9126  0.4191
 7382SOL    HW133779   1.237   3.599  15.001 -0.2109  1.3386  1.5785
 7382SOL    HW233780   1.190   3.520  15.121 -0.1792  0.0060 -0.0547
 7383SOL     OW33781   1.984   0.201  13.120 -0.3935 -0.9580  0.1963
 7383SOL    HW133782   1.931   0.172  13.045  0.0929  0.9395 -0.8596
 7383SOL    HW233783   1.990   0.126  13.179  0.1197 -0.1657  1.1437
 7384SOL     OW33784   0.686   0.575  16.472 -0.3917  0.2301 -0.3760
 7384SOL    HW133785   0.606   0.624  16.491  1.0811  2.0497  1.1262
 7384SOL    HW233786   0.651   0.498  16.518  0.0510  0.4595  0.3360
 7385SOL     OW33787   3.004   2.137  13.839 -0.2290 -0.4268  0.9488
 7385SOL    HW133788   2.947   2.129  13.916 -1.6527  0.0970 -0.0386
 7385SOL    HW233789   3.018   2.232  13.836 -1.6584 -0.2547 -0.4943
 7386SOL     OW33790   2.706   1.063  11.175  0.6527  0.2078  0.4107
 7386SOL    HW133791   2.696   1.023  11.089  1.3825  1.1033 -0.0940
 7386SOL    HW233792   2.697   1.155  11.150  1.2031  0.9320  2.8402
 7387SOL     OW33793   2.822   3.644   2.969 -0.0693 -0.5400  0.2924
 7387SOL    HW133794   2.750   3.695   3.006  1.2442 -0.1947  2.3684
 7387SOL    HW233795   2.832   3.565   3.022  0.4094 -1.3366 -0.9816
 7388SOL     OW33796   0.074   0.539  11.913 -0.5266 -0.1659  0.1976
 7388SOL    HW133797   0.095   0.467  11.973 -4.7982 -1.2833  0.3133
 7388SOL    HW233798   4.723   0.512  11.886 -0.2092 -0.4757 -0.5354
 7389SOL     OW33799   0.940   0.373   6.749 -0.0797  0.0200 -0.6978
 7389SOL    HW133800   0.967   0.393   6.659  3.1949 -0.1981  0.2627
 7389SOL    HW233801   1.019   0.387   6.800 -1.5099 -1.3665  1.8882
 7390SOL     OW33802   0.003   3.057   9.627  0.0633  0.4268  0.8297
 7390SOL    HW133803   4.691   2.975   9.613 -0.7290  1.1603 -0.7410
 7390SOL    HW233804   0.090   3.031   9.658  0.7373  0.8351 -0.7057
 7391SOL     OW33805   1.440   2.211   3.012 -0.1981  0.4156 -1.1662
 7391SOL    HW133806   1.428   2.135   3.069  0.1700  0.7915 -0.5886
 7391SOL    HW233807   1.423   2.286   3.069  2.0657 -1.1550  1.5867
 7392SOL     OW33808   3.791   3.359  16.573 -0.0337  1.0512  0.2683
 7392SOL    HW133809   3.764   3.269  16.588  1.5351  0.5084 -0.1753
 7392SOL    HW233810   3.742   3.392  16.648 -0.4083  1.7772 -0.2968
 7393SOL     OW33811   2.651   1.613   6.846 -0.2809 -0.3270 -0.0712
 7393SOL    HW133812   2.635   1.520   6.828  1.5439 -0.3390 -1.6155
 7393SOL    HW233813   2.704   1.607   6.925  2.4552 -0.5316 -1.9433
 7394SOL     OW33814   1.593   4.434  15.871  0.3419 -0.4019  0.0650
 7394SOL    HW133815   1.625   4.381  15.798  1.3395 -0.8414  0.8210
 7394SOL    HW233816   1.507   4.458  15.836  0.2490 -1.2970 -0.3064
 7395SOL     OW33817   1.470   0.606   9.359  0.3086 -0.6323  0.2245
 7395SOL    HW133818   1.564   0.590   9.373  0.8208  1.2381 -1.1069
 7395SOL    HW233819   1.438   0.519   9.382 -0.0628 -0.3297  0.8547
 7396SOL     OW33820   1.206   3.629   2.081  0.4733 -0.3500 -0.2245
 7396SOL    HW133821   1.248   3.595   2.002  0.3095 -1.1678  0.0382
 7396SOL    HW233822   1.183   3.545   2.121  0.5129 -0.1682  0.1856
 7397SOL     OW33823   4.500   0.458   4.657  0.1879 -0.3299 -0.3583
 7397SOL    HW133824   4.443   0.534   4.642 -0.0530 -0.3082  0.6218
 7397SOL    HW233825   4.509   0.434   4.565  0.5332  2.1383 -0.9874
 7398SOL     OW33826   1.102   2.006  12.475 -0.1344 -0.2997 -0.2640
 7398SOL    HW133827   1.103   1.958  12.392  0.2140 -2.2460  0.8943
 7398SOL    HW233828   1.068   2.093  12.452  0.9488 -0.5949 -2.9246
 7399SOL     OW33829   4.679   1.012   3.442 -0.2360  0.1350 -0.2882
 7399SOL    HW133830   4.686   1.088   3.500 -0.3831  1.1274 -1.5877
 7399SOL    HW233831   0.007   0.962   3.492  0.8182 -0.9274 -2.6836
 7400SOL     OW33832   1.054   4.462   4.909 -0.1994  0.2016  0.7360
 7400SOL    HW133833   1.012   4.376   4.912  1.1131 -0.4921 -1.0341
 7400SOL    HW233834   1.053   4.510   4.992 -0.0525 -1.3952  1.6518
 7401SOL     OW33835   3.113   1.027  12.108  0.1799  0.6003 -0.0853
 7401SOL    HW133836   3.021   1.052  12.119  0.1465  0.3012  0.3067
 7401SOL    HW233837   3.133   1.090  12.039  1.3808  0.5143  0.1982
 7402SOL     OW33838   3.473   0.959   6.228  0.5021  0.0746  0.4017
 7402SOL    HW133839   3.496   1.035   6.281  0.8228 -0.0024  0.3727
 7402SOL    HW233840   3.471   0.890   6.295 -0.7734 -0.0256  0.2526
 7403SOL     OW33841   2.078   2.014   9.037 -0.6962 -0.2439  0.6859
 7403SOL    HW133842   2.137   1.984   9.106 -0.6989  0.8539  1.1596
 7403SOL    HW233843   2.019   1.939   9.026 -0.7811  0.2638 -2.3443
 7404SOL     OW33844   2.527   1.349  15.938 -0.3544 -0.4499  0.1509
 7404SOL    HW133845   2.497   1.400  16.013  0.3894  0.3472 -0.0896
 7404SOL    HW233846   2.477   1.271  15.962 -0.2803 -0.3244  0.7293
 7405SOL     OW33847   1.049   2.704  12.209  0.5956  0.6062  0.0662
 7405SOL    HW133848   1.025   2.699  12.116  0.5165  1.8287  0.0196
 7405SOL    HW233849   1.135   2.663  12.198  0.2602 -0.0648 -0.0888
 7406SOL     OW33850   0.798   4.638  15.006 -0.2946  0.1363  0.1510
 7406SOL    HW133851   0.723   4.579  14.999 -1.3399  1.7333 -1.9924
 7406SOL    HW233852   0.780   4.665  15.096  2.2490  1.9793  0.1141
 7407SOL     OW33853   0.146   1.891   8.486 -0.4884 -0.4905 -0.4562
 7407SOL    HW133854   0.213   1.832   8.452 -1.6037 -0.6565 -2.3920
 7407SOL    HW233855   0.067   1.837   8.480  0.7374 -2.2623 -0.6180
 7408SOL     OW33856   4.437   2.773   6.034 -0.0182 -0.4233  0.3743
 7408SOL    HW133857   4.439   2.822   6.116 -1.5441  0.1040  0.1077
 7408SOL    HW233858   4.417   2.685   6.066 -0.7000 -0.1895  0.6080
 7409SOL     OW33859   2.027   4.322  15.309 -0.4345  0.1024 -0.3943
 7409SOL    HW133860   2.061   4.376  15.380 -2.1839 -0.9959  1.2607
 7409SOL    HW233861   2.086   4.338  15.234 -0.3516  0.3446 -0.2775
 7410SOL     OW33862   0.198   2.160   7.051 -0.0304 -0.1628  0.6165
 7410SOL    HW133863   0.188   2.147   7.145  0.9947 -0.0431  0.7454
 7410SOL    HW233864   0.240   2.076   7.033 -0.3429  0.0197 -0.9587
 7411SOL     OW33865   2.449   1.758  13.160  0.7072 -0.4303 -0.2647
 7411SOL    HW133866   2.534   1.781  13.197 -0.1788  0.9846  0.8985
 7411SOL    HW233867   2.479   1.745  13.070 -1.5276 -2.3372 -0.7485
 7412SOL     OW33868   1.041   4.163  14.053  0.6251 -0.1858  0.1891
 7412SOL    HW133869   1.040   4.207  13.967 -1.6508 -1.3135 -0.3590
 7412SOL    HW233870   0.971   4.206  14.101 -1.1032 -2.1999 -0.5513
 7413SOL     OW33871   0.578   3.179   1.719  0.1526  0.3194 -0.1364
 7413SOL    HW133872   0.584   3.196   1.813 -0.2818  1.4591 -0.3173
 7413SOL    HW233873   0.496   3.222   1.696 -1.1778 -0.7340  2.7155
 7414SOL     OW33874   2.313   3.307   4.396  0.1785  0.1832  0.6623
 7414SOL    HW133875   2.392   3.306   4.342  0.9429  1.5773  1.7361
 7414SOL    HW233876   2.274   3.378   4.345  0.0744 -2.1330 -2.4778
 7415SOL     OW33877   1.090   3.164   2.430  0.2134 -0.3124 -0.1093
 7415SOL    HW133878   1.107   3.240   2.486  1.1190  0.1703 -1.0476
 7415SOL    HW233879   1.161   3.171   2.367 -0.1031  3.3306 -0.0403
 7416SOL     OW33880   4.495   3.155   9.211  0.0125  0.0121  0.0174
 7416SOL    HW133881   4.569   3.176   9.268  0.2600  2.2838 -1.1255
 7416SOL    HW233882   4.432   3.108   9.265  0.5988 -0.5238  0.2367
 7417SOL     OW33883   1.629   2.890  16.563  0.0616 -0.0133 -0.5188
 7417SOL    HW133884   1.607   2.813  16.511 -0.7785  0.1943 -0.4698
 7417SOL    HW233885   1.548   2.906  16.611  1.6605  0.4725  2.0387
 7418SOL     OW33886   4.255   2.221  15.396 -0.6555 -0.1922  0.2662
 7418SOL    HW133887   4.168   2.239  15.362 -0.1811  0.5379 -0.5494
 7418SOL    HW233888   4.307   2.301  15.391  0.0798 -0.4807  2.8802
 7419SOL     OW33889   4.235   0.615   1.266  0.1555 -0.1633  0.2921
 7419SOL    HW133890   4.289   0.561   1.210 -0.0671 -0.0769 -0.0059
 7419SOL    HW233891   4.260   0.704   1.242 -0.9975 -0.4931 -2.1158
 7420SOL     OW33892   2.973   0.748   7.914 -1.3494 -0.0389  0.4398
 7420SOL    HW133893   2.970   0.710   8.001  0.9302 -1.7839 -0.2643
 7420SOL    HW233894   2.970   0.676   7.851 -1.3739 -0.1585  0.5789
 7421SOL     OW33895   1.110   2.714   4.400  0.4918 -0.1914  0.4338
 7421SOL    HW133896   1.113   2.649   4.330 -1.1347 -3.0976  3.0406
 7421SOL    HW233897   1.197   2.753   4.395  0.0562  1.1860  3.3252
 7422SOL     OW33898   0.446   3.217   8.884  0.4870  0.2870  0.6918
 7422SOL    HW133899   0.351   3.206   8.875  0.3199  0.1748  2.6479
 7422SOL    HW233900   0.447   3.310   8.904 -4.9740  0.4459  0.1141
 7423SOL     OW33901   0.952   4.320  12.522  0.0431 -0.2953 -0.2621
 7423SOL    HW133902   0.892   4.311  12.447 -1.2158 -0.6065  0.7758
 7423SOL    HW233903   0.899   4.270  12.584  0.2141 -1.5299 -1.1311
 7424SOL     OW33904   1.435   3.930   9.053  0.2364 -0.1398  0.2092
 7424SOL    HW133905   1.353   3.916   9.101 -0.8121  3.0501 -0.6445
 7424SOL    HW233906   1.495   3.965   9.119  1.4051 -1.4493 -0.1626
 7425SOL     OW33907   4.704   1.345   4.932 -0.2092  0.0074  0.4669
 7425SOL    HW133908   4.624   1.312   4.890 -0.4329 -0.7572  1.4941
 7425SOL    HW233909   0.000   1.420   4.882  0.7574 -0.5471  0.2665
 7426SOL     OW33910   2.806   0.536  15.220  0.8654  0.2770  0.5558
 7426SOL    HW133911   2.794   0.584  15.138  1.9193  0.5025  0.5297
 7426SOL    HW233912   2.744   0.464  15.205  1.6271  0.3289 -2.8690
 7427SOL     OW33913   0.227   0.512   3.130 -0.0039 -0.1853  0.2356
 7427SOL    HW133914   0.186   0.498   3.045  1.7057 -1.2629 -0.3853
 7427SOL    HW233915   0.261   0.425   3.149  1.3361  0.4872  0.8939
 7428SOL     OW33916   1.189   3.809  11.190 -0.0578  0.1088 -0.1020
 7428SOL    HW133917   1.232   3.777  11.269  1.5776  2.5607  0.0056
 7428SOL    HW233918   1.263   3.797  11.132 -0.9222 -2.3199 -0.6953
 7429SOL     OW33919   0.605   1.560   7.073  0.1743  0.6362  0.0500
 7429SOL    HW133920   0.656   1.615   7.013  3.0271  0.2632  2.0953
 7429SOL    HW233921   0.663   1.489   7.102 -0.0141  0.8728  1.0151
 7430SOL     OW33922   0.311   3.493  13.721  0.7193 -0.1179 -0.0501
 7430SOL    HW133923   0.341   3.412  13.680 -1.2980 -0.7375 -0.2559
 7430SOL    HW233924   0.218   3.474  13.713  0.2738  1.8400  0.5007
 7431SOL     OW33925   4.557   4.367   0.529  0.1130  0.1161  0.0014
 7431SOL    HW133926   4.541   4.460   0.516 -0.8189 -0.2096 -1.2018
 7431SOL    HW233927   4.637   4.379   0.580 -1.3377  1.7485  1.8530
 7432SOL     OW33928   0.129   2.254   3.899  0.0061  0.2727  0.4993
 7432SOL    HW133929   0.090   2.236   3.985  1.0730 -0.1764  0.8827
 7432SOL    HW233930   0.097   2.343   3.887  1.1726  0.8843  2.0215
 7433SOL     OW33931   3.511   2.904   2.365  0.1107 -0.2687 -0.0884
 7433SOL    HW133932   3.574   2.838   2.335 -0.4932 -0.8849 -0.0182
 7433SOL    HW233933   3.490   2.857   2.446 -2.7288 -0.1956 -0.7765
 7434SOL     OW33934   3.520   1.633  11.225 -0.1606 -0.7017 -0.0496
 7434SOL    HW133935   3.611   1.659  11.211 -0.4357  0.8374  1.1108
 7434SOL    HW233936   3.531   1.555  11.170 -1.9206 -2.2769  1.8307
 7435SOL     OW33937   0.654   4.224   6.608 -0.5294  0.0429 -0.3713
 7435SOL    HW133938   0.562   4.205   6.626 -0.7949  0.7164 -1.0197
 7435SOL    HW233939   0.707   4.168   6.665 -0.1899 -0.0033 -0.7358
 7436SOL     OW33940   2.317   1.618   6.221  0.2872 -0.6225 -0.1061
 7436SOL    HW133941   2.234   1.571   6.214 -0.3987  1.0278 -2.8461
 7436SOL    HW233942   2.307   1.659   6.306 -0.6783 -3.1075  0.9944
 7437SOL     OW33943   2.833   1.621   3.940  0.0940  0.0124  0.1254
 7437SOL    HW133944   2.852   1.668   3.858  0.2138 -2.5656 -1.3394
 7437SOL    HW233945   2.916   1.616   3.987  1.6964 -1.1712 -2.7741
 7438SOL     OW33946   0.018   4.725   0.409 -0.0787  0.1623  0.0207
 7438SOL    HW133947   4.682   4.708   0.348  0.2880 -1.4390  0.0231
 7438SOL    HW233948   4.703   4.722   0.490  0.6157  3.1554  0.5660
 7439SOL     OW33949   3.001   4.627   4.420  0.5219 -0.1832  0.3425
 7439SOL    HW133950   2.990   4.716   4.387  1.0719 -0.0563  0.5040
 7439SOL    HW233951   3.096   4.632   4.430  0.6592 -0.9860 -0.5823
 7440SOL     OW33952   3.167   4.027   4.566 -0.5786 -0.2589  0.1989
 7440SOL    HW133953   3.223   4.048   4.640 -1.4325 -0.3379  0.8663
 7440SOL    HW233954   3.110   4.104   4.568  0.6389  0.7257 -1.9630
 7441SOL     OW33955   2.983   0.104   7.720  0.0830  0.3599  0.0306
 7441SOL    HW133956   2.976   0.179   7.779 -1.6558  0.4972 -0.3755
 7441SOL    HW233957   2.910   0.046   7.741  2.0747 -2.1452  0.1063
 7442SOL     OW33958   4.259   0.836   6.709  0.2295  0.3467 -0.4133
 7442SOL    HW133959   4.315   0.847   6.786  1.6051  0.1555 -1.4017
 7442SOL    HW233960   4.184   0.892   6.732 -0.2177 -1.0286  1.4804
 7443SOL     OW33961   0.866   0.199   8.299 -0.1917 -0.0860  0.0170
 7443SOL    HW133962   0.915   0.139   8.355 -1.5130 -0.3704  0.8658
 7443SOL    HW233963   0.927   0.183   8.227  0.7254 -0.8032  0.9481
 7444SOL     OW33964   4.438   0.404   3.004 -0.2583  0.3115  0.2854
 7444SOL    HW133965   4.525   0.385   3.039  0.2093  0.3066 -0.8842
 7444SOL    HW233966   4.447   0.494   2.973  0.0214 -0.5119 -1.9792
 7445SOL     OW33967   1.259   2.676   6.253  0.2816  0.0557  0.7738
 7445SOL    HW133968   1.222   2.765   6.257  0.7869  0.2683  0.6536
 7445SOL    HW233969   1.288   2.677   6.345 -2.1907  0.1291  1.5776
 7446SOL     OW33970   2.027   3.971   0.995  0.1453 -0.4024  0.3034
 7446SOL    HW133971   1.950   4.027   1.006 -0.4524 -0.5267 -3.2458
 7446SOL    HW233972   2.087   4.017   0.937  1.9098 -2.6254  0.3790
 7447SOL     OW33973   3.971   0.493   8.027  0.4458  0.1161 -0.1531
 7447SOL    HW133974   3.972   0.588   8.020  0.2796  0.1231 -0.0805
 7447SOL    HW233975   3.881   0.467   8.048  1.2858 -1.4559  1.5165
 7448SOL     OW33976   4.308   2.397  11.690 -0.2225 -0.1049 -0.2531
 7448SOL    HW133977   4.368   2.354  11.630  1.0078  0.3783  0.6302
 7448SOL    HW233978   4.295   2.480  11.645 -2.0485 -0.2121  0.0596
 7449SOL     OW33979   3.554   0.205   8.832  0.5470  0.1287 -0.1923
 7449SOL    HW133980   3.528   0.138   8.894 -1.4149 -1.1491 -2.4144
 7449SOL    HW233981   3.507   0.184   8.752  0.7627 -0.1251 -0.2513
 7450SOL     OW33982   4.313   3.708   8.405 -1.0408  0.1676  0.0980
 7450SOL    HW133983   4.323   3.624   8.450  0.5776  0.6919  0.7212
 7450SOL    HW233984   4.406   3.722   8.390 -0.7402 -1.5832  0.3509
 7451SOL     OW33985   1.211   2.923   5.719  0.1300  0.5329 -0.5208
 7451SOL    HW133986   1.288   2.955   5.673  0.4693  1.0544  0.4304
 7451SOL    HW233987   1.250   2.894   5.801  1.9806 -1.7417 -2.1949
 7452SOL     OW33988   3.399   0.526   3.545 -0.5504 -0.0581 -0.2744
 7452SOL    HW133989   3.426   0.601   3.598 -1.2913 -0.0849  0.1460
 7452SOL    HW233990   3.475   0.498   3.494 -1.2627  0.2846 -1.5119
 7453SOL     OW33991   0.565   1.276  17.165  0.5926 -0.5493 -0.1872
 7453SOL    HW133992   0.476   1.241  17.170  0.2147  0.3863 -0.3372
 7453SOL    HW233993   0.606   1.198  17.126 -2.3243 -1.0902 -2.1303
 7454SOL     OW33994   4.134   3.523   6.715 -0.2661  0.8785 -0.9616
 7454SOL    HW133995   4.121   3.594   6.778 -0.5250 -0.2015  0.1729
 7454SOL    HW233996   4.113   3.446   6.766 -1.3822  2.1120  0.4390
 7455SOL     OW33997   0.650   2.475   7.216 -1.0965 -0.1280  0.6445
 7455SOL    HW133998   0.607   2.418   7.152 -0.3440 -1.1584  1.0575
 7455SOL    HW233999   0.679   2.547   7.160 -0.4374 -0.3471  0.7005
 7456SOL     OW34000   2.976   1.475   4.470 -0.3295  0.0604 -0.5409
 7456SOL    HW134001   2.933   1.441   4.392 -2.3318 -1.2141  1.1300
 7456SOL    HW234002   2.975   1.397   4.524  1.8200 -0.6988 -1.5986
 7457SOL     OW34003   1.828   3.225   8.390 -0.7946 -0.5159  0.2450
 7457SOL    HW134004   1.807   3.302   8.337 -0.6673  0.5246  1.7208
 7457SOL    HW234005   1.795   3.257   8.474  3.5060  2.1782  0.9216
 7458SOL     OW34006   3.899   1.307   5.387 -0.1884  0.1297 -0.1316
 7458SOL    HW134007   3.985   1.290   5.428 -0.4785 -0.8024  0.0958
 7458SOL    HW234008   3.840   1.295   5.461 -0.9912 -0.2073 -0.8332
 7459SOL     OW34009   4.272   2.371  12.622 -0.2619 -0.9383  0.3859
 7459SOL    HW134010   4.245   2.463  12.632 -0.1700 -0.9125  0.3902
 7459SOL    HW234011   4.302   2.373  12.531  0.0341  0.1594  0.5111
 7460SOL     OW34012   1.680   3.784   2.288  0.1147  0.4035 -0.0484
 7460SOL    HW134013   1.588   3.806   2.306  0.4472  2.2097 -0.5372
 7460SOL    HW234014   1.689   3.869   2.245  1.1251  1.4696  2.2492
 7461SOL     OW34015   0.393   1.389   4.145 -0.9655 -0.0268  0.0589
 7461SOL    HW134016   0.482   1.416   4.123 -0.6958 -0.3016  0.7952
 7461SOL    HW234017   0.400   1.295   4.157 -0.2514  0.0709  0.3869
 7462SOL     OW34018   0.881   3.284   3.159 -1.1362 -0.5879  0.1758
 7462SOL    HW134019   0.822   3.310   3.089 -0.9237 -2.0735 -0.5621
 7462SOL    HW234020   0.959   3.315   3.113 -1.4124 -0.5438 -0.2617
 7463SOL     OW34021   3.532   1.639   3.332  0.0716  0.0824 -0.0833
 7463SOL    HW134022   3.615   1.644   3.284  0.5402 -0.5898  0.6524
 7463SOL    HW234023   3.569   1.612   3.416 -1.4306  0.2013  0.6057
 7464SOL     OW34024   2.461   2.225   7.218 -0.4274  0.3241  0.1552
 7464SOL    HW134025   2.463   2.206   7.124 -0.7855 -0.2470  0.2669
 7464SOL    HW234026   2.506   2.309   7.219 -0.8410  0.5338  1.0029
 7465SOL     OW34027   4.477   0.036   6.080  0.0205 -0.0317 -0.0264
 7465SOL    HW134028   4.498   0.117   6.126  1.2658  0.3633 -1.2960
 7465SOL    HW234029   4.505   0.057   5.991  2.8493  1.7065  1.2867
 7466SOL     OW34030   1.853   0.529   7.142 -0.6663  0.0401 -0.3468
 7466SOL    HW134031   1.781   0.556   7.084  0.1637  1.9747 -0.4941
 7466SOL    HW234032   1.862   0.434   7.138  0.2185  0.1638 -1.4815
 7467SOL     OW34033   2.626   2.263   7.492  0.4348  0.8023 -0.1437
 7467SOL    HW134034   2.652   2.223   7.409 -0.6197 -0.6799  0.2351
 7467SOL    HW234035   2.706   2.306   7.522  0.4979 -0.4502  1.4978
 7468SOL     OW34036   1.899   2.080   5.634  0.4563 -0.3411 -0.7994
 7468SOL    HW134037   1.853   2.009   5.589 -0.9445  1.4082 -2.1247
 7468SOL    HW234038   1.822   2.135   5.647 -0.5632 -1.1155 -3.7074
 7469SOL     OW34039   2.190   2.202   6.034 -0.1016 -0.2771 -0.1209
 7469SOL    HW134040   2.147   2.287   6.038  0.9504  0.2224  0.4877
 7469SOL    HW234041   2.173   2.185   5.941 -1.0960 -2.1665  0.3921
 7470SOL     OW34042   3.247   3.921   5.123 -0.2972 -0.2159 -0.3394
 7470SOL    HW134043   3.182   3.929   5.054  0.4185  2.0025 -0.7497
 7470SOL    HW234044   3.246   3.829   5.147  0.1921  0.0327  0.6251
 7471SOL     OW34045   3.723   4.382  13.304  0.1609  0.3770 -0.0047
 7471SOL    HW134046   3.698   4.306  13.355  0.5862  0.3979  0.2307
 7471SOL    HW234047   3.651   4.387  13.241  0.6006 -0.0148 -0.5331
 7472SOL     OW34048   1.105   4.466  12.220  0.4982  0.0050  0.0091
 7472SOL    HW134049   1.180   4.507  12.263  0.3206  0.4455 -0.1006
 7472SOL    HW234050   1.150   4.391  12.180  1.1901  0.5706 -0.2827
 7473SOL     OW34051   1.910   3.388   6.651  0.3689 -0.5703 -0.1382
 7473SOL    HW134052   1.832   3.429   6.613  0.9543 -0.6808 -1.4806
 7473SOL    HW234053   1.979   3.401   6.585 -1.3898 -1.4181 -2.1386
 7474SOL     OW34054   4.339   1.449   6.271 -0.2474 -0.0360 -0.6299
 7474SOL    HW134055   4.307   1.526   6.318  1.5966  0.2668  0.1235
 7474SOL    HW234056   4.410   1.423   6.329 -1.3648  0.1176  0.8199
 7475SOL     OW34057   3.593   2.055   8.380 -0.0735 -0.1427 -0.6314
 7475SOL    HW134058   3.628   2.141   8.358  0.1406 -0.2280 -0.6178
 7475SOL    HW234059   3.512   2.081   8.423 -0.4143 -1.2184 -0.6144
 7476SOL     OW34060   2.461   2.748   9.180 -0.1229  0.4850 -0.6277
 7476SOL    HW134061   2.432   2.837   9.198  2.8471  1.4815 -0.7084
 7476SOL    HW234062   2.552   2.754   9.208 -0.6453 -0.4886  1.3024
 7477SOL     OW34063   0.769   1.198   2.844 -0.5135 -1.0350  0.3010
 7477SOL    HW134064   0.753   1.190   2.750  2.1470 -3.0768  0.0301
 7477SOL    HW234065   0.857   1.235   2.843  0.6951 -3.9342  1.4065
 7478SOL     OW34066   3.448   3.268   9.345  0.5928  0.5670 -0.0232
 7478SOL    HW134067   3.383   3.284   9.277 -0.2987 -0.6880  0.5346
 7478SOL    HW234068   3.410   3.318   9.418  0.6317 -0.6339  0.8172
 7479SOL     OW34069   3.917   1.983   4.403  0.2808 -0.6807  0.4447
 7479SOL    HW134070   3.833   1.952   4.435 -0.0639  0.1301  0.3259
 7479SOL    HW234071   3.938   2.052   4.467 -3.2494 -0.3117  1.1894
 7480SOL     OW34072   0.831   1.646   5.053  0.5366 -0.2593 -0.2669
 7480SOL    HW134073   0.799   1.730   5.020 -1.3810 -0.3434  1.4219
 7480SOL    HW234074   0.801   1.660   5.142  1.1266  1.5973 -0.3610
 7481SOL     OW34075   3.868   3.426   2.771 -0.3462 -0.3422 -0.6554
 7481SOL    HW134076   3.955   3.397   2.797  0.6282  0.5121 -3.0464
 7481SOL    HW234077   3.883   3.429   2.677 -2.0373 -0.8521 -0.9464
 7482SOL     OW34078   0.331   2.761   4.679  0.0156 -0.3075 -0.1626
 7482SOL    HW134079   0.274   2.732   4.750 -0.5339 -0.1407 -0.5338
 7482SOL    HW234080   0.402   2.697   4.680 -0.9905 -1.4876 -2.3531
 7483SOL     OW34081   3.725   2.578   2.896  0.1808  0.1095 -0.1878
 7483SOL    HW134082   3.745   2.553   2.986  1.1998 -1.9531 -0.9808
 7483SOL    HW234083   3.668   2.505   2.873  2.0351 -1.2348 -0.5333
 7484SOL     OW34084   2.601   0.494   2.141  0.2826 -0.3422 -0.4393
 7484SOL    HW134085   2.662   0.546   2.089 -1.4790 -0.4336 -2.5932
 7484SOL    HW234086   2.528   0.458   2.089 -0.7501  0.0282  0.7482
 7485SOL     OW34087   2.284   3.884   7.454 -0.4920 -0.2856  0.5586
 7485SOL    HW134088   2.350   3.819   7.479 -1.1275 -0.9790  0.4203
 7485SOL    HW234089   2.234   3.827   7.395  0.2840  0.0894 -0.4796
 7486SOL     OW34090   0.845   2.958  13.048 -0.2300 -0.0288  0.4904
 7486SOL    HW134091   0.763   2.919  13.075  0.7021 -0.9798  1.9403
 7486SOL    HW234092   0.834   2.952  12.953 -1.0338  0.1774  0.5747
 7487SOL     OW34093   0.366   2.008  16.564  0.9174  0.1036  0.5151
 7487SOL    HW134094   0.380   2.099  16.537 -0.7801  0.3872  0.5852
 7487SOL    HW234095   0.272   2.003  16.546  0.5949 -1.1606  2.5622
 7488SOL     OW34096   1.763   3.921   2.727  0.5650  0.4371  0.5424
 7488SOL    HW134097   1.736   3.879   2.645 -1.0249  2.8389 -0.1652
 7488SOL    HW234098   1.781   3.848   2.785 -1.3508 -1.7002 -1.5573
 7489SOL     OW34099   2.874   2.660   7.510 -0.4041  0.2299 -0.2608
 7489SOL    HW134100   2.822   2.739   7.525 -1.2952 -0.1947 -1.1067
 7489SOL    HW234101   2.934   2.697   7.445 -2.3949  1.5643 -1.3408
 7490SOL     OW34102   1.093   2.086   3.928  0.2520  0.5370 -0.1247
 7490SOL    HW134103   1.104   2.004   3.880 -2.4308  0.2146 -0.1996
 7490SOL    HW234104   1.152   2.075   4.003  2.3454  0.4896 -1.7721
 7491SOL     OW34105   3.028   1.808   4.219 -0.1669  0.6853 -0.0161
 7491SOL    HW134106   3.099   1.873   4.223 -0.5649  1.0773  0.8009
 7491SOL    HW234107   2.952   1.851   4.180  1.4119  2.1248 -1.5214
 7492SOL     OW34108   0.627   3.346  13.476 -0.1579 -0.2002 -0.0265
 7492SOL    HW134109   0.668   3.406  13.413 -1.8996  1.5501  0.4850
 7492SOL    HW234110   0.686   3.271  13.471 -0.9632 -0.7124 -1.8327
 7493SOL     OW34111   3.203   1.296  13.350 -0.7278  0.4373 -0.0527
 7493SOL    HW134112   3.234   1.259  13.432 -1.8133 -1.6476 -0.5742
 7493SOL    HW234113   3.185   1.388  13.369 -0.3560  0.6150 -0.5775
 7494SOL     OW34114   2.347   3.392  11.473  0.3930  0.2781 -0.0449
 7494SOL    HW134115   2.440   3.368  11.466 -0.3907 -2.9069  0.3573
 7494SOL    HW234116   2.315   3.302  11.469 -1.8697  1.1169 -0.9909
 7495SOL     OW34117   3.709   3.154   2.698 -0.0239  0.2862  0.4326
 7495SOL    HW134118   3.748   3.116   2.776 -0.8953 -0.6718  0.4064
 7495SOL    HW234119   3.773   3.135   2.630 -0.4881 -0.6688  0.2633
 7496SOL     OW34120   3.660   0.047   2.301 -0.3390 -0.1852  0.3066
 7496SOL    HW134121   3.577   4.735   2.298  0.2985 -1.2741  0.2341
 7496SOL    HW234122   3.652   0.091   2.385  0.7050  2.9282 -1.2575
 7497SOL     OW34123   3.371   2.571   6.562  0.4512  0.4650 -0.0755
 7497SOL    HW134124   3.302   2.560   6.496 -0.7157  1.4937  0.9648
 7497SOL    HW234125   3.312   2.590   6.635 -0.7519 -3.0725 -0.1176
 7498SOL     OW34126   0.464   1.328   7.349  0.0155 -0.0247 -0.5828
 7498SOL    HW134127   0.389   1.306   7.293 -0.3095  0.6498 -0.4134
 7498SOL    HW234128   0.424   1.321   7.436 -0.0508 -0.9367 -0.6940
 7499SOL     OW34129   1.729   2.852  10.999 -0.3415 -0.0382 -0.0804
 7499SOL    HW134130   1.642   2.822  11.025 -0.7917  1.3528  0.0193
 7499SOL    HW234131   1.787   2.833  11.073 -1.7079 -0.3798  0.8891
 7500SOL     OW34132   0.546   4.515   7.694 -0.4891  0.3965  0.1539
 7500SOL    HW134133   0.515   4.467   7.770  0.4253 -0.5014 -0.0265
 7500SOL    HW234134   0.510   4.603   7.705  1.0328  1.1358 -0.7934
 7501SOL     OW34135   0.010   3.508   9.195 -0.2099  0.2323 -0.1554
 7501SOL    HW134136   4.694   3.462   9.130 -1.3778  0.0209  0.9362
 7501SOL    HW234137   0.058   3.441   9.243  1.1439 -0.1768 -2.0943
 7502SOL     OW34138   4.665   3.465  17.235 -0.3918 -0.2898  0.2755
 7502SOL    HW134139   0.016   3.462  17.274  0.3712  1.8717 -1.2477
 7502SOL    HW234140   4.617   3.516  17.301  0.4689 -1.3950  1.7649
 7503SOL     OW34141   2.172   3.733  17.349 -0.2297 -0.1690 -0.0041
 7503SOL    HW134142   2.254   3.779  17.330  0.6347 -1.7764 -0.1737
 7503SOL    HW234143   2.186   3.680  17.428 -0.6469  1.2586  1.0284
 7504SOL     OW34144   1.474   1.962   8.217 -0.1655  0.3358  0.4638
 7504SOL    HW134145   1.523   2.031   8.261  0.9379 -0.2937  0.2167
 7504SOL    HW234146   1.501   1.967   8.125 -0.4428 -1.2110  0.2971
 7505SOL     OW34147   0.990   3.003   2.034 -0.1791 -0.2041 -0.3481
 7505SOL    HW134148   1.083   2.983   2.043 -0.0247 -0.5209 -2.6269
 7505SOL    HW234149   0.983   2.995   1.939  2.3243 -2.2058 -0.3793
 7506SOL     OW34150   1.322   3.565   8.939  0.2848 -0.0015 -0.6147
 7506SOL    HW134151   1.333   3.640   8.880 -1.4224  0.0608 -0.8699
 7506SOL    HW234152   1.232   3.543   8.915 -0.4634  0.6640  1.5895
 7507SOL     OW34153   0.761   1.667  15.586  0.0713 -0.1524 -0.3031
 7507SOL    HW134154   0.850   1.659  15.621 -0.6398 -0.3915  1.4742
 7507SOL    HW234155   0.707   1.696  15.660  0.1682  1.4677 -0.8699
 7508SOL     OW34156   1.424   1.009  11.587 -0.1097  0.0648 -0.9714
 7508SOL    HW134157   1.360   0.970  11.646  1.2922  0.0358  0.5258
 7508SOL    HW234158   1.478   0.933  11.564 -0.4513 -0.1544 -1.0682
 7509SOL     OW34159   3.300   4.671  16.811 -0.5301 -0.3347 -0.5762
 7509SOL    HW134160   3.332   4.600  16.866 -1.8405  0.7709  1.5798
 7509SOL    HW234161   3.284   4.733  16.882 -1.4134 -0.2577 -0.8474
 7510SOL     OW34162   0.610   4.145   2.487  0.1652  0.1688  0.4038
 7510SOL    HW134163   0.553   4.211   2.446  0.5462 -1.0026 -2.0043
 7510SOL    HW234164   0.679   4.147   2.421  0.2809 -2.4885  0.4570
 7511SOL     OW34165   4.405   0.941   5.771  0.1726  0.0778  0.2933
 7511SOL    HW134166   4.430   1.002   5.702  4.1242 -2.5606 -0.6372
 7511SOL    HW234167   4.309   0.939   5.770  0.1991 -1.8478  0.3618
 7512SOL     OW34168   3.093   1.801  13.649 -0.3452 -0.3143 -0.3102
 7512SOL    HW134169   3.133   1.852  13.720  0.3046  0.1267 -0.9908
 7512SOL    HW234170   3.122   1.710  13.656  2.4468  0.5890 -0.0727
 7513SOL     OW34171   3.653   2.340   8.635  0.4672  0.7347 -0.0297
 7513SOL    HW134172   3.598   2.309   8.707 -2.8295  4.3523 -0.9847
 7513SOL    HW234173   3.664   2.432   8.659 -2.2085  1.1166 -0.3149
 7514SOL     OW34174   0.291   0.723   6.081  0.2466  0.3359  0.2367
 7514SOL    HW134175   0.241   0.650   6.045  1.0208 -0.1338  0.1283
 7514SOL    HW234176   0.226   0.788   6.109 -0.8721  0.1247 -1.9044
 7515SOL     OW34177   2.450   0.413   2.542  0.0656 -0.0162  0.7946
 7515SOL    HW134178   2.425   0.503   2.562 -0.0506  0.4300 -1.3761
 7515SOL    HW234179   2.368   0.370   2.519  0.5024  0.1308 -1.0496
 7516SOL     OW34180   0.974   1.581  10.797  0.0006 -0.0678 -0.0382
 7516SOL    HW134181   1.047   1.598  10.857  0.2265 -0.2051 -0.2732
 7516SOL    HW234182   1.000   1.636  10.722 -2.2723  0.8533 -0.1386
 7517SOL     OW34183   1.071   3.224   4.681 -0.5394 -0.3540 -0.0276
 7517SOL    HW134184   1.054   3.313   4.713  0.0709 -0.0390 -0.5651
 7517SOL    HW234185   0.985   3.189   4.705  0.0586 -1.6297  0.2883
 7518SOL     OW34186   4.273   1.399  16.120 -0.3398 -0.6224 -1.2178
 7518SOL    HW134187   4.318   1.337  16.062  2.7606 -0.1938  0.7127
 7518SOL    HW234188   4.350   1.438  16.162 -1.7255 -0.4084  1.0751
 7519SOL     OW34189   1.235   2.522  10.245 -0.3474  0.2216  0.0727
 7519SOL    HW134190   1.222   2.617  10.237 -0.4015  0.1952 -0.1459
 7519SOL    HW234191   1.197   2.496  10.329 -0.7467 -0.8719 -0.4612
 7520SOL     OW34192   4.133   1.396   5.811 -0.0273  0.3218  0.0859
 7520SOL    HW134193   4.038   1.390   5.826 -0.3486  0.9251 -1.7554
 7520SOL    HW234194   4.163   1.443   5.889 -0.0436  0.3824  0.0548
 7521SOL     OW34195   1.555   1.855  13.897 -0.2620 -0.3745 -0.4972
 7521SOL    HW134196   1.484   1.792  13.883 -0.2670 -0.2012 -1.2572
 7521SOL    HW234197   1.556   1.896  13.811 -2.3073  1.0411  0.1528
 7522SOL     OW34198   0.428   2.809   2.732  0.0722  0.0076  0.1266
 7522SOL    HW134199   0.441   2.895   2.691 -1.4810 -0.2101 -0.8476
 7522SOL    HW234200   0.389   2.752   2.666 -0.6767 -1.7983  2.1279
 7523SOL     OW34201   1.200   3.057   4.321 -0.0023  0.6374  0.1457
 7523SOL    HW134202   1.276   3.024   4.274 -1.2663 -1.0684 -0.7035
 7523SOL    HW234203   1.173   3.121   4.256  1.0406  1.2334  0.3102
 7524SOL     OW34204   0.253   4.487   4.987 -0.1158 -0.3255 -0.2031
 7524SOL    HW134205   0.336   4.471   4.943 -0.2989 -1.2735 -0.1867
 7524SOL    HW234206   0.225   4.557   4.927  1.3365 -0.0699 -0.5970
 7525SOL     OW34207   3.442   3.447  11.164  0.2286  0.3262 -0.0788
 7525SOL    HW134208   3.397   3.514  11.112 -0.9373 -0.4794 -0.1069
 7525SOL    HW234209   3.444   3.369  11.109 -0.6138 -0.7204  1.3702
 7526SOL     OW34210   2.491   1.216   3.897  0.3285  0.0910  0.1750
 7526SOL    HW134211   2.395   1.218   3.894  0.3612  0.7906 -0.3510
 7526SOL    HW234212   2.508   1.298   3.850  0.2212 -0.3504 -0.6208
 7527SOL     OW34213   0.434   4.655   5.118 -0.3997  0.0565  0.0033
 7527SOL    HW134214   0.390   4.736   5.145  0.6098  0.9453 -0.9742
 7527SOL    HW234215   0.364   4.596   5.090 -0.8518  0.7610 -0.3391
 7528SOL     OW34216   1.673   1.817   0.239 -0.1659  0.2693  0.0832
 7528SOL    HW134217   1.702   1.772   0.319 -1.3839 -0.1879  0.2718
 7528SOL    HW234218   1.721   1.773   0.168  0.5373 -0.4773  1.0243
 7529SOL     OW34219   4.084   2.275   7.149 -0.1771  0.1792 -0.6556
 7529SOL    HW134220   4.089   2.245   7.240  1.4884 -0.8308 -1.0667
 7529SOL    HW234221   4.029   2.353   7.157  0.1365  0.3971 -0.5947
 7530SOL     OW34222   3.933   2.059   1.535 -0.0030  0.3142 -0.3397
 7530SOL    HW134223   3.891   1.987   1.582 -2.5240  2.1216  0.1300
 7530SOL    HW234224   3.975   2.103   1.608  1.3318 -0.1574 -0.8034
 7531SOL     OW34225   4.736   2.114   4.758  0.3482  0.0188  0.3251
 7531SOL    HW134226   4.676   2.048   4.723 -1.4893  1.3316  0.9861
 7531SOL    HW234227   0.080   2.089   4.713 -1.2551 -1.8063 -1.5240
 7532SOL     OW34228   1.974   3.098   5.600 -0.1341 -0.0615  0.5239
 7532SOL    HW134229   2.000   3.111   5.691  0.2243 -2.2401  0.7445
 7532SOL    HW234230   1.896   3.044   5.615 -1.9640  2.4979  0.3092
 7533SOL     OW34231   3.380   2.252   1.352  0.3799 -0.2234  0.0909
 7533SOL    HW134232   3.453   2.213   1.401  1.9119  0.4063 -1.6804
 7533SOL    HW234233   3.387   2.217   1.263 -1.3050  1.3435 -0.6508
 7534SOL     OW34234   2.268   0.233   7.118  0.1367 -0.1310 -0.6168
 7534SOL    HW134235   2.189   0.279   7.089 -1.0625 -1.8627 -0.1246
 7534SOL    HW234236   2.219   0.165   7.165 -1.0428  0.2994 -1.2007
 7535SOL     OW34237   3.887   4.603  12.408  0.8681  0.3206 -0.0356
 7535SOL    HW134238   3.884   4.513  12.375 -0.8949  0.4550 -0.2368
 7535SOL    HW234239   3.966   4.597  12.462  1.3033 -0.7009 -0.7846
 7536SOL     OW34240   0.625   2.148   2.555 -0.2408  0.2725 -0.2036
 7536SOL    HW134241   0.634   2.057   2.525 -2.9969 -0.0907  0.0316
 7536SOL    HW234242   0.638   2.191   2.470  1.3498  0.1251 -0.0376
 7537SOL     OW34243   2.000   4.071   9.450 -0.7472  0.5668  0.0401
 7537SOL    HW134244   1.920   4.060   9.398 -0.4897 -1.0718 -0.0085
 7537SOL    HW234245   2.015   3.988   9.495 -2.4004  1.8560  2.9176
 7538SOL     OW34246   4.580   0.699   1.111 -0.2030 -0.0073 -0.6624
 7538SOL    HW134247   4.572   0.768   1.044 -2.9777  0.5141  0.1997
 7538SOL    HW234248   4.641   0.743   1.170  1.6277 -1.3566 -1.5472
 7539SOL     OW34249   3.754   3.487   5.289  0.3517  0.0725  0.5864
 7539SOL    HW134250   3.777   3.396   5.270 -0.9245  0.1965 -1.5630
 7539SOL    HW234251   3.766   3.491   5.384 -1.3029  2.3698  0.6877
 7540SOL     OW34252   3.516   1.413  15.673 -0.1970  0.1400  0.3215
 7540SOL    HW134253   3.479   1.466  15.743  1.3693  0.2125  1.0914
 7540SOL    HW234254   3.482   1.455  15.594 -0.8328 -0.6858  0.1553
 7541SOL     OW34255   3.056   2.309   3.631  0.3196 -0.3730 -0.0723
 7541SOL    HW134256   3.136   2.255   3.632 -0.0441 -0.8395  2.4384
 7541SOL    HW234257   2.996   2.248   3.589  0.7288 -2.5713  2.5360
 7542SOL     OW34258   2.192   0.119  11.652  0.6367  0.1955  0.1119
 7542SOL    HW134259   2.203   0.027  11.674  1.4417 -0.6507 -3.7188
 7542SOL    HW234260   2.278   0.162  11.648  1.1891 -0.7248  2.1549
 7543SOL     OW34261   2.938   0.823   8.488  0.2567  0.1527  0.1629
 7543SOL    HW134262   2.974   0.735   8.495 -1.4795 -0.4010  1.9574
 7543SOL    HW234263   2.859   0.823   8.541  0.2143  1.2016  0.1068
 7544SOL     OW34264   0.393   4.348   7.842 -0.7300 -1.0150 -0.4095
 7544SOL    HW134265   0.349   4.422   7.885  1.0365 -0.1723 -0.0563
 7544SOL    HW234266   0.434   4.299   7.913 -1.1443  1.7880  1.7705
 7545SOL     OW34267   2.895   4.189  16.137 -0.1847  0.4733  0.2053
 7545SOL    HW134268   2.893   4.101  16.174 -2.0566  0.7857  0.8442
 7545SOL    HW234269   2.959   4.175  16.067 -0.3672 -1.3381  0.3899
 7546SOL     OW34270   0.373   1.019   2.482 -0.2751 -0.6376  0.1614
 7546SOL    HW134271   0.425   1.068   2.546  0.0564  0.1886 -0.7473
 7546SOL    HW234272   0.318   1.085   2.441 -0.0429 -0.3900  0.2486
 7547SOL     OW34273   1.212   4.371   1.945 -0.5289  0.9537  0.0684
 7547SOL    HW134274   1.223   4.430   2.020  1.7292 -0.1753  0.6309
 7547SOL    HW234275   1.256   4.290   1.971 -3.4335 -0.8484 -0.6184
 7548SOL     OW34276   3.026   2.174  14.158 -0.1753  0.1816 -0.5710
 7548SOL    HW134277   3.041   2.226  14.237  0.7055 -0.7028 -0.1536
 7548SOL    HW234278   3.108   2.189  14.111  2.2292  0.6044  3.7502
 7549SOL     OW34279   1.976   4.374   7.189  0.7301 -0.1643  0.2436
 7549SOL    HW134280   2.034   4.440   7.226 -1.0810  1.9109 -0.5733
 7549SOL    HW234281   1.951   4.395   7.099  0.5908 -1.5807 -0.0468
 7550SOL     OW34282   0.629   0.195   3.023  0.0699  0.7864 -0.0941
 7550SOL    HW134283   0.605   0.215   3.113 -1.2642  1.6241 -0.6404
 7550SOL    HW234284   0.708   0.248   3.010 -0.9426  2.3076 -0.1174
 7551SOL     OW34285   1.989   3.345   6.057  0.3624  0.2803 -0.9360
 7551SOL    HW134286   1.995   3.440   6.042 -0.4121  0.1586 -1.9972
 7551SOL    HW234287   2.060   3.333   6.120  1.5383 -2.2104 -2.7350
 7552SOL     OW34288   0.238   4.101  11.567 -0.3169  0.4657 -0.5362
 7552SOL    HW134289   0.254   4.007  11.559  0.0330  0.3206  1.8713
 7552SOL    HW234290   0.283   4.153  11.500 -0.1119 -0.5828 -1.2112
 7553SOL     OW34291   2.949   1.997  14.872  0.0283  0.3182 -0.3773
 7553SOL    HW134292   2.885   2.031  14.935 -0.6849  1.0425 -1.4925
 7553SOL    HW234293   2.919   1.908  14.858 -0.7100  0.4030  0.6599
 7554SOL     OW34294   0.510   3.059   5.585  0.0947  0.2302 -0.0787
 7554SOL    HW134295   0.452   2.985   5.605 -1.2167  1.3311  0.2148
 7554SOL    HW234296   0.586   3.041   5.640 -0.9673 -1.7689  0.7557
 7555SOL     OW34297   2.914   2.457   0.370  0.2604 -0.1839  0.2328
 7555SOL    HW134298   2.962   2.539   0.360  1.2135 -1.2964 -4.5102
 7555SOL    HW234299   2.989   2.397   0.375  2.8700  2.8656 -1.5545
 7556SOL     OW34300   4.665   2.251   0.679  0.3044 -0.2452 -0.5444
 7556SOL    HW134301   4.587   2.209   0.644 -0.9356  0.4552  1.3961
 7556SOL    HW234302   4.687   2.308   0.605  0.4868  0.1861 -0.1588
 7557SOL     OW34303   1.704   2.916  15.102  0.1524 -0.0416 -0.8331
 7557SOL    HW134304   1.766   2.956  15.163  0.5291 -0.4894 -0.9279
 7557SOL    HW234305   1.661   2.998  15.077 -0.2060 -0.4043 -1.4026
 7558SOL     OW34306   4.665   2.355   0.943 -0.0579  0.1188 -0.2759
 7558SOL    HW134307   4.631   2.279   0.991  2.6777  0.4073  2.1451
 7558SOL    HW234308   4.652   2.326   0.853 -3.6157  0.6413  0.0552
 7559SOL     OW34309   0.434   4.138  14.896  0.3511  0.0765  0.5605
 7559SOL    HW134310   0.367   4.180  14.951 -1.4281 -0.3955 -1.2290
 7559SOL    HW234311   0.472   4.073  14.955  1.5672 -0.0266 -0.3432
 7560SOL     OW34312   0.090   4.637  16.029  0.4015  0.1136  1.1826
 7560SOL    HW134313   0.006   4.658  15.987 -0.4374  0.5058  3.0232
 7560SOL    HW234314   0.106   4.552  15.989 -1.9570  0.4037 -0.3809
 7561SOL     OW34315   4.247   1.127  10.845  0.0390  0.0885  0.9292
 7561SOL    HW134316   4.248   1.063  10.916  0.0492 -0.7600  0.1600
 7561SOL    HW234317   4.275   1.205  10.893  2.8224  0.0612 -0.6675
 7562SOL     OW34318   0.467   3.989   4.735 -0.2890  0.5615 -0.0190
 7562SOL    HW134319   0.424   3.904   4.743  1.7143 -0.6014 -1.4904
 7562SOL    HW234320   0.525   3.986   4.811 -1.7395  1.2815  1.1120
 7563SOL     OW34321   0.337   1.001  16.372  0.3460 -0.1927  0.5970
 7563SOL    HW134322   0.331   1.077  16.315  3.1278  1.1607  2.1560
 7563SOL    HW234323   0.257   1.015  16.423 -1.3431 -1.0643 -1.8161
 7564SOL     OW34324   0.573   1.220  17.740  0.2768  0.2216 -0.4063
 7564SOL    HW134325   0.555   1.209   0.090  2.0001 -1.6653 -0.2906
 7564SOL    HW234326   0.593   1.313  17.739 -1.1218  0.5155 -0.1494
 7565SOL     OW34327   3.028   4.575  15.805 -0.7657  0.0037  0.0197
 7565SOL    HW134328   3.003   4.566  15.897 -0.1961 -1.6687  0.0152
 7565SOL    HW234329   3.042   4.669  15.804  2.6050 -0.4998  1.0423
 7566SOL     OW34330   4.338   3.492   7.982 -0.0443  0.3634  0.5148
 7566SOL    HW134331   4.391   3.461   8.056  1.0180 -0.1185 -0.4529
 7566SOL    HW234332   4.252   3.495   8.026 -0.0173  0.5699  0.5544
 7567SOL     OW34333   2.092   0.008   0.787  0.1963  0.3220  0.2044
 7567SOL    HW134334   2.015   4.694   0.816 -0.5657  1.0524 -0.5596
 7567SOL    HW234335   2.155   4.727   0.857 -0.4528 -0.6910  0.5535
 7568SOL     OW34336   4.165   2.364   2.687  0.9354  0.3456 -0.1792
 7568SOL    HW134337   4.218   2.360   2.766 -0.5780 -0.2934  0.8014
 7568SOL    HW234338   4.115   2.445   2.682 -1.7369 -1.2051  1.4269
 7569SOL     OW34339   4.330   1.158   4.082  0.3617  0.1774  0.3518
 7569SOL    HW134340   4.351   1.067   4.060 -0.3297  0.3450 -0.9783
 7569SOL    HW234341   4.313   1.195   3.995 -0.8623  0.2211  0.6156
 7570SOL     OW34342   3.230   1.117  17.626 -0.2604  0.4595 -0.0808
 7570SOL    HW134343   3.245   1.082  17.539  0.0088 -1.8909  0.9235
 7570SOL    HW234344   3.235   1.041  17.683  0.4118  0.8808  0.4385
 7571SOL     OW34345   1.567   1.495   5.196  0.4917  0.2947  0.3933
 7571SOL    HW134346   1.502   1.481   5.265 -0.4376 -1.7684 -0.8894
 7571SOL    HW234347   1.558   1.418   5.140 -0.3331  0.4688  0.2873
 7572SOL     OW34348   1.988   3.265  16.367  0.1026 -0.1261  0.0588
 7572SOL    HW134349   2.062   3.321  16.342 -0.5962  1.1038  0.7759
 7572SOL    HW234350   1.929   3.283  16.294  1.2497  0.6847 -0.6729
 7573SOL     OW34351   1.789   0.221  15.709 -0.2848 -0.4414 -0.6285
 7573SOL    HW134352   1.695   0.206  15.712 -0.4422  0.8042  0.4063
 7573SOL    HW234353   1.827   0.134  15.693  1.5647  0.1829  0.3315
 7574SOL     OW34354   0.887   4.518  10.108 -0.8163  0.6816  0.2410
 7574SOL    HW134355   0.872   4.578  10.035 -1.8821 -2.5961 -2.2451
 7574SOL    HW234356   0.853   4.432  10.082 -2.1436  1.5368 -0.8488
 7575SOL     OW34357   3.008   3.126   0.027  0.5318  0.0493  0.0791
 7575SOL    HW134358   3.073   3.119   0.098  3.0956 -0.1105 -2.2964
 7575SOL    HW234359   2.962   3.204   0.057  1.6144 -0.0585  2.1014
 7576SOL     OW34360   0.785   1.385   7.163 -0.7675 -0.3414 -0.3204
 7576SOL    HW134361   0.852   1.335   7.210 -0.9493  0.0669  0.3731
 7576SOL    HW234362   0.810   1.470   7.199  0.3984 -1.3315  1.1811
 7577SOL     OW34363   0.803   4.100   7.317 -0.1589  0.1738  0.0166
 7577SOL    HW134364   0.834   4.092   7.407  2.9281  0.4850 -1.0134
 7577SOL    HW234365   0.709   4.085   7.309 -0.1393 -0.2922  0.6749
 7578SOL     OW34366   0.020   0.410  16.273 -0.0361 -0.2286 -0.7315
 7578SOL    HW134367   0.059   0.465  16.204  1.4396  0.4533  0.6462
 7578SOL    HW234368   0.100   0.384  16.318 -1.2191  0.3755  1.6789
 7579SOL     OW34369   1.601   2.039   6.355  0.3917  0.0884  0.2945
 7579SOL    HW134370   1.637   1.992   6.431  1.0244  0.2578  0.0973
 7579SOL    HW234371   1.602   1.970   6.288 -1.3596 -0.8664  1.2273
 7580SOL     OW34372   4.644   4.367   7.446  0.2570 -0.3101  0.0912
 7580SOL    HW134373   4.625   4.396   7.357  1.1743  1.6346  0.5239
 7580SOL    HW234374   4.652   4.271   7.449 -0.7080 -0.3873  0.0461
 7581SOL     OW34375   4.615   3.208   7.842  0.5509  0.0447 -0.0484
 7581SOL    HW134376   4.705   3.193   7.814  0.1744 -1.7869 -0.2724
 7581SOL    HW234377   4.567   3.132   7.810 -1.1349  0.7117  0.8571
 7582SOL     OW34378   0.217   3.367   3.297 -0.2572  0.4046  0.3641
 7582SOL    HW134379   0.241   3.311   3.224 -1.6308  0.8366 -0.4255
 7582SOL    HW234380   0.253   3.322   3.373 -0.4504  2.5383  1.7221
 7583SOL     OW34381   2.132   0.501   7.136  0.5494 -0.3751 -0.1270
 7583SOL    HW134382   2.064   0.483   7.070 -1.9945  3.0232  1.6073
 7583SOL    HW234383   2.092   0.575   7.181  0.3967 -0.6010  0.1079
 7584SOL     OW34384   1.928   3.462  10.630 -0.5110  0.4735  0.4278
 7584SOL    HW134385   1.832   3.455  10.630 -0.4089 -0.8736  0.7806
 7584SOL    HW234386   1.943   3.545  10.585 -0.7830  0.5041  0.3912
 7585SOL     OW34387   0.270   0.747  16.751  0.0993  0.4697 -0.1949
 7585SOL    HW134388   0.207   0.707  16.812 -0.6060  0.4491 -0.9295
 7585SOL    HW234389   0.238   0.712  16.668  1.9489  0.4308 -0.8755
 7586SOL     OW34390   2.172   2.397   7.269  0.2473  0.9669 -0.2363
 7586SOL    HW134391   2.080   2.423   7.265 -0.0649  0.0230  0.8377
 7586SOL    HW234392   2.194   2.387   7.177 -3.7901 -0.5748 -1.0206
 7587SOL     OW34393   1.753   1.521   8.261 -0.2470 -0.3578 -0.3827
 7587SOL    HW134394   1.663   1.552   8.265 -0.7347 -1.9617  1.2960
 7587SOL    HW234395   1.783   1.570   8.185  0.3219 -0.5849 -0.3067
 7588SOL     OW34396   0.426   3.598   5.753 -0.7848 -0.1344  0.6277
 7588SOL    HW134397   0.472   3.659   5.810 -1.4931  0.7393  0.2551
 7588SOL    HW234398   0.335   3.623   5.740 -0.5111  0.2710 -0.5976
 7589SOL     OW34399   0.022   3.166  14.471  0.0279 -0.1458  0.0821
 7589SOL    HW134400   4.678   3.134  14.430 -1.0324  2.7380 -0.0635
 7589SOL    HW234401   0.040   3.089  14.525  1.6797 -0.2133 -0.5756
 7590SOL     OW34402   0.580   4.466  15.017 -0.1533 -0.4760  0.0360
 7590SOL    HW134403   0.553   4.428  14.933  1.1679 -2.1010  0.3430
 7590SOL    HW234404   0.555   4.396  15.077  1.0777 -0.8145  0.1518
 7591SOL     OW34405   1.013   3.289  16.353 -0.1165 -0.0093  0.1757
 7591SOL    HW134406   1.007   3.384  16.342  0.7440  0.0532  0.2461
 7591SOL    HW234407   1.078   3.278  16.423 -0.8016  0.6955  0.9338
 7592SOL     OW34408   0.397   2.097   2.241  0.4303 -0.6247 -0.9529
 7592SOL    HW134409   0.316   2.047   2.249  0.9245 -0.7819  3.0720
 7592SOL    HW234410   0.399   2.131   2.331  0.2037 -1.8853 -0.4759
 7593SOL     OW34411   1.392   3.027   9.064 -0.2939  0.0885 -0.4655
 7593SOL    HW134412   1.473   3.045   9.016 -0.1062 -0.5695 -0.3899
 7593SOL    HW234413   1.421   2.945   9.103 -0.9198  1.5572  3.1403
 7594SOL     OW34414   2.108   0.056   7.805 -0.2931 -0.5118  0.0471
 7594SOL    HW134415   2.048   0.068   7.731 -0.3702  1.5659  0.4487
 7594SOL    HW234416   2.166   4.725   7.769  0.1058 -1.3094  2.1766
 7595SOL     OW34417   2.344   3.382   3.458 -0.1355  0.4393 -0.4386
 7595SOL    HW134418   2.406   3.444   3.497 -0.6925  0.0012  1.1518
 7595SOL    HW234419   2.383   3.298   3.481 -2.7241 -0.7233 -0.3401
 7596SOL     OW34420   1.369   4.722   5.465 -0.3323 -0.2274 -0.2330
 7596SOL    HW134421   1.324   4.647   5.503 -0.5440  0.0898  0.1449
 7596SOL    HW234422   1.299   0.051   5.458 -0.9864 -1.1314 -2.2218
 7597SOL     OW34423   0.499   0.161   0.365  0.3075  0.0058  0.1106
 7597SOL    HW134424   0.457   0.212   0.296 -0.8542 -2.0669 -0.7363
 7597SOL    HW234425   0.539   0.086   0.320  0.7000  2.2792 -3.3374
 7598SOL     OW34426   2.547   2.927   3.563  0.1294 -0.4726  1.0587
 7598SOL    HW134427   2.612   2.938   3.632 -0.7027 -0.4023  1.8317
 7598SOL    HW234428   2.593   2.976   3.495 -2.5056  1.3561  0.5879
 7599SOL     OW34429   3.043   2.280   7.683 -0.3050  0.5572 -0.7374
 7599SOL    HW134430   2.980   2.341   7.644  1.1445  3.3402  1.2770
 7599SOL    HW234431   3.015   2.272   7.774 -2.3597  2.1839 -1.2253
 7600SOL     OW34432   3.467   1.419   6.993  0.2558 -0.5801 -0.0188
 7600SOL    HW134433   3.496   1.482   6.927 -0.5267 -0.3341 -0.1195
 7600SOL    HW234434   3.377   1.412   6.962 -0.5819  1.8525  1.8006
 7601SOL     OW34435   3.683   1.933   3.141  0.4695 -0.3625  0.3607
 7601SOL    HW134436   3.727   1.891   3.214  0.2473 -0.0712  0.6622
 7601SOL    HW234437   3.626   1.860   3.119  0.8675 -0.1190 -1.4666
 7602SOL     OW34438   2.999   4.418  10.158  0.1886  0.4464 -0.4792
 7602SOL    HW134439   2.915   4.411  10.203  1.2985  1.1275  1.7266
 7602SOL    HW234440   3.051   4.446  10.234  1.2321 -1.0255 -0.6435
 7603SOL     OW34441   4.734   2.039   2.869  0.3396 -0.1599  0.7210
 7603SOL    HW134442   4.691   1.982   2.805 -0.4861 -1.0364  2.0610
 7603SOL    HW234443   4.665   2.078   2.921 -0.1191 -0.8764  0.6577
 7604SOL     OW34444   0.342   4.582   0.039  0.4594 -0.6885  0.4687
 7604SOL    HW134445   0.310   4.627   0.117 -0.7570  0.4042 -0.6445
 7604SOL    HW234446   0.434   4.569   0.060  0.7268  4.7903  2.5878
 7605SOL     OW34447   0.472   1.393  16.803 -0.2187  0.2115 -0.1675
 7605SOL    HW134448   0.509   1.329  16.865 -1.4401 -0.3322 -0.0005
 7605SOL    HW234449   0.475   1.478  16.845  1.2509  0.3453 -0.5441
 7606SOL     OW34450   1.118   3.998   7.241  0.0794 -0.2847 -0.1767
 7606SOL    HW134451   1.058   4.057   7.285  1.9510  2.1320 -0.8455
 7606SOL    HW234452   1.147   3.953   7.321  1.0317 -2.3826 -1.6984
 7607SOL     OW34453   0.126   3.221   7.712  0.1665  0.0203 -0.8219
 7607SOL    HW134454   0.094   3.293   7.658  1.6969  1.2157 -0.1159
 7607SOL    HW234455   0.189   3.252   7.777 -1.3893  3.3284 -0.8983
 7608SOL     OW34456   3.824   3.055  16.391  0.2568  0.2031  0.3714
 7608SOL    HW134457   3.782   2.997  16.454 -2.6689  0.9268 -0.9236
 7608SOL    HW234458   3.901   3.088  16.437  0.0449  0.9652  0.1810
 7609SOL     OW34459   1.821   2.362  14.112 -0.4568 -0.1516  0.4054
 7609SOL    HW134460   1.832   2.278  14.067 -0.3089 -0.1127  0.3683
 7609SOL    HW234461   1.811   2.422  14.038  1.3298 -0.3604  0.0091
 7610SOL     OW34462   2.114   0.028   3.088  1.0430 -0.1719  0.2239
 7610SOL    HW134463   2.025   0.050   3.063  0.2655 -2.9309  0.5803
 7610SOL    HW234464   2.153   0.071   3.012  0.3916 -1.1279 -0.6544
 7611SOL     OW34465   3.064   3.297  11.843  0.5518 -0.2097  0.1320
 7611SOL    HW134466   2.981   3.251  11.827 -0.2644  0.5815  2.0887
 7611SOL    HW234467   3.035   3.354  11.915  0.6936  0.3684 -0.2761
 7612SOL     OW34468   4.012   0.341   9.397 -0.0727 -0.5911  0.0676
 7612SOL    HW134469   4.013   0.416   9.456 -1.5770 -0.3114 -0.2655
 7612SOL    HW234470   3.921   0.321   9.378 -0.0950 -1.1858  0.7957
 7613SOL     OW34471   2.973   3.318   2.510  0.3914  0.5421  0.5111
 7613SOL    HW134472   3.033   3.372   2.459  0.2947 -0.8819 -1.1063
 7613SOL    HW234473   3.019   3.234   2.514 -2.3706 -0.9653  0.3814
 7614SOL     OW34474   4.430   3.484   7.680 -0.4528  0.4165  0.1566
 7614SOL    HW134475   4.422   3.505   7.772  0.3226 -0.3907  0.4192
 7614SOL    HW234476   4.382   3.401   7.686 -0.4304  0.4359  0.5789
 7615SOL     OW34477   0.318   3.230  10.459 -0.1607  0.0610 -0.1318
 7615SOL    HW134478   0.241   3.248  10.405  0.7880 -2.2213 -2.2897
 7615SOL    HW234479   0.282   3.197  10.541  1.1182 -1.8576 -0.3311
 7616SOL     OW34480   2.804   3.027   0.544  0.0704  0.0790 -0.0867
 7616SOL    HW134481   2.749   3.045   0.467  1.0344  2.4521 -0.2108
 7616SOL    HW234482   2.805   2.931   0.545  2.5270  0.1356  1.1353
 7617SOL     OW34483   0.574   2.994   3.692  0.2381  0.5376  0.8890
 7617SOL    HW134484   0.641   3.055   3.721  1.7212 -1.4329  1.6545
 7617SOL    HW234485   0.529   3.038   3.620 -2.6514 -1.2119  1.5757
 7618SOL     OW34486   1.317   4.162  12.722  0.3293 -0.3513  0.5743
 7618SOL    HW134487   1.282   4.121  12.801  0.1887 -3.3256 -1.0493
 7618SOL    HW234488   1.387   4.212  12.764 -0.2139 -0.8948  2.1396
 7619SOL     OW34489   2.149   2.520   8.872  0.1901 -0.6525 -0.2901
 7619SOL    HW134490   2.236   2.560   8.881 -1.2427  1.7141  2.9601
 7619SOL    HW234491   2.164   2.435   8.914 -0.1562 -0.4586  0.2334
 7620SOL     OW34492   0.853   4.718   6.630 -0.1468 -0.2532  0.0335
 7620SOL    HW134493   0.811   0.061   6.596 -0.8018 -1.1007 -1.1767
 7620SOL    HW234494   0.916   0.024   6.687 -1.7187  0.4733  1.2224
 7621SOL     OW34495   0.778   3.511  13.038  0.3138 -0.3700 -0.8738
 7621SOL    HW134496   0.797   3.519  13.132 -2.1605 -1.7110 -0.2435
 7621SOL    HW234497   0.684   3.491  13.039  0.3540 -0.5717 -1.7048
 7622SOL     OW34498   0.884   4.156  10.569  0.6959  0.4535  0.2001
 7622SOL    HW134499   0.872   4.213  10.494  0.4442  0.2283  0.0695
 7622SOL    HW234500   0.877   4.218  10.642  0.2503  1.0418 -0.3470
 7623SOL     OW34501   4.182   3.477   5.868 -0.0622 -0.0775  0.2731
 7623SOL    HW134502   4.134   3.395   5.856 -0.0348  0.0103 -0.4281
 7623SOL    HW234503   4.187   3.480   5.964  2.7833  0.7721  0.1208
 7624SOL     OW34504   3.995   0.282  11.714  0.5491  0.4854  0.5853
 7624SOL    HW134505   4.045   0.272  11.795  0.7810 -0.0348  0.3720
 7624SOL    HW234506   4.046   0.226  11.655  1.5096 -0.0688  1.9388
 7625SOL     OW34507   4.215   4.603   7.330  0.4515 -0.3593 -0.0809
 7625SOL    HW134508   4.246   4.625   7.243  4.6843 -0.3195  1.4198
 7625SOL    HW234509   4.226   4.508   7.332 -4.2296 -0.9101  0.8166
 7626SOL     OW34510   2.892   1.867   8.525 -0.3962 -0.4486 -0.1721
 7626SOL    HW134511   2.831   1.799   8.497 -0.1196 -0.3304 -1.0649
 7626SOL    HW234512   2.874   1.931   8.457 -1.3875 -0.0175  0.4983
 7627SOL     OW34513   0.712   4.166   4.688  0.8091 -0.2267 -0.3752
 7627SOL    HW134514   0.653   4.091   4.694 -0.3145  0.5743 -1.5681
 7627SOL    HW234515   0.704   4.173   4.593 -2.5949  2.2428  0.1100
 7628SOL     OW34516   4.173   0.950   5.171 -0.4509 -0.7148 -0.0854
 7628SOL    HW134517   4.219   0.876   5.211  2.1319  0.9185 -0.0377
 7628SOL    HW234518   4.249   0.999   5.140 -0.8340  1.3013  2.1411
 7629SOL     OW34519   2.030   3.143  15.159  0.2801  0.0680 -0.2078
 7629SOL    HW134520   2.107   3.087  15.159  0.2254 -0.0023  1.1624
 7629SOL    HW234521   2.018   3.154  15.254 -0.3107 -0.0535 -0.2631
 7630SOL     OW34522   2.258   1.278   7.880  0.4480 -0.2548  0.5306
 7630SOL    HW134523   2.205   1.297   7.803 -0.5845 -1.3572  0.9749
 7630SOL    HW234524   2.210   1.327   7.947 -0.6230  1.0096 -1.1691
 7631SOL     OW34525   1.290   4.522  10.595 -0.4497 -0.6261 -0.4243
 7631SOL    HW134526   1.327   4.610  10.586  1.0103 -0.8966  3.1629
 7631SOL    HW234527   1.374   4.475  10.592 -0.5764 -0.9114  0.9035
 7632SOL     OW34528   4.698   4.146   5.233 -0.5003 -0.1542  0.7560
 7632SOL    HW134529   4.734   4.231   5.206 -2.4424  0.0101 -1.2672
 7632SOL    HW234530   4.606   4.170   5.222 -1.3063 -2.2681  2.9163
 7633SOL     OW34531   3.817   1.422   3.966  0.9052 -0.1504  0.2118
 7633SOL    HW134532   3.778   1.508   3.981  0.4717 -1.0998  4.3334
 7633SOL    HW234533   3.766   1.384   3.895  0.8476  0.8669 -0.2932
 7634SOL     OW34534   1.488   2.052   5.365  0.3639 -0.3123  0.3634
 7634SOL    HW134535   1.492   2.010   5.279  0.8100  0.6340 -0.0714
 7634SOL    HW234536   1.537   2.132   5.354 -0.2782 -0.1341 -1.1496
 7635SOL     OW34537   2.551   4.551  16.104 -0.2205  0.6944 -0.1894
 7635SOL    HW134538   2.577   4.614  16.037 -0.4611 -0.0792 -1.0108
 7635SOL    HW234539   2.619   4.486  16.083  1.2326  1.0832  3.3523
 7636SOL     OW34540   4.465   2.280  11.500  0.6183 -0.4317 -0.1350
 7636SOL    HW134541   4.551   2.295  11.459  0.2486 -2.4713 -1.6257
 7636SOL    HW234542   4.471   2.185  11.511  0.8072 -0.1347  2.2754
 7637SOL     OW34543   0.857   3.116   7.743  0.3891 -0.8568 -0.3131
 7637SOL    HW134544   0.870   3.124   7.648 -1.9887  0.6536 -0.5184
 7637SOL    HW234545   0.859   3.022   7.760  1.0929 -0.8918 -0.6069
 7638SOL     OW34546   3.837   0.017   8.911 -0.2363  0.0219 -0.7292
 7638SOL    HW134547   3.784   0.030   8.990  0.8622 -0.0587  0.0191
 7638SOL    HW234548   3.923   0.013   8.953 -0.0947  0.4105 -0.9935
 7639SOL     OW34549   2.657   0.958   2.427  0.6704  0.1639  0.1850
 7639SOL    HW134550   2.643   0.879   2.376 -0.2395  1.0763 -0.9687
 7639SOL    HW234551   2.628   1.027   2.368 -3.8329 -2.0536 -0.1675
 7640SOL     OW34552   1.672   2.154   6.784 -0.1758 -0.5279 -0.2250
 7640SOL    HW134553   1.577   2.155   6.770 -0.2270 -2.1275 -0.0622
 7640SOL    HW234554   1.706   2.129   6.698  1.2412  1.3427 -0.1936
 7641SOL     OW34555   1.878   4.618   0.889 -0.5570 -0.7480 -0.2674
 7641SOL    HW134556   1.860   4.534   0.932 -1.7902 -0.0248  0.6390
 7641SOL    HW234557   1.824   4.613   0.811 -0.0554 -0.8912 -0.6076
 7642SOL     OW34558   0.853   1.743   3.206  0.0152  0.9595 -0.4732
 7642SOL    HW134559   0.876   1.656   3.174 -2.1663  0.6957 -1.3663
 7642SOL    HW234560   0.927   1.775   3.257  0.1531  0.4222 -0.3357
 7643SOL     OW34561   2.356   3.683   5.216 -0.3992  0.1149  0.6123
 7643SOL    HW134562   2.385   3.649   5.131 -1.8997  1.0956 -0.2844
 7643SOL    HW234563   2.437   3.676   5.267  0.2650 -0.8449 -0.5783
 7644SOL     OW34564   0.484   4.100  17.102  0.1527 -0.4969  0.1777
 7644SOL    HW134565   0.506   4.008  17.114  2.1458 -0.3525 -2.2876
 7644SOL    HW234566   0.499   4.143  17.186 -1.2617  0.7452 -0.2118
 7645SOL     OW34567   4.162   1.058   7.734 -0.0958 -0.0167  0.4288
 7645SOL    HW134568   4.169   1.103   7.650  1.5001 -1.6311 -0.3139
 7645SOL    HW234569   4.086   1.108   7.763  0.6687  1.2593  0.2185
 7646SOL     OW34570   2.950   2.787   4.382  0.1225 -0.4004 -0.3350
 7646SOL    HW134571   2.859   2.796   4.353 -0.0663  0.5542  0.5354
 7646SOL    HW234572   2.997   2.758   4.304  1.9885  1.4572  0.0936
 7647SOL     OW34573   2.515   1.817   4.518  0.7337 -0.4500  0.0169
 7647SOL    HW134574   2.573   1.741   4.509  0.4739 -0.4617 -1.5918
 7647SOL    HW234575   2.575   1.874   4.566  0.1315  0.0778  0.1529
 7648SOL     OW34576   3.688   2.156   4.254  0.0709  0.2030  0.0521
 7648SOL    HW134577   3.665   2.097   4.326  1.1470  2.0971  1.9629
 7648SOL    HW234578   3.726   2.093   4.192  0.7873  0.6748  0.0025
 7649SOL     OW34579   3.820   3.408  11.467  0.0906  0.1694 -0.0651
 7649SOL    HW134580   3.889   3.393  11.530  0.0853 -0.2959 -0.1702
 7649SOL    HW234581   3.739   3.394  11.516  0.5381 -1.4989  0.1913
 7650SOL     OW34582   0.768   0.632   8.025 -0.4200  0.0102  0.0778
 7650SOL    HW134583   0.801   0.710   7.980 -0.6248 -0.3729 -0.7427
 7650SOL    HW234584   0.715   0.677   8.091  2.5551  1.7670  1.2494
 7651SOL     OW34585   2.525   1.428   5.003 -0.3218  0.4644  0.2537
 7651SOL    HW134586   2.486   1.361   4.947 -0.3261  0.7776 -0.1145
 7651SOL    HW234587   2.574   1.374   5.066 -0.0847  2.9053  2.1737
 7652SOL     OW34588   2.658   4.054  11.845  0.4866  0.3217  0.2607
 7652SOL    HW134589   2.625   4.126  11.897  0.3030 -1.1872  2.2283
 7652SOL    HW234590   2.658   3.983  11.910 -0.6836 -1.4179 -1.6296
 7653SOL     OW34591   3.904   2.602  13.933 -0.7448 -0.7650 -0.2404
 7653SOL    HW134592   3.856   2.628  13.855 -1.8259 -5.3032 -1.1128
 7653SOL    HW234593   3.836   2.618  13.999 -0.7022 -0.7344 -0.2044
 7654SOL     OW34594   1.627   0.737   4.619 -0.1998 -0.2542  0.3693
 7654SOL    HW134595   1.534   0.757   4.628 -0.0750  0.4475  0.0801
 7654SOL    HW234596   1.623   0.642   4.607  0.3953 -0.4062  1.3794
 7655SOL     OW34597   3.111   3.970  16.348  0.0826 -0.4722  0.2297
 7655SOL    HW134598   3.068   4.023  16.415 -1.2005 -1.4729  0.1827
 7655SOL    HW234599   3.045   3.962  16.279 -0.2249 -0.0286  0.4716
 7656SOL     OW34600   1.554   1.734   1.563 -0.1021  0.4699  0.2127
 7656SOL    HW134601   1.554   1.825   1.531  0.0542 -1.1622 -4.3847
 7656SOL    HW234602   1.646   1.710   1.572  0.2628  1.6333 -0.4007
 7657SOL     OW34603   3.048   0.137   4.340  0.3526  0.0869  0.6446
 7657SOL    HW134604   3.090   0.217   4.310 -1.1090  1.2613  1.7499
 7657SOL    HW234605   2.961   0.177   4.349 -0.2187 -1.1613  0.6511
 7658SOL     OW34606   0.912   2.245   0.850  0.5577 -0.5094  0.3768
 7658SOL    HW134607   0.934   2.335   0.824  0.4779 -1.2933 -2.4558
 7658SOL    HW234608   0.841   2.262   0.912  1.0238  0.3313  0.6700
 7659SOL     OW34609   0.768   3.960  11.286 -0.1603 -0.1039  0.0871
 7659SOL    HW134610   0.827   4.036  11.281 -1.7679  1.0483 -1.1616
 7659SOL    HW234611   0.802   3.918  11.207  1.9489 -0.9868  1.4342
 7660SOL     OW34612   0.982   2.422  12.275  0.0069  0.5275 -0.7052
 7660SOL    HW134613   0.996   2.362  12.202 -0.8448 -1.6880  0.9779
 7660SOL    HW234614   1.004   2.506  12.233  3.2989  0.0810  0.1096
 7661SOL     OW34615   4.476   0.851   1.475  0.0740 -0.3229  0.5041
 7661SOL    HW134616   4.532   0.839   1.399  0.0206  0.2677  0.3720
 7661SOL    HW234617   4.480   0.765   1.517  1.2344 -0.4761  0.0543
 7662SOL     OW34618   2.265   2.344   4.399 -0.3752  0.1227  0.2554
 7662SOL    HW134619   2.254   2.321   4.307  0.7185  3.3653 -0.6825
 7662SOL    HW234620   2.314   2.267   4.426  0.7152  1.1403  1.1784
 7663SOL     OW34621   2.734   0.629   2.759 -0.1005 -0.8588  0.0228
 7663SOL    HW134622   2.766   0.617   2.670  1.5329  0.6931  0.4160
 7663SOL    HW234623   2.670   0.698   2.746 -0.7063 -1.6678 -1.3151
 7664SOL     OW34624   0.964   1.446   6.124  0.4516  0.4803  0.2215
 7664SOL    HW134625   0.990   1.363   6.082 -0.3484  1.0243 -1.3292
 7664SOL    HW234626   0.872   1.436   6.148  0.5145 -4.1247 -1.2846
 7665SOL     OW34627   0.101   1.440   6.357  0.9053  0.3013  0.4045
 7665SOL    HW134628   0.080   1.440   6.264 -1.0623  0.6886  0.8417
 7665SOL    HW234629   0.060   1.360   6.390 -2.7672  1.1458 -2.1228
 7666SOL     OW34630   3.707   2.407   6.547  0.5223 -0.0854  0.9313
 7666SOL    HW134631   3.673   2.417   6.458  2.2929 -2.3442  0.0090
 7666SOL    HW234632   3.628   2.378   6.593  0.9369  0.3806  1.9541
 7667SOL     OW34633   1.016   4.487   5.198  0.8806  0.6005  1.0066
 7667SOL    HW134634   1.043   4.399   5.172 -0.1229  0.5998 -0.0569
 7667SOL    HW234635   0.993   4.466   5.288 -0.0921  0.2299  0.6785
 7668SOL     OW34636   3.005   0.198   4.963 -0.0544 -0.5642 -0.3105
 7668SOL    HW134637   2.962   0.253   5.027  2.3657  1.2148 -0.2256
 7668SOL    HW234638   2.976   0.243   4.884 -0.9045  0.8468  0.8115
 7669SOL     OW34639   4.563   4.487   3.968  0.3012 -0.4257 -0.6323
 7669SOL    HW134640   4.554   4.406   4.019  2.4701 -0.4969 -0.3925
 7669SOL    HW234641   4.472   4.482   3.936 -0.1393 -1.9320  0.8868
 7670SOL     OW34642   3.341   0.102  12.646 -0.5652  0.0798 -0.0217
 7670SOL    HW134643   3.332   0.177  12.706  0.3927 -1.4060  2.0029
 7670SOL    HW234644   3.367   0.142  12.563 -0.8761  2.1101  0.8558
 7671SOL     OW34645   1.847   2.508   6.735 -0.0363  0.2311 -0.0207
 7671SOL    HW134646   1.859   2.438   6.672  0.2844  0.8279 -0.6204
 7671SOL    HW234647   1.783   2.559   6.686 -1.1180 -0.3531  0.7806
 7672SOL     OW34648   4.074   2.601   1.937  0.2463  0.1845 -0.3401
 7672SOL    HW134649   4.098   2.531   1.875 -0.6891 -2.0373  1.7966
 7672SOL    HW234650   3.987   2.572   1.965  0.3404  0.7514  0.5448
 7673SOL     OW34651   0.779   4.100   1.656 -0.4520  0.3521 -0.3115
 7673SOL    HW134652   0.781   4.005   1.658  2.0924  0.3924 -1.1195
 7673SOL    HW234653   0.869   4.111   1.688 -1.1207  0.5975  1.4933
 7674SOL     OW34654   4.695   0.760   6.347 -0.8514 -1.1924  0.2441
 7674SOL    HW134655   0.023   0.703   6.389  2.1038  0.9266 -1.5071
 7674SOL    HW234656   4.640   0.796   6.417  0.0143  0.5390  0.0231
 7675SOL     OW34657   3.523   1.669  11.491  0.1087  0.2501  0.1543
 7675SOL    HW134658   3.503   1.665  11.398 -0.0525 -1.4528  0.2554
 7675SOL    HW234659   3.606   1.716  11.499  1.2340 -1.5867 -0.6901
 7676SOL     OW34660   1.068   0.201  13.678 -0.8878 -0.0862  0.0535
 7676SOL    HW134661   1.119   0.276  13.708 -0.3107  0.5264 -2.4704
 7676SOL    HW234662   0.982   0.239  13.657 -0.0576  1.5315 -0.4263
 7677SOL     OW34663   2.927   2.986   9.995 -0.6449 -0.1813 -0.1076
 7677SOL    HW134664   2.835   3.013   9.990 -0.4581 -0.1328 -3.2844
 7677SOL    HW234665   2.925   2.907   9.942 -1.5483 -0.4149  0.2752
 7678SOL     OW34666   0.237   1.946   3.989  0.0974 -0.1306  0.3237
 7678SOL    HW134667   0.242   2.033   3.949  2.6794 -0.4557 -0.0479
 7678SOL    HW234668   0.216   1.890   3.914 -0.2523  0.7774 -0.2574
 7679SOL     OW34669   3.223   2.133   5.375 -0.0699  0.5070  0.5868
 7679SOL    HW134670   3.304   2.083   5.366  0.5801  1.4642  1.1003
 7679SOL    HW234671   3.263   2.219   5.364  2.3817 -0.9283 -1.6515
 7680SOL     OW34672   0.180   0.202  17.660  0.4964  0.2744 -0.0699
 7680SOL    HW134673   0.216   0.259  17.593  0.1672  0.4261 -0.1144
 7680SOL    HW234674   0.087   0.220  17.652  0.6706  1.7923  1.1135
 7681SOL     OW34675   2.722   2.475  10.714  0.0221 -0.1148  0.0485
 7681SOL    HW134676   2.806   2.439  10.741  0.6661  0.8793 -0.6378
 7681SOL    HW234677   2.737   2.480  10.619 -0.1135  1.0181  0.0791
 7682SOL     OW34678   2.439   3.012   9.234  0.1757 -0.1749 -0.0843
 7682SOL    HW134679   2.427   3.044   9.144 -0.3967  0.6521  0.2880
 7682SOL    HW234680   2.398   3.084   9.282 -1.2476 -0.7252 -0.4945
 7683SOL     OW34681   3.235   0.826   5.691  0.1963  0.3158 -0.0166
 7683SOL    HW134682   3.151   0.786   5.715  0.4168 -0.4370 -0.4936
 7683SOL    HW234683   3.258   0.890   5.758 -0.1278  0.2879  0.1218
 7684SOL     OW34684   1.736   2.252   4.461 -0.3883  0.0134 -0.3012
 7684SOL    HW134685   1.814   2.299   4.488 -1.1097 -0.6481  2.9552
 7684SOL    HW234686   1.679   2.326   4.441  0.4633  1.0022  0.9360
 7685SOL     OW34687   1.541   3.631  13.816  0.0717 -0.4396  0.7318
 7685SOL    HW134688   1.452   3.596  13.807 -0.6430  2.1861 -2.1898
 7685SOL    HW234689   1.520   3.685  13.892 -1.6636 -1.2877  0.8736
 7686SOL     OW34690   3.413   0.836   1.190  0.5717  0.3997  0.2297
 7686SOL    HW134691   3.432   0.748   1.158 -2.5572  0.5769 -2.1102
 7686SOL    HW234692   3.323   0.816   1.214  0.7973 -1.2245 -0.2945
 7687SOL     OW34693   2.830   2.228   2.302 -0.0494 -0.3792 -0.5901
 7687SOL    HW134694   2.856   2.196   2.389  1.1831 -0.0214 -0.8230
 7687SOL    HW234695   2.920   2.247   2.274 -0.3496  0.3406 -1.0470
 7688SOL     OW34696   3.279   1.746   3.323 -0.0120  0.4447  0.2254
 7688SOL    HW134697   3.234   1.661   3.327 -0.1930  0.5290 -0.0055
 7688SOL    HW234698   3.369   1.716   3.326  0.5681  2.3783  1.6820
 7689SOL     OW34699   2.607   2.602   5.085  0.1625 -0.3966 -0.0270
 7689SOL    HW134700   2.684   2.574   5.134 -0.6761  0.3750  1.7465
 7689SOL    HW234701   2.608   2.542   5.011 -0.2123  0.0725 -0.4142
 7690SOL     OW34702   1.612   1.212   3.668 -0.4662  0.0403  0.1541
 7690SOL    HW134703   1.660   1.174   3.742 -0.2588  0.8636  0.4352
 7690SOL    HW234704   1.637   1.303   3.679 -3.1685  0.8013  0.0580
 7691SOL     OW34705   4.704   0.996   8.148  0.8119  0.0882 -0.0106
 7691SOL    HW134706   4.642   1.051   8.195  0.5836  1.9376 -2.5014
 7691SOL    HW234707   0.026   0.968   8.220  0.8323  1.4336  0.4945
 7692SOL     OW34708   1.448   2.176  13.441 -0.6382  0.0765  0.4389
 7692SOL    HW134709   1.374   2.165  13.381 -0.1371  0.5252 -0.2546
 7692SOL    HW234710   1.442   2.271  13.439 -0.3007  0.0778 -0.3778
 7693SOL     OW34711   4.656   1.506   2.025  0.4004  0.2417  0.3775
 7693SOL    HW134712   4.628   1.597   2.012  0.0029  0.2619  1.4141
 7693SOL    HW234713   4.664   1.518   2.120 -2.5113  0.7188  0.5645
 7694SOL     OW34714   1.946   2.824   5.873  0.1286  0.3941  0.2040
 7694SOL    HW134715   2.024   2.867   5.837  0.1665 -2.0171 -2.5412
 7694SOL    HW234716   1.881   2.893   5.863 -0.2808  0.4351  3.0180
 7695SOL     OW34717   4.722   3.600   2.626 -0.6974 -0.4768  0.3394
 7695SOL    HW134718   0.013   3.685   2.660 -2.9778 -0.7932  2.9312
 7695SOL    HW234719   4.731   3.614   2.532 -1.3696 -1.4220  0.1302
 7696SOL     OW34720   3.903   3.404   3.112  0.3023  0.1397 -0.3746
 7696SOL    HW134721   3.967   3.363   3.170 -0.5048 -0.3104  0.1924
 7696SOL    HW234722   3.824   3.373   3.157  0.3872  1.6911  0.8500
 7697SOL     OW34723   3.625   1.493   2.743 -0.4864 -0.2707  0.0705
 7697SOL    HW134724   3.641   1.435   2.668  0.6612  0.8234 -0.5247
 7697SOL    HW234725   3.533   1.472   2.761 -0.5902  0.2748  0.1652
 7698SOL     OW34726   3.876   0.800   4.429  0.2541  0.1180  0.3943
 7698SOL    HW134727   3.821   0.875   4.407  1.0112 -0.0624 -2.1009
 7698SOL    HW234728   3.966   0.831   4.442 -0.3354  2.3092 -0.8334
 7699SOL     OW34729   3.249   4.274   4.673  0.1038  0.1523  0.2270
 7699SOL    HW134730   3.330   4.278   4.724 -0.6040  1.7898  1.1894
 7699SOL    HW234731   3.178   4.283   4.736 -0.1421 -1.2663  0.1600
 7700SOL     OW34732   4.114   2.453   5.934  0.2216  0.0995  0.7766
 7700SOL    HW134733   4.193   2.405   5.910  0.2760  0.2309  0.6911
 7700SOL    HW234734   4.140   2.545   5.932  0.7628 -0.0723 -0.3801
 7701SOL     OW34735   3.442   1.677   4.374  0.1245  0.6640 -0.5099
 7701SOL    HW134736   3.444   1.770   4.352  3.3372  0.7509  0.1729
 7701SOL    HW234737   3.352   1.669   4.405  0.4147 -0.0020  0.1824
 7702SOL     OW34738   4.491   3.321   8.168 -0.3894  0.0294  0.1512
 7702SOL    HW134739   4.413   3.282   8.208 -0.1637  0.0761  0.6302
 7702SOL    HW234740   4.560   3.276   8.216  0.8428  0.0144 -1.6076
 7703SOL     OW34741   1.375   2.781   3.960 -0.0316  0.2441 -0.0417
 7703SOL    HW134742   1.301   2.741   4.007  1.8260 -0.0783  2.6332
 7703SOL    HW234743   1.403   2.844   4.026  1.0507 -2.0387  1.7013
 7704SOL     OW34744   2.517   1.657   6.032 -0.6657 -0.1380  0.1108
 7704SOL    HW134745   2.488   1.614   6.113 -0.2429  1.2223  0.9817
 7704SOL    HW234746   2.431   1.673   5.993 -0.6694  0.2180  0.2733
 7705SOL     OW34747   1.226   3.824   7.426  0.3817  0.2132 -0.1150
 7705SOL    HW134748   1.317   3.813   7.400 -0.0616  0.7036 -1.8812
 7705SOL    HW234749   1.238   3.896   7.489  0.3520  0.2190 -0.1158
 7706SOL     OW34750   2.677   4.231   1.342  0.4338  0.1601  0.4188
 7706SOL    HW134751   2.619   4.306   1.330  0.5932  0.2589  0.2567
 7706SOL    HW234752   2.646   4.172   1.274  0.0274  0.0649  0.6915
 7707SOL     OW34753   4.510   2.147  15.385 -0.7400 -0.1521 -0.0296
 7707SOL    HW134754   4.526   2.166  15.293 -1.3941  3.1902  0.5251
 7707SOL    HW234755   4.417   2.169  15.394 -0.4777  1.3603 -1.0940
 7708SOL     OW34756   1.842   3.384   4.529 -0.0782  0.2333 -0.4836
 7708SOL    HW134757   1.792   3.365   4.608 -0.3346  1.6677 -0.2911
 7708SOL    HW234758   1.889   3.465   4.551 -0.3046  0.4564 -0.8143
 7709SOL     OW34759   2.052   3.159   8.216  0.3734 -0.5118  0.7056
 7709SOL    HW134760   2.088   3.214   8.286 -0.3643 -1.1357  1.5836
 7709SOL    HW234761   1.958   3.164   8.235  0.6279 -1.1706  2.1701
 7710SOL     OW34762   2.229   1.818  12.786 -0.2147 -0.1128 -0.5573
 7710SOL    HW134763   2.137   1.847  12.787 -0.1873 -0.0422  0.3243
 7710SOL    HW234764   2.218   1.764  12.865  2.1609  0.8757  0.4335
 7711SOL     OW34765   4.000   0.565   8.324 -0.0770 -0.1069 -0.1735
 7711SOL    HW134766   3.954   0.512   8.390 -0.4298 -1.1222 -1.2375
 7711SOL    HW234767   3.983   0.516   8.243 -0.2852 -0.9778  0.3966
 7712SOL     OW34768   0.462   3.009   4.668  0.0862 -0.1432 -0.1939
 7712SOL    HW134769   0.402   2.936   4.683  0.0809 -0.3323 -1.1142
 7712SOL    HW234770   0.529   3.006   4.736 -0.2962 -1.0696  0.1319
 7713SOL     OW34771   0.423   1.223  17.510  0.2217 -0.1255 -0.4167
 7713SOL    HW134772   0.470   1.198  17.589  1.4058 -0.7823 -1.3318
 7713SOL    HW234773   0.474   1.199  17.432 -1.1726  1.5391 -1.8609
 7714SOL     OW34774   2.754   4.037   3.093  0.0891  0.3382 -0.5642
 7714SOL    HW134775   2.813   4.108   3.067  1.8552 -0.3488  1.5384
 7714SOL    HW234776   2.816   3.976   3.133 -0.6996 -1.1434 -1.6325
 7715SOL     OW34777   0.245   4.585  17.243 -0.1637 -0.8632  0.0980
 7715SOL    HW134778   0.265   4.506  17.292  1.2825 -1.0554 -0.7771
 7715SOL    HW234779   0.251   4.653  17.310 -3.0644 -1.1284  0.6127
 7716SOL     OW34780   3.941   1.354  11.851 -0.3679  0.3734  0.4398
 7716SOL    HW134781   3.862   1.332  11.801 -0.2515 -1.4947  1.0844
 7716SOL    HW234782   3.904   1.358  11.939  1.2837 -1.4324  1.2187
 7717SOL     OW34783   0.071   2.041   2.227  0.0046 -0.1525  0.1539
 7717SOL    HW134784   0.079   1.946   2.227 -1.2651 -0.2599  0.7151
 7717SOL    HW234785   0.053   2.067   2.137 -1.2072  1.0136  0.7341
 7718SOL     OW34786   2.707   3.615  15.551  0.1007 -0.7333  0.0391
 7718SOL    HW134787   2.768   3.688  15.549 -0.8355  0.0601  0.2964
 7718SOL    HW234788   2.618   3.650  15.564  0.2051 -0.4682  0.0397
 7719SOL     OW34789   0.927   1.504   2.258 -0.1885  0.1195  0.1017
 7719SOL    HW134790   0.885   1.577   2.212 -0.8915  0.3369  1.0987
 7719SOL    HW234791   0.914   1.431   2.198  0.1713  1.2780 -1.3929
 7720SOL     OW34792   2.743   4.701  12.952  0.1607  0.0577  0.1378
 7720SOL    HW134793   2.744   4.730  13.043 -2.9115  1.7585 -0.3472
 7720SOL    HW234794   2.720   0.044  12.903 -1.5347 -0.1319  0.6138
 7721SOL     OW34795   0.094   2.258   9.136  0.1210 -0.3955 -0.1887
 7721SOL    HW134796   0.143   2.177   9.150  1.7355  0.3157 -1.6430
 7721SOL    HW234797   0.164   2.323   9.126  0.5887 -0.7933  0.4790
 7722SOL     OW34798   0.245   2.555   4.163  0.3905  0.2731 -0.3467
 7722SOL    HW134799   0.249   2.641   4.207  0.1618 -0.2934  0.7810
 7722SOL    HW234800   0.338   2.533   4.156  1.0119  2.0724  1.8762
 7723SOL     OW34801   3.654   0.290   6.825 -0.0796  0.9263  0.4680
 7723SOL    HW134802   3.682   0.331   6.906 -0.2374  0.5767  0.7038
 7723SOL    HW234803   3.708   0.340   6.765 -1.0358  1.0128 -0.3331
 7724SOL     OW34804   4.192   4.736  14.950  0.7502 -0.2018 -0.0228
 7724SOL    HW134805   4.274   0.041  14.922  0.8104  1.5263  2.6411
 7724SOL    HW234806   4.137   0.006  14.873  1.7620 -0.7686 -0.7955
 7725SOL     OW34807   3.844   1.009   3.777  0.4163 -0.3740  0.0448
 7725SOL    HW134808   3.844   0.915   3.796 -1.7740 -0.1955  0.8841
 7725SOL    HW234809   3.927   1.037   3.816 -0.7768  0.3677  2.0119
 7726SOL     OW34810   1.394   3.320   3.526  0.6904  0.1237 -0.3555
 7726SOL    HW134811   1.474   3.351   3.484  0.6774  0.4035 -0.1687
 7726SOL    HW234812   1.426   3.235   3.556  0.2027 -0.0566 -0.3547
 7727SOL     OW34813   3.516   3.510   5.993  0.3820  0.1132  0.8941
 7727SOL    HW134814   3.512   3.539   6.084  0.5068  0.5514  0.7604
 7727SOL    HW234815   3.602   3.467   5.983  0.0540  0.5508 -3.8767
 7728SOL     OW34816   0.847   3.599  15.565 -0.3919  0.5533 -0.3563
 7728SOL    HW134817   0.818   3.614  15.655  1.2631  0.2897  0.2274
 7728SOL    HW234818   0.934   3.639  15.570  0.0635 -0.3730 -0.8714
 7729SOL     OW34819   0.223   1.711  16.570 -0.1295  0.0912 -0.0642
 7729SOL    HW134820   0.229   1.802  16.541  1.8784 -1.0417 -3.2539
 7729SOL    HW234821   0.174   1.709  16.651  0.2457  0.4609  0.1724
 7730SOL     OW34822   3.194   4.424   2.935 -0.0743 -0.4345 -0.3104
 7730SOL    HW134823   3.168   4.415   2.843  4.0885 -3.2409 -1.2042
 7730SOL    HW234824   3.285   4.397   2.943 -0.0363 -0.4186 -0.6742
 7731SOL     OW34825   4.046   2.768  15.866  0.1945 -0.1283 -0.4994
 7731SOL    HW134826   4.003   2.842  15.909  1.3386 -0.8123  1.8696
 7731SOL    HW234827   4.049   2.786  15.772  0.4861  2.0301 -0.0870
 7732SOL     OW34828   1.676   3.322   4.724 -0.4250 -0.1959 -0.1121
 7732SOL    HW134829   1.695   3.355   4.812  0.9092 -2.0570  0.3036
 7732SOL    HW234830   1.619   3.249   4.748 -1.1818  0.5402  0.3480
 7733SOL     OW34831   0.684   4.062   7.726 -0.2276  0.0115 -0.4418
 7733SOL    HW134832   0.628   4.121   7.676 -2.6750 -0.5571  1.6406
 7733SOL    HW234833   0.638   3.981   7.747  1.1327 -0.2849  1.3849
 7734SOL     OW34834   1.958   4.383   2.913  0.2395 -0.1619 -0.6411
 7734SOL    HW134835   1.959   4.374   3.008  0.0538 -0.0069 -0.6221
 7734SOL    HW234836   1.885   4.325   2.890 -0.9489  0.9962  0.1895
 7735SOL     OW34837   0.247   0.438   3.595 -0.0197 -0.0018 -0.5773
 7735SOL    HW134838   0.296   0.359   3.575 -2.1310 -1.3938 -0.3181
 7735SOL    HW234839   0.160   0.398   3.587  1.3814 -3.1638  0.2344
 7736SOL     OW34840   1.573   3.573   5.605 -0.3326  0.3322 -0.0552
 7736SOL    HW134841   1.614   3.607   5.525 -2.2007  0.0967 -1.1151
 7736SOL    HW234842   1.606   3.632   5.673  0.1122  2.8297 -2.4330
 7737SOL     OW34843   1.079   2.543   5.488 -0.2903 -0.1666 -0.1504
 7737SOL    HW134844   1.083   2.563   5.394  0.6846 -2.6255 -0.6315
 7737SOL    HW234845   1.121   2.457   5.484 -1.1322 -0.4970 -2.0197
 7738SOL     OW34846   4.045   3.201   5.996  0.5828  0.0981 -0.1719
 7738SOL    HW134847   4.082   3.140   6.059 -1.6934 -1.3887 -0.2394
 7738SOL    HW234848   3.983   3.153   5.941 -0.6202  1.5367 -0.0891
 7739SOL     OW34849   4.025   1.229  12.545 -0.0943  0.3572  0.2317
 7739SOL    HW134850   4.032   1.141  12.506  4.0038  0.9145 -0.2785
 7739SOL    HW234851   4.034   1.210  12.638 -0.0608  0.2165  0.1998
 7740SOL     OW34852   3.104   0.549   4.796  0.2224  0.2992  0.7109
 7740SOL    HW134853   3.183   0.589   4.758 -0.7916  0.1941 -1.5071
 7740SOL    HW234854   3.126   0.546   4.889 -0.5258 -0.7507  0.8449
 7741SOL     OW34855   3.373   1.067   3.734 -0.1347  0.1614  0.1127
 7741SOL    HW134856   3.325   1.111   3.664  1.1728 -1.2349 -1.6684
 7741SOL    HW234857   3.378   1.139   3.798 -0.7542  1.2155 -1.0293
 7742SOL     OW34858   2.915   1.314   7.182 -0.2843 -0.0781 -0.1632
 7742SOL    HW134859   2.866   1.236   7.207  0.7076 -0.3631  0.8753
 7742SOL    HW234860   2.852   1.353   7.121 -0.9077  0.1740  0.6468
 7743SOL     OW34861   0.684   3.334   7.538  0.1255  0.0851  0.4555
 7743SOL    HW134862   0.760   3.284   7.508  0.7884  1.1932  0.2902
 7743SOL    HW234863   0.609   3.277   7.522 -0.6280  1.0798  0.4386
 7744SOL     OW34864   3.700   0.838  10.104 -0.4938  0.1873  0.2640
 7744SOL    HW134865   3.716   0.762  10.159 -2.5952 -0.3772  0.1087
 7744SOL    HW234866   3.780   0.889  10.118  0.6511 -1.4159 -0.4889
 7745SOL     OW34867   3.964   2.624  14.834  0.2021 -0.5060 -0.3381
 7745SOL    HW134868   3.986   2.709  14.870 -0.9024 -2.1930  4.3734
 7745SOL    HW234869   3.886   2.607  14.888 -0.4900 -0.8853 -1.4495
 7746SOL     OW34870   1.324   1.294   1.289  0.0529  0.1444 -0.1837
 7746SOL    HW134871   1.303   1.264   1.377  0.4638  0.2868 -0.0416
 7746SOL    HW234872   1.355   1.382   1.307 -0.5774  0.9529 -2.9838
 7747SOL     OW34873   4.412   4.090   8.759  0.5575  0.6645  0.4259
 7747SOL    HW134874   4.390   4.116   8.849 -1.1214 -1.3924  0.5986
 7747SOL    HW234875   4.367   4.161   8.713  1.8631  0.0458 -1.7903
 7748SOL     OW34876   2.674   2.898   9.343 -0.1060 -0.0478  0.5933
 7748SOL    HW134877   2.722   2.915   9.262 -0.6304 -0.8657  0.1025
 7748SOL    HW234878   2.592   2.946   9.335  1.0643  1.8450  0.2000
 7749SOL     OW34879   1.940   0.116  11.559  0.0916  0.0056 -0.6292
 7749SOL    HW134880   1.919   0.027  11.587 -2.2289  1.0091  0.8064
 7749SOL    HW234881   2.024   0.132  11.602  0.6845 -1.2366 -1.3333
 7750SOL     OW34882   3.564   3.677   4.608  0.3601  0.3152 -0.6080
 7750SOL    HW134883   3.551   3.764   4.572  2.9912  0.8143 -0.3708
 7750SOL    HW234884   3.656   3.686   4.635  0.0681  1.9912 -0.2342
 7751SOL     OW34885   3.395   1.508   5.212  0.0941  0.2301  0.4323
 7751SOL    HW134886   3.455   1.582   5.215 -1.3959  1.3916  2.0259
 7751SOL    HW234887   3.459   1.445   5.247 -1.4528 -0.3893  2.1929
 7752SOL     OW34888   3.878   4.557   6.241 -0.0875 -0.6659 -0.0543
 7752SOL    HW134889   3.913   4.617   6.307 -2.1659 -0.7353  1.1129
 7752SOL    HW234890   3.895   4.596   6.155  0.2695  1.0382  0.7947
 7753SOL     OW34891   0.791   4.453  15.735 -0.6512 -0.0667 -0.1366
 7753SOL    HW134892   0.750   4.501  15.807 -0.2871  0.9583 -0.6102
 7753SOL    HW234893   0.880   4.488  15.741 -0.7880  0.2201  0.1931
 7754SOL     OW34894   3.628   3.872  13.362  0.4103  0.0544  0.3022
 7754SOL    HW134895   3.611   3.888  13.269  1.6821 -0.4986 -0.0236
 7754SOL    HW234896   3.612   3.780  13.379  1.0302 -0.2590 -0.7721
 7755SOL     OW34897   0.787   2.701  11.759  0.6730 -0.2661 -0.3820
 7755SOL    HW134898   0.742   2.617  11.755 -1.3212  0.7300  0.9319
 7755SOL    HW234899   0.716   2.761  11.783  1.4271  0.3072  0.4271
 7756SOL     OW34900   3.726   0.649   2.892 -0.8313 -0.4740 -0.2901
 7756SOL    HW134901   3.762   0.598   2.964  1.9486  2.7261  0.6205
 7756SOL    HW234902   3.668   0.706   2.942 -1.9658  0.1641 -2.2941
 7757SOL     OW34903   4.606   0.471   2.433  0.1624 -0.0440  0.1552
 7757SOL    HW134904   4.524   0.479   2.385  0.2574  0.7710  0.1292
 7757SOL    HW234905   4.612   0.561   2.465  0.2583  0.5990 -1.6784
 7758SOL     OW34906   0.246   1.395   5.769 -0.2954  0.2022 -0.2110
 7758SOL    HW134907   0.181   1.464   5.753  0.3644  0.6697 -0.8241
 7758SOL    HW234908   0.224   1.329   5.703 -1.2871  0.4941 -0.1809
 7759SOL     OW34909   0.167   2.244   7.526  0.4377  0.0676 -0.1086
 7759SOL    HW134910   0.214   2.176   7.479  0.8144 -0.8031  1.5006
 7759SOL    HW234911   0.073   2.228   7.521  0.4748  0.9529 -3.3730
 7760SOL     OW34912   0.101   1.705   7.068 -0.1459 -0.3823  0.0338
 7760SOL    HW134913   0.131   1.712   7.159  0.0769  2.2889 -0.2576
 7760SOL    HW234914   0.177   1.682   7.015 -0.5616 -3.1692  0.6195
 7761SOL     OW34915   4.636   1.615  17.734  0.0958 -0.0884 -0.9035
 7761SOL    HW134916   4.709   1.647   0.044  0.4055  0.7653 -1.8501
 7761SOL    HW234917   4.594   1.555   0.052 -1.3189  1.4019 -0.4250
 7762SOL     OW34918   3.370   1.542   2.448  0.0086 -0.6480  0.2321
 7762SOL    HW134919   3.328   1.601   2.385 -2.5966 -0.0020  2.6131
 7762SOL    HW234920   3.447   1.592   2.474  0.0987 -1.4483  1.4623
 7763SOL     OW34921   0.423   2.840   8.014  0.2895 -0.0236  0.2783
 7763SOL    HW134922   0.348   2.858   8.071  0.5963 -0.5134  0.8334
 7763SOL    HW234923   0.428   2.922   7.965  0.5543 -0.6634 -0.7850
 7764SOL     OW34924   1.982   2.322   9.791 -0.8700 -0.1906 -0.4929
 7764SOL    HW134925   2.020   2.389   9.848  0.9666  0.6346 -2.6908
 7764SOL    HW234926   1.888   2.336   9.799 -0.3823  1.4101  2.2870
 7765SOL     OW34927   1.601   1.833  13.363  0.5446 -0.4273 -0.1021
 7765SOL    HW134928   1.521   1.796  13.327  0.8729  0.5309 -1.8369
 7765SOL    HW234929   1.575   1.908  13.417 -0.9872 -0.5479 -0.6873
 7766SOL     OW34930   4.711   0.174   4.776 -0.3735  0.0422  0.2310
 7766SOL    HW134931   0.038   0.134   4.716 -0.3164  1.9622 -1.0112
 7766SOL    HW234932   0.031   0.243   4.811  0.9147 -0.5618 -0.6535
 7767SOL     OW34933   4.526   0.355   1.608 -0.4042 -0.2584  0.4631
 7767SOL    HW134934   4.558   0.276   1.565 -2.5317 -1.6448  1.4598
 7767SOL    HW234935   4.450   0.379   1.555 -0.2991 -2.0865 -0.4967
 7768SOL     OW34936   3.854   1.123  11.233  0.1892  0.1492 -0.3157
 7768SOL    HW134937   3.937   1.076  11.229  0.8261  1.1756  0.8771
 7768SOL    HW234938   3.821   1.069  11.304 -0.6168  0.1292 -0.7097
 7769SOL     OW34939   3.468   0.421   3.871 -0.2403 -0.0603  0.0231
 7769SOL    HW134940   3.513   0.382   3.946  0.9327 -0.1092 -0.7035
 7769SOL    HW234941   3.509   0.377   3.797  2.2439  0.8629  0.8294
 7770SOL     OW34942   1.390   1.464   6.532 -0.3397  0.2659  0.4297
 7770SOL    HW134943   1.318   1.401   6.528  1.3906 -1.6332 -0.6693
 7770SOL    HW234944   1.385   1.504   6.446  1.5162 -2.6514 -1.0027
 7771SOL     OW34945   1.173   0.509   2.441 -0.0582 -0.0157 -0.0866
 7771SOL    HW134946   1.084   0.526   2.410  0.0563  0.6271 -0.0532
 7771SOL    HW234947   1.203   0.592   2.478 -1.2206 -0.2628  1.3901
 7772SOL     OW34948   2.507   1.819   7.418  0.3885 -0.7631  0.1949
 7772SOL    HW134949   2.543   1.861   7.496 -2.3436  0.2230  0.9270
 7772SOL    HW234950   2.440   1.887   7.410  0.6008 -0.4416  1.0926
 7773SOL     OW34951   3.865   2.919   3.282 -0.6712 -0.0622 -0.7722
 7773SOL    HW134952   3.867   2.830   3.315  0.4755  0.4569  0.5705
 7773SOL    HW234953   3.959   2.930   3.265 -0.2621 -0.1452  1.5214
 7774SOL     OW34954   0.491   4.238   5.254 -0.5139 -0.2238 -0.0292
 7774SOL    HW134955   0.573   4.241   5.204 -0.2850  0.2937  0.3703
 7774SOL    HW234956   0.523   4.292   5.327 -1.8148  2.9866 -1.8659
 7775SOL     OW34957   2.314   0.403  14.863  0.0865 -0.6310 -0.1874
 7775SOL    HW134958   2.263   0.481  14.886 -0.6790 -0.7564 -1.4596
 7775SOL    HW234959   2.249   0.333  14.868  0.2036 -0.9007 -2.7498
 7776SOL     OW34960   2.347   4.507  15.680 -0.0349  0.0133 -0.0417
 7776SOL    HW134961   2.301   4.437  15.726  2.2203  1.0648  3.7887
 7776SOL    HW234962   2.421   4.527  15.737 -1.4782 -1.1079  2.2218
 7777SOL     OW34963   1.921   1.773   6.204 -0.2669 -0.0079  0.3179
 7777SOL    HW134964   1.947   1.839   6.267 -1.0559 -0.8999  1.5650
 7777SOL    HW234965   1.907   1.823   6.123  0.2229 -0.9616 -0.3662
 7778SOL     OW34966   2.916   0.010   5.389  0.1374 -0.0565  0.2938
 7778SOL    HW134967   2.885   0.015   5.299  1.5437 -0.7326 -0.2235
 7778SOL    HW234968   2.968   0.089   5.403 -3.3718  2.7470 -2.5779
 7779SOL     OW34969   3.281   3.938   2.248 -0.4481 -0.0451  0.1955
 7779SOL    HW134970   3.204   3.946   2.192  0.5118 -0.8126 -1.2424
 7779SOL    HW234971   3.249   3.914   2.335  0.1247 -3.7523 -0.5950
 7780SOL     OW34972   0.106   2.817  13.747  0.0996 -0.4215 -0.3226
 7780SOL    HW134973   0.194   2.844  13.772 -0.2353 -0.1332  0.5358
 7780SOL    HW234974   0.099   2.858  13.660 -1.5033  0.6828  0.3244
 7781SOL     OW34975   0.376   0.610   1.636 -0.3600  0.2622 -0.1219
 7781SOL    HW134976   0.367   0.554   1.712 -0.3148  0.8915  0.3492
 7781SOL    HW234977   0.343   0.694   1.669 -2.1667 -0.3286 -0.4562
 7782SOL     OW34978   3.538   2.501   4.260 -0.3277 -0.3907  0.2495
 7782SOL    HW134979   3.471   2.556   4.301 -1.1783 -0.2110 -1.4100
 7782SOL    HW234980   3.578   2.452   4.333 -1.8513 -1.5877  0.2919
 7783SOL     OW34981   0.720   0.150   4.135 -0.5745  0.8514 -0.4756
 7783SOL    HW134982   0.798   0.154   4.190 -2.1092 -1.7477  1.8742
 7783SOL    HW234983   0.701   0.243   4.128 -1.0411  0.9444  2.0266
 7784SOL     OW34984   4.288   1.627   4.705 -0.2316  0.0832 -0.4948
 7784SOL    HW134985   4.199   1.645   4.735  0.1388  1.3402 -0.1576
 7784SOL    HW234986   4.269   1.536   4.682  0.8543 -0.3741  0.4215
 7785SOL     OW34987   1.175   0.897  17.067 -0.2155  0.1946  0.2833
 7785SOL    HW134988   1.088   0.865  17.088 -0.0400  0.6198  1.6256
 7785SOL    HW234989   1.146   0.986  17.046 -2.8357 -0.1029  2.6897
 7786SOL     OW34990   2.167   0.850   4.576 -0.0962  0.2726  0.0123
 7786SOL    HW134991   2.255   0.819   4.555  0.3617  0.4628  1.5931
 7786SOL    HW234992   2.180   0.940   4.607  0.9340  0.3079 -0.5320
 7787SOL     OW34993   1.227   3.459   4.109 -0.3640  0.1134 -0.4936
 7787SOL    HW134994   1.147   3.495   4.070  0.6656  2.9278 -0.0324
 7787SOL    HW234995   1.289   3.519   4.067  0.1093  0.4249  0.6535
 7788SOL     OW34996   3.015   0.911   8.238  0.2189  0.1836  0.5050
 7788SOL    HW134997   2.962   0.843   8.196 -1.7637  3.1320 -1.7440
 7788SOL    HW234998   3.005   0.881   8.328  0.3740  1.3849  0.9186
 7789SOL     OW34999   4.074   2.785   8.445 -0.4830 -0.2707 -0.1681
 7789SOL    HW135000   4.017   2.710   8.427 -0.5842 -0.2627  0.1180
 7789SOL    HW235001   4.154   2.735   8.465 -1.2772 -1.3586  0.2996
 7790SOL     OW35002   0.123   1.600   3.001 -0.1855  0.9186 -0.3612
 7790SOL    HW135003   0.071   1.548   2.940  0.7830 -0.8045  0.2895
 7790SOL    HW235004   0.131   1.539   3.075 -0.1888 -1.5194 -2.3520
 7791SOL     OW35005   2.723   4.506   9.291 -0.3623 -0.0573  0.0451
 7791SOL    HW135006   2.743   4.445   9.361 -1.0250  0.3427  0.5894
 7791SOL    HW235007   2.812   4.535   9.270 -1.1588  1.3504 -1.4492
 7792SOL     OW35008   4.537   2.040   6.428  0.0022  0.4580  0.0176
 7792SOL    HW135009   4.578   2.083   6.503 -0.0360 -0.7051  0.7189
 7792SOL    HW235010   4.589   1.963   6.404 -1.1770  0.1495 -1.5510
 7793SOL     OW35011   2.263   1.188  10.303 -1.2985 -0.6976 -0.3471
 7793SOL    HW135012   2.322   1.262  10.321 -2.3411 -0.0558  0.4051
 7793SOL    HW235013   2.299   1.117  10.356  0.3017  1.3651  1.3245
 7794SOL     OW35014   1.061   3.772   1.557 -0.0542 -0.8665 -0.2699
 7794SOL    HW135015   1.048   3.678   1.574 -1.9305 -0.7732 -1.2196
 7794SOL    HW235016   1.092   3.772   1.467  0.7656 -2.4251  0.0041
 7795SOL     OW35017   2.610   3.615   8.661 -0.7971 -0.1561  0.3617
 7795SOL    HW135018   2.587   3.699   8.700 -1.7883 -1.1950  1.9940
 7795SOL    HW235019   2.544   3.556   8.697 -1.7623 -1.2872 -3.1977
 7796SOL     OW35020   0.623   0.904   5.133  0.3728 -0.9770  0.0788
 7796SOL    HW135021   0.533   0.921   5.105 -0.2066 -0.0442  2.5183
 7796SOL    HW235022   0.624   0.939   5.222  2.8478 -0.8675  0.0173
 7797SOL     OW35023   1.338   0.230   3.301 -0.5135 -0.0695 -0.0530
 7797SOL    HW135024   1.363   0.321   3.319 -1.9729  0.5021 -0.9366
 7797SOL    HW235025   1.364   0.184   3.381 -1.8856  0.4846  0.7016
 7798SOL     OW35026   3.752   4.246   7.073  0.1490 -0.5515  0.0608
 7798SOL    HW135027   3.764   4.177   7.138 -1.7023 -0.8678  0.0608
 7798SOL    HW235028   3.803   4.315   7.116 -0.2018 -0.1652 -0.1426
 7799SOL     OW35029   4.285   3.067  17.573  0.5379 -0.3906  0.1296
 7799SOL    HW135030   4.236   3.119  17.508  0.9864 -0.2886 -0.1283
 7799SOL    HW235031   4.309   2.992  17.519  2.9648 -0.8788  1.9062
 7800SOL     OW35032   1.962   1.689   3.783 -0.4237 -0.2376  0.9217
 7800SOL    HW135033   1.877   1.709   3.822 -0.3410 -1.7619  1.8797
 7800SOL    HW235034   1.973   1.620   3.849  0.7593 -0.1130  0.8504
 7801SOL     OW35035   3.407   1.092   7.534  0.1169 -0.6975  0.2089
 7801SOL    HW135036   3.426   1.087   7.440  1.4862 -0.3606  0.4756
 7801SOL    HW235037   3.334   1.030   7.531 -0.6391  0.1701  0.4373
 7802SOL     OW35038   3.579   4.056  10.333  0.3683  0.4052 -0.1616
 7802SOL    HW135039   3.645   4.125  10.343 -2.3742  3.0164  0.1044
 7802SOL    HW235040   3.529   4.081  10.411  0.9371  1.7003 -0.2144
 7803SOL     OW35041   1.697   0.964   5.615 -0.3840 -0.1531 -0.3604
 7803SOL    HW135042   1.682   0.995   5.705  1.6687  0.7831 -0.3385
 7803SOL    HW235043   1.782   0.922   5.625 -1.6267 -2.1471  1.8798
 7804SOL     OW35044   4.203   2.493   5.369 -0.3651 -0.2031 -0.4876
 7804SOL    HW135045   4.171   2.421   5.423  1.3715 -2.1594 -2.1074
 7804SOL    HW235046   4.283   2.456   5.333 -0.5583 -0.5022 -0.6020
 7805SOL     OW35047   0.759   2.473   1.172  0.0678  0.3322 -0.1612
 7805SOL    HW135048   0.854   2.462   1.175 -0.2393 -1.0004  4.2918
 7805SOL    HW235049   0.728   2.391   1.134  0.4258 -0.4571  1.2592
 7806SOL     OW35050   0.686   4.147   3.812  0.2180  0.3962  0.1011
 7806SOL    HW135051   0.637   4.228   3.828  1.8200  1.5551 -0.8347
 7806SOL    HW235052   0.654   4.091   3.882  1.5136 -0.7412 -0.2180
 7807SOL     OW35053   4.483   2.255  17.684  0.2354  0.5276 -0.0463
 7807SOL    HW135054   4.456   2.189  17.619  3.7184 -0.0078 -0.9613
 7807SOL    HW235055   4.412   2.253   0.005 -1.3221 -3.9367 -1.8862
 7808SOL     OW35056   3.463   1.946   6.566  0.2369 -0.0552  0.3033
 7808SOL    HW135057   3.391   1.937   6.504 -1.0923  3.5461  1.3161
 7808SOL    HW235058   3.413   1.980   6.641  3.0000 -2.3492  3.1772
 7809SOL     OW35059   0.338   4.733   7.466 -0.1257  0.8964  0.2725
 7809SOL    HW135060   0.423   0.034   7.490 -0.5570  1.0638  1.5102
 7809SOL    HW235061   0.360   4.661   7.407 -0.0976  2.2860 -1.4364
 7810SOL     OW35062   1.398   3.800  15.224 -0.5917  0.6807  0.1741
 7810SOL    HW135063   1.492   3.786  15.221 -1.0100 -2.2904  1.4280
 7810SOL    HW235064   1.374   3.711  15.197 -1.4618  0.3409  2.0661
 7811SOL     OW35065   2.761   3.381   8.639  0.1302  0.1839  0.1232
 7811SOL    HW135066   2.728   3.469   8.657 -0.2677  0.2367 -0.8638
 7811SOL    HW235067   2.799   3.387   8.551  0.3819  0.7928  0.2761
 7812SOL     OW35068   2.052   2.420  10.914  0.2373  0.2536 -0.4138
 7812SOL    HW135069   2.031   2.403  11.006 -0.9121 -0.4321 -0.8138
 7812SOL    HW235070   2.011   2.506  10.918  0.5991  0.5538 -3.1383
 7813SOL     OW35071   3.278   2.591   0.579 -0.5436  0.6200  0.0716
 7813SOL    HW135072   3.324   2.507   0.585 -0.2231  0.9281  1.7519
 7813SOL    HW235073   3.355   2.646   0.571  0.6346 -1.0509  0.0479
 7814SOL     OW35074   4.228   0.000   1.601  0.4860 -0.7379 -0.4220
 7814SOL    HW135075   4.220   0.005   1.696  0.7262 -0.6892 -0.4046
 7814SOL    HW235076   4.139   0.010   1.568  0.8224  0.5999 -0.9620
 7815SOL     OW35077   2.116   1.387   5.694  0.0951 -0.1846 -0.6270
 7815SOL    HW135078   2.030   1.373   5.653 -0.7331 -1.1184  1.4113
 7815SOL    HW235079   2.086   1.414   5.781  0.4816 -1.4313 -0.1189
 7816SOL     OW35080   1.391   4.158   7.348 -0.2581  0.2239 -0.0356
 7816SOL    HW135081   1.427   4.150   7.260 -0.4824  1.0112 -0.2066
 7816SOL    HW235082   1.323   4.222   7.327  0.6405  1.1725 -0.0392
 7817SOL     OW35083   4.005   3.101   7.202  0.5462 -0.3536  0.1898
 7817SOL    HW135084   3.946   3.156   7.255 -0.3584  0.4494 -1.6245
 7817SOL    HW235085   4.092   3.140   7.209  0.8638 -1.0422  0.0095
 7818SOL     OW35086   1.567   1.520  12.074 -0.3906  0.5045  0.3284
 7818SOL    HW135087   1.649   1.481  12.105 -0.8349  0.0702  0.9626
 7818SOL    HW235088   1.500   1.461  12.109  1.6581 -2.8063 -1.3632
 7819SOL     OW35089   4.646   2.402   5.916 -0.1820  0.2121  0.0237
 7819SOL    HW135090   4.688   2.421   6.000 -0.5452 -0.2837  0.3151
 7819SOL    HW235091   4.604   2.485   5.894 -0.2143  0.3031  0.4292
 7820SOL     OW35092   3.044   1.754   1.140 -0.6919  0.2740  0.9140
 7820SOL    HW135093   3.022   1.691   1.209 -1.1863 -0.6205 -0.0514
 7820SOL    HW235094   3.136   1.731   1.125 -0.8611 -0.8824  1.6027
 7821SOL     OW35095   1.814   3.968  14.916  0.2241  0.4775 -0.8516
 7821SOL    HW135096   1.887   4.010  14.871 -1.1680  4.1298  0.2556
 7821SOL    HW235097   1.820   4.027  14.991 -0.7755 -0.5280  0.0167
 7822SOL     OW35098   2.282   0.156   6.089 -0.1187 -0.1601  0.1492
 7822SOL    HW135099   2.251   0.068   6.065 -0.6789  0.7655 -2.4636
 7822SOL    HW235100   2.356   0.141   6.147  0.3102 -3.3237 -1.1825
 7823SOL     OW35101   1.070   0.644  12.869  0.0448 -0.0284  0.3870
 7823SOL    HW135102   1.000   0.599  12.821 -0.9861  1.9260  0.0290
 7823SOL    HW235103   1.032   0.675  12.951  2.8263 -0.5866  1.8595
 7824SOL     OW35104   2.614   1.948   6.710  0.3677  0.0141  0.2224
 7824SOL    HW135105   2.642   1.856   6.707  1.9723  0.5040  0.1823
 7824SOL    HW235106   2.613   1.970   6.617 -0.7199  1.9246  0.6998
 7825SOL     OW35107   3.779   2.146   7.936  0.1453 -0.2236 -0.3175
 7825SOL    HW135108   3.823   2.083   7.993 -1.2625  0.2651  1.3180
 7825SOL    HW235109   3.854   2.197   7.908  2.3622 -1.6753  2.9542
 7826SOL     OW35110   0.140   3.138   4.727 -0.3598 -0.6440 -0.1594
 7826SOL    HW135111   0.218   3.186   4.699 -0.6584 -1.2461 -2.0581
 7826SOL    HW235112   0.180   3.085   4.796 -0.1616  1.9349  1.7121
 7827SOL     OW35113   2.610   2.758   7.275 -0.0411  0.4547 -0.5107
 7827SOL    HW135114   2.676   2.827   7.263  0.7980  0.1747  2.5141
 7827SOL    HW235115   2.541   2.800   7.223 -1.5178 -0.2779  0.8428
 7828SOL     OW35116   0.363   1.867   8.830  0.2721  0.0394  0.0950
 7828SOL    HW135117   0.299   1.905   8.769  0.1878  0.0457  0.1870
 7828SOL    HW235118   0.440   1.923   8.820 -0.8286  1.3351 -1.2613
 7829SOL     OW35119   2.247   0.125  15.232  0.2334  0.0270 -0.1339
 7829SOL    HW135120   2.302   0.197  15.202  1.5127 -0.4836  1.0133
 7829SOL    HW235121   2.312   0.061  15.260 -0.2457 -0.5962 -0.4447
 7830SOL     OW35122   3.470   1.785   5.901 -0.0550 -0.1611  0.0084
 7830SOL    HW135123   3.443   1.705   5.946 -0.7243  0.6753  1.0843
 7830SOL    HW235124   3.565   1.784   5.902 -0.0410  1.5910  0.4934
 7831SOL     OW35125   2.476   1.101  17.621  0.1027 -0.2872 -0.7539
 7831SOL    HW135126   2.486   1.035  17.552 -0.7878  1.0047 -2.1125
 7831SOL    HW235127   2.382   1.095  17.639  0.3557  0.3792  0.7547
 7832SOL     OW35128   0.679   2.512   3.422 -0.1710  0.0437  0.1936
 7832SOL    HW135129   0.613   2.524   3.354  1.9796  0.5958 -1.8004
 7832SOL    HW235130   0.629   2.503   3.503 -1.5677  1.8288 -0.4849
 7833SOL     OW35131   0.357   0.576  12.418 -0.0301  0.1492  0.6785
 7833SOL    HW135132   0.389   0.539  12.336  1.0084  0.6887  0.8432
 7833SOL    HW235133   0.262   0.571  12.406  0.1792  0.0931 -0.9376
 7834SOL     OW35134   3.696   3.162   9.567  0.5299  0.4496  0.4198
 7834SOL    HW135135   3.624   3.214   9.602  0.4596  0.8421 -0.3172
 7834SOL    HW235136   3.725   3.119   9.648  0.4646  0.0872  0.2503
 7835SOL     OW35137   1.256   4.635  16.372  0.5797 -0.1110  0.4314
 7835SOL    HW135138   1.228   4.605  16.459  0.0345  0.5183  0.4709
 7835SOL    HW235139   1.336   4.685  16.389  0.0158  2.2256 -3.7177
 7836SOL     OW35140   2.184   4.057   3.789 -0.2815 -0.7355  0.1519
 7836SOL    HW135141   2.245   4.124   3.759 -1.6575  0.4256 -0.0568
 7836SOL    HW235142   2.224   4.021   3.868 -0.6930 -1.5265 -0.0002
 7837SOL     OW35143   4.554   4.353  14.884 -0.2599 -0.8737  0.1030
 7837SOL    HW135144   4.583   4.443  14.893 -1.8796 -0.2230 -1.1396
 7837SOL    HW235145   4.533   4.347  14.791 -0.2284  1.2735 -0.0415
 7838SOL     OW35146   2.793   0.473   5.479 -0.2557  0.2874  0.2528
 7838SOL    HW135147   2.827   0.483   5.568 -1.9516  2.0302  0.7123
 7838SOL    HW235148   2.843   0.535   5.425  0.9981 -1.4914 -0.6342
 7839SOL     OW35149   3.165   4.580   7.461  0.2884 -0.5301  0.0232
 7839SOL    HW135150   3.206   4.645   7.519 -1.0311  0.3184 -0.0056
 7839SOL    HW235151   3.099   4.551   7.524 -1.7144  3.4332 -0.2751
 7840SOL     OW35152   4.335   1.120   7.949 -0.2526  0.6218  0.1267
 7840SOL    HW135153   4.289   1.104   7.867 -0.9280  2.5812  0.1213
 7840SOL    HW235154   4.343   1.030   7.981 -0.9192  0.8264  0.8677
 7841SOL     OW35155   4.269   4.629   8.035 -0.2374  0.6016  0.0398
 7841SOL    HW135156   4.300   4.574   7.963  2.5169  2.4542 -0.1691
 7841SOL    HW235157   4.233   4.702   7.984 -1.3327  1.6039  2.2252
 7842SOL     OW35158   3.603   0.262   8.349  0.0361 -0.2918  0.3780
 7842SOL    HW135159   3.629   0.196   8.285  1.2278  0.9086 -0.3764
 7842SOL    HW235160   3.694   0.284   8.369  0.5746 -0.8257 -1.4903
 7843SOL     OW35161   0.750   1.096  11.630  0.0150  0.9383  0.0116
 7843SOL    HW135162   0.755   1.144  11.548  1.7649  1.6452  0.5395
 7843SOL    HW235163   0.839   1.062  11.639 -0.2244 -0.2121 -2.0707
 7844SOL     OW35164   2.555   3.682   4.433 -0.3130  0.4074 -0.0691
 7844SOL    HW135165   2.573   3.668   4.526 -0.3107 -1.4784 -0.3605
 7844SOL    HW235166   2.531   3.774   4.443  1.1634  0.7014  0.8370
 7845SOL     OW35167   2.563   0.659   7.105  0.0014 -0.5110  0.0551
 7845SOL    HW135168   2.600   0.689   7.022 -1.2597 -0.9000 -0.6353
 7845SOL    HW235169   2.492   0.608   7.068 -0.1645  0.6190 -1.1760
 7846SOL     OW35170   3.621   4.048   8.840  0.2280 -0.4523 -0.0433
 7846SOL    HW135171   3.527   4.028   8.842  0.0396  0.3965 -0.0404
 7846SOL    HW235172   3.618   4.144   8.841 -1.7518 -0.5511  3.2208
 7847SOL     OW35173   3.614   0.900   4.778 -0.0718  0.0909  0.2170
 7847SOL    HW135174   3.689   0.871   4.830  0.0815  1.0704  0.5305
 7847SOL    HW235175   3.549   0.902   4.848  1.4496  0.4633  1.6210
 7848SOL     OW35176   3.189   2.491  14.389 -0.4029  0.9164  0.2729
 7848SOL    HW135177   3.104   2.495  14.344 -0.3774 -1.3434  0.0087
 7848SOL    HW235178   3.200   2.396  14.383 -0.9313  0.9152 -0.6003
 7849SOL     OW35179   3.010   0.096   6.341  0.7650 -0.1294 -0.4733
 7849SOL    HW135180   3.098   0.133   6.334  2.5853 -4.3487 -0.0386
 7849SOL    HW235181   3.032   0.004   6.358  2.1198  1.1407  4.6119
 7850SOL     OW35182   1.566   2.248   9.025  0.7316 -0.4419  0.0411
 7850SOL    HW135183   1.506   2.276   9.094 -0.0888  2.7880 -1.9986
 7850SOL    HW235184   1.565   2.327   8.971  3.3635  0.0599  0.7308
 7851SOL     OW35185   2.944   4.059   2.393  0.5751 -0.3072  0.0814
 7851SOL    HW135186   2.937   4.154   2.404  1.1934 -0.1448 -0.9913
 7851SOL    HW235187   3.015   4.035   2.453 -1.1439 -1.6557  1.6052
 7852SOL     OW35188   3.327   0.226   4.842  0.4561 -0.1630 -0.7407
 7852SOL    HW135189   3.241   0.207   4.804  0.2948 -0.8226 -0.0623
 7852SOL    HW235190   3.357   0.291   4.779 -0.6240 -0.8093 -1.9187
 7853SOL     OW35191   4.476   0.638   2.124 -0.9296 -0.0119  0.5212
 7853SOL    HW135192   4.432   0.582   2.188 -0.6010  0.3712  1.0796
 7853SOL    HW235193   4.473   0.728   2.158 -0.0590  1.3106 -2.9181
 7854SOL     OW35194   0.244   1.093   0.573  0.4582  0.1252 -0.3984
 7854SOL    HW135195   0.292   1.019   0.537  1.2153  0.3147  0.2198
 7854SOL    HW235196   0.250   1.160   0.505 -1.4020  2.1941  1.4656
 7855SOL     OW35197   0.108   4.122   7.036 -0.9161 -0.3131  0.1679
 7855SOL    HW135198   0.084   4.062   7.107  0.1833 -2.0393 -0.9253
 7855SOL    HW235199   0.040   4.111   6.969  1.1683 -3.4076 -1.4108
 7856SOL     OW35200   1.853   2.254   6.200  0.0620  0.3022  0.2619
 7856SOL    HW135201   1.788   2.202   6.153  0.4028 -0.8059  1.0154
 7856SOL    HW235202   1.905   2.178   6.227  0.0562 -0.1158 -0.9135
 7857SOL     OW35203   4.598   2.321   1.947 -0.0118 -0.4605  0.1043
 7857SOL    HW135204   4.635   2.235   1.928  0.6314 -0.8181  2.9540
 7857SOL    HW235205   4.536   2.294   2.015  0.8021 -0.3982  0.8732
 7858SOL     OW35206   1.266   3.542  13.800  0.5801 -0.6454  0.4208
 7858SOL    HW135207   1.241   3.452  13.778  0.1456 -0.5160  0.3816
 7858SOL    HW235208   1.183   3.581  13.828 -0.6848 -1.9259 -1.5213
 7859SOL     OW35209   1.087   0.690   6.303 -0.2641  0.2645  0.1911
 7859SOL    HW135210   1.037   0.619   6.264 -1.6072  2.1248 -1.4095
 7859SOL    HW235211   1.036   0.766   6.275  0.4563  1.7067  2.7751
 7860SOL     OW35212   0.415   2.751  13.597  0.7770  0.3837  0.1951
 7860SOL    HW135213   0.509   2.746  13.576  0.4356  2.8913 -1.9296
 7860SOL    HW235214   0.399   2.658  13.617 -0.1799  0.7048  0.8991
 7861SOL     OW35215   3.707   1.000   4.397  0.8014  0.2118  0.1079
 7861SOL    HW135216   3.657   1.015   4.477  0.4808 -1.6723  0.2601
 7861SOL    HW235217   3.730   1.091   4.377 -2.1167  1.1976  1.3238
 7862SOL     OW35218   1.995   3.492   3.807 -0.0003  0.4667  0.3417
 7862SOL    HW135219   2.060   3.516   3.741 -0.8007  2.1129  0.1584
 7862SOL    HW235220   1.970   3.581   3.829 -0.8093  0.4966 -0.7007
 7863SOL     OW35221   2.874   0.605  10.733  0.1590 -0.2909 -0.2507
 7863SOL    HW135222   2.883   0.686  10.683 -1.5827 -0.9283 -1.5990
 7863SOL    HW235223   2.872   0.530  10.674 -1.6087  0.0287 -0.6030
 7864SOL     OW35224   0.887   3.681  13.660  0.0790 -0.7779 -0.2893
 7864SOL    HW135225   0.820   3.748  13.670 -0.6811 -2.0756  3.3405
 7864SOL    HW235226   0.932   3.672  13.744  2.7529 -1.7613 -1.8293
 7865SOL     OW35227   4.165   4.652   3.859  0.0302 -0.4956 -0.4116
 7865SOL    HW135228   4.204   4.565   3.845  0.1299 -0.6760  0.9614
 7865SOL    HW235229   4.170   4.689   3.771  1.2712 -1.5999 -0.8045
 7866SOL     OW35230   4.566   0.139   2.282 -0.2765 -0.4754  0.0945
 7866SOL    HW135231   4.492   0.187   2.244  1.7238  1.5372 -1.3113
 7866SOL    HW235232   4.618   0.123   2.203 -0.5004  1.8930 -0.5520
 7867SOL     OW35233   3.344   0.461   8.480  0.6988  0.2853  0.2796
 7867SOL    HW135234   3.369   0.371   8.459  1.3363  1.1306 -2.5083
 7867SOL    HW235235   3.427   0.490   8.519 -0.1758  1.1479  1.5136
 7868SOL     OW35236   0.019   0.027   5.144 -0.5726  0.1636  0.3745
 7868SOL    HW135237   4.662   0.010   5.156 -0.3404  0.1381  2.1809
 7868SOL    HW235238   0.061   4.718   5.217 -0.7325 -2.1056 -0.9501
 7869SOL     OW35239   3.555   0.996  12.715 -0.0324 -0.5535 -0.1848
 7869SOL    HW135240   3.604   0.929  12.667 -3.3813 -2.4628 -0.9283
 7869SOL    HW235241   3.593   0.987  12.803 -1.2264  0.6538  0.4447
 7870SOL     OW35242   0.447   4.335   1.150 -0.2738 -0.2805  0.1118
 7870SOL    HW135243   0.483   4.422   1.168  0.5977 -0.0695 -2.6812
 7870SOL    HW235244   0.406   4.322   1.236  0.8169  0.5539  0.7730
 7871SOL     OW35245   1.781   0.805  13.206 -0.1785  0.0232  0.2628
 7871SOL    HW135246   1.790   0.751  13.284  0.4901  1.1009  0.9242
 7871SOL    HW235247   1.856   0.772  13.155 -0.5688 -0.1157 -0.2246
 7872SOL     OW35248   3.869   3.602   4.891 -0.2148 -0.4896 -0.2804
 7872SOL    HW135249   3.784   3.611   4.934  1.2196  1.2202  2.1895
 7872SOL    HW235250   3.916   3.632   4.968  2.2941 -0.2369 -1.9233
 7873SOL     OW35251   0.921   2.600   1.653  0.1252  0.3011  0.6078
 7873SOL    HW135252   0.923   2.660   1.578 -1.9804 -1.1661 -0.6235
 7873SOL    HW235253   0.886   2.523   1.608  0.3595  0.4706  0.1420
 7874SOL     OW35254   0.166   1.155   6.823 -0.0576  0.2683 -0.2929
 7874SOL    HW135255   0.207   1.197   6.747  2.9476  0.9096  1.6533
 7874SOL    HW235256   0.165   1.236   6.875  0.8858 -0.6998  1.2257
 7875SOL     OW35257   2.929   2.894   4.985  0.0399  0.2749 -0.0090
 7875SOL    HW135258   2.908   2.976   4.939 -2.9473 -1.5603 -1.9196
 7875SOL    HW235259   2.983   2.868   4.910 -0.5389 -0.2373 -0.2548
 7876SOL     OW35260   3.684   1.895   5.358 -0.3439 -0.8005 -0.2859
 7876SOL    HW135261   3.634   1.970   5.389 -1.9348 -1.3204 -1.6360
 7876SOL    HW235262   3.691   1.928   5.269  1.0932  0.1120  0.1701
 7877SOL     OW35263   3.848   1.337   9.436  0.2173  0.2439 -0.2082
 7877SOL    HW135264   3.820   1.380   9.517  1.4221 -0.1841  0.4254
 7877SOL    HW235265   3.911   1.398   9.398 -1.0886  1.3682 -0.6042
 7878SOL     OW35266   4.443   1.484   2.582 -0.5390 -0.2359 -0.0915
 7878SOL    HW135267   4.381   1.557   2.573 -1.5596 -1.0289  0.5211
 7878SOL    HW235268   4.393   1.418   2.630  1.4396 -1.2822  0.5242
 7879SOL     OW35269   0.374   1.892   9.468  0.2330  0.0209  0.4177
 7879SOL    HW135270   0.394   1.799   9.473 -0.9136 -0.1988  0.7708
 7879SOL    HW235271   0.282   1.892   9.494  0.3638  1.6756  0.9040
 7880SOL     OW35272   2.675   4.115   3.775  0.3512  0.4259 -0.4359
 7880SOL    HW135273   2.688   4.052   3.704  0.5209 -0.0060 -0.0186
 7880SOL    HW235274   2.649   4.051   3.842 -0.3410  0.3947 -0.7343
 7881SOL     OW35275   3.734   1.416   0.438  0.2419 -0.2595  0.0050
 7881SOL    HW135276   3.707   1.422   0.346 -0.5760  1.1715  0.3276
 7881SOL    HW235277   3.647   1.429   0.475  0.3143 -0.1867  0.1492
 7882SOL     OW35278   1.736   0.854   2.991 -0.3970  0.2644  0.4446
 7882SOL    HW135279   1.676   0.844   2.917  1.2887  0.7156 -0.9855
 7882SOL    HW235280   1.711   0.787   3.054  1.2682 -2.0145 -1.3279
 7883SOL     OW35281   3.602   0.501  11.004  0.1924  0.5198  0.1271
 7883SOL    HW135282   3.640   0.454  10.929  0.7534 -1.2753  1.5236
 7883SOL    HW235283   3.651   0.583  11.010  1.7949 -0.5161  1.5218
 7884SOL     OW35284   0.323   4.594   0.984 -0.5443  0.3086  0.0987
 7884SOL    HW135285   0.373   4.582   1.065  0.8871  0.9555 -0.6791
 7884SOL    HW235286   0.233   4.572   1.007 -0.7045  1.4872  0.5913
 7885SOL     OW35287   0.756   2.203   5.146  0.0619  0.7352 -0.4504
 7885SOL    HW135288   0.721   2.140   5.083  1.1226  0.4562 -0.7593
 7885SOL    HW235289   0.676   2.242   5.181  0.6353  1.5835 -0.0983
 7886SOL     OW35290   2.852   4.172   5.166 -0.0312  0.3753 -0.2881
 7886SOL    HW135291   2.900   4.255   5.162 -1.1656  1.0499  0.2192
 7886SOL    HW235292   2.763   4.205   5.165 -0.0572  0.2534 -1.7278
 7887SOL     OW35293   3.444   4.232   7.550  0.6986  0.0830 -0.0748
 7887SOL    HW135294   3.494   4.151   7.541 -1.4353 -1.0949 -1.2075
 7887SOL    HW235295   3.506   4.291   7.595  0.9390  1.7857 -2.6489
 7888SOL     OW35296   1.255   3.001   3.384 -0.5389 -1.0851 -0.7543
 7888SOL    HW135297   1.271   2.948   3.306 -1.7135 -1.0483 -1.0151
 7888SOL    HW235298   1.343   3.040   3.390  0.0885 -2.3144 -2.2030
 7889SOL     OW35299   2.001   0.451  17.673 -0.4192  0.4286  0.5145
 7889SOL    HW135300   2.083   0.473  17.717 -1.1622 -0.2512  2.2466
 7889SOL    HW235301   1.995   0.513  17.601 -1.7623 -0.1088  0.1691
 7890SOL     OW35302   0.071   3.129   8.202 -0.2100  0.2707  0.3806
 7890SOL    HW135303   4.716   3.099   8.202 -0.2446  0.3788 -0.0843
 7890SOL    HW235304   0.117   3.045   8.202  0.2683  0.5308  0.4733
 7891SOL     OW35305   0.896   0.269   7.366 -0.0176 -0.0173  0.7540
 7891SOL    HW135306   0.827   0.321   7.406 -0.0873  1.3589 -1.1298
 7891SOL    HW235307   0.862   0.181   7.350 -1.5620  0.6709  0.2148
 7892SOL     OW35308   0.529   3.899   8.365  0.1915  0.7494 -0.4548
 7892SOL    HW135309   0.514   3.974   8.307 -0.1632 -0.1174 -1.4969
 7892SOL    HW235310   0.441   3.888   8.402  0.8006 -1.7262  0.2685
 7893SOL     OW35311   1.874   0.098   2.941  0.3744 -0.3639  0.5495
 7893SOL    HW135312   1.804   0.110   3.006 -0.3409  0.6234 -0.3945
 7893SOL    HW235313   1.835   0.030   2.886 -1.3441  1.1107 -0.0658
 7894SOL     OW35314   2.856   2.897   8.441 -0.0729  0.6501  0.6457
 7894SOL    HW135315   2.816   2.974   8.401  0.4277  2.3566  3.4144
 7894SOL    HW235316   2.786   2.847   8.483 -0.3790 -0.3279 -1.0674
 7895SOL     OW35317   4.665   2.514   6.200  0.3732 -0.2009 -0.3123
 7895SOL    HW135318   4.732   2.452   6.227 -0.3419 -1.6793 -1.9350
 7895SOL    HW235319   4.716   2.594   6.210  0.4529 -0.2982  0.0585
 7896SOL     OW35320   2.368   4.720   0.736 -0.2023  0.6857 -0.5879
 7896SOL    HW135321   2.335   0.074   0.740  0.6751  1.0625 -1.6879
 7896SOL    HW235322   2.341   4.676   0.816  1.7071  0.9325  0.1945
 7897SOL     OW35323   1.141   3.523   4.648 -0.2472  0.5598  0.6802
 7897SOL    HW135324   1.090   3.599   4.621 -1.7836 -0.2557  1.2560
 7897SOL    HW235325   1.179   3.513   4.561 -0.6542  1.3909  0.4116
 7898SOL     OW35326   1.389   2.695   7.203  0.0002  1.2163  0.0709
 7898SOL    HW135327   1.401   2.649   7.120  0.0874  0.5259  0.4698
 7898SOL    HW235328   1.309   2.646   7.222 -0.2164  0.5634 -2.4639
 7899SOL     OW35329   0.921   1.860   7.290  0.1496 -0.1814 -0.4701
 7899SOL    HW135330   1.011   1.861   7.258  0.8186  1.0830  1.4676
 7899SOL    HW235331   0.931   1.852   7.385  2.0866 -0.7839 -0.7290
 7900SOL     OW35332   3.530   3.043   2.115 -0.3431  0.2562 -0.0802
 7900SOL    HW135333   3.537   3.029   2.209  1.0597  1.0428 -0.0728
 7900SOL    HW235334   3.438   3.070   2.123 -0.6019  0.0901 -2.5236
 7901SOL     OW35335   1.252   3.878   4.409  0.0284 -0.2745  0.0752
 7901SOL    HW135336   1.328   3.823   4.390 -0.2263 -0.4987 -0.3051
 7901SOL    HW235337   1.291   3.931   4.478 -1.8995 -0.3146  1.2002
 7902SOL     OW35338   2.092   4.271   6.538  0.3133 -0.0507 -0.0910
 7902SOL    HW135339   2.044   4.207   6.486 -2.0259  1.2840  0.4118
 7902SOL    HW235340   2.037   4.349   6.531  0.0228 -0.1208  1.3953
 7903SOL     OW35341   1.919   3.866   4.148  1.1003  0.4386 -0.3049
 7903SOL    HW135342   1.947   3.810   4.220  0.0727  0.5074  0.1491
 7903SOL    HW235343   1.858   3.925   4.193  1.2758  2.1148 -2.2349
 7904SOL     OW35344   2.089   3.536   4.268  0.1220 -0.1146 -0.0774
 7904SOL    HW135345   2.045   3.535   4.353 -0.4686  1.2873 -0.3563
 7904SOL    HW235346   2.130   3.623   4.267 -1.2140  0.5090 -0.1933
 7905SOL     OW35347   3.722   2.357   9.200 -0.6347  0.3958 -0.6879
 7905SOL    HW135348   3.667   2.376   9.276  0.9348  0.3575  0.4739
 7905SOL    HW235349   3.741   2.449   9.181 -0.7422  0.7987  1.1555
 7906SOL     OW35350   2.430   2.939   1.769 -0.4573 -0.0715  0.0273
 7906SOL    HW135351   2.456   2.982   1.688  0.6058  1.4336  1.1551
 7906SOL    HW235352   2.509   2.949   1.823 -0.8077  1.5024  0.2662
 7907SOL     OW35353   1.748   1.109  13.135  0.1188 -0.3397  0.3318
 7907SOL    HW135354   1.731   1.015  13.148 -0.6026 -0.2360  0.1342
 7907SOL    HW235355   1.834   1.124  13.174 -0.6530  1.7450  1.2069
 7908SOL     OW35356   4.409   1.377   3.628  0.1337 -0.1841 -0.6972
 7908SOL    HW135357   4.437   1.469   3.636  4.1912 -1.3812 -1.1253
 7908SOL    HW235358   4.434   1.343   3.542 -0.8512 -0.7581 -0.7515
 7909SOL     OW35359   3.609   0.819   5.157 -0.1841 -0.3442 -0.1187
 7909SOL    HW135360   3.583   0.911   5.155 -0.3370 -0.3627  0.7898
 7909SOL    HW235361   3.645   0.815   5.246  2.1193  1.5358 -0.9689
 7910SOL     OW35362   3.039   3.572   5.823 -0.4098 -0.2382 -0.1548
 7910SOL    HW135363   3.060   3.493   5.774  1.0730  0.2116 -0.2544
 7910SOL    HW235364   3.120   3.612   5.854  0.1175 -0.8535 -0.7448
 7911SOL     OW35365   1.120   2.058  14.341  0.4120  0.1477 -0.2746
 7911SOL    HW135366   1.124   2.133  14.281 -1.7841  0.7595  0.3105
 7911SOL    HW235367   1.165   1.996  14.284  0.4477  1.2366 -1.4327
 7912SOL     OW35368   3.219   4.388   2.411 -0.4336  0.4217 -0.6111
 7912SOL    HW135369   3.155   4.458   2.397 -3.6299 -2.5677 -1.0067
 7912SOL    HW235370   3.298   4.437   2.432  0.6153 -1.9472  0.9407
 7913SOL     OW35371   2.103   1.218  13.578  0.3790 -0.4801 -0.3599
 7913SOL    HW135372   2.165   1.166  13.629  3.1440  1.7229 -1.4980
 7913SOL    HW235373   2.155   1.222  13.498 -0.3001 -0.1989 -0.7891
 7914SOL     OW35374   3.961   1.961   2.043  0.1066 -0.2921 -0.5437
 7914SOL    HW135375   3.905   1.886   2.025  0.5245 -0.3370 -1.7113
 7914SOL    HW235376   4.005   1.928   2.121  0.5859 -2.0437 -1.5679
 7915SOL     OW35377   0.774   1.869   4.898  0.4545 -0.4302  0.1533
 7915SOL    HW135378   0.801   1.827   4.816  1.7254 -0.5235  0.6116
 7915SOL    HW235379   0.823   1.949   4.884 -0.1438  0.0093  0.5611
 7916SOL     OW35380   2.364   0.786   3.823  0.5190 -0.1051  0.0482
 7916SOL    HW135381   2.357   0.788   3.727  2.1228 -0.8400 -0.0921
 7916SOL    HW235382   2.330   0.699   3.845 -0.0740 -0.2333 -1.3809
 7917SOL     OW35383   3.886   1.747  15.995 -0.0803  0.0449 -0.2627
 7917SOL    HW135384   3.945   1.725  15.923 -0.8295  0.4452 -0.9892
 7917SOL    HW235385   3.947   1.722  16.065 -0.1561 -2.3540 -1.0442
 7918SOL     OW35386   0.390   3.809  11.621  0.0997 -0.1537  0.4902
 7918SOL    HW135387   0.453   3.827  11.551 -1.1474  0.9663 -0.3516
 7918SOL    HW235388   0.316   3.794  11.563 -1.3558 -1.3127  2.6527
 7919SOL     OW35389   0.813   2.673   4.524 -0.0127  0.5665  0.0782
 7919SOL    HW135390   0.804   2.663   4.619 -0.5995 -0.7037 -0.1104
 7919SOL    HW235391   0.908   2.665   4.516 -0.2857 -0.3635 -2.1214
 7920SOL     OW35392   2.399   0.616   7.668  0.1884  0.2331 -0.0062
 7920SOL    HW135393   2.318   0.566   7.655  0.2016  0.2915 -0.2996
 7920SOL    HW235394   2.387   0.674   7.594 -1.4311 -2.1256 -1.5990
 7921SOL     OW35395   2.540   0.975   6.208  0.0301 -0.0915 -0.0079
 7921SOL    HW135396   2.546   0.937   6.120 -0.1960  1.3703 -0.6561
 7921SOL    HW235397   2.446   0.970   6.219  0.0885 -0.5232  0.3090
 7922SOL     OW35398   3.405   3.228   8.378 -0.8892  0.1896 -0.5968
 7922SOL    HW135399   3.375   3.204   8.466  0.9723 -0.2652 -0.1026
 7922SOL    HW235400   3.364   3.315   8.378 -0.8018  0.2291 -2.4136
 7923SOL     OW35401   4.386   3.084   3.875 -0.7427  0.2970 -0.6872
 7923SOL    HW135402   4.396   3.132   3.793 -1.3226  0.4151 -0.6952
 7923SOL    HW235403   4.459   3.120   3.926 -1.0143  0.0946 -0.1509
 7924SOL     OW35404   3.823   2.984   6.143 -0.1985  0.5349 -0.1227
 7924SOL    HW135405   3.871   3.049   6.091  1.0641  1.1734  1.8627
 7924SOL    HW235406   3.791   2.934   6.068  2.7544  0.8555 -1.5941
 7925SOL     OW35407   4.293   3.361  15.274  0.0350  0.4472 -0.4690
 7925SOL    HW135408   4.301   3.266  15.285  0.7268  0.2127 -3.0133
 7925SOL    HW235409   4.274   3.387  15.364 -1.4695 -1.8474 -0.1370
 7926SOL     OW35410   1.348   3.282  15.791  0.3193  0.1670 -0.3098
 7926SOL    HW135411   1.394   3.348  15.842 -1.2127  0.2343  0.9981
 7926SOL    HW235412   1.385   3.304  15.705  0.3399 -2.0094 -0.8713
 7927SOL     OW35413   3.073   1.698  17.035  0.6995 -0.5650 -0.4195
 7927SOL    HW135414   2.993   1.751  17.033  1.2018  0.1632 -1.5678
 7927SOL    HW235415   3.067   1.656  16.948 -0.3168 -0.5613 -0.3518
 7928SOL     OW35416   2.648   3.172   6.577 -0.4938  0.3107 -0.5756
 7928SOL    HW135417   2.650   3.233   6.651 -0.5501  1.1593 -1.2660
 7928SOL    HW235418   2.672   3.233   6.508 -1.9372 -0.0354 -1.3963
 7929SOL     OW35419   1.515   3.853   7.703 -0.4277 -0.0023  0.3449
 7929SOL    HW135420   1.518   3.932   7.757  0.9567  0.3605 -0.2776
 7929SOL    HW235421   1.484   3.792   7.770  2.2930  0.7558  2.3032
 7930SOL     OW35422   2.448   3.802  17.479 -0.2160 -0.4099 -0.0193
 7930SOL    HW135423   2.385   3.868  17.505  0.0194  0.0376 -0.5841
 7930SOL    HW235424   2.525   3.829  17.530 -2.5102  0.6164  2.8958
 7931SOL     OW35425   1.490   2.701   8.557  0.2906  0.2830 -0.1139
 7931SOL    HW135426   1.498   2.606   8.559 -0.8011  0.2024  0.2560
 7931SOL    HW235427   1.395   2.709   8.565  0.0816 -0.5335 -1.7933
 7932SOL     OW35428   2.256   1.473  12.290  0.0686 -0.0005  0.6536
 7932SOL    HW135429   2.321   1.497  12.356 -1.3548 -0.4216  2.2365
 7932SOL    HW235430   2.279   1.529  12.216 -1.5897 -2.3019 -1.6193
 7933SOL     OW35431   2.608   2.194   7.967  0.2947  0.2856  0.1191
 7933SOL    HW135432   2.575   2.209   7.878  1.9314 -0.0443 -0.5519
 7933SOL    HW235433   2.560   2.112   7.983  1.7830 -0.9482 -1.7269
 7934SOL     OW35434   3.270   2.305  16.078 -0.0033  0.0358  0.3136
 7934SOL    HW135435   3.333   2.238  16.107 -0.3097  0.8648  2.8158
 7934SOL    HW235436   3.196   2.263  16.122  1.4539  0.1843  2.9114
 7935SOL     OW35437   3.249   2.763   8.016 -0.4134 -0.4450  0.0255
 7935SOL    HW135438   3.205   2.843   7.987 -0.1151 -0.0318  0.6906
 7935SOL    HW235439   3.195   2.697   7.973 -0.5681  0.4338 -1.1229
 7936SOL     OW35440   2.152   0.808  16.767 -0.0203 -0.1342 -0.5221
 7936SOL    HW135441   2.211   0.766  16.705  0.2542  1.2783 -1.2248
 7936SOL    HW235442   2.066   0.799  16.726 -0.0774 -0.0893 -0.4114
 7937SOL     OW35443   2.693   1.136   7.293  0.0665 -0.2106  0.0349
 7937SOL    HW135444   2.628   1.145   7.223  0.1098 -2.0146 -0.2309
 7937SOL    HW235445   2.661   1.192   7.363 -0.1659  1.5795 -1.5078
 7938SOL     OW35446   1.227   1.292   8.818  0.4032  0.0252  0.0798
 7938SOL    HW135447   1.178   1.249   8.889 -0.8889  1.0454 -0.2010
 7938SOL    HW235448   1.168   1.367   8.813  1.0119  0.3604 -2.0016
 7939SOL     OW35449   1.757   4.456   9.315  0.3777  0.2627  0.2131
 7939SOL    HW135450   1.713   4.517   9.256  2.7545  1.1025 -0.6829
 7939SOL    HW235451   1.841   4.445   9.270 -0.0782 -2.0907 -0.0838
 7940SOL     OW35452   2.748   2.947   6.994  0.2097 -0.1817  0.5830
 7940SOL    HW135453   2.719   2.860   7.020  0.4423 -0.8418 -1.3912
 7940SOL    HW235454   2.776   2.943   6.903 -0.8030 -2.2684  0.3590
 7941SOL     OW35455   3.252   1.299  17.286  0.2495  0.0004  0.2320
 7941SOL    HW135456   3.163   1.323  17.260  1.1628  0.3989 -2.4917
 7941SOL    HW235457   3.304   1.363  17.239 -0.9271 -0.9922 -2.4209
 7942SOL     OW35458   3.297   0.862   7.202  0.0763 -0.4488 -0.2242
 7942SOL    HW135459   3.354   0.785   7.203  1.5797  0.6480 -0.9166
 7942SOL    HW235460   3.347   0.916   7.141  3.7569 -1.8594  1.5023
 7943SOL     OW35461   3.315   1.517   3.126  0.7628 -0.1996  0.2379
 7943SOL    HW135462   3.407   1.541   3.119  0.3108  1.7505  1.3246
 7943SOL    HW235463   3.274   1.596   3.093 -3.4083 -2.1114  0.8274
 7944SOL     OW35464   3.914   0.566  11.040 -0.4886  0.2365  0.9712
 7944SOL    HW135465   4.006   0.575  11.065 -0.6615  1.2351  1.2444
 7944SOL    HW235466   3.886   0.490  11.091 -1.7484 -0.1039 -0.2240
 7945SOL     OW35467   1.452   2.765  11.023 -0.1487 -0.3568  0.3873
 7945SOL    HW135468   1.380   2.773  11.085  0.8298  0.0991  1.4692
 7945SOL    HW235469   1.404   2.760  10.941 -1.1906 -0.4455  1.0078
 7946SOL     OW35470   4.592   1.366  15.383 -0.4558  0.0792 -0.4924
 7946SOL    HW135471   4.647   1.407  15.316 -0.5689  0.3981 -0.3892
 7946SOL    HW235472   4.639   1.376  15.466 -0.2057 -0.1677 -0.6034
 7947SOL     OW35473   0.893   2.572   2.331 -0.0970 -0.0917  0.0403
 7947SOL    HW135474   0.921   2.575   2.239 -1.4800 -1.7741 -0.4348
 7947SOL    HW235475   0.800   2.558   2.311 -0.9054  3.2497  1.5147
 7948SOL     OW35476   0.929   2.484  15.074  0.0475  0.6640  0.5912
 7948SOL    HW135477   0.919   2.502  14.980  1.4172  2.4383  0.7867
 7948SOL    HW235478   0.969   2.560  15.114  0.4240 -0.3874  2.2066
 7949SOL     OW35479   4.582   2.465   4.577  0.3662 -0.2396  0.1958
 7949SOL    HW135480   4.543   2.482   4.491 -1.7441 -0.1193  1.1625
 7949SOL    HW235481   4.560   2.372   4.586 -1.9671  0.5367  2.4609
 7950SOL     OW35482   3.114   2.508   5.568 -0.4116  0.3871  1.1686
 7950SOL    HW135483   3.116   2.412   5.565  1.1339  0.4789 -0.7033
 7950SOL    HW235484   3.093   2.520   5.661  0.7182  3.5863  0.9918
 7951SOL     OW35485   2.238   4.068   1.734 -0.6772 -0.0235 -0.4121
 7951SOL    HW135486   2.252   4.058   1.828 -0.1759  3.3990 -0.1423
 7951SOL    HW235487   2.202   3.981   1.717  1.1360 -0.6510 -1.0606
 7952SOL     OW35488   4.100   0.369  15.299 -0.5129  0.0851  0.0338
 7952SOL    HW135489   4.154   0.338  15.372 -0.3021 -0.7937 -0.5043
 7952SOL    HW235490   4.125   0.309  15.229  0.5055  1.1869 -0.5601
 7953SOL     OW35491   1.517   0.027   8.246  0.0524  0.0776 -0.1738
 7953SOL    HW135492   1.567   4.682   8.248 -0.9334 -0.5035  0.5145
 7953SOL    HW235493   1.504   0.047   8.338 -0.8874 -2.3115  0.2038
 7954SOL     OW35494   2.307   0.018   9.156 -0.5260  0.2284 -0.3808
 7954SOL    HW135495   2.257   0.066   9.222 -1.0291 -1.4728  0.4802
 7954SOL    HW235496   2.381   4.721   9.206 -1.6937  1.9906  2.5191
 7955SOL     OW35497   0.680   4.195   6.060  0.3792  0.0261 -0.8288
 7955SOL    HW135498   0.637   4.181   6.144  1.0591  3.0485  0.0181
 7955SOL    HW235499   0.753   4.251   6.087  0.7569 -0.6859 -0.3935
 7956SOL     OW35500   0.621   4.066  16.701 -0.2607 -0.6028 -0.0898
 7956SOL    HW135501   0.539   4.038  16.743  0.2190 -2.6381 -0.5436
 7956SOL    HW235502   0.615   4.034  16.611  0.8139  1.3757 -0.8655
 7957SOL     OW35503   3.867   2.709  12.502 -0.5118  0.2288  0.3223
 7957SOL    HW135504   3.873   2.614  12.514  3.5501  0.4265 -0.0820
 7957SOL    HW235505   3.864   2.708  12.406 -0.2864  3.0189  0.2826
 7958SOL     OW35506   2.092   0.473   6.270 -0.6541 -0.1157 -0.0092
 7958SOL    HW135507   2.128   0.451   6.184 -1.4230 -0.9373 -0.1230
 7958SOL    HW235508   2.115   0.565   6.284 -0.5977 -0.6234  3.2780
 7959SOL     OW35509   0.378   0.445  17.232  0.9435  0.0741  0.0864
 7959SOL    HW135510   0.464   0.488  17.237  1.3288 -0.5485 -1.3607
 7959SOL    HW235511   0.390   0.405  17.146 -1.3825 -0.0032 -0.2021
 7960SOL     OW35512   1.378   2.390   7.333 -0.9082  0.1759 -0.1226
 7960SOL    HW135513   1.319   2.363   7.403 -1.4411  2.8187  0.4477
 7960SOL    HW235514   1.354   2.332   7.261 -0.4895 -0.9946  0.6710
 7961SOL     OW35515   2.517   2.749  15.224  0.6937  0.2346  0.4025
 7961SOL    HW135516   2.548   2.765  15.135 -0.8455  0.3041 -0.1230
 7961SOL    HW235517   2.446   2.813  15.221  1.1795  0.7053 -0.9483
 7962SOL     OW35518   1.424   2.274   5.192 -0.0413  0.3605 -0.6032
 7962SOL    HW135519   1.460   2.203   5.139 -0.7979 -0.4406 -0.0356
 7962SOL    HW235520   1.331   2.251   5.183  0.4805 -1.0948 -2.3100
 7963SOL     OW35521   1.956   0.186  11.958 -0.1778  1.0055 -0.1764
 7963SOL    HW135522   1.945   0.134  12.038 -1.4482 -0.2783 -1.1774
 7963SOL    HW235523   1.942   0.111  11.901 -0.6914  1.6813 -0.9404
 7964SOL     OW35524   3.385   0.689   5.967 -0.0410 -0.3912 -0.3104
 7964SOL    HW135525   3.295   0.661   5.984 -0.1047  0.0205  0.0136
 7964SOL    HW235526   3.415   0.649   5.885 -0.6240 -0.1033 -0.6710
 7965SOL     OW35527   0.003   0.343  15.689  0.1419 -0.3392  0.2350
 7965SOL    HW135528   0.042   0.287  15.756 -0.2695 -0.4128  0.4149
 7965SOL    HW235529   0.055   0.330  15.611 -1.1584  0.2532 -0.7358
 7966SOL     OW35530   4.240   1.889   8.281  0.6848  0.4743  0.7326
 7966SOL    HW135531   4.194   1.879   8.364 -1.7680  0.8670 -0.5401
 7966SOL    HW235532   4.167   1.886   8.218  1.8644 -2.4713 -0.5132
 7967SOL     OW35533   4.612   1.996  10.770  0.0118 -0.8830 -0.1426
 7967SOL    HW135534   4.553   2.054  10.723 -2.1041 -1.4007  1.8560
 7967SOL    HW235535   4.695   2.041  10.755  0.2707 -0.7718  1.5960
 7968SOL     OW35536   3.010   4.106   5.645  0.5421 -0.6965  0.4028
 7968SOL    HW135537   2.924   4.122   5.606  1.4037  0.7517 -0.8929
 7968SOL    HW235538   2.996   4.023   5.691 -1.3377 -0.1585  0.7920
 7969SOL     OW35539   0.213   4.652   8.581 -0.2192 -0.6225 -0.0345
 7969SOL    HW135540   0.272   4.582   8.555  0.4391  0.3428 -1.1136
 7969SOL    HW235541   0.213   4.710   8.505  0.9228  0.2494  0.6274
 7970SOL     OW35542   1.160   1.383   3.338 -0.4288  0.1263 -0.1665
 7970SOL    HW135543   1.195   1.295   3.350 -2.4957 -0.6131  0.4636
 7970SOL    HW235544   1.163   1.420   3.427 -0.0831  0.8807 -0.4875
 7971SOL     OW35545   2.322   0.952   2.651  0.2146 -0.3732  0.3478
 7971SOL    HW135546   2.249   0.981   2.596  0.3275 -4.2193 -1.8781
 7971SOL    HW235547   2.285   0.959   2.739  0.4643  0.4414  0.3845
 7972SOL     OW35548   3.121   2.270   0.396  0.1418  0.0249  0.2609
 7972SOL    HW135549   3.211   2.270   0.363 -0.0330 -1.5927 -0.2065
 7972SOL    HW235550   3.101   2.177   0.405  2.2994 -0.3098  1.7871
 7973SOL     OW35551   3.742   0.029   5.864  0.5525 -0.3366  0.2608
 7973SOL    HW135552   3.802   4.718   5.920  0.4266 -2.5329 -1.4527
 7973SOL    HW235553   3.749   4.709   5.786 -0.2009 -0.1838  0.0747
 7974SOL     OW35554   4.406   2.600   7.494  0.4934  0.3271  0.0193
 7974SOL    HW135555   4.380   2.508   7.497  0.9143  0.2191  0.2883
 7974SOL    HW235556   4.333   2.630   7.548  0.5220  0.8380 -0.2232
 7975SOL     OW35557   4.485   3.856  10.746 -0.3061  0.0914  0.5127
 7975SOL    HW135558   4.497   3.823  10.836  0.9179  1.3266  0.7858
 7975SOL    HW235559   4.515   3.946  10.758  1.4431 -0.5463  0.8482
 7976SOL     OW35560   4.155   1.601   0.858 -0.1877  0.2814  0.0592
 7976SOL    HW135561   4.229   1.543   0.838  1.2078  2.1277 -0.2038
 7976SOL    HW235562   4.088   1.565   0.800  0.7506 -2.1558  0.4850
 7977SOL     OW35563   1.071   0.989  13.758  0.2878 -0.4441 -0.2674
 7977SOL    HW135564   1.129   1.030  13.822  0.2508 -0.0240 -0.4977
 7977SOL    HW235565   1.031   1.072  13.730  2.2467  0.5849 -0.0213
 7978SOL     OW35566   0.008   0.511   4.238  0.3517  0.0856  0.3562
 7978SOL    HW135567   0.086   0.555   4.272  0.2141 -0.8715  1.9329
 7978SOL    HW235568   0.041   0.475   4.155  0.2726 -0.4692  0.5620
 7979SOL     OW35569   2.521   1.652  14.369  0.3505  0.8456 -0.5163
 7979SOL    HW135570   2.614   1.635  14.385  0.1169 -0.2266 -0.3011
 7979SOL    HW235571   2.515   1.642  14.274  2.8599  1.6930 -0.7626
 7980SOL     OW35572   4.370   4.585  15.331  0.7349 -0.5541 -0.2940
 7980SOL    HW135573   4.307   4.529  15.285  2.5899 -1.1071 -2.1435
 7980SOL    HW235574   4.362   4.563  15.424  1.2291 -0.7454 -0.2973
 7981SOL     OW35575   2.694   3.852   9.385 -0.3333 -0.3862 -0.7531
 7981SOL    HW135576   2.754   3.825   9.314  1.9639 -1.1191  1.4660
 7981SOL    HW235577   2.751   3.887   9.454 -0.2594 -0.1699 -0.9237
 7982SOL     OW35578   2.405   1.355   6.694  0.2653  0.3823  0.0849
 7982SOL    HW135579   2.438   1.370   6.605  2.0970  0.3682  0.7756
 7982SOL    HW235580   2.489   1.362   6.738  1.6336  1.5905 -2.7139
 7983SOL     OW35581   1.846   4.407   5.532 -0.3742 -0.2499  0.4636
 7983SOL    HW135582   1.924   4.420   5.478 -0.3711 -3.5027 -0.2787
 7983SOL    HW235583   1.882   4.439   5.615  0.1092 -0.7026  0.4295
 7984SOL     OW35584   3.831   4.036   5.653  0.2173 -0.1319  0.0263
 7984SOL    HW135585   3.883   4.006   5.578 -0.2213  2.1221 -1.1912
 7984SOL    HW235586   3.862   4.126   5.661 -2.0635  0.7257 -0.7649
 7985SOL     OW35587   0.835   1.294   9.168 -0.0226  0.2066 -0.0989
 7985SOL    HW135588   0.791   1.222   9.123 -2.9439  1.1883  1.1819
 7985SOL    HW235589   0.797   1.369   9.123  0.2770  0.7685  0.5785
 7986SOL     OW35590   1.087   1.936   4.960  0.0466  0.6448 -0.1277
 7986SOL    HW135591   1.111   1.862   4.905  1.0254  0.0195  1.1393
 7986SOL    HW235592   1.045   2.001   4.903  0.5949 -0.6664 -1.9984
 7987SOL     OW35593   0.174   1.357  16.931 -0.0872 -0.0100  0.4148
 7987SOL    HW135594   0.233   1.282  16.927  0.1879  0.0742  2.9777
 7987SOL    HW235595   0.112   1.337  16.861 -0.3109  2.5220 -0.1244
 7988SOL     OW35596   4.022   4.149   3.237 -0.4782  0.0374  0.2578
 7988SOL    HW135597   4.094   4.110   3.286  0.9676  1.2394 -0.9028
 7988SOL    HW235598   3.956   4.133   3.304  1.3712  2.6427  2.7382
 7989SOL     OW35599   3.728   1.553  16.768 -0.3412  0.5591  0.1341
 7989SOL    HW135600   3.823   1.545  16.771 -0.5847 -1.7258  1.0875
 7989SOL    HW235601   3.716   1.531  16.675 -2.4586 -1.7735  0.9821
 7990SOL     OW35602   2.068   3.286   9.284  0.1588  0.1857 -0.8223
 7990SOL    HW135603   2.036   3.328   9.364  0.8301 -1.1788  0.1629
 7990SOL    HW235604   2.159   3.315   9.278 -0.0441  0.5443 -2.2394
 7991SOL     OW35605   3.855   0.937  12.814 -0.1799 -0.1460 -1.0421
 7991SOL    HW135606   3.843   0.928  12.719 -1.8189 -0.9878 -0.7576
 7991SOL    HW235607   3.888   0.849  12.833  1.3876  0.8266  0.6773
 7992SOL     OW35608   3.925   2.809   6.643 -0.5296  0.6768 -0.5552
 7992SOL    HW135609   3.900   2.854   6.563 -1.3538  2.4911  0.7167
 7992SOL    HW235610   3.932   2.720   6.609 -2.7641  0.4980 -0.5920
 7993SOL     OW35611   2.679   0.819  11.618 -0.2586  0.1458 -0.3082
 7993SOL    HW135612   2.592   0.859  11.626  0.9219  2.4351  0.9553
 7993SOL    HW235613   2.706   0.808  11.527 -1.4530  0.8942 -0.7633
 7994SOL     OW35614   4.553   0.093  10.339  0.2452  0.5529  0.0756
 7994SOL    HW135615   4.640   0.131  10.327 -0.0212  0.7696 -1.1565
 7994SOL    HW235616   4.552   0.053  10.426  1.1634  2.0056  0.7691
 7995SOL     OW35617   2.621   0.422   5.220 -0.3533 -0.1478  0.2058
 7995SOL    HW135618   2.546   0.370   5.248 -0.8453  0.2665 -0.3373
 7995SOL    HW235619   2.619   0.400   5.127 -2.4927  2.0257 -0.2520
 7996SOL     OW35620   3.282   2.256   1.659 -0.6160  0.2232 -0.1818
 7996SOL    HW135621   3.292   2.351   1.669  2.6141 -0.3402  2.3686
 7996SOL    HW235622   3.242   2.253   1.573  0.5994  2.1995 -0.8094
 7997SOL     OW35623   2.167   3.564   3.564  0.1317 -0.5938  0.1557
 7997SOL    HW135624   2.224   3.639   3.544 -1.6941  0.3791 -1.4464
 7997SOL    HW235625   2.233   3.504   3.530  1.4032  0.7691  0.1923
 7998SOL     OW35626   3.200   3.585   9.963  0.1251  0.4017  0.5832
 7998SOL    HW135627   3.174   3.658   9.908 -1.8436 -0.9962 -0.3381
 7998SOL    HW235628   3.280   3.554   9.920  0.6553 -0.8943  2.4975
 7999SOL     OW35629   2.339   4.303   6.771  0.7836  0.3703 -0.6734
 7999SOL    HW135630   2.345   4.212   6.799  0.2215  0.7773  0.7738
 7999SOL    HW235631   2.371   4.356   6.844  1.4646  0.1582 -0.8182
 8000SOL     OW35632   1.174   0.696   2.920 -0.0085 -0.1884 -0.1316
 8000SOL    HW135633   1.252   0.701   2.975 -0.3155  3.1110  0.0379
 8000SOL    HW235634   1.174   0.785   2.885  0.5709  0.2012  0.8475
 8001SOL     OW35635   0.251   3.357   9.662 -0.0663 -0.3347 -0.0427
 8001SOL    HW135636   0.271   3.450   9.672 -1.7831  0.0816 -0.4821
 8001SOL    HW235637   0.168   3.354   9.709 -0.0861 -0.9229 -0.1148
 8002SOL     OW35638   0.252   3.576   6.008 -0.3666  0.5656 -0.2310
 8002SOL    HW135639   0.211   3.641   5.951 -0.6845 -0.7057 -1.4527
 8002SOL    HW235640   0.201   3.586   6.088  1.9974 -1.5009  1.5167
 8003SOL     OW35641   3.329   1.571   8.078  0.9155  0.5973 -0.8243
 8003SOL    HW135642   3.384   1.575   8.156  1.0176 -0.5140 -0.8480
 8003SOL    HW235643   3.278   1.652   8.079  0.2795  0.1756 -0.0116
 8004SOL     OW35644   4.009   2.863   9.227  0.2237 -0.4814  0.3663
 8004SOL    HW135645   3.936   2.829   9.278  0.1890 -3.3418 -1.6007
 8004SOL    HW235646   4.081   2.813   9.266 -0.2369 -0.2942  1.4617
 8005SOL     OW35647   3.003   1.697   0.801  0.1459 -0.7062 -0.0475
 8005SOL    HW135648   2.909   1.678   0.797  0.4764 -2.3043 -0.2018
 8005SOL    HW235649   2.997   1.786   0.837 -1.3152  0.5098 -3.2579
 8006SOL     OW35650   2.327   2.480   6.061 -0.0436 -0.0975  0.3479
 8006SOL    HW135651   2.292   2.568   6.069 -1.5128 -0.7058  0.5853
 8006SOL    HW235652   2.315   2.454   6.152  1.2558  1.2078  0.8993
 8007SOL     OW35653   1.699   2.159   9.494  0.1379 -0.0492 -0.3189
 8007SOL    HW135654   1.660   2.245   9.509  0.8282  0.4809 -1.5089
 8007SOL    HW235655   1.624   2.103   9.513  0.3203 -0.4910 -0.9137
 8008SOL     OW35656   1.572   4.326  15.594 -0.1847 -0.1954  0.0504
 8008SOL    HW135657   1.652   4.302  15.548 -0.2827 -0.2938 -0.0676
 8008SOL    HW235658   1.520   4.249  15.570  1.2172 -0.9225 -0.6083
 8009SOL     OW35659   1.914   2.112   4.926  0.8912  0.2584 -0.5445
 8009SOL    HW135660   1.856   2.069   4.863 -0.2653 -1.0550  1.4287
 8009SOL    HW235661   1.974   2.159   4.867  1.6425 -1.6428 -1.2750
 8010SOL     OW35662   3.354   3.992   2.844  0.3729 -0.5461  0.0119
 8010SOL    HW135663   3.409   3.917   2.868  2.7900  1.7217  1.5141
 8010SOL    HW235664   3.288   3.953   2.786 -0.6084  0.3324  0.5521
 8011SOL     OW35665   2.286   2.572   2.428 -0.0612  0.9687 -0.6703
 8011SOL    HW135666   2.197   2.595   2.402  0.1538  2.8400  0.1932
 8011SOL    HW235667   2.265   2.499   2.486  2.4533 -2.0196 -3.5097
 8012SOL     OW35668   1.778   0.284  12.610  0.5213  0.1467  0.5470
 8012SOL    HW135669   1.730   0.216  12.563 -0.3467  1.8321 -1.0193
 8012SOL    HW235670   1.778   0.267  12.704 -0.4664  0.9456  0.6920
 8013SOL     OW35671   3.385   2.638   8.847 -0.5856  0.1845 -0.2525
 8013SOL    HW135672   3.302   2.682   8.864 -0.1729  1.0617 -0.4947
 8013SOL    HW235673   3.390   2.587   8.928  2.4264 -1.0797 -1.2600
 8014SOL     OW35674   3.748   3.199   8.959  0.5104 -0.3633  0.4080
 8014SOL    HW135675   3.799   3.144   9.018  0.0893  0.3405  1.4117
 8014SOL    HW235676   3.805   3.276   8.958 -0.2255  0.2121  2.0554
 8015SOL     OW35677   0.500   0.544   3.159 -0.0417  0.0698 -0.2845
 8015SOL    HW135678   0.405   0.537   3.158 -0.0380 -0.2103  1.5918
 8015SOL    HW235679   0.513   0.602   3.234 -0.2772  1.5791 -1.4122
 8016SOL     OW35680   4.732   0.549   1.481  0.3559 -0.0187 -0.9421
 8016SOL    HW135681   0.048   0.624   1.454 -0.4264  1.3191  1.2325
 8016SOL    HW235682   4.706   0.570   1.571 -1.1220 -0.1036 -1.3573
 8017SOL     OW35683   0.319   4.513   2.078 -0.1602  0.5136 -0.3077
 8017SOL    HW135684   0.354   4.505   2.167  2.0461 -0.4202 -1.2642
 8017SOL    HW235685   0.226   4.497   2.094 -0.2928  0.6693 -0.9460
 8018SOL     OW35686   2.218   0.695   1.685  0.4107  0.0354 -0.2953
 8018SOL    HW135687   2.291   0.748   1.715 -0.2911  0.3216  0.9050
 8018SOL    HW235688   2.170   0.756   1.628  1.1461  0.8731 -0.0220
 8019SOL     OW35689   4.201   3.506  13.118  0.0526  0.2849  0.3252
 8019SOL    HW135690   4.261   3.534  13.049 -1.7069  1.0454 -0.9099
 8019SOL    HW235691   4.146   3.451  13.062 -0.9111 -0.1735  1.7278
 8020SOL     OW35692   3.087   1.382   7.998 -0.3635 -0.4638  0.1673
 8020SOL    HW135693   3.125   1.301   8.031  1.9866  0.4865 -0.2691
 8020SOL    HW235694   3.158   1.443   8.016  0.0487 -0.1851 -2.4923
 8021SOL     OW35695   2.123   0.183   8.870  0.4412  1.0115 -0.3473
 8021SOL    HW135696   2.075   0.240   8.930  1.8728  1.2832  0.5461
 8021SOL    HW235697   2.119   0.223   8.783  3.1989 -0.3305 -1.1273
 8022SOL     OW35698   3.070   3.420   9.723  0.0381 -0.1438 -0.5542
 8022SOL    HW135699   3.061   3.482   9.795 -1.4780 -1.5354  0.4343
 8022SOL    HW235700   3.034   3.337   9.754 -1.1229  0.0173 -1.4543
 8023SOL     OW35701   4.439   3.593   5.477 -0.1677  0.2995  0.4790
 8023SOL    HW135702   4.471   3.683   5.485  0.7713 -0.0988  1.3174
 8023SOL    HW235703   4.440   3.571   5.570  2.6731  4.5330  1.4246
 8024SOL     OW35704   0.569   0.673  16.875 -0.1142  0.1694 -0.5371
 8024SOL    HW135705   0.592   0.583  16.894 -0.7027  0.2863  0.7481
 8024SOL    HW235706   0.489   0.670  16.823  0.6277 -1.0464 -1.5971
 8025SOL     OW35707   3.255   3.476   8.116 -0.2632 -0.2031  0.1381
 8025SOL    HW135708   3.237   3.391   8.076  0.9515  0.5226 -1.9669
 8025SOL    HW235709   3.295   3.464   8.201  0.4484 -0.8131 -0.2930
 8026SOL     OW35710   3.351   3.815  16.397  0.2642  0.3282 -0.1525
 8026SOL    HW135711   3.410   3.872  16.348 -1.2121  2.2272  0.2873
 8026SOL    HW235712   3.270   3.865  16.386  0.3723  0.5748  0.1747
 8027SOL     OW35713   0.362   2.641   0.970 -0.1883 -0.0351 -1.0794
 8027SOL    HW135714   0.353   2.705   1.041  0.8701 -0.8472 -0.2046
 8027SOL    HW235715   0.357   2.705   0.899 -2.8252 -1.3009 -2.0192
 8028SOL     OW35716   1.922   2.946   0.422  0.2454 -0.2188  0.0390
 8028SOL    HW135717   1.838   2.985   0.399 -0.2383 -0.8428  0.7266
 8028SOL    HW235718   1.974   3.016   0.460 -1.0908  0.1733  1.1381
 8029SOL     OW35719   2.768   2.670   5.391 -0.2790  0.7437  0.2213
 8029SOL    HW135720   2.678   2.675   5.422 -0.9171 -3.0804 -1.0394
 8029SOL    HW235721   2.817   2.699   5.467 -0.8848 -0.9148  1.2443
 8030SOL     OW35722   2.237   3.524  16.083 -0.0581  0.0939 -0.0842
 8030SOL    HW135723   2.241   3.507  16.178  0.1119  1.3368  0.1282
 8030SOL    HW235724   2.259   3.617  16.080 -1.0941  0.3248 -0.3941
 8031SOL     OW35725   4.277   4.165   7.805  0.0284 -0.5869  0.2261
 8031SOL    HW135726   4.342   4.175   7.735  1.2285 -1.9442  1.1404
 8031SOL    HW235727   4.328   4.189   7.883 -1.4337 -1.3941  1.4463
 8032SOL     OW35728   3.393   1.570   8.627  0.0624 -0.3181 -0.5611
 8032SOL    HW135729   3.304   1.546   8.656  0.1012 -1.0273 -1.0120
 8032SOL    HW235730   3.427   1.644   8.677 -0.6069 -1.4173  1.5570
 8033SOL     OW35731   3.936   3.196   1.842 -0.1871 -0.1507 -0.3793
 8033SOL    HW135732   3.945   3.286   1.812 -0.4469 -1.4611 -4.3535
 8033SOL    HW235733   3.873   3.210   1.913  0.7405  2.1386 -0.0172
 8034SOL     OW35734   0.817   0.863  14.788  0.2824  0.4213  0.1752
 8034SOL    HW135735   0.790   0.948  14.752 -1.2327 -1.0853 -2.3338
 8034SOL    HW235736   0.894   0.888  14.837  1.0385 -1.5857  0.0188
 8035SOL     OW35737   4.479   2.443   1.716 -0.0077  0.0885  0.4497
 8035SOL    HW135738   4.491   2.385   1.792  0.2976  1.2356  1.2710
 8035SOL    HW235739   4.384   2.451   1.711  0.0186  1.0027  1.4023
 8036SOL     OW35740   4.540   1.693   7.413  0.1462  0.3649  0.0894
 8036SOL    HW135741   4.504   1.691   7.502  0.5703  0.8541  0.2752
 8036SOL    HW235742   4.601   1.620   7.421  1.1533  1.2614  0.5996
 8037SOL     OW35743   1.348   0.816   7.059  0.1027 -0.3215  0.0598
 8037SOL    HW135744   1.306   0.902   7.068 -2.6694 -1.7512  0.9876
 8037SOL    HW235745   1.386   0.804   7.147  0.1348 -0.2063  0.0607
 8038SOL     OW35746   2.125   4.046   1.438  0.0127 -0.1766 -0.0178
 8038SOL    HW135747   2.102   4.000   1.357 -0.4493 -2.2682  1.2944
 8038SOL    HW235748   2.099   3.986   1.508  1.5429 -1.2597 -0.3667
 8039SOL     OW35749   3.362   1.952   4.890 -0.0349 -0.6247 -0.2425
 8039SOL    HW135750   3.309   1.877   4.916  0.2290 -1.1457 -1.2142
 8039SOL    HW235751   3.401   1.958   4.977 -0.9525  0.4558  0.0988
 8040SOL     OW35752   0.689   1.312   3.085 -0.1174 -0.0144  0.5882
 8040SOL    HW135753   0.734   1.251   3.027  0.2137  0.8116 -0.0337
 8040SOL    HW235754   0.733   1.392   3.057  1.2278 -1.1900 -0.6188
 8041SOL     OW35755   2.147   1.416   6.277  0.2252  0.3002 -0.2849
 8041SOL    HW135756   2.088   1.342   6.263 -0.8989  1.2895 -0.7741
 8041SOL    HW235757   2.141   1.427   6.372 -1.3916  0.6139 -0.4248
 8042SOL     OW35758   2.412   0.173   2.836 -0.3006  0.1123  0.4054
 8042SOL    HW135759   2.394   0.084   2.866 -0.6756  0.1122  0.1844
 8042SOL    HW235760   2.345   0.228   2.877 -1.8363  0.9006 -3.1593
 8043SOL     OW35761   0.101   1.971  13.533  0.2477  0.3194  0.0037
 8043SOL    HW135762   0.059   2.057  13.529  1.0144  0.4868 -4.5611
 8043SOL    HW235763   0.161   1.972  13.459 -0.3854  0.4523 -0.5027
 8044SOL     OW35764   0.543   2.414   6.264 -0.5507 -0.3115 -0.4841
 8044SOL    HW135765   0.570   2.506   6.262  3.0070 -1.3436  0.9294
 8044SOL    HW235766   0.448   2.421   6.277 -0.4617  0.2127 -0.0667
 8045SOL     OW35767   1.058   2.423  12.957  0.0895 -0.1498 -0.0721
 8045SOL    HW135768   1.053   2.360  12.885  0.2342  1.7809 -1.7421
 8045SOL    HW235769   0.970   2.460  12.953  0.3116  0.5213  1.1350
 8046SOL     OW35770   0.817   2.566  12.966  0.1484  0.3105 -0.6967
 8046SOL    HW135771   0.742   2.515  12.994 -0.8561  2.2175  0.1276
 8046SOL    HW235772   0.781   2.639  12.915 -0.2498 -0.0085 -0.8670
 8047SOL     OW35773   1.077   4.288   7.820 -0.0665 -0.5858  0.1734
 8047SOL    HW135774   1.105   4.341   7.746 -0.2943 -0.1965  0.3633
 8047SOL    HW235775   1.078   4.199   7.786 -2.7398  0.1200 -1.7496
 8048SOL     OW35776   2.222   0.196  12.507 -0.3996  0.0488 -0.2974
 8048SOL    HW135777   2.145   0.185  12.450 -2.2074 -0.1135  2.1865
 8048SOL    HW235778   2.256   0.285  12.492  1.3518 -0.4745  0.6120
 8049SOL     OW35779   3.859   2.234   5.580  0.3625 -0.4825  0.3924
 8049SOL    HW135780   3.850   2.300   5.649  1.9293 -1.3367  1.4234
 8049SOL    HW235781   3.767   2.212   5.567  0.1772 -0.3531  1.5144
 8050SOL     OW35782   2.727   3.864  13.693  0.3097  0.2008 -0.5382
 8050SOL    HW135783   2.759   3.951  13.667 -0.6125  0.8642  0.5401
 8050SOL    HW235784   2.651   3.867  13.635  0.5743  0.1472 -0.8900
 8051SOL     OW35785   1.272   4.718  11.370 -0.5605  1.1192  0.6869
 8051SOL    HW135786   1.284   4.649  11.436 -1.9402  1.6852  1.5226
 8051SOL    HW235787   1.198   4.686  11.319  0.7585 -2.0079  0.7183
 8052SOL     OW35788   0.205   1.502   3.357  0.4660  0.1763 -0.9500
 8052SOL    HW135789   0.268   1.555   3.309  2.1698 -1.0565 -0.0872
 8052SOL    HW235790   0.158   1.451   3.291 -2.0421  1.5997 -0.2796
 8053SOL     OW35791   3.705   0.901   4.130 -0.0451 -0.3215 -0.6811
 8053SOL    HW135792   3.710   0.911   4.225 -2.5273  1.5216 -0.7438
 8053SOL    HW235793   3.720   0.990   4.097 -0.6393  0.1337  0.3024
 8054SOL     OW35794   1.140   1.186   7.638 -0.2632 -0.2662 -0.8249
 8054SOL    HW135795   1.141   1.276   7.604  1.1261 -0.6069 -1.6683
 8054SOL    HW235796   1.206   1.184   7.707 -1.2899  0.6893  0.2014
 8055SOL     OW35797   2.499   2.159   9.238 -0.2226  0.2328  0.6065
 8055SOL    HW135798   2.570   2.135   9.298  1.6483 -2.2264 -2.6614
 8055SOL    HW235799   2.455   2.230   9.286 -0.7446  0.7620 -0.6625
 8056SOL     OW35800   3.945   1.123   1.903 -0.5430  0.3120 -0.3063
 8056SOL    HW135801   3.972   1.081   1.985  1.2806  0.6813 -0.7209
 8056SOL    HW235802   3.868   1.171   1.933  0.0305  1.1219 -0.1288
 8057SOL     OW35803   1.765   0.961   4.570 -0.7881  0.6433 -0.2462
 8057SOL    HW135804   1.789   0.996   4.656 -0.0649  1.7927 -0.9269
 8057SOL    HW235805   1.743   0.870   4.592 -1.4895  0.6494 -0.9151
 8058SOL     OW35806   4.582   3.587  14.214 -0.3964  0.9112 -0.0896
 8058SOL    HW135807   4.612   3.502  14.249 -2.1145  0.7381  0.9818
 8058SOL    HW235808   4.663   3.611  14.170  0.7415 -0.4858  1.2600
 8059SOL     OW35809   1.726   1.795   9.431 -0.6461 -0.0090  0.1761
 8059SOL    HW135810   1.742   1.787   9.525  2.5476  0.5283 -0.3379
 8059SOL    HW235811   1.798   1.742   9.399  0.3447  0.9836  0.7250
 8060SOL     OW35812   2.320   3.513   3.205 -0.3539  0.2503  0.1415
 8060SOL    HW135813   2.398   3.461   3.187  0.9168  2.6975 -1.4454
 8060SOL    HW235814   2.300   3.496   3.297  0.5770  0.3747  0.3662
 8061SOL     OW35815   0.735   0.937  13.595 -0.0099  0.6930  0.7685
 8061SOL    HW135816   0.669   0.943  13.525  0.0999 -1.0591  0.5127
 8061SOL    HW235817   0.774   0.856  13.563 -2.7761 -0.7776  1.1401
 8062SOL     OW35818   1.484   1.226   8.865  0.4034  0.1674  0.0633
 8062SOL    HW135819   1.509   1.279   8.940 -1.7743 -0.7866  1.4692
 8062SOL    HW235820   1.389   1.225   8.875  0.4704 -0.7733  0.6348
 8063SOL     OW35821   0.185   0.980  15.891 -0.5825 -0.6311 -0.0240
 8063SOL    HW135822   0.115   0.915  15.891  1.5191 -2.9029 -0.7173
 8063SOL    HW235823   0.187   0.993  15.796 -4.9940 -1.0347 -0.1727
 8064SOL     OW35824   2.306   2.491   4.935 -0.2788  0.0219 -0.0731
 8064SOL    HW135825   2.228   2.464   4.983 -1.3758 -0.5129 -2.1653
 8064SOL    HW235826   2.290   2.461   4.846  2.0207  0.1901 -0.5651
 8065SOL     OW35827   4.167   2.619  12.614  0.1346  0.0814  0.6101
 8065SOL    HW135828   4.090   2.571  12.584 -1.6396  2.3711  1.4720
 8065SOL    HW235829   4.129   2.674  12.683  2.6049  2.0950  0.3548
 8066SOL     OW35830   4.573   3.650  12.217 -0.3136 -0.6956  0.0463
 8066SOL    HW135831   4.654   3.691  12.189 -1.2805  0.5910 -0.8844
 8066SOL    HW235832   4.508   3.716  12.192 -0.0095 -0.7583 -0.9230
 8067SOL     OW35833   1.795   1.574   2.607  0.1899 -0.6630  0.4920
 8067SOL    HW135834   1.703   1.575   2.632  0.5496 -0.7374  1.8707
 8067SOL    HW235835   1.793   1.589   2.513 -1.1434  0.7875  0.7642
 8068SOL     OW35836   4.183   0.357  16.232  0.7451  0.2306  0.0606
 8068SOL    HW135837   4.152   0.443  16.262 -1.7728 -0.7600  0.2977
 8068SOL    HW235838   4.148   0.348  16.143 -0.9604  1.6568  0.5793
 8069SOL     OW35839   1.788   1.835  11.855 -0.0214 -0.3877 -0.4522
 8069SOL    HW135840   1.842   1.801  11.784  0.4392 -1.9150  0.6200
 8069SOL    HW235841   1.710   1.783  11.873 -0.3333  0.3439  0.3003
 8070SOL     OW35842   2.359   3.669  14.370 -0.0868  0.7053  0.1900
 8070SOL    HW135843   2.379   3.575  14.369  1.1395  0.9668  0.1905
 8070SOL    HW235844   2.444   3.710  14.387  1.4323 -1.6072 -1.6317
 8071SOL     OW35845   0.593   0.090   7.523  0.2286 -0.1991 -0.4462
 8071SOL    HW135846   0.617   0.183   7.525  2.4365 -0.8278  1.2369
 8071SOL    HW235847   0.678   0.057   7.494  1.0895  2.0026 -0.4557
 8072SOL     OW35848   0.264   0.828   2.906 -0.0685 -0.4003 -0.4867
 8072SOL    HW135849   0.236   0.811   2.816  1.2949 -1.3882 -0.7298
 8072SOL    HW235850   0.356   0.839   2.882 -1.2025  1.4549 -4.0193
 8073SOL     OW35851   0.162   0.584  15.329  0.6015  0.5282 -0.3777
 8073SOL    HW135852   0.226   0.512  15.334  0.1733  0.0777 -1.2633
 8073SOL    HW235853   0.204   0.640  15.394  0.0393  0.2691  0.2015
 8074SOL     OW35854   2.583   2.199   8.661  0.3038  0.2349 -0.1666
 8074SOL    HW135855   2.615   2.110   8.647  0.4166  0.3670 -0.7446
 8074SOL    HW235856   2.500   2.188   8.707 -0.0982  2.5654 -0.3508
 8075SOL     OW35857   2.390   2.453   2.210 -0.1925  0.1309  0.3669
 8075SOL    HW135858   2.478   2.472   2.177 -1.3085  2.3635 -1.3199
 8075SOL    HW235859   2.384   2.522   2.276  0.2719 -0.5852  1.1558
 8076SOL     OW35860   1.046   1.679   6.246 -0.2448  0.0663  0.3136
 8076SOL    HW135861   1.017   1.606   6.192  1.8687 -0.3176 -0.2988
 8076SOL    HW235862   1.137   1.689   6.219 -0.3046  0.8469  0.3881
 8077SOL     OW35863   4.663   1.338   5.419  0.4867  0.0036 -0.5163
 8077SOL    HW135864   0.014   1.299   5.420  0.7650  0.6468  0.3994
 8077SOL    HW235865   4.664   1.424   5.376 -0.7888  0.4462  0.3228
 8078SOL     OW35866   3.066   3.521  13.937 -0.5450 -0.9768  0.1169
 8078SOL    HW135867   3.011   3.598  13.926 -0.7801 -1.6599 -3.3846
 8078SOL    HW235868   3.150   3.557  13.966 -0.9447 -0.2519  0.3503
 8079SOL     OW35869   1.068   3.836   5.620 -0.4813  0.4938 -0.2190
 8079SOL    HW135870   1.001   3.858   5.684 -0.3170  0.0827  0.0953
 8079SOL    HW235871   1.051   3.744   5.598  1.8084  0.3399 -1.3640
 8080SOL     OW35872   3.163   3.566   3.258  0.8853  0.0738  0.2664
 8080SOL    HW135873   3.154   3.620   3.337 -0.0434  1.2990 -0.6915
 8080SOL    HW235874   3.103   3.604   3.195  2.0749  1.7144  0.1358
 8081SOL     OW35875   2.011   3.603  17.100 -0.7675 -0.5085  0.3271
 8081SOL    HW135876   2.072   3.532  17.080 -1.3972 -0.9118 -0.1810
 8081SOL    HW235877   2.038   3.618  17.190  2.0314 -0.8312 -0.4771
 8082SOL     OW35878   3.464   1.977  12.546  0.4546  1.0466 -0.0954
 8082SOL    HW135879   3.512   1.989  12.628  1.1027 -0.7783 -0.2106
 8082SOL    HW235880   3.537   1.951  12.490 -0.6428 -2.1025 -0.0814
 8083SOL     OW35881   4.326   0.051   8.821  0.2147 -0.4865 -0.7078
 8083SOL    HW135882   4.272   0.102   8.761 -0.0494  0.3196  0.2160
 8083SOL    HW235883   4.403   0.106   8.838  0.0124 -0.8952  1.6013
 8084SOL     OW35884   1.254   0.316  11.098 -0.0442  0.1633 -0.8563
 8084SOL    HW135885   1.322   0.265  11.143  0.5850  0.7070 -1.1902
 8084SOL    HW235886   1.268   0.406  11.125 -0.6156  0.5828 -1.9660
 8085SOL     OW35887   4.226   2.034   4.868  0.4094  0.0672 -0.7020
 8085SOL    HW135888   4.309   2.080   4.879  1.2241 -1.8002  0.9424
 8085SOL    HW235889   4.169   2.097   4.824  0.9062  0.5191 -0.7005
 8086SOL     OW35890   1.610   0.564   6.451 -0.5031 -0.4123  0.5806
 8086SOL    HW135891   1.583   0.577   6.360  1.8599  0.3783 -0.0078
 8086SOL    HW235892   1.531   0.526   6.489 -0.5272 -2.4853 -1.4928
 8087SOL     OW35893   4.611   0.092  14.091  0.0526  0.0920  0.0136
 8087SOL    HW135894   4.538   0.036  14.115  0.7729 -1.6458 -1.8445
 8087SOL    HW235895   4.580   0.140  14.014 -0.0950 -1.1270 -0.6827
 8088SOL     OW35896   3.164   4.577   3.151  0.4515  0.1906 -0.1756
 8088SOL    HW135897   3.175   4.523   3.073  3.8593  0.6028  0.0326
 8088SOL    HW235898   3.079   4.614   3.127  0.1334  0.1732  0.9413
 8089SOL     OW35899   2.610   0.449   8.500  0.1737  0.0635 -0.2393
 8089SOL    HW135900   2.615   0.488   8.588 -3.5526 -0.8269  0.3798
 8089SOL    HW235901   2.517   0.449   8.478 -0.0460 -1.8697  0.6856
 8090SOL     OW35902   0.234   1.207   1.511  0.1826 -0.3335  0.5034
 8090SOL    HW135903   0.178   1.140   1.550 -0.6765  0.5524  0.8203
 8090SOL    HW235904   0.156   1.236   1.464  0.9822  1.6720  0.3881
 8091SOL     OW35905   2.351   3.095   9.511 -0.2156 -0.1916 -0.1904
 8091SOL    HW135906   2.288   3.030   9.479  0.3239 -0.9564  0.3060
 8091SOL    HW235907   2.408   3.045   9.569  0.4660 -0.6756 -1.2860
 8092SOL     OW35908   4.203   1.777   7.607  0.4635 -0.0762  0.3353
 8092SOL    HW135909   4.115   1.740   7.615 -0.3867  1.5720 -1.2666
 8092SOL    HW235910   4.207   1.800   7.514 -1.2865 -1.1316 -0.0025
 8093SOL     OW35911   3.687   3.624   3.303  0.8907 -0.8164 -0.8320
 8093SOL    HW135912   3.617   3.626   3.237  0.1363  0.5430  0.0137
 8093SOL    HW235913   3.678   3.538   3.344 -0.8049 -0.2832 -0.0911
 8094SOL     OW35914   2.180   4.263   2.393  0.0050  0.0363  0.6340
 8094SOL    HW135915   2.238   4.333   2.425 -0.0872  0.6750 -0.6010
 8094SOL    HW235916   2.190   4.202   2.466  0.5119  0.6118  1.0500
 8095SOL     OW35917   4.310   4.169   0.099  0.4921  0.0498  0.1451
 8095SOL    HW135918   4.378   4.198   0.039  0.3997  1.8976  0.9294
 8095SOL    HW235919   4.229   4.162   0.047 -0.7710 -0.6865  2.1885
 8096SOL     OW35920   1.794   2.003  13.694 -0.4690  0.1819  0.4565
 8096SOL    HW135921   1.843   2.032  13.617 -0.6873 -0.8667 -0.0903
 8096SOL    HW235922   1.705   2.020  13.661 -0.6508  1.0230  1.3964
 8097SOL     OW35923   0.605   4.391   3.972 -0.3325 -0.0027 -0.0053
 8097SOL    HW135924   0.570   4.360   4.055 -1.3444 -1.7618 -1.0754
 8097SOL    HW235925   0.540   4.459   3.955 -0.4715  0.0341  0.6861
 8098SOL     OW35926   3.300   2.846   6.236  0.1404 -0.2677  0.7601
 8098SOL    HW135927   3.299   2.863   6.330  0.5678  0.9880  0.5358
 8098SOL    HW235928   3.331   2.756   6.225 -0.7235 -0.6433  1.3305
 8099SOL     OW35929   0.338   3.202  14.443  0.1228  0.3121  0.0193
 8099SOL    HW135930   0.250   3.184  14.410 -0.6541  2.2592  1.0043
 8099SOL    HW235931   0.325   3.231  14.534  0.6628  0.8099 -0.0599
 8100SOL     OW35932   0.996   2.322   5.090 -0.5133  0.7091  0.4362
 8100SOL    HW135933   0.905   2.302   5.110 -1.2704  0.7607 -3.1312
 8100SOL    HW235934   0.996   2.355   5.001 -2.8097 -0.5442 -0.0313
 8101SOL     OW35935   1.351   3.962   6.720 -0.1813 -0.0685 -0.2310
 8101SOL    HW135936   1.343   3.925   6.807  0.5188  1.7960  0.6142
 8101SOL    HW235937   1.341   3.883   6.667 -1.6556 -0.1431  0.1615
 8102SOL     OW35938   0.807   3.796   1.622  0.0276 -0.9547  0.3826
 8102SOL    HW135939   0.803   3.731   1.692  0.9296 -1.1175  0.2812
 8102SOL    HW235940   0.901   3.806   1.607 -0.7088  0.6524 -3.1135
 8103SOL     OW35941   3.711   2.529   0.689 -0.2924  0.3630 -0.4249
 8103SOL    HW135942   3.696   2.435   0.673 -1.8204  0.3943  0.8108
 8103SOL    HW235943   3.621   2.560   0.681 -0.3361  0.1641 -0.7046
 8104SOL     OW35944   2.215   3.497   9.983  0.7413 -0.4422  0.3175
 8104SOL    HW135945   2.163   3.418   9.995  1.4831 -1.0446 -0.4182
 8104SOL    HW235946   2.228   3.522  10.074 -0.2468  1.5013 -0.0699
 8105SOL     OW35947   1.312   2.202   2.739 -0.2264  0.2067  0.4855
 8105SOL    HW135948   1.399   2.171   2.716 -0.7263 -1.6738  1.1829
 8105SOL    HW235949   1.304   2.181   2.832 -0.6258  0.0305  0.4098
 8106SOL     OW35950   1.716   3.109  13.616  0.4400 -0.2939 -0.4629
 8106SOL    HW135951   1.730   3.203  13.612  2.8306 -0.6741 -1.2687
 8106SOL    HW235952   1.726   3.090  13.523 -0.5495 -0.1592 -0.5939
 8107SOL     OW35953   3.827   0.504   0.624 -0.8498 -0.6757  0.5288
 8107SOL    HW135954   3.906   0.546   0.658 -1.1269  0.7346 -0.5671
 8107SOL    HW235955   3.782   0.572   0.573  2.8221 -0.7193 -2.7582
 8108SOL     OW35956   4.498   3.524   5.734  0.2729  0.5931  0.5063
 8108SOL    HW135957   4.590   3.531   5.761  0.7748 -1.4573 -0.6816
 8108SOL    HW235958   4.474   3.464   5.804  1.3058 -1.6947 -1.0893
 8109SOL     OW35959   3.373   3.968   4.789 -0.4236 -0.2692 -0.4641
 8109SOL    HW135960   3.346   3.905   4.856 -0.5481  0.8857  0.5648
 8109SOL    HW235961   3.466   3.947   4.777  0.1958  1.3040  1.5182
 8110SOL     OW35962   1.736   2.392   3.545 -0.5082  0.5617 -0.1102
 8110SOL    HW135963   1.649   2.365   3.575  2.2555 -4.3537  3.4087
 8110SOL    HW235964   1.745   2.478   3.586 -1.5145  1.0834 -0.9719
 8111SOL     OW35965   3.214   4.417  16.041  0.3329 -0.3444 -0.2900
 8111SOL    HW135966   3.154   4.342  16.046  1.1279 -0.8294  1.9700
 8111SOL    HW235967   3.201   4.466  16.122  0.9321 -2.1880  0.9157
 8112SOL     OW35968   4.093   3.412  16.626 -0.0827  0.0653 -0.0563
 8112SOL    HW135969   4.030   3.402  16.555 -3.6015  0.7853  2.9671
 8112SOL    HW235970   4.042   3.424  16.706 -0.7282  1.1287 -0.6345
 8113SOL     OW35971   0.857   2.755   3.432  0.3206 -0.8098 -0.0911
 8113SOL    HW135972   0.814   2.670   3.436  0.0413 -0.7557 -2.3823
 8113SOL    HW235973   0.803   2.804   3.371 -1.3176 -0.9941  1.2091
 8114SOL     OW35974   1.326   4.426   5.110  0.0783  0.1308 -0.0781
 8114SOL    HW135975   1.275   4.347   5.092 -0.2150  0.1091  0.8304
 8114SOL    HW235976   1.344   4.416   5.204  0.8006  1.4335 -0.0773
 8115SOL     OW35977   1.245   1.249  14.869 -0.3036  0.3303 -0.1623
 8115SOL    HW135978   1.308   1.189  14.909 -1.9212  0.8413  3.1744
 8115SOL    HW235979   1.289   1.258  14.784 -1.8386 -1.7484 -1.2076
 8116SOL     OW35980   3.816   0.708  16.563  0.4316 -0.0653  0.8865
 8116SOL    HW135981   3.752   0.685  16.631 -1.3425  2.0545 -0.0457
 8116SOL    HW235982   3.887   0.747  16.613  0.1329  3.9036 -1.7093
 8117SOL     OW35983   0.224   4.262   3.487  0.2769 -0.5087  0.5087
 8117SOL    HW135984   0.151   4.245   3.546 -1.3323  0.6585 -1.1693
 8117SOL    HW235985   0.191   4.341   3.446 -0.9661 -0.4389  1.6312
 8118SOL     OW35986   2.461   0.072   6.268 -0.3257 -0.0751  0.4686
 8118SOL    HW135987   2.536   0.030   6.309  0.4300 -0.1314 -0.9838
 8118SOL    HW235988   2.389   0.041   6.324  0.6434 -0.0255  1.7574
 8119SOL     OW35989   3.276   2.576  13.749 -0.2096  0.1225  0.1893
 8119SOL    HW135990   3.345   2.510  13.751 -1.4428 -1.1595  0.3671
 8119SOL    HW235991   3.296   2.618  13.665 -0.4545 -0.2505 -0.0532
 8120SOL     OW35992   0.761   3.728  12.623  0.0604 -0.4452  0.7569
 8120SOL    HW135993   0.706   3.797  12.585  0.5783 -0.5661 -0.2234
 8120SOL    HW235994   0.846   3.751  12.587  0.6554 -0.3189  2.2340
 8121SOL     OW35995   1.125   2.184   4.591  0.5330 -0.4115 -0.3646
 8121SOL    HW135996   1.177   2.156   4.516 -1.5718  3.0744 -3.1184
 8121SOL    HW235997   1.040   2.145   4.568  0.8763 -0.9688 -0.6816
 8122SOL     OW35998   1.970   2.094   9.975 -0.5815 -0.2418 -0.4887
 8122SOL    HW135999   2.047   2.107  10.031 -0.5413 -3.4853  0.1835
 8122SOL    HW236000   1.972   2.180   9.934  1.2088 -0.3951 -0.7245
 8123SOL     OW36001   3.236   1.579   7.212 -0.1509  0.2433  0.2056
 8123SOL    HW136002   3.275   1.663   7.238 -0.3232  0.4213 -0.1122
 8123SOL    HW236003   3.301   1.564   7.144 -0.3281  1.0476 -0.1385
 8124SOL     OW36004   3.791   4.154   4.201 -0.3616  0.0401  0.6129
 8124SOL    HW136005   3.856   4.089   4.226  0.0302  0.3042  0.2682
 8124SOL    HW236006   3.847   4.227   4.175 -0.0701  0.0557  1.2968
 8125SOL     OW36007   3.007   1.642   7.096 -0.1965 -0.4840  0.5353
 8125SOL    HW136008   3.073   1.583   7.133  2.9077  1.3159 -2.1033
 8125SOL    HW236009   3.060   1.718   7.069 -2.3220  1.0184  0.6311
 8126SOL     OW36010   0.998   4.533  15.910  0.0748  0.0307  0.3926
 8126SOL    HW136011   0.990   4.529  16.005 -2.7424  0.0038  0.1358
 8126SOL    HW236012   1.031   4.448  15.881  0.1858 -0.7298  2.7416
 8127SOL     OW36013   0.036   0.247   3.592  0.0929  0.0134 -0.4016
 8127SOL    HW136014   4.708   0.220   3.658  0.1559  1.0907  0.0973
 8127SOL    HW236015   0.082   0.164   3.581 -0.3795 -0.1751 -0.9961
 8128SOL     OW36016   2.206   1.213   4.049  0.6604 -0.3585  0.1263
 8128SOL    HW136017   2.199   1.122   4.079 -0.0123 -0.0867  0.7788
 8128SOL    HW236018   2.193   1.206   3.954 -0.7327  0.3155  0.2701
 8129SOL     OW36019   0.473   3.386  10.048  0.2343  0.0039 -0.4534
 8129SOL    HW136020   0.524   3.308  10.029 -2.1250 -1.5659 -0.2563
 8129SOL    HW236021   0.514   3.450   9.989 -2.0887  0.4358 -1.5969
 8130SOL     OW36022   1.133   4.226   5.139 -0.2388 -0.0764 -0.2329
 8130SOL    HW136023   1.092   4.222   5.053  1.2331 -0.9818 -0.8963
 8130SOL    HW236024   1.095   4.160   5.196 -0.7330  0.3866 -0.0268
 8131SOL     OW36025   1.022   3.779   1.967 -0.2952 -0.2744 -0.0536
 8131SOL    HW136026   0.950   3.738   2.014  0.3832  0.2024  1.4190
 8131SOL    HW236027   1.094   3.725   2.002  1.0844 -1.1094 -4.2714
 8132SOL     OW36028   3.399   2.445   7.418  0.7672 -0.6721  0.1323
 8132SOL    HW136029   3.485   2.404   7.412  1.5415  0.9073  0.3954
 8132SOL    HW236030   3.360   2.403   7.495  2.8094 -1.0757  0.9464
 8133SOL     OW36031   0.657   3.531  13.678 -0.8858  0.1781  0.2748
 8133SOL    HW136032   0.677   3.606  13.623 -2.2956 -0.1588 -0.7102
 8133SOL    HW236033   0.651   3.471  13.604  0.6826  0.0171  0.2765
 8134SOL     OW36034   1.920   0.622  13.953 -0.1295  0.5404  0.4752
 8134SOL    HW136035   1.934   0.695  13.892 -0.5368 -0.3925 -0.7397
 8134SOL    HW236036   1.976   0.554  13.916 -1.0736  0.0016  0.0265
 8135SOL     OW36037   0.973   2.739   8.152  0.1875 -0.0734 -0.3291
 8135SOL    HW136038   0.911   2.702   8.215 -0.4333 -0.9665 -1.4585
 8135SOL    HW236039   1.013   2.656   8.124 -1.1648 -1.4468  1.8640
 8136SOL     OW36040   3.417   1.195   9.907  0.3480 -0.4265 -0.1596
 8136SOL    HW136041   3.446   1.104   9.908  1.3505 -0.1033 -0.2577
 8136SOL    HW236042   3.444   1.225   9.994 -0.7941  1.2304 -0.3634
 8137SOL     OW36043   1.495   2.663   4.821  0.3433  0.2396 -0.0537
 8137SOL    HW136044   1.475   2.660   4.727  0.2224 -1.7893  0.0310
 8137SOL    HW236045   1.500   2.569   4.837 -1.9181  0.3944  1.5714
 8138SOL     OW36046   1.851   3.806   3.459  0.1862 -0.4415 -0.6094
 8138SOL    HW136047   1.809   3.874   3.406  2.2106 -0.5540 -2.3266
 8138SOL    HW236048   1.915   3.861   3.503 -2.3839  0.0064  2.5927
 8139SOL     OW36049   1.868   0.902   1.644  0.5330 -0.4768  0.7125
 8139SOL    HW136050   1.871   0.994   1.669 -1.3490  0.1822 -1.4375
 8139SOL    HW236051   1.960   0.897   1.619 -0.6881  0.3308 -4.0871
 8140SOL     OW36052   2.620   3.960   3.344 -0.0863  0.3103  0.1534
 8140SOL    HW136053   2.650   4.011   3.268  0.0798 -1.5631 -1.0500
 8140SOL    HW236054   2.538   3.932   3.303  1.2663  0.1436 -2.4867
 8141SOL     OW36055   2.993   3.951  16.921 -0.2069  0.1639 -0.1368
 8141SOL    HW136056   3.043   3.958  16.840  0.2382 -0.0567  0.1191
 8141SOL    HW236057   3.001   3.859  16.947  1.3673  0.2578 -0.3084
 8142SOL     OW36058   2.635   3.410   4.377 -0.7323  0.5344 -0.2656
 8142SOL    HW136059   2.575   3.385   4.307 -1.1034  0.5908  0.0319
 8142SOL    HW236060   2.596   3.495   4.397 -2.4085 -0.3956  0.4483
 8143SOL     OW36061   3.636   2.512   9.898 -0.0223  0.3001 -0.3617
 8143SOL    HW136062   3.671   2.489   9.812  2.0119  1.0419  0.2588
 8143SOL    HW236063   3.685   2.594   9.910 -1.8167  1.0894  1.6921
 8144SOL     OW36064   0.289   0.029  17.445  0.9636 -0.4632 -0.4854
 8144SOL    HW136065   0.236   0.075  17.510  0.7906 -0.3541 -0.6995
 8144SOL    HW236066   0.361   4.732  17.498  0.2731 -0.1524  0.6394
 8145SOL     OW36067   0.034   2.342   6.415 -0.5761  0.3603  0.0073
 8145SOL    HW136068   0.048   2.281   6.488  0.5050  0.0643 -0.4667
 8145SOL    HW236069   0.113   2.393   6.431 -0.4524 -0.1060  0.9285
 8146SOL     OW36070   0.984   3.442  14.639 -0.2272  0.3530  0.4126
 8146SOL    HW136071   0.915   3.376  14.633  0.1367  0.1026 -1.1792
 8146SOL    HW236072   0.986   3.471  14.548 -2.4006 -0.3483  0.1642
 8147SOL     OW36073   0.955   2.206   7.091 -0.6936 -0.0075 -0.4752
 8147SOL    HW136074   0.947   2.233   7.000 -0.2588 -1.4562 -0.9480
 8147SOL    HW236075   0.914   2.120   7.097  1.0618 -0.8350 -0.2457
 8148SOL     OW36076   1.059   1.146   0.217  0.5239  0.0659  0.1555
 8148SOL    HW136077   1.050   1.241   0.208  0.3023  0.0225 -0.0839
 8148SOL    HW236078   0.974   1.113   0.189  0.9394 -1.2238  0.3955
 8149SOL     OW36079   3.082   1.360   3.114  0.1418  0.4571 -0.4274
 8149SOL    HW136080   3.164   1.407   3.130  1.0487 -0.7296 -1.5467
 8149SOL    HW236081   3.076   1.312   3.197 -0.4249 -0.8553 -1.2268
 8150SOL     OW36082   3.411   2.313   3.723  0.1035 -0.7198 -0.4241
 8150SOL    HW136083   3.393   2.310   3.629  1.3670  1.5741 -0.7451
 8150SOL    HW236084   3.450   2.226   3.725 -3.6280 -2.4567 -3.3872
 8151SOL     OW36085   1.675   3.399   6.308  0.2037  0.3822 -0.1230
 8151SOL    HW136086   1.625   3.480   6.304  2.6143  1.8698  0.4076
 8151SOL    HW236087   1.632   3.352   6.380  1.1141 -0.2152  0.0259
 8152SOL     OW36088   1.645   0.112  13.203  0.2378  0.0074 -0.8213
 8152SOL    HW136089   1.635   0.044  13.136  1.2561  0.7376 -1.7123
 8152SOL    HW236090   1.628   0.193  13.154 -1.5615  0.0784 -0.0764
 8153SOL     OW36091   3.303   4.657   4.389 -0.2041  0.3678 -0.9871
 8153SOL    HW136092   3.319   4.575   4.434 -2.3625  0.4964  0.0220
 8153SOL    HW236093   3.333   4.710   4.463 -3.2545 -1.3196  1.4476
 8154SOL     OW36094   0.100   2.718   8.537  0.1256  0.1080 -0.1915
 8154SOL    HW136095   0.094   2.813   8.536  0.2552  0.1206  0.6118
 8154SOL    HW236096   0.179   2.693   8.488  1.1733  2.1422  0.4530
 8155SOL     OW36097   2.489   2.801   6.041 -0.2109  0.3946 -0.2685
 8155SOL    HW136098   2.438   2.773   5.966 -0.9395 -0.5211  0.5653
 8155SOL    HW236099   2.415   2.797   6.101  0.0836  1.6354  0.1721
 8156SOL     OW36100   2.732   2.380   5.373  0.2819 -0.2022 -0.0748
 8156SOL    HW136101   2.824   2.359   5.354 -0.0123  0.4043 -2.1068
 8156SOL    HW236102   2.732   2.476   5.379 -0.5691 -0.2738  1.0295
 8157SOL     OW36103   0.316   4.521   5.564 -0.1112  0.1510  0.2072
 8157SOL    HW136104   0.288   4.582   5.633 -2.0961 -0.8813  0.3155
 8157SOL    HW236105   0.336   4.581   5.492 -0.8534  0.1410 -0.0159
 8158SOL     OW36106   0.031   1.411   8.183 -0.1517  0.0037  0.9170
 8158SOL    HW136107   0.013   1.320   8.205  1.3622 -0.5538 -0.1150
 8158SOL    HW236108   0.126   1.410   8.193 -0.0339  1.7029  0.0158
 8159SOL     OW36109   3.756   0.716   8.350 -0.1076  0.2176  0.4815
 8159SOL    HW136110   3.844   0.751   8.349 -0.2970  0.6474 -0.5860
 8159SOL    HW236111   3.747   0.704   8.445 -0.9029  1.2252  0.5325
 8160SOL     OW36112   2.638   4.349  12.261 -0.0700  0.0956  0.0785
 8160SOL    HW136113   2.584   4.428  12.275 -1.7103 -1.0847  0.4483
 8160SOL    HW236114   2.707   4.378  12.319 -1.6792  3.1261  0.4937
 8161SOL     OW36115   1.311   2.611   9.221  0.2183  0.1381  0.5652
 8161SOL    HW136116   1.382   2.673   9.209  0.8279 -0.5439  0.6611
 8161SOL    HW236117   1.360   2.533   9.248  0.2448  0.5506  1.6985
 8162SOL     OW36118   0.687   2.270   0.676  0.0697 -0.5149 -0.2186
 8162SOL    HW136119   0.760   2.263   0.738  0.9127  0.4931 -1.0951
 8162SOL    HW236120   0.611   2.271   0.734 -1.4224  2.3327 -2.2185
 8163SOL     OW36121   2.911   1.418   2.200  0.8421 -0.0603 -0.3103
 8163SOL    HW136122   2.911   1.388   2.291  2.9335  0.5666 -0.0952
 8163SOL    HW236123   3.005   1.424   2.181  0.5818  0.5586 -1.3683
 8164SOL     OW36124   3.243   4.203  10.179  0.2362 -0.2416 -0.3699
 8164SOL    HW136125   3.275   4.266  10.244 -1.5574  1.0109 -0.7216
 8164SOL    HW236126   3.306   4.242  10.118 -0.7672  0.0641 -1.2007
 8165SOL     OW36127   4.540   3.982   4.038 -0.0106 -0.3938  0.4552
 8165SOL    HW136128   4.545   3.890   4.013  2.0347  0.3837 -2.0544
 8165SOL    HW236129   4.510   4.019   3.955  3.6124  1.5344  0.0298
 8166SOL     OW36130   3.561   4.254   3.231 -0.0409 -0.1599 -0.0581
 8166SOL    HW136131   3.573   4.200   3.309 -0.0295  0.2695  0.2366
 8166SOL    HW236132   3.486   4.305   3.262 -0.4523 -0.2706 -0.8537
 8167SOL     OW36133   2.631   3.777   5.040  0.3287 -0.2950 -0.0427
 8167SOL    HW136134   2.715   3.768   4.996  0.5429  1.7636 -0.0634
 8167SOL    HW236135   2.620   3.697   5.092  1.1923 -2.1354 -2.7352
 8168SOL     OW36136   3.246   1.156   5.622  0.2546  0.1699 -0.6461
 8168SOL    HW136137   3.155   1.157   5.590  0.0362  0.3182 -0.0226
 8168SOL    HW236138   3.288   1.167   5.536  0.7314 -1.0676 -0.5543
 8169SOL     OW36139   4.396   1.498   5.778  0.1855  0.6432 -0.6207
 8169SOL    HW136140   4.369   1.540   5.860  0.0598  1.5942 -1.1429
 8169SOL    HW236141   4.308   1.489   5.740  0.4804 -2.5313 -0.5255
 8170SOL     OW36142   3.491   3.263  14.638 -0.5623  0.4484 -0.3697
 8170SOL    HW136143   3.582   3.290  14.649  0.6777 -3.3903 -1.1689
 8170SOL    HW236144   3.478   3.254  14.543  0.6426 -2.2657 -0.2934
 8171SOL     OW36145   1.748   3.486   4.946 -0.5954 -0.0729  0.6521
 8171SOL    HW136146   1.668   3.521   4.985 -0.4568  1.4181 -0.4408
 8171SOL    HW236147   1.808   3.559   4.961  1.2915 -1.6008  0.5819
 8172SOL     OW36148   3.943   4.678   4.025 -0.3497 -0.4191  0.6374
 8172SOL    HW136149   4.015   4.685   3.963  0.4396 -0.0571  1.5922
 8172SOL    HW236150   3.981   4.722   4.101 -1.3892  0.9088  0.3728
 8173SOL     OW36151   1.567   0.828   7.811  0.5665 -0.1375 -0.0921
 8173SOL    HW136152   1.484   0.818   7.763  1.3267 -2.1268 -0.9885
 8173SOL    HW236153   1.618   0.853   7.734 -0.3136  0.3315 -0.5215
 8174SOL     OW36154   3.476   4.341  10.088  0.0316 -0.7037 -0.7723
 8174SOL    HW136155   3.516   4.399  10.153 -0.4666  0.4775 -1.5228
 8174SOL    HW236156   3.553   4.303  10.045 -0.1986  0.1914 -1.9680
 8175SOL     OW36157   3.282   4.652   0.944 -0.7139  0.5153  0.3591
 8175SOL    HW136158   3.241   4.734   0.917 -2.2401  0.0418  1.2255
 8175SOL    HW236159   3.262   4.607   0.863  1.8493 -1.2291  0.7020
 8176SOL     OW36160   0.781   0.837   6.724 -0.9322  0.7483 -0.3758
 8176SOL    HW136161   0.773   0.895   6.800 -1.7246  0.5368 -0.3021
 8176SOL    HW236162   0.693   0.809   6.701 -1.8899  3.0825  0.4687
 8177SOL     OW36163   3.732   4.662  10.505  0.1935  0.2468  0.2195
 8177SOL    HW136164   3.715   4.718  10.430  1.3891 -0.7678 -0.8100
 8177SOL    HW236165   3.655   4.606  10.502  1.5158 -1.5287 -0.2596
 8178SOL     OW36166   0.384   2.410   5.125 -0.3106  0.1455 -0.1158
 8178SOL    HW136167   0.463   2.447   5.163  0.2492 -1.6791  0.5152
 8178SOL    HW236168   0.363   2.345   5.192  1.3888 -0.1584  0.1072
 8179SOL     OW36169   1.539   4.620   7.656  0.1724  0.1889  0.0873
 8179SOL    HW136170   1.562   4.706   7.692 -2.0134  0.2447  1.3266
 8179SOL    HW236171   1.582   4.573   7.727 -1.6912 -0.5560  0.7094
 8180SOL     OW36172   0.572   2.974   9.752 -0.1029  0.5095  0.0893
 8180SOL    HW136173   0.630   3.024   9.695  0.1812  0.9691  0.7738
 8180SOL    HW236174   0.489   3.014   9.726  0.1470 -0.1038 -1.6099
 8181SOL     OW36175   0.444   1.145   2.114  0.0943  0.2719  0.0536
 8181SOL    HW136176   0.499   1.134   2.192 -0.6362 -0.9980  0.3894
 8181SOL    HW236177   0.471   1.230   2.080 -1.5599  1.8964  2.7877
 8182SOL     OW36178   2.831   1.193   6.153  0.6554  0.1363  0.0626
 8182SOL    HW136179   2.794   1.251   6.086 -0.1132  0.6118  0.8826
 8182SOL    HW236180   2.763   1.210   6.218  0.6748  2.2301 -0.4401
 8183SOL     OW36181   2.048   1.012   7.161 -0.3034  0.1712  0.3764
 8183SOL    HW136182   2.085   0.963   7.088 -0.4997  1.2808 -0.4709
 8183SOL    HW236183   2.065   1.100   7.127  2.7852 -0.9521 -1.0028
 8184SOL     OW36184   0.897   2.217  15.089  0.4636  0.5097  0.2553
 8184SOL    HW136185   0.829   2.202  15.023  0.0203  1.8919  0.3849
 8184SOL    HW236186   0.906   2.312  15.073  1.9240  0.3083 -0.1642
 8185SOL     OW36187   1.551   0.108  15.749 -0.1868  0.2908  0.2911
 8185SOL    HW136188   1.577   0.027  15.704  1.5044  1.3749 -0.6738
 8185SOL    HW236189   1.518   0.069  15.830 -0.7329  2.0855  0.9171
 8186SOL     OW36190   3.674   1.986   4.516  0.2095  0.1598  0.2637
 8186SOL    HW136191   3.647   1.918   4.578  1.3237 -1.0142 -0.5445
 8186SOL    HW236192   3.660   2.057   4.579  0.5424  1.3174 -0.9580
 8187SOL     OW36193   4.518   0.405   4.387  0.4972 -0.0761 -0.0057
 8187SOL    HW136194   4.512   0.310   4.387 -1.2412  0.0310  2.4697
 8187SOL    HW236195   4.607   0.425   4.358  0.1747 -0.7988 -1.4924
 8188SOL     OW36196   0.697   3.070   1.397  0.4451 -0.1379  0.2138
 8188SOL    HW136197   0.635   3.141   1.380  0.7430  0.4100  1.4059
 8188SOL    HW236198   0.708   3.048   1.304 -0.7321 -0.0905  0.0672
 8189SOL     OW36199   2.855   2.136  13.172 -0.2772 -0.0387  0.2944
 8189SOL    HW136200   2.877   2.150  13.264 -2.2204  0.6336  0.6499
 8189SOL    HW236201   2.796   2.208  13.149  0.7417  0.8408  0.4556
 8190SOL     OW36202   0.691   1.156   3.360  0.2218  0.5701  0.4774
 8190SOL    HW136203   0.659   1.068   3.339  0.2532  0.7875 -0.4853
 8190SOL    HW236204   0.708   1.185   3.271  2.4967 -1.2013  0.3456
 8191SOL     OW36205   4.237   0.410  17.055 -0.3442  0.2869 -0.6434
 8191SOL    HW136206   4.195   0.332  17.018 -0.4171  0.4077 -0.8145
 8191SOL    HW236207   4.214   0.397  17.147 -1.4896  4.9686 -0.2573
 8192SOL     OW36208   0.640   0.217   8.577 -0.1818 -0.4265 -0.1857
 8192SOL    HW136209   0.693   0.164   8.635 -4.1402 -1.7209  2.2315
 8192SOL    HW236210   0.699   0.290   8.557  1.0314 -1.4871 -0.4993
 8193SOL     OW36211   4.437   0.251   7.528  0.1091 -0.3169  0.2833
 8193SOL    HW136212   4.528   0.226   7.544  0.1552 -0.7413 -0.6487
 8193SOL    HW236213   4.436   0.227   7.436  0.1860 -1.8583  0.6928
 8194SOL     OW36214   1.794   2.592  11.133  0.1415  0.1015  0.1886
 8194SOL    HW136215   1.865   2.542  11.172 -0.4022 -0.5588  0.3112
 8194SOL    HW236216   1.824   2.597  11.042  2.5546 -0.3231  0.9628
 8195SOL     OW36217   4.043   4.709   4.994 -0.3917  0.5103  0.2390
 8195SOL    HW136218   3.987   4.641   4.956  0.2345  1.2455 -2.0185
 8195SOL    HW236219   4.003   0.053   4.960 -1.1596 -0.1818 -0.4932
 8196SOL     OW36220   2.853   1.234   2.009  0.2251 -0.2196  0.5104
 8196SOL    HW136221   2.879   1.290   2.082 -1.2082 -0.2158  1.0172
 8196SOL    HW236222   2.779   1.284   1.974  0.3905  1.1953  2.1897
 8197SOL     OW36223   3.067   4.626   8.045  0.1909 -0.2390 -0.3478
 8197SOL    HW136224   2.996   4.680   8.081 -0.8763 -0.9414 -1.3988
 8197SOL    HW236225   3.136   4.692   8.057 -1.6229  1.4508  0.8038
 8198SOL     OW36226   3.022   2.920   6.686 -0.4228  0.1975 -0.3413
 8198SOL    HW136227   3.005   2.977   6.760  1.9095 -1.1373  1.2039
 8198SOL    HW236228   2.933   2.889   6.667 -0.1555 -0.6342 -0.2462
 8199SOL     OW36229   1.143   0.199  17.295 -0.0655  0.5978 -0.5874
 8199SOL    HW136230   1.106   0.113  17.278  0.2620  0.4138 -0.3803
 8199SOL    HW236231   1.068   0.258  17.295 -1.0186 -0.5919  0.6440
 8200SOL     OW36232   4.658   1.445   6.141 -0.3757 -0.3685  0.2752
 8200SOL    HW136233   4.593   1.396   6.090 -0.5014 -1.8397  1.8394
 8200SOL    HW236234   4.607   1.525   6.154  1.2159  1.1517 -2.8889
 8201SOL     OW36235   2.885   1.412   2.481 -0.0239 -0.0710 -0.3871
 8201SOL    HW136236   2.910   1.321   2.497  0.2174 -0.0065 -0.3887
 8201SOL    HW236237   2.808   1.419   2.536  0.5288  0.3736  0.3332
 8202SOL     OW36238   0.437   3.199   3.893  0.5972 -0.0889 -0.2328
 8202SOL    HW136239   0.459   3.156   3.976 -0.9744 -0.6114 -0.0794
 8202SOL    HW236240   0.522   3.219   3.855  1.3771  1.7276  2.4831
 8203SOL     OW36241   2.390   1.661  11.475 -0.2368 -0.2938  0.3643
 8203SOL    HW136242   2.436   1.729  11.427  0.8555 -0.3486  1.3260
 8203SOL    HW236243   2.445   1.587  11.451 -0.2079 -0.4841  1.0124
 8204SOL     OW36244   3.621   1.637   5.275 -0.2435  0.7779 -0.5134
 8204SOL    HW136245   3.654   1.713   5.322 -1.6260  0.1036  1.5749
 8204SOL    HW236246   3.702   1.587   5.266 -0.7122  0.0022 -0.4101
 8205SOL     OW36247   4.470   2.463   3.366 -1.1005  0.4146  0.1471
 8205SOL    HW136248   4.406   2.517   3.414 -0.2147  0.9729  0.6937
 8205SOL    HW236249   4.547   2.487   3.417 -0.8226 -0.1115 -0.0325
 8206SOL     OW36250   1.297   2.367   3.193  0.2995  0.4105 -0.1707
 8206SOL    HW136251   1.241   2.317   3.133 -1.3888  0.4218  1.3915
 8206SOL    HW236252   1.255   2.453   3.190  0.2547  0.4015  0.1848
 8207SOL     OW36253   3.740   4.113   7.323  1.2511 -0.2990 -0.0266
 8207SOL    HW136254   3.693   4.051   7.380  0.2179  0.6154  0.1331
 8207SOL    HW236255   3.811   4.054   7.301  3.7596  2.4380  0.7684
 8208SOL     OW36256   1.721   2.286   9.864  0.3630 -0.4862 -0.6498
 8208SOL    HW136257   1.631   2.312   9.879  0.8142  1.8357 -2.0591
 8208SOL    HW236258   1.708   2.193   9.845 -0.3452 -0.4954 -0.1097
 8209SOL     OW36259   4.553   3.230   6.603 -0.1456 -0.0811  0.0615
 8209SOL    HW136260   4.587   3.318   6.618 -1.4054  0.0417  2.1838
 8209SOL    HW236261   4.613   3.188   6.665  2.1660 -0.3189 -2.3230
 8210SOL     OW36262   4.363   1.558   6.721 -0.0361  0.3156  0.1634
 8210SOL    HW136263   4.423   1.485   6.708 -1.6932 -0.8920 -0.7034
 8210SOL    HW236264   4.386   1.582   6.810  0.0264  0.9122 -0.0165
 8211SOL     OW36265   4.066   1.475   6.421 -0.4365  0.2515 -0.0763
 8211SOL    HW136266   4.131   1.542   6.441  1.7383 -1.9667  0.2321
 8211SOL    HW236267   4.001   1.540   6.390 -1.1256  0.1450  1.1656
 8212SOL     OW36268   1.790   4.709  11.217 -0.6846 -0.3354  0.2442
 8212SOL    HW136269   1.835   4.630  11.247  0.4786 -0.0887 -0.8312
 8212SOL    HW236270   1.731   4.678  11.149 -0.3570  1.3257 -0.8049
 8213SOL     OW36271   0.857   3.571   5.894 -0.1189 -0.6848  0.1530
 8213SOL    HW136272   0.771   3.544   5.862 -0.5628  1.1848 -0.2594
 8213SOL    HW236273   0.914   3.571   5.816 -0.8868 -2.7315 -0.4082
 8214SOL     OW36274   2.122   1.421  11.580  0.3796 -0.1678  0.5699
 8214SOL    HW136275   2.117   1.516  11.588  0.1267 -0.0549 -0.8873
 8214SOL    HW236276   2.058   1.394  11.645  1.5846 -1.7346  1.1206
 8215SOL     OW36277   3.420   3.092   0.871  0.4711 -0.0143  0.3100
 8215SOL    HW136278   3.506   3.132   0.853 -0.1292 -0.0361 -2.5952
 8215SOL    HW236279   3.437   3.046   0.953  0.9915 -1.6855 -0.7521
 8216SOL     OW36280   1.046   1.304   3.773 -0.7532 -0.5547  0.8843
 8216SOL    HW136281   0.976   1.290   3.709  0.6014  0.0235 -0.7119
 8216SOL    HW236282   1.114   1.238   3.758  0.5088  0.6184  1.4850
 8217SOL     OW36283   3.433   0.628   7.140 -0.2853 -0.3378  0.5488
 8217SOL    HW136284   3.395   0.541   7.159 -1.0750 -0.5947 -2.1885
 8217SOL    HW236285   3.487   0.628   7.219  2.7856  1.4554 -1.5634
 8218SOL     OW36286   1.975   0.886   8.831 -0.2873 -0.2294 -0.2758
 8218SOL    HW136287   1.923   0.926   8.901 -0.6323  0.8908 -1.1886
 8218SOL    HW236288   2.023   0.959   8.792 -0.4699 -0.6444 -1.2761
 8219SOL     OW36289   2.069   1.966   8.514 -0.6954 -0.4313 -0.1399
 8219SOL    HW136290   2.002   1.929   8.572  0.8589 -2.0107  0.6596
 8219SOL    HW236291   2.093   2.041   8.568  0.2387 -1.0092  0.2579
 8220SOL     OW36292   0.101   0.533  13.466 -0.0547  0.2165  0.0095
 8220SOL    HW136293   0.024   0.583  13.493  0.1826  1.6749 -2.0328
 8220SOL    HW236294   0.164   0.604  13.466 -0.0866  0.2403  1.2179
 8221SOL     OW36295   2.479   1.618  15.211  0.1923 -0.2574 -0.0717
 8221SOL    HW136296   2.456   1.640  15.121 -0.3952  0.5972  0.2933
 8221SOL    HW236297   2.400   1.637  15.262  0.4345 -2.4843  1.1197
 8222SOL     OW36298   0.045   0.273   8.921  0.3049  0.2572 -0.0071
 8222SOL    HW136299   0.105   0.248   8.991 -1.4471  2.0045  2.1117
 8222SOL    HW236300   0.115   0.310   8.868  1.1943  0.1820  1.1295
 8223SOL     OW36301   1.242   4.441   2.253 -0.2638  0.1207  0.8742
 8223SOL    HW136302   1.247   4.346   2.244 -0.1286  0.1820  0.3517
 8223SOL    HW236303   1.282   4.445   2.340  1.2252 -0.3226  0.2093
 8224SOL     OW36304   1.972   4.470   5.135 -0.2447  0.1007  0.0781
 8224SOL    HW136305   2.023   4.411   5.190  1.4433  0.0924 -1.5210
 8224SOL    HW236306   1.889   4.429   5.158  0.3832 -0.2882  1.6838
 8225SOL     OW36307   3.467   1.916   4.232  0.3028  0.2345 -0.6746
 8225SOL    HW136308   3.430   1.916   4.143  1.5018 -1.2067 -1.1801
 8225SOL    HW236309   3.562   1.910   4.221  0.1109 -1.2654 -1.5382
 8226SOL     OW36310   1.969   1.854   2.139  0.1583 -0.4724  0.1060
 8226SOL    HW136311   1.986   1.948   2.133  0.5331 -0.5997 -0.7318
 8226SOL    HW236312   2.057   1.820   2.124  0.9041  1.4020  0.1678
 8227SOL     OW36313   3.524   0.629   7.392 -0.1540  0.0491  0.0505
 8227SOL    HW136314   3.587   0.560   7.413 -0.5153 -0.1114  0.6056
 8227SOL    HW236315   3.491   0.654   7.478 -0.3101 -0.0924  0.0345
 8228SOL     OW36316   4.014   0.312   6.446 -0.5654 -0.1085  0.5722
 8228SOL    HW136317   3.990   0.222   6.422  0.8390 -0.4043  0.2975
 8228SOL    HW236318   4.108   0.312   6.429 -0.4404  0.2631  1.2616
 8229SOL     OW36319   4.073   3.616   3.874 -0.3162 -0.0365 -0.3976
 8229SOL    HW136320   4.016   3.651   3.942  2.3986  2.5551  0.5490
 8229SOL    HW236321   4.085   3.688   3.812  0.1298 -1.2049 -1.6524
 8230SOL     OW36322   0.575   2.751   3.242 -0.2797  0.2633 -0.2168
 8230SOL    HW136323   0.517   2.755   3.318 -1.5469  2.1664 -1.2861
 8230SOL    HW236324   0.516   2.749   3.166 -1.8803 -1.2554  1.0622
 8231SOL     OW36325   0.332   0.583  12.866 -0.0237  0.1064 -0.3784
 8231SOL    HW136326   0.253   0.543  12.901  0.0951 -0.1362 -0.3855
 8231SOL    HW236327   0.387   0.578  12.945  0.0268  2.2579 -0.2873
 8232SOL     OW36328   0.250   3.509   1.468 -0.2277 -0.2099 -0.1856
 8232SOL    HW136329   0.218   3.573   1.532  0.7383 -0.9674  1.0572
 8232SOL    HW236330   0.215   3.550   1.389 -1.8638 -0.7070  0.2780
 8233SOL     OW36331   1.203   2.613  17.336 -0.3378  0.0531  0.0877
 8233SOL    HW136332   1.108   2.611  17.321 -0.3438 -0.7249  0.2497
 8233SOL    HW236333   1.232   2.598  17.247  1.8964 -0.4622  0.9036
 8234SOL     OW36334   0.227   3.501   7.404 -0.1684  0.2007  0.0344
 8234SOL    HW136335   0.245   3.407   7.401  1.3522  0.4140  2.8044
 8234SOL    HW236336   0.243   3.517   7.497 -1.6086 -1.4638  0.5629
 8235SOL     OW36337   0.991   2.119   5.569 -0.1469  0.4298 -0.5623
 8235SOL    HW136338   0.955   2.179   5.504 -0.3963  0.6321 -0.2380
 8235SOL    HW236339   1.060   2.076   5.519  0.0838  1.7785 -1.3894
 8236SOL     OW36340   2.730   4.071   2.234 -0.5012  0.6324 -0.3616
 8236SOL    HW136341   2.807   4.063   2.290  0.5534 -0.6444 -2.0061
 8236SOL    HW236342   2.667   4.101   2.300 -0.2888  0.8827 -0.2758
 8237SOL     OW36343   1.694   3.772  15.074 -0.3957 -0.0860  0.1494
 8237SOL    HW136344   1.691   3.846  15.014 -3.2371  0.3846  0.8623
 8237SOL    HW236345   1.782   3.778  15.111 -0.2278 -2.8204  0.2465
 8238SOL     OW36346   3.159   1.526  11.070  0.1215  0.1569  1.0005
 8238SOL    HW136347   3.189   1.600  11.123 -0.5721  0.9491  0.2814
 8238SOL    HW236348   3.078   1.556  11.029  0.5505 -0.4846 -0.3421
 8239SOL     OW36349   4.182   0.483  15.791 -0.1761  0.3905  0.6053
 8239SOL    HW136350   4.249   0.483  15.859  1.0607 -1.5967 -0.6297
 8239SOL    HW236351   4.163   0.390  15.776 -0.2375  0.4879  0.0924
 8240SOL     OW36352   2.654   2.840   1.271 -0.5588  0.0397 -0.9630
 8240SOL    HW136353   2.654   2.932   1.245  0.8089 -0.2495 -1.9833
 8240SOL    HW236354   2.650   2.802   1.183  1.7221 -1.9278 -0.2067
 8241SOL     OW36355   3.345   2.175   3.972 -0.2556  0.2631  0.0509
 8241SOL    HW136356   3.327   2.081   3.983  1.9593 -0.0669  0.7691
 8241SOL    HW236357   3.436   2.171   3.942 -0.2738 -3.7579  0.5107
 8242SOL     OW36358   4.301   2.403  14.431 -0.3968  0.0675  0.1902
 8242SOL    HW136359   4.328   2.336  14.494  1.1598 -2.0202 -2.7217
 8242SOL    HW236360   4.288   2.476  14.492 -0.8746  0.2823 -0.1648
 8243SOL     OW36361   2.944   2.797   9.803 -0.5643  0.1118 -0.2625
 8243SOL    HW136362   2.994   2.731   9.754  1.1750 -0.3731  2.1719
 8243SOL    HW236363   2.879   2.749   9.854 -1.2461  0.0751 -1.1542
 8244SOL     OW36364   4.069   2.046  10.091  0.2249 -0.4358  0.0863
 8244SOL    HW136365   4.152   2.015  10.055 -0.6585 -3.7438  0.8772
 8244SOL    HW236366   3.999   2.014  10.035 -1.2367 -1.3042  2.3884
 8245SOL     OW36367   3.416   1.960   7.515  0.1301 -0.1469 -0.7474
 8245SOL    HW136368   3.325   1.983   7.534  0.8378  1.8676  0.1824
 8245SOL    HW236369   3.443   2.026   7.451 -1.1759  0.5527 -0.5871
 8246SOL     OW36370   2.422   0.184   6.892  0.3053  0.5196 -0.1311
 8246SOL    HW136371   2.458   0.105   6.933  0.6396  1.2299  0.9594
 8246SOL    HW236372   2.386   0.231   6.968 -2.1522 -1.8535  0.1418
 8247SOL     OW36373   3.810   3.290   5.063 -0.0487 -0.1875  0.3670
 8247SOL    HW136374   3.843   3.351   4.997 -2.4503  2.8784  1.9260
 8247SOL    HW236375   3.882   3.292   5.126 -1.3492 -0.2352  1.8812
 8248SOL     OW36376   2.914   3.481   7.856 -0.3102 -0.1568 -0.9639
 8248SOL    HW136377   2.994   3.510   7.812  1.0438 -0.2615  1.4207
 8248SOL    HW236378   2.908   3.555   7.917 -1.0601  1.1644 -2.6324
 8249SOL     OW36379   2.402   4.147   9.000  0.5861  0.4936 -0.3668
 8249SOL    HW136380   2.334   4.215   9.004  0.1698  0.0933 -0.6893
 8249SOL    HW236381   2.440   4.147   9.088  0.3419 -1.5507 -0.2685
 8250SOL     OW36382   0.206   0.091   6.410 -0.2856 -0.0157 -0.2377
 8250SOL    HW136383   0.119   0.096   6.369  0.6285 -1.7468 -2.4157
 8250SOL    HW236384   0.204   0.002   6.445 -0.4485  0.2581  0.4573
 8251SOL     OW36385   0.839   1.803   3.820  0.7112  0.2360  0.2477
 8251SOL    HW136386   0.799   1.745   3.756  2.2476 -1.9226  1.2759
 8251SOL    HW236387   0.840   1.887   3.773 -1.3903  0.4578  0.5900
 8252SOL     OW36388   1.222   2.393  15.209  0.1365 -0.4802 -0.7335
 8252SOL    HW136389   1.245   2.449  15.135  1.2976 -0.0888 -0.0766
 8252SOL    HW236390   1.132   2.369  15.187  0.1036 -2.2042  1.2235
 8253SOL     OW36391   1.413   0.096   4.672  0.2323  0.5980  0.8396
 8253SOL    HW136392   1.349   0.132   4.734 -1.1455 -1.4695  0.6224
 8253SOL    HW236393   1.393   0.002   4.675  0.2282  0.5562 -0.3283
 8254SOL     OW36394   3.569   1.385   4.897  0.1945  0.4470  0.5041
 8254SOL    HW136395   3.620   1.305   4.887 -1.9833 -0.8826 -0.1596
 8254SOL    HW236396   3.492   1.353   4.944  1.4877 -1.4221  1.3381
 8255SOL     OW36397   2.767   4.424  16.039  0.0934 -0.2970 -0.3556
 8255SOL    HW136398   2.833   4.494  16.034 -0.4949  0.1989 -1.3464
 8255SOL    HW236399   2.812   4.348  16.075  1.7115  0.3032 -1.1191
 8256SOL     OW36400   1.009   3.968   2.312  0.1788 -0.3599 -0.0042
 8256SOL    HW136401   0.943   4.030   2.279  0.2927 -0.2998 -0.1175
 8256SOL    HW236402   1.012   3.981   2.407  1.5491  1.0471 -0.2333
 8257SOL     OW36403   2.183   0.302   2.542 -0.2571 -0.0899 -0.1678
 8257SOL    HW136404   2.150   0.353   2.616 -0.2122  2.0956 -1.6570
 8257SOL    HW236405   2.107   0.251   2.512  1.8858 -2.8059 -0.9896
 8258SOL     OW36406   2.585   1.405  12.898 -0.0081 -0.0516 -0.1318
 8258SOL    HW136407   2.654   1.346  12.866  0.2816 -0.2773  0.8998
 8258SOL    HW236408   2.591   1.377  12.990  0.2255  1.6167  0.3617
 8259SOL     OW36409   3.178   0.130  10.924  0.6689  0.0021 -0.0919
 8259SOL    HW136410   3.086   0.156  10.927 -0.1278 -2.6214 -1.9319
 8259SOL    HW236411   3.222   0.213  10.942 -0.1334  0.8509 -2.0916
 8260SOL     OW36412   0.382   3.962  16.801 -0.3186  0.8511  0.3558
 8260SOL    HW136413   0.355   3.896  16.738  2.1802 -1.8790  2.1271
 8260SOL    HW236414   0.318   3.956  16.871 -1.7368 -1.2675 -1.1257
 8261SOL     OW36415   3.131   0.213   4.654  0.4508  0.2117  0.1418
 8261SOL    HW136416   3.063   0.279   4.662 -0.1866 -0.1230 -2.5997
 8261SOL    HW236417   3.195   0.254   4.595 -1.5426 -0.5607 -2.5861
 8262SOL     OW36418   0.311   0.606   8.100  0.6680  0.1908  0.5444
 8262SOL    HW136419   0.372   0.676   8.125  0.6720  0.1765  0.5741
 8262SOL    HW236420   0.255   0.591   8.176 -1.1488  0.3001 -0.7888
 8263SOL     OW36421   0.260   3.665   3.802 -0.4452 -0.3981 -0.2054
 8263SOL    HW136422   0.249   3.579   3.842  2.2963  0.0389  1.5079
 8263SOL    HW236423   0.189   3.705   3.852  1.3790  2.3248  0.2101
 8264SOL     OW36424   0.590   3.020   2.946  0.4936 -0.4625 -0.1252
 8264SOL    HW136425   0.614   2.990   2.858 -0.6046  2.6755 -1.5021
 8264SOL    HW236426   0.514   2.963   2.958 -0.6485  0.9166 -0.8738
 8265SOL     OW36427   0.493   0.227   1.801  0.1644  0.1686 -0.4576
 8265SOL    HW136428   0.446   0.149   1.831  0.4826  0.3995  0.6538
 8265SOL    HW236429   0.421   0.279   1.766 -3.1989 -0.4698  5.5034
 8266SOL     OW36430   0.265   3.162  13.774  0.1051 -0.2225  0.2921
 8266SOL    HW136431   0.265   3.121  13.687  0.4614  0.3559  0.0203
 8266SOL    HW236432   0.298   3.085  13.820 -0.3713 -0.3475  0.4206
 8267SOL     OW36433   1.218   4.087  16.295  0.1252 -0.1003 -0.1835
 8267SOL    HW136434   1.123   4.097  16.288  0.0563 -0.1289  0.7053
 8267SOL    HW236435   1.239   4.106  16.386  0.0684  1.9508 -0.6141
 8268SOL     OW36436   2.931   0.199  13.398  0.1670  0.0495 -0.0093
 8268SOL    HW136437   2.948   0.201  13.492  1.8038 -3.1653 -0.2480
 8268SOL    HW236438   3.012   0.167  13.359  0.2517 -0.5968  0.7106
 8269SOL     OW36439   3.824   1.918   6.231 -0.5504 -0.1767  0.3734
 8269SOL    HW136440   3.838   1.943   6.140 -2.0137 -0.4096  0.0926
 8269SOL    HW236441   3.776   1.991   6.271  4.1701  3.5195 -0.6287
 8270SOL     OW36442   3.390   2.050   3.628 -0.5411  0.5035  0.4962
 8270SOL    HW136443   3.395   1.979   3.691 -2.0857 -0.7339 -0.7810
 8270SOL    HW236444   3.308   2.029   3.584 -0.6718 -0.9423  1.4561
 8271SOL     OW36445   3.658   1.963  15.086 -0.5667 -0.3232  0.0771
 8271SOL    HW136446   3.702   2.023  15.146  1.1875 -1.9491  0.4002
 8271SOL    HW236447   3.581   2.003  15.045 -2.0595 -2.2989  0.8955
 8272SOL     OW36448   1.702   4.209   3.650  0.4606 -0.7558  0.3304
 8272SOL    HW136449   1.645   4.141   3.686 -1.1530 -0.6427 -1.9729
 8272SOL    HW236450   1.768   4.214   3.719 -0.9674 -1.1622  1.7102
 8273SOL     OW36451   4.342   3.550  13.444  0.4104 -0.2887  0.2131
 8273SOL    HW136452   4.381   3.553  13.532 -0.7182 -0.6051  0.7187
 8273SOL    HW236453   4.410   3.509  13.391 -0.2300 -1.1759  0.0869
 8274SOL     OW36454   4.547   2.958   1.707 -0.5043  0.4754 -0.1682
 8274SOL    HW136455   4.629   2.938   1.662 -0.4380  0.5100 -0.0621
 8274SOL    HW236456   4.495   2.887   1.669  0.7241 -0.1842 -0.5810
 8275SOL     OW36457   0.568   1.743   6.352 -0.0042 -0.1034  0.0985
 8275SOL    HW136458   0.646   1.691   6.370  1.1363  2.2241  2.0309
 8275SOL    HW236459   0.497   1.679   6.352 -0.6950  0.6395 -2.9434
 8276SOL     OW36460   1.612   1.891  11.532  0.3525  0.3377  0.0692
 8276SOL    HW136461   1.661   1.958  11.579  0.6736 -1.7073  2.6670
 8276SOL    HW236462   1.563   1.935  11.463  2.0566  0.2446 -1.1920
 8277SOL     OW36463   0.395   2.743   2.982  0.1923 -0.4618 -0.2057
 8277SOL    HW136464   0.307   2.710   2.964 -0.0902 -0.3053  0.8476
 8277SOL    HW236465   0.420   2.770   2.894 -2.0090  2.1216 -0.0402
 8278SOL     OW36466   1.416   1.050   4.924 -0.4186  0.1458  0.6766
 8278SOL    HW136467   1.346   1.087   4.977  0.7368  0.9588  1.6427
 8278SOL    HW236468   1.372   0.974   4.887  1.0227 -1.1689  1.6803
 8279SOL     OW36469   3.995   2.080   6.436  0.2558 -0.2408 -0.1684
 8279SOL    HW136470   4.076   2.041   6.469  0.1354 -0.5872 -0.2823
 8279SOL    HW236471   3.965   2.034   6.358 -0.3948  1.0222 -0.6673
 8280SOL     OW36472   3.207   0.289   1.902  0.0721  0.5758 -0.8483
 8280SOL    HW136473   3.268   0.353   1.866  2.4430 -1.2478 -0.0891
 8280SOL    HW236474   3.242   0.212   1.856  0.5647 -0.0325  0.5323
 8281SOL     OW36475   1.012   2.446   2.959  0.5693 -0.1507 -0.3723
 8281SOL    HW136476   1.034   2.373   3.016  1.6581  0.8828  0.5307
 8281SOL    HW236477   1.000   2.514   3.025 -0.5352 -0.0802 -0.6474
 8282SOL     OW36478   1.426   2.942   7.105 -0.0679 -0.0247 -0.5909
 8282SOL    HW136479   1.403   2.855   7.138  0.8234  0.1684  0.5102
 8282SOL    HW236480   1.393   2.939   7.015 -0.0400 -1.4716 -0.5624
 8283SOL     OW36481   2.996   1.560   7.751 -0.0100  0.4908  0.9165
 8283SOL    HW136482   2.984   1.489   7.814  4.2706  0.1299  1.3498
 8283SOL    HW236483   2.907   1.589   7.731 -0.1069 -0.2180  0.2860
 8284SOL     OW36484   2.933   1.118   4.423 -0.3163  0.1558 -0.1283
 8284SOL    HW136485   2.913   1.190   4.363 -1.4361 -0.9488 -1.0871
 8284SOL    HW236486   3.016   1.084   4.390 -0.1295  1.4158 -0.9918
 8285SOL     OW36487   1.124   1.548   6.951  0.3199 -0.0419  0.2521
 8285SOL    HW136488   1.080   1.552   7.036  2.6832  1.8168  1.3817
 8285SOL    HW236489   1.113   1.636   6.916  1.1203 -0.1313 -0.2266
 8286SOL     OW36490   3.268   3.361  11.512 -0.6381  0.0084  0.1092
 8286SOL    HW136491   3.352   3.396  11.482 -0.6468 -0.0081  0.0640
 8286SOL    HW236492   3.258   3.410  11.593  2.8062  1.0610 -0.1228
 8287SOL     OW36493   4.086   3.753   6.871 -0.4011  0.0791  0.1973
 8287SOL    HW136494   4.038   3.812   6.812 -1.2366 -0.2484  0.5419
 8287SOL    HW236495   4.161   3.798   6.911  0.2990 -0.4770 -0.5081
 8288SOL     OW36496   4.294   2.444  16.019 -0.5212 -0.6230  0.0632
 8288SOL    HW136497   4.290   2.503  15.945 -2.5255 -0.5841  0.2113
 8288SOL    HW236498   4.223   2.385  15.993 -1.9054  1.4112 -0.7237
 8289SOL     OW36499   1.440   0.405   7.443 -0.0174  0.3356  0.0386
 8289SOL    HW136500   1.349   0.429   7.456 -0.0962 -1.3468  2.5673
 8289SOL    HW236501   1.458   0.460   7.367  1.2546  1.0461  0.8510
 8290SOL     OW36502   2.213   3.072   4.100  0.1244  0.1905  0.3873
 8290SOL    HW136503   2.125   3.109   4.102 -0.0952 -0.1331 -2.8199
 8290SOL    HW236504   2.230   3.094   4.191  1.1737  0.1367  0.2070
 8291SOL     OW36505   0.974   0.087   6.002 -0.2960 -0.4991 -0.1666
 8291SOL    HW136506   1.066   0.062   5.998  0.3224  1.3231  2.0450
 8291SOL    HW236507   0.984   0.178   6.031  0.6776 -0.3274 -1.0449
 8292SOL     OW36508   1.900   0.696   6.153 -0.0391 -0.0580 -0.5823
 8292SOL    HW136509   1.981   0.657   6.120  0.3248 -1.0780  1.5217
 8292SOL    HW236510   1.891   0.758   6.081  1.6821  1.4185  0.4871
 8293SOL     OW36511   1.314   4.143   2.038  0.5667 -0.0317  0.7678
 8293SOL    HW136512   1.371   4.128   1.962  0.1027 -1.1804  0.6487
 8293SOL    HW236513   1.297   4.057   2.075  1.2532 -0.1829  0.7422
 8294SOL     OW36514   1.020   2.835   5.550  0.0848 -0.0301  0.3780
 8294SOL    HW136515   1.099   2.863   5.596  1.1369 -1.1025 -0.7626
 8294SOL    HW236516   1.058   2.752   5.523  0.7362  0.1339  0.8084
 8295SOL     OW36517   4.543   0.994  10.908 -0.2184  0.0322  0.3297
 8295SOL    HW136518   4.626   1.006  10.955  0.9084 -1.6618 -1.2021
 8295SOL    HW236519   4.548   1.064  10.843  1.2645  0.9808  1.4571
 8296SOL     OW36520   3.288   3.613   4.589 -0.3386  0.3088 -0.6119
 8296SOL    HW136521   3.382   3.614   4.571 -0.8019 -2.1214 -3.0122
 8296SOL    HW236522   3.285   3.690   4.647 -1.3718  0.7617 -1.2558
 8297SOL     OW36523   1.886   3.399  13.865 -0.3609  0.5010 -0.0501
 8297SOL    HW136524   1.828   3.343  13.917  0.1958 -0.6167 -0.6145
 8297SOL    HW236525   1.835   3.475  13.839  0.1463 -0.0067 -2.5865
 8298SOL     OW36526   1.797   0.174   7.961 -0.0407  0.2349 -0.2717
 8298SOL    HW136527   1.792   0.252   8.017  1.1174  0.7347 -0.8731
 8298SOL    HW236528   1.877   0.194   7.913 -0.5546 -1.1334 -1.7038
 8299SOL     OW36529   3.912   4.018   9.867 -0.1052 -0.2379 -0.1506
 8299SOL    HW136530   3.943   4.105   9.892  0.1925 -0.8920  1.7573
 8299SOL    HW236531   3.980   3.998   9.803 -2.1791 -1.7763 -1.8897
 8300SOL     OW36532   0.916   4.385   8.179  0.8654  0.0548  0.0898
 8300SOL    HW136533   0.963   4.346   8.253  0.7286 -0.4019 -0.0645
 8300SOL    HW236534   0.879   4.464   8.216 -0.0471 -0.3515  0.0442
 8301SOL     OW36535   0.665   0.493   5.733  0.3104  0.3184 -0.2054
 8301SOL    HW136536   0.760   0.503   5.741  0.4646 -0.2222 -1.3292
 8301SOL    HW236537   0.660   0.424   5.798  1.4337 -1.2099 -1.7295
 8302SOL     OW36538   3.769   2.640   6.971  0.4842  0.3588 -0.2135
 8302SOL    HW136539   3.732   2.712   6.920  0.3492  0.5430  0.1422
 8302SOL    HW236540   3.800   2.584   6.900  0.0607  0.2866 -0.3410
 8303SOL     OW36541   4.489   3.805   8.760  0.5812 -0.4157 -0.0444
 8303SOL    HW136542   4.422   3.864   8.728 -0.7770 -1.5724  0.6921
 8303SOL    HW236543   4.470   3.782   8.850  0.6159  0.2453  0.1295
 8304SOL     OW36544   0.470   2.368   3.098  0.0193  0.1423  0.1702
 8304SOL    HW136545   0.404   2.403   3.039 -1.3384 -1.5001  0.7206
 8304SOL    HW236546   0.547   2.363   3.041  1.3718  1.1531  1.9217
 8305SOL     OW36547   3.656   0.101   4.722  0.0136 -0.3455  0.6668
 8305SOL    HW136548   3.732   0.047   4.704 -0.8011 -0.2443 -3.1212
 8305SOL    HW236549   3.587   0.054   4.674  1.0790 -0.2542 -0.9413
 8306SOL     OW36550   2.283   1.897   8.387 -0.3436 -0.1988  0.2250
 8306SOL    HW136551   2.200   1.914   8.431  0.5641  0.0769  1.8172
 8306SOL    HW236552   2.291   1.805   8.414 -0.2970 -0.8211 -1.8773
 8307SOL     OW36553   1.426   1.872   4.677  0.1795 -0.0401 -0.4942
 8307SOL    HW136554   1.458   1.782   4.668 -0.0069 -0.3996  2.4534
 8307SOL    HW236555   1.337   1.844   4.698  1.7382 -1.6434  3.9563
 8308SOL     OW36556   3.212   0.481   9.595  0.3619 -0.2392  0.0934
 8308SOL    HW136557   3.196   0.469   9.689 -0.7321  1.1631  0.0972
 8308SOL    HW236558   3.143   0.429   9.554 -0.5751  0.0111  1.3485
 8309SOL     OW36559   4.607   1.015   2.060  0.4996  0.1266 -0.3058
 8309SOL    HW136560   4.639   1.078   1.995  0.7821  1.3288  0.9757
 8309SOL    HW236561   4.652   1.047   2.138 -0.5802  0.9052  0.0065
 8310SOL     OW36562   1.669   1.630   5.509  0.5145  0.3892  0.0474
 8310SOL    HW136563   1.596   1.569   5.518  0.4276  0.2058 -1.7823
 8310SOL    HW236564   1.731   1.572   5.463 -0.6192  1.1553 -2.4653
 8311SOL     OW36565   0.205   4.315   8.313 -0.2523  0.3173 -0.4116
 8311SOL    HW136566   0.122   4.347   8.278 -1.9460 -1.4805  1.9415
 8311SOL    HW236567   0.229   4.372   8.385  1.6505  0.1107 -0.8623
 8312SOL     OW36568   0.056   1.116   7.374 -0.1172 -0.4391 -0.3113
 8312SOL    HW136569   0.082   1.070   7.454 -0.6101 -1.5307 -0.7793
 8312SOL    HW236570   4.703   1.145   7.392 -0.1061  0.3608 -1.5035
 8313SOL     OW36571   3.277   2.470   5.083 -0.1946 -1.2186  0.2312
 8313SOL    HW136572   3.195   2.422   5.077 -0.3634 -1.0142  0.9926
 8313SOL    HW236573   3.308   2.430   5.163  1.8598  0.4960  0.3007
 8314SOL     OW36574   3.945   0.767   5.210 -0.0649  0.1629  0.3531
 8314SOL    HW136575   3.893   0.838   5.247 -0.3907  0.5074 -0.7595
 8314SOL    HW236576   4.027   0.817   5.203 -0.0735 -0.0020 -0.8535
 8315SOL     OW36577   2.593   4.473   7.607  0.7392  0.4769  0.6196
 8315SOL    HW136578   2.648   4.398   7.583  1.9622  1.2411  1.0476
 8315SOL    HW236579   2.516   4.425   7.639  1.4634 -0.4141  1.0430
 8316SOL     OW36580   2.340   2.069   2.552  0.2359  0.6566  0.4566
 8316SOL    HW136581   2.324   2.128   2.478 -1.4633 -1.8936 -1.1926
 8316SOL    HW236582   2.277   2.000   2.532  0.7580  0.3894 -0.2751
 8317SOL     OW36583   3.279   1.809   5.353  0.3294 -0.3642  0.0914
 8317SOL    HW136584   3.341   1.743   5.385  0.1129 -1.0435 -0.8971
 8317SOL    HW236585   3.195   1.770   5.374  0.9476 -1.6155  0.2344
 8318SOL     OW36586   0.329   2.567   1.484  0.2957  0.3316 -0.2620
 8318SOL    HW136587   0.363   2.604   1.566  1.3556 -1.3285  0.0418
 8318SOL    HW236588   0.409   2.544   1.437  0.0950 -0.8234 -0.0280
 8319SOL     OW36589   0.832   3.303   9.840  1.0140 -0.3840 -0.0601
 8319SOL    HW136590   0.922   3.313   9.872  0.5581  1.5072  0.6795
 8319SOL    HW236591   0.804   3.395   9.838  2.7096  0.1794  1.9599
 8320SOL     OW36592   2.578   1.167   2.259 -0.3072 -0.4370  0.1846
 8320SOL    HW136593   2.568   1.258   2.232 -0.8015  0.5667  3.7518
 8320SOL    HW236594   2.614   1.123   2.182 -0.7480  0.0615 -0.2938
 8321SOL     OW36595   4.631   4.419   6.354 -0.3861 -0.0604  0.3227
 8321SOL    HW136596   4.588   4.471   6.287  1.5400  0.5648 -0.4223
 8321SOL    HW236597   4.578   4.339   6.358  0.5000 -0.6934 -0.5875
 8322SOL     OW36598   1.930   2.228   9.144  0.0892 -0.0933  0.1122
 8322SOL    HW136599   2.000   2.236   9.209 -1.6840  0.3441  1.9955
 8322SOL    HW236600   1.926   2.135   9.163 -1.3813 -0.2262 -0.8484
 8323SOL     OW36601   0.164   1.009   4.212 -0.1352 -0.3048 -0.1361
 8323SOL    HW136602   0.212   0.927   4.219  0.2141 -0.1131 -0.3071
 8323SOL    HW236603   0.084   0.983   4.166 -0.3193 -0.4667  0.2726
 8324SOL     OW36604   2.429   3.321   0.877 -0.4873 -0.5437  0.2922
 8324SOL    HW136605   2.348   3.362   0.848 -0.9962 -1.6780  0.0808
 8324SOL    HW236606   2.483   3.335   0.799 -0.6643  0.0888  0.2832
 8325SOL     OW36607   1.146   2.876  10.376 -0.1224 -0.5475  0.4237
 8325SOL    HW136608   1.228   2.923  10.364  0.6364 -2.0711 -0.3541
 8325SOL    HW236609   1.119   2.858  10.286 -0.3926 -2.1804  0.8464
 8326SOL     OW36610   4.001   2.167   0.618 -0.7564 -0.2144 -0.1643
 8326SOL    HW136611   4.085   2.121   0.622 -1.5981 -1.7304 -0.0240
 8326SOL    HW236612   3.971   2.193   0.706 -0.1183 -0.6500  0.1796
 8327SOL     OW36613   3.404   1.925   7.793  0.7029  0.0331 -0.2523
 8327SOL    HW136614   3.389   1.831   7.800 -1.4651  0.4880  1.2560
 8327SOL    HW236615   3.370   1.954   7.708  0.3588  0.4690  0.0294
 8328SOL     OW36616   1.522   3.764   8.066  0.2475  0.2236 -0.5054
 8328SOL    HW136617   1.520   3.700   7.995 -1.7393  0.4405 -0.6513
 8328SOL    HW236618   1.468   3.836   8.032  0.6099 -1.2448 -4.1920
 8329SOL     OW36619   1.755   0.758  15.109  0.1977 -0.5764 -0.4100
 8329SOL    HW136620   1.721   0.822  15.047 -2.2733 -0.1202  1.4140
 8329SOL    HW236621   1.691   0.688  15.097  0.1779 -0.4731 -0.8863
 8330SOL     OW36622   1.327   1.411  17.639 -0.4542  0.8104 -0.4853
 8330SOL    HW136623   1.270   1.406  17.715 -0.3522  1.3687 -0.3705
 8330SOL    HW236624   1.408   1.441  17.681 -1.3775  0.8915  1.2152
 8331SOL     OW36625   3.772   3.233  16.948  0.0618 -0.2728 -0.4997
 8331SOL    HW136626   3.708   3.286  16.900  0.4285  0.5373 -0.0938
 8331SOL    HW236627   3.785   3.299  17.016 -0.2991 -1.3370  0.6047
 8332SOL     OW36628   1.763   2.572   5.935 -0.2822  0.0168  0.3767
 8332SOL    HW136629   1.676   2.590   5.971 -0.1629  0.7922  0.2660
 8332SOL    HW236630   1.764   2.623   5.855  1.8676  0.8041  0.9156
 8333SOL     OW36631   4.286   1.936   3.892 -0.1887 -0.0006 -0.0265
 8333SOL    HW136632   4.336   1.914   3.970 -1.4023  1.1647  1.0744
 8333SOL    HW236633   4.209   1.975   3.934  0.0216 -1.0410  1.2979
 8334SOL     OW36634   4.015   0.449   2.381  0.4401 -0.1670 -0.1617
 8334SOL    HW136635   4.059   0.509   2.441 -1.1780 -0.1594  1.0121
 8334SOL    HW236636   3.962   0.509   2.329 -0.5281  0.3463  1.4322
 8335SOL     OW36637   1.462   3.620   7.842 -0.8103 -0.4297 -0.1307
 8335SOL    HW136638   1.370   3.595   7.835 -1.1325  0.6384  0.2837
 8335SOL    HW236639   1.502   3.535   7.822  2.6509  1.3908 -0.8707
 8336SOL     OW36640   4.583   3.325   7.230 -0.4413  0.2355 -0.0177
 8336SOL    HW136641   4.631   3.379   7.168 -1.4319 -1.2056 -2.0279
 8336SOL    HW236642   4.562   3.252   7.172  0.6505  1.1675 -1.5674
 8337SOL     OW36643   3.727   0.876   0.394  0.7677  0.4169 -0.2057
 8337SOL    HW136644   3.633   0.854   0.389  0.6705  0.8994 -0.5361
 8337SOL    HW236645   3.744   0.880   0.488  1.1921  1.0449 -0.3121
 8338SOL     OW36646   3.006   4.548   6.419  0.1501  0.1175  0.9264
 8338SOL    HW136647   2.924   4.515   6.456 -0.0613 -1.3359 -0.8483
 8338SOL    HW236648   3.026   4.600   6.497 -0.1981  2.7217 -0.7420
 8339SOL     OW36649   1.111   4.662  11.768  0.1818 -0.0977 -0.2835
 8339SOL    HW136650   1.056   4.736  11.741  0.3625  1.1674  2.8373
 8339SOL    HW236651   1.046   4.595  11.787  1.5893 -1.3656  0.0261
 8340SOL     OW36652   0.598   4.307   2.716  0.1437  0.0679 -0.0661
 8340SOL    HW136653   0.614   4.237   2.652 -0.6539  2.2004 -2.5970
 8340SOL    HW236654   0.567   4.376   2.657  2.2535  0.5557 -0.6271
 8341SOL     OW36655   0.572   2.249  14.391 -0.1501  0.0356 -0.7830
 8341SOL    HW136656   0.527   2.165  14.394 -1.8917  1.0599  1.6200
 8341SOL    HW236657   0.623   2.233  14.311 -1.4746 -2.9568 -0.9981
 8342SOL     OW36658   4.478   4.195   6.436 -0.1069 -0.6410 -0.4262
 8342SOL    HW136659   4.564   4.161   6.412 -0.2684 -1.2229 -0.1765
 8342SOL    HW236660   4.455   4.169   6.525  1.9818  0.2116  0.3496
 8343SOL     OW36661   2.655   3.126  17.175 -0.3382  0.1205 -0.3163
 8343SOL    HW136662   2.676   3.217  17.154  0.8707  0.4134  2.0666
 8343SOL    HW236663   2.560   3.125  17.179 -0.3150  0.1151  0.2410
 8344SOL     OW36664   0.757   1.389   4.545 -0.1259 -0.0102  0.4460
 8344SOL    HW136665   0.736   1.459   4.482  0.5569 -0.1618  0.0539
 8344SOL    HW236666   0.674   1.341   4.554 -1.3992  1.8657 -1.1061
 8345SOL     OW36667   4.506   4.242   7.687 -0.1906 -0.1156  0.0138
 8345SOL    HW136668   4.551   4.179   7.632 -0.1922 -0.0422 -0.0713
 8345SOL    HW236669   4.564   4.318   7.679  0.3920 -0.8715 -2.8692
 8346SOL     OW36670   3.165   3.161   4.416  0.1031 -0.2231 -0.0479
 8346SOL    HW136671   3.146   3.137   4.325 -2.9450  1.4442  0.1570
 8346SOL    HW236672   3.210   3.243   4.399  0.1345 -0.0715  0.7536
 8347SOL     OW36673   4.578   4.588  16.576 -0.4423  0.0773  0.2003
 8347SOL    HW136674   4.531   4.671  16.570 -0.9951 -0.3514 -1.2608
 8347SOL    HW236675   4.517   4.533  16.626 -0.3247 -0.3425 -0.1153
 8348SOL     OW36676   3.559   4.438   3.643 -0.2005  0.5773  0.3401
 8348SOL    HW136677   3.559   4.369   3.577 -0.6674  1.6554 -0.8016
 8348SOL    HW236678   3.468   4.463   3.630 -0.8880 -1.9225  0.4143
 8349SOL     OW36679   2.181   1.942   0.975 -0.6732 -0.0657 -0.0437
 8349SOL    HW136680   2.175   1.971   0.884 -0.4167 -1.6671 -0.5743
 8349SOL    HW236681   2.261   1.992   0.990 -1.2308  1.0147 -0.6721
 8350SOL     OW36682   3.724   1.079   5.248  0.1207  0.3698  0.1842
 8350SOL    HW136683   3.797   1.072   5.187 -2.6069  0.4658 -3.0764
 8350SOL    HW236684   3.768   1.029   5.317 -1.4032 -0.7687  0.3179
 8351SOL     OW36685   4.319   2.184   0.914 -0.3753 -0.5503 -0.0488
 8351SOL    HW136686   4.261   2.200   0.988 -0.0070  3.2623 -0.5531
 8351SOL    HW236687   4.300   2.255   0.852  1.0758  0.6986  0.9206
 8352SOL     OW36688   1.085   3.472   6.580 -0.3666  0.1146 -0.2852
 8352SOL    HW136689   1.126   3.481   6.666 -1.2698 -2.0683  0.3766
 8352SOL    HW236690   1.064   3.560   6.550 -0.8964  0.1258  0.1289
 8353SOL     OW36691   2.293   1.394   9.966  0.0581 -0.2270  0.3346
 8353SOL    HW136692   2.342   1.453  10.022 -0.5231  0.2429  0.3522
 8353SOL    HW236693   2.221   1.368  10.024 -0.0987 -0.7847 -0.1046
 8354SOL     OW36694   3.452   4.252   2.956 -0.6244  0.2016 -0.1889
 8354SOL    HW136695   3.475   4.248   3.048  2.0928  1.1549 -0.8319
 8354SOL    HW236696   3.439   4.163   2.926 -1.1327 -0.2917  1.5015
 8355SOL     OW36697   0.178   4.668  10.615 -0.4788 -0.2878 -0.1342
 8355SOL    HW136698   0.104   4.724  10.637  0.6223  1.4974 -1.0035
 8355SOL    HW236699   0.136   4.582  10.605  1.4814 -1.1888 -0.7654
 8356SOL     OW36700   2.800   1.865   4.077 -0.0442  0.0004  0.7622
 8356SOL    HW136701   2.778   1.790   4.022  0.5966 -0.1962  0.7708
 8356SOL    HW236702   2.782   1.938   4.018 -0.4246 -1.3826 -0.8561
 8357SOL     OW36703   0.353   0.439   3.928 -0.2739 -0.2472  0.4505
 8357SOL    HW136704   0.344   0.503   3.857 -0.2674 -1.9191 -1.0757
 8357SOL    HW236705   0.392   0.364   3.882  0.3187  0.0714  0.4397
 8358SOL     OW36706   3.533   1.869   8.194  0.1011 -0.0279  0.5838
 8358SOL    HW136707   3.545   1.942   8.254 -1.1783  0.0974  0.6947
 8358SOL    HW236708   3.484   1.805   8.247 -0.2966  0.5340  0.8966
 8359SOL     OW36709   3.081   2.213   9.293  0.0047  0.1027  0.7512
 8359SOL    HW136710   3.076   2.210   9.197  2.5719 -1.5411  0.6606
 8359SOL    HW236711   3.010   2.270   9.321  0.9703  1.8452 -0.3478
 8360SOL     OW36712   1.191   2.087  10.646  0.1635 -0.5094 -0.0919
 8360SOL    HW136713   1.231   2.098  10.559  0.6106 -1.2239  0.0250
 8360SOL    HW236714   1.240   2.009  10.673  0.0648  0.2147  2.1372
 8361SOL     OW36715   0.981   1.298   6.966  0.0402 -0.4190  0.4803
 8361SOL    HW136716   1.049   1.359   6.993 -0.1057 -0.4548  0.9240
 8361SOL    HW236717   0.910   1.322   7.025 -1.6886 -0.8844 -1.4002
 8362SOL     OW36718   3.088   3.828   9.350 -0.3731 -0.0515 -0.4481
 8362SOL    HW136719   3.104   3.746   9.396  1.0947 -0.3106 -1.4162
 8362SOL    HW236720   3.174   3.849   9.313 -0.0661 -0.4942  0.0097
 8363SOL     OW36721   4.617   3.827   2.386  0.1367  0.2820 -0.5912
 8363SOL    HW136722   4.635   3.912   2.426  0.1089  0.5822 -1.2182
 8363SOL    HW236723   4.668   3.824   2.305 -2.5887 -0.1202 -2.2980
 8364SOL     OW36724   4.478   3.094   1.909 -0.2871 -0.2580  0.1602
 8364SOL    HW136725   4.390   3.095   1.870 -0.0307  0.5080 -0.4121
 8364SOL    HW236726   4.521   3.050   1.837  1.8984  1.0220  0.6801
 8365SOL     OW36727   0.438   0.304  10.580 -0.2510 -0.1533 -0.0293
 8365SOL    HW136728   0.462   0.331  10.492 -0.1388 -2.2527 -0.6399
 8365SOL    HW236729   0.528   0.291  10.611  0.0187  0.2951 -0.6131
 8366SOL     OW36730   2.311   0.742  11.572 -0.1387 -0.6927  0.3139
 8366SOL    HW136731   2.376   0.809  11.595 -0.0011 -0.5795 -0.4004
 8366SOL    HW236732   2.336   0.663  11.620 -1.0742 -0.4902  1.1468
 8367SOL     OW36733   3.221   0.408   9.871 -0.3513  0.1896 -0.6579
 8367SOL    HW136734   3.211   0.316   9.848 -0.4311  0.3424 -1.2353
 8367SOL    HW236735   3.315   0.410   9.889 -0.8224  0.5391  1.7896
 8368SOL     OW36736   0.495   3.217   3.178 -0.1142  0.2074  0.1310
 8368SOL    HW136737   0.553   3.210   3.102 -1.3754  2.7652 -1.0649
 8368SOL    HW236738   0.546   3.286   3.222 -1.7814  1.8775 -0.5870
 8369SOL     OW36739   2.012   0.204   3.460 -0.0053  0.0102 -0.4271
 8369SOL    HW136740   2.105   0.182   3.466 -0.2732 -0.5678  1.4981
 8369SOL    HW236741   2.022   0.287   3.412  1.3941 -0.8423 -1.5931
 8370SOL     OW36742   3.382   3.723   7.017  0.2812  0.0765 -0.1224
 8370SOL    HW136743   3.295   3.757   7.038 -0.2288  0.0731 -2.2868
 8370SOL    HW236744   3.372   3.724   6.922  0.1767  2.2939 -0.0946
 8371SOL     OW36745   0.207   4.091   5.932 -0.5766  0.5644 -0.1618
 8371SOL    HW136746   0.180   4.178   5.904  1.3659  1.6434  1.2989
 8371SOL    HW236747   0.294   4.102   5.894 -0.9974  1.6668 -0.7991
 8372SOL     OW36748   3.355   1.769  16.649 -0.0023 -0.6424 -0.4263
 8372SOL    HW136749   3.315   1.741  16.731  2.1789 -1.5074  0.3376
 8372SOL    HW236750   3.430   1.822  16.678  0.5758 -1.0751 -1.1156
 8373SOL     OW36751   0.130   2.688   3.536  0.4644  0.3183 -0.0799
 8373SOL    HW136752   0.073   2.613   3.552  1.6067 -0.7204 -0.9699
 8373SOL    HW236753   0.132   2.733   3.621  2.2690  1.0319 -0.5084
 8374SOL     OW36754   3.820   3.446   9.127  0.3267  0.2937 -0.5257
 8374SOL    HW136755   3.765   3.504   9.181 -2.1865 -1.4963 -1.1459
 8374SOL    HW236756   3.803   3.469   9.036  0.3292  1.0236 -0.3400
 8375SOL     OW36757   2.037   3.752   9.318  0.2114 -0.2299  0.1426
 8375SOL    HW136758   1.982   3.829   9.305 -0.6770 -1.0354 -0.9393
 8375SOL    HW236759   2.005   3.700   9.244 -0.9464 -0.3700  0.7430
 8376SOL     OW36760   2.467   4.573   9.588 -0.4838  0.1120  0.0560
 8376SOL    HW136761   2.411   4.629   9.641  2.0453  2.4074  0.3085
 8376SOL    HW236762   2.462   4.500   9.650  2.2301  0.9368  1.2888
 8377SOL     OW36763   1.556   3.568  14.891 -0.2404  0.4573  0.4314
 8377SOL    HW136764   1.563   3.539  14.982  0.6029 -2.8360 -0.6820
 8377SOL    HW236765   1.550   3.663  14.902 -0.4442  0.2914  1.7172
 8378SOL     OW36766   0.541   0.193   6.451  0.1693 -0.5221  0.1495
 8378SOL    HW136767   0.588   0.215   6.370  0.3298 -0.9794  0.1162
 8378SOL    HW236768   0.515   0.101   6.442  0.3310 -0.6620  1.0817
 8379SOL     OW36769   0.554   2.673   3.689 -0.6508 -0.3656 -0.7550
 8379SOL    HW136770   0.533   2.765   3.672 -0.2319 -0.0976  0.2022
 8379SOL    HW236771   0.479   2.634   3.643 -1.2617  1.5300 -1.3571
 8380SOL     OW36772   3.800   3.796   4.417  0.1253  0.0094  0.5968
 8380SOL    HW136773   3.850   3.717   4.436 -2.2942 -1.1715  2.0744
 8380SOL    HW236774   3.865   3.858   4.383 -0.2098  0.7577  1.3375
 8381SOL     OW36775   1.968   3.848  10.852  0.1738  0.3972  0.3996
 8381SOL    HW136776   1.929   3.781  10.797  0.3711  0.1634  0.5433
 8381SOL    HW236777   2.057   3.813  10.863 -0.3818 -1.1704 -0.1228
 8382SOL     OW36778   4.437   2.400   7.099 -0.1091  0.2704  0.2370
 8382SOL    HW136779   4.468   2.438   7.181  2.9573 -1.2048 -0.2437
 8382SOL    HW236780   4.402   2.479   7.059 -2.0883 -1.1855 -0.9299
 8383SOL     OW36781   1.163   0.904   5.683 -0.3905  0.6546  0.4629
 8383SOL    HW136782   1.197   0.815   5.668 -0.9001  0.2695  1.5829
 8383SOL    HW236783   1.077   0.902   5.725  0.8853 -0.3018  3.0239
 8384SOL     OW36784   4.574   2.941   3.671 -0.7046 -0.0054  0.0196
 8384SOL    HW136785   4.657   2.973   3.636 -0.6663  0.2957  0.3833
 8384SOL    HW236786   4.575   2.995   3.750 -0.7321 -0.4881  0.3572
 8385SOL     OW36787   0.856   0.580  16.261  0.2247  0.2469 -0.2020
 8385SOL    HW136788   0.833   0.635  16.186 -1.4129  0.9927  0.8427
 8385SOL    HW236789   0.783   0.592  16.322  0.4428 -0.5387  0.1978
 8386SOL     OW36790   1.716   4.246  13.638  0.4276 -0.6954  0.6974
 8386SOL    HW136791   1.681   4.234  13.727 -1.9827  1.9547  0.1108
 8386SOL    HW236792   1.682   4.169  13.593 -0.9090 -1.1441  2.4405
 8387SOL     OW36793   3.650   4.631   7.391 -0.2232 -0.1404  0.3667
 8387SOL    HW136794   3.743   4.652   7.401  0.4481 -2.8877 -0.0738
 8387SOL    HW236795   3.624   4.579   7.468 -0.2795 -3.3944 -1.8672
 8388SOL     OW36796   2.914   0.340   4.753 -0.2946  0.3854 -0.5190
 8388SOL    HW136797   2.976   0.412   4.767 -0.3669  0.4529 -0.5409
 8388SOL    HW236798   2.848   0.373   4.691 -1.1245 -0.3093 -0.0126
 8389SOL     OW36799   0.772   0.142   4.783  0.1498  0.4217 -0.6685
 8389SOL    HW136800   0.696   0.182   4.740  0.8586 -0.0147 -2.3316
 8389SOL    HW236801   0.738   0.112   4.867  0.1830 -0.9533 -1.1490
 8390SOL     OW36802   3.436   2.534   9.100  0.0564  0.3137  0.9482
 8390SOL    HW136803   3.419   2.599   9.169  0.5676  2.8631 -1.3545
 8390SOL    HW236804   3.531   2.540   9.089 -0.5311  3.2527 -2.2762
 8391SOL     OW36805   2.425   0.575   1.862  0.2029 -0.0569 -0.7936
 8391SOL    HW136806   2.424   0.479   1.856  0.2068 -0.0950 -0.1920
 8391SOL    HW236807   2.472   0.596   1.781  1.7816  2.1026  0.7002
 8392SOL     OW36808   1.532   3.677   7.200 -0.4045  0.0176  0.1841
 8392SOL    HW136809   1.492   3.678   7.287  0.5910  0.9810  0.6283
 8392SOL    HW236810   1.587   3.755   7.209 -0.8183  0.1496  1.5064
 8393SOL     OW36811   4.302   3.952   2.377 -0.4187  0.3840  0.0148
 8393SOL    HW136812   4.329   4.034   2.334 -0.6725  0.6555  0.3699
 8393SOL    HW236813   4.353   3.962   2.457  1.0175  1.3135 -1.0216
 8394SOL     OW36814   0.382   1.455   0.312 -0.3905  0.4759  0.2333
 8394SOL    HW136815   0.329   1.433   0.236  3.4743 -1.0564 -2.0090
 8394SOL    HW236816   0.334   1.427   0.390 -0.7442  0.4579  0.0050
 8395SOL     OW36817   1.948   2.217   4.223 -0.4326  0.1510  0.3999
 8395SOL    HW136818   1.960   2.294   4.278 -2.4254 -0.4092  1.6172
 8395SOL    HW236819   1.920   2.147   4.283  3.0471 -0.9911  0.7132
 8396SOL     OW36820   1.107   0.446  13.815  0.5117 -0.2198  0.2708
 8396SOL    HW136821   1.114   0.520  13.756  2.7257 -1.7197 -1.3696
 8396SOL    HW236822   1.079   0.480  13.900  0.0908 -1.4353  0.6193
 8397SOL     OW36823   1.786   2.622   9.658 -0.1302  0.1469 -0.0798
 8397SOL    HW136824   1.754   2.710   9.640 -1.3168 -0.0156  1.2090
 8397SOL    HW236825   1.879   2.638   9.638 -0.5930  0.0873 -2.2548
 8398SOL     OW36826   3.719   2.818  11.389  0.4278 -0.2892 -0.0612
 8398SOL    HW136827   3.656   2.870  11.439 -1.2944 -0.0788 -2.4559
 8398SOL    HW236828   3.731   2.881  11.318  0.6564  1.0586  1.1644
 8399SOL     OW36829   2.861   3.536  16.394  0.0903  0.3756  0.0957
 8399SOL    HW136830   2.871   3.469  16.326 -0.7567  0.3934 -0.0357
 8399SOL    HW236831   2.943   3.585  16.401 -0.3381  1.2630 -1.1415
 8400SOL     OW36832   4.014   0.782  17.395 -0.0687  0.0201 -0.7327
 8400SOL    HW136833   4.099   0.818  17.367  0.2504  0.8718  1.2980
 8400SOL    HW236834   4.026   0.807  17.487  1.4746 -0.3795 -0.8206
 8401SOL     OW36835   0.994   0.080  12.267 -0.0006 -0.0249 -0.1058
 8401SOL    HW136836   1.025   0.044  12.184 -1.7831 -1.5376 -0.1439
 8401SOL    HW236837   0.994   0.172  12.243 -2.5491  0.7471  2.8300
 8402SOL     OW36838   0.833   2.285   3.893 -0.3430 -0.0331 -0.3566
 8402SOL    HW136839   0.824   2.368   3.845 -0.2455  0.3742  0.3330
 8402SOL    HW236840   0.873   2.309   3.976 -0.1690  0.0442 -0.4644
 8403SOL     OW36841   1.031   4.677   2.767  0.3610  0.1973  0.3550
 8403SOL    HW136842   1.125   4.688   2.751  0.5349 -2.8264 -0.7535
 8403SOL    HW236843   1.010   0.020   2.817  0.4842  1.7586 -2.0759
 8404SOL     OW36844   0.216   2.799   4.255 -0.6378  0.3289  0.2378
 8404SOL    HW136845   0.139   2.781   4.309  0.5537 -3.5491  0.6903
 8404SOL    HW236846   0.262   2.860   4.312 -0.7381  2.2307 -1.7005
 8405SOL     OW36847   3.514   0.250   9.613 -0.4391 -0.0310 -0.1168
 8405SOL    HW136848   3.580   0.224   9.548  2.0610  1.1515  1.9360
 8405SOL    HW236849   3.565   0.251   9.694 -0.0990  0.5588 -0.3316
 8406SOL     OW36850   3.297   4.661   1.243  0.7242  0.2139 -0.5070
 8406SOL    HW136851   3.353   0.002   1.236  0.2658  0.6868  0.9951
 8406SOL    HW236852   3.261   4.644   1.156  0.2340 -2.9307  0.3127
 8407SOL     OW36853   2.921   0.392   6.578 -0.0307 -0.1985 -0.8767
 8407SOL    HW136854   2.856   0.462   6.578 -0.3162 -0.4613  0.4057
 8407SOL    HW236855   2.993   0.441   6.538  0.9007  0.5991  1.8022
 8408SOL     OW36856   1.855   0.242   1.878  0.3724 -0.1244 -0.0471
 8408SOL    HW136857   1.893   0.284   1.801 -1.0102  0.0205 -0.6384
 8408SOL    HW236858   1.913   0.256   1.953 -0.7777 -1.3931  1.0841
 8409SOL     OW36859   2.158   0.062  13.456  0.0873  0.0218  0.6256
 8409SOL    HW136860   2.108   0.142  13.470 -0.7726 -0.3392 -0.4334
 8409SOL    HW236861   2.223   0.101  13.397  0.3951  1.2555  1.7740
 8410SOL     OW36862   3.238   3.267   5.866  0.2733  0.4217  0.0076
 8410SOL    HW136863   3.179   3.336   5.835 -0.6228 -1.0214 -1.4679
 8410SOL    HW236864   3.319   3.285   5.818  0.0217  1.1233 -0.1616
 8411SOL     OW36865   1.656   3.784  17.249 -0.0986  0.0275  0.1365
 8411SOL    HW136866   1.732   3.842  17.241 -1.5202  2.1277  2.1034
 8411SOL    HW236867   1.698   3.712  17.297  0.8829  1.7585  1.8687
 8412SOL     OW36868   4.213   2.733   7.664 -0.7779  0.3656  0.0558
 8412SOL    HW136869   4.147   2.770   7.723 -1.0464  1.3775 -0.8792
 8412SOL    HW236870   4.283   2.714   7.726  0.2113  3.3926 -0.1535
 8413SOL     OW36871   0.122   3.976   0.516 -0.4866  0.3005  0.1545
 8413SOL    HW136872   0.045   4.033   0.508 -0.8605  0.0368  1.9131
 8413SOL    HW236873   0.108   3.934   0.600 -0.6698 -0.4215 -0.2397
 8414SOL     OW36874   3.299   2.681   4.675  0.1740 -0.4999  0.0888
 8414SOL    HW136875   3.298   2.593   4.714  0.9106 -1.4326 -1.9864
 8414SOL    HW236876   3.285   2.660   4.583 -0.8423  1.8290 -0.2975
 8415SOL     OW36877   0.635   1.087   3.786  0.3654 -0.2664  0.0878
 8415SOL    HW136878   0.565   1.043   3.833  3.0647 -3.3262  1.2772
 8415SOL    HW236879   0.715   1.036   3.801  0.7837  0.1089 -0.8257
 8416SOL     OW36880   2.450   0.804   3.291 -0.5550  0.3109  0.5213
 8416SOL    HW136881   2.495   0.753   3.224 -1.0860  0.6485 -0.0923
 8416SOL    HW236882   2.402   0.732   3.332  0.5082 -2.2806 -2.7767
 8417SOL     OW36883   2.303   2.259  17.057  0.5908 -0.1165 -0.2639
 8417SOL    HW136884   2.239   2.312  17.010  0.2800 -0.4880 -0.2546
 8417SOL    HW236885   2.296   2.277  17.151  1.3993 -0.9293 -0.0412
 8418SOL     OW36886   1.617   0.710   3.206 -0.5405 -0.6232 -0.4254
 8418SOL    HW136887   1.608   0.615   3.205  2.7621 -0.9648  1.6998
 8418SOL    HW236888   1.654   0.715   3.294  2.8225 -1.4244 -1.8069
 8419SOL     OW36889   0.214   4.459  17.601 -0.1026  0.5501 -0.1521
 8419SOL    HW136890   0.283   4.426  17.543 -0.1323  0.5241 -0.1729
 8419SOL    HW236891   0.266   4.511  17.662 -1.8277  1.4816  0.5285
 8420SOL     OW36892   2.730   3.618   0.512 -0.3377 -0.1965 -0.2415
 8420SOL    HW136893   2.661   3.633   0.448  0.6380  2.8029 -0.5954
 8420SOL    HW236894   2.742   3.525   0.494 -5.5183 -0.9963  0.4061
 8421SOL     OW36895   0.489   1.305   6.340  0.1194 -0.0968  0.1166
 8421SOL    HW136896   0.436   1.384   6.339  0.7989  0.3099 -1.9736
 8421SOL    HW236897   0.427   1.244   6.300  1.4102 -0.8433 -0.7517
 8422SOL     OW36898   3.133   2.018   4.716 -0.0055  0.1190  0.0815
 8422SOL    HW136899   3.226   2.012   4.737  0.2605  0.1375 -1.1262
 8422SOL    HW236900   3.124   1.935   4.669  0.2592 -0.5100  1.1389
 8423SOL     OW36901   2.058   1.817   6.867  0.4149 -0.3347  0.2936
 8423SOL    HW136902   2.138   1.769   6.889  0.6621  0.1414  0.4260
 8423SOL    HW236903   1.996   1.806   6.940 -1.9919  0.9342 -1.5803
 8424SOL     OW36904   3.534   2.120   5.862  0.1414 -0.0202  0.4672
 8424SOL    HW136905   3.488   2.046   5.902 -0.5644  1.5124  2.4795
 8424SOL    HW236906   3.578   2.153   5.940  0.5462  1.7508 -0.5002
 8425SOL     OW36907   2.075   0.224   5.655 -0.0821  0.0210 -0.4873
 8425SOL    HW136908   2.099   0.133   5.671  1.6505  0.9137  2.1689
 8425SOL    HW236909   2.077   0.252   5.747  0.0341 -0.8614 -0.2160
 8426SOL     OW36910   3.340   0.574  15.236 -0.0970  0.2276 -1.2082
 8426SOL    HW136911   3.350   0.648  15.296  0.5099 -0.5093 -0.4098
 8426SOL    HW236912   3.432   0.548  15.230 -0.2695 -0.5298 -0.5014
 8427SOL     OW36913   1.030   0.731   6.745  0.7414  0.4366 -0.4827
 8427SOL    HW136914   0.938   0.751   6.727  0.5403  1.8343  2.1612
 8427SOL    HW236915   1.043   0.773   6.830 -0.3950  2.0565 -1.1085
 8428SOL     OW36916   2.593   4.500   6.958  0.0683  0.1534  0.3780
 8428SOL    HW136917   2.631   4.588   6.956 -1.5745  0.8848  1.6706
 8428SOL    HW236918   2.665   4.461   7.006 -1.1989 -0.5514  1.6675
 8429SOL     OW36919   3.872   4.469   6.567 -0.7690  0.3512 -0.1727
 8429SOL    HW136920   3.809   4.433   6.629  2.9790 -2.8042  1.7849
 8429SOL    HW236921   3.829   4.435   6.488  2.2518 -2.5802 -0.5125
 8430SOL     OW36922   3.067   2.618   8.253  0.5696  0.0586  0.1778
 8430SOL    HW136923   3.115   2.671   8.189  3.9524 -0.1143  2.5323
 8430SOL    HW236924   3.131   2.556   8.290 -0.0711  0.4812  1.9930
 8431SOL     OW36925   3.456   0.191   7.393  0.0286  0.3216  0.1397
 8431SOL    HW136926   3.525   0.164   7.454 -0.7624 -0.9846  0.4405
 8431SOL    HW236927   3.383   0.132   7.414 -1.4426  2.7314  1.8092
 8432SOL     OW36928   4.137   0.197  16.893 -0.6312 -0.7838 -0.4918
 8432SOL    HW136929   4.114   0.192  16.800 -1.0325 -0.0179 -0.4344
 8432SOL    HW236930   4.055   0.162  16.929 -0.3776 -1.5345 -0.6360
 8433SOL     OW36931   2.222   0.224   1.805 -0.4765 -0.4295  0.1025
 8433SOL    HW136932   2.174   0.189   1.730  2.2357 -0.5493 -1.6021
 8433SOL    HW236933   2.163   0.198   1.875  0.9017 -0.8458  1.1047
 8434SOL     OW36934   1.793   0.618   0.291  0.2285  0.0923  0.3514
 8434SOL    HW136935   1.739   0.560   0.344 -0.2020 -0.1635 -0.3677
 8434SOL    HW236936   1.875   0.570   0.278  2.2968  3.9424 -0.8500
 8435SOL     OW36937   0.022   1.646   5.834 -0.2219  0.0143  0.5221
 8435SOL    HW136938   0.040   1.639   5.740 -1.1162  0.0294  0.3412
 8435SOL    HW236939   4.669   1.682   5.830 -0.6914 -1.3623 -1.4295
 8436SOL     OW36940   3.380   2.266   1.080 -0.2639 -0.3249  0.1290
 8436SOL    HW136941   3.381   2.196   1.015 -2.1846  0.4312 -0.7310
 8436SOL    HW236942   3.365   2.344   1.026  0.6214 -0.7723 -0.7530
 8437SOL     OW36943   0.347   4.706   4.601  0.5740  0.4030  0.5608
 8437SOL    HW136944   0.371   4.634   4.658 -0.9508  1.8966  3.0922
 8437SOL    HW236945   0.272   4.674   4.550  0.1542  0.9677  0.8177
 8438SOL     OW36946   3.733   1.189   7.655 -0.2782  0.0079 -0.0788
 8438SOL    HW136947   3.714   1.171   7.563 -0.7167  2.0269 -0.3707
 8438SOL    HW236948   3.648   1.173   7.695 -0.9196  2.2273 -0.5842
 8439SOL     OW36949   0.011   0.529  17.629  0.1988 -0.2387 -0.6516
 8439SOL    HW136950   0.032   0.450  17.578  1.4667 -0.6681  0.5248
 8439SOL    HW236951   0.080   0.528  17.695  0.8865  0.5790 -1.3584
 8440SOL     OW36952   0.841   2.090   6.333  0.1533  0.3660  0.0862
 8440SOL    HW136953   0.750   2.084   6.303  0.6780 -0.3830 -1.3492
 8440SOL    HW236954   0.832   2.171   6.383  1.0060  0.0847  0.7019
 8441SOL     OW36955   1.538   1.608   4.596  0.4496  0.0169 -0.0136
 8441SOL    HW136956   1.582   1.522   4.595 -1.1864 -0.7914 -1.1422
 8441SOL    HW236957   1.450   1.576   4.577 -0.3583  2.7933 -0.8266
 8442SOL     OW36958   1.115   1.059   2.401  0.2909 -0.1124  0.1501
 8442SOL    HW136959   1.142   1.145   2.368  1.9506 -0.4726  0.5856
 8442SOL    HW236960   1.202   1.021   2.410  0.9069  1.7242  1.9341
 8443SOL     OW36961   4.083   1.392   7.928 -0.3083 -0.1380 -0.1250
 8443SOL    HW136962   4.024   1.358   7.861  1.0703  1.7297 -2.3009
 8443SOL    HW236963   4.043   1.352   8.005 -1.7413  2.1498  0.3188
 8444SOL     OW36964   3.918   0.300   2.835 -0.2306 -0.8217 -0.2080
 8444SOL    HW136965   3.910   0.375   2.776  1.6408 -0.7752 -0.4074
 8444SOL    HW236966   3.996   0.321   2.886  0.2802 -1.1954 -0.8206
 8445SOL     OW36967   1.076   0.955   2.064 -0.2520  0.4610  0.5202
 8445SOL    HW136968   0.991   1.000   2.063 -0.9720 -0.8962  0.7622
 8445SOL    HW236969   1.073   0.898   1.988 -0.9924  0.2086  0.7397
 8446SOL     OW36970   1.446   4.096   8.554  0.2324  0.7562 -0.0755
 8446SOL    HW136971   1.421   4.105   8.646  0.5751 -0.7517  0.1561
 8446SOL    HW236972   1.387   4.028   8.523 -1.7219  1.8497  1.2897
 8447SOL     OW36973   3.485   0.658   4.956  0.2566 -0.4939 -0.1131
 8447SOL    HW136974   3.510   0.721   5.023  1.6384 -1.3680  0.1981
 8447SOL    HW236975   3.553   0.590   4.958  0.2013 -0.4744  2.2816
 8448SOL     OW36976   2.243   2.755   5.348 -0.3894 -0.1797  0.2094
 8448SOL    HW136977   2.305   2.760   5.275  1.3152  2.2273  1.8043
 8448SOL    HW236978   2.162   2.723   5.309 -0.8619 -0.9752  1.8615
 8449SOL     OW36979   0.854   0.037   0.787 -0.3960  0.2310  0.0119
 8449SOL    HW136980   0.906   4.705   0.745 -0.8309 -0.1741  0.1399
 8449SOL    HW236981   0.854   0.110   0.725  0.4786 -0.8159 -1.2375
 8450SOL     OW36982   3.584   1.279  17.162 -0.0065 -0.1396  0.1312
 8450SOL    HW136983   3.529   1.357  17.156 -1.7157 -1.2923  0.7170
 8450SOL    HW236984   3.527   1.204  17.141  0.3467 -1.0126  2.2956
 8451SOL     OW36985   1.854   1.231  16.755 -0.1411 -0.8159  0.1766
 8451SOL    HW136986   1.765   1.219  16.789 -0.5062 -1.2835 -0.9339
 8451SOL    HW236987   1.880   1.291  16.825 -0.5349  0.0319 -0.4097
 8452SOL     OW36988   0.748   2.205   1.413 -0.2785  0.0834  0.4325
 8452SOL    HW136989   0.823   2.174   1.361 -1.9553 -1.5630 -0.9965
 8452SOL    HW236990   0.808   2.234   1.483  0.2069  0.7583 -0.2579
 8453SOL     OW36991   1.952   4.073   9.836 -0.0730 -0.0404  0.1261
 8453SOL    HW136992   1.904   4.035   9.910  1.0087  0.2629  0.9922
 8453SOL    HW236993   2.026   4.015   9.822  0.5212  0.3187  1.7091
 8454SOL     OW36994   0.646   1.474   0.217 -0.0009  0.7458  0.0513
 8454SOL    HW136995   0.615   1.557   0.182 -0.4559  0.3495 -0.4865
 8454SOL    HW236996   0.563   1.437   0.248  0.8511 -0.0117  1.4216
 8455SOL     OW36997   0.523   3.417   0.078 -0.1675 -1.0644  0.0766
 8455SOL    HW136998   0.607   3.392   0.040 -0.0398 -0.7153  0.1295
 8455SOL    HW236999   0.546   3.501   0.117 -1.9615 -0.9986  0.9957
 8456SOL     OW37000   2.589   4.508   6.680 -0.4236  0.5925 -0.0186
 8456SOL    HW137001   2.594   4.462   6.765  0.0608  1.6814  0.5420
 8456SOL    HW237002   2.550   4.592   6.701  1.4534  1.0978  1.4753
 8457SOL     OW37003   2.234   0.715   3.072 -0.2152  0.8907 -0.1213
 8457SOL    HW137004   2.177   0.759   3.008  1.1150  2.1192 -0.4623
 8457SOL    HW237005   2.316   0.719   3.023 -0.6397 -0.4745 -0.9527
 8458SOL     OW37006   2.865   0.470   2.966  0.1557  0.1526 -0.6016
 8458SOL    HW137007   2.806   0.540   2.937 -2.0726  0.1255  3.9286
 8458SOL    HW237008   2.882   0.430   2.880  2.3973 -1.0450  0.4169
 8459SOL     OW37009   0.105   1.643  13.656 -0.3529  0.2159 -0.1515
 8459SOL    HW137010   0.088   1.657  13.563  0.6484 -1.8280 -0.6440
 8459SOL    HW237011   0.021   1.603  13.677 -0.5923 -0.0547 -1.6431
 8460SOL     OW37012   0.201   0.795   6.867 -0.3068  0.0404 -0.1801
 8460SOL    HW137013   0.259   0.821   6.938  1.3867 -2.2293 -0.7196
 8460SOL    HW237014   0.213   0.701   6.878  1.6398  0.5663  2.0399
 8461SOL     OW37015   0.698   2.228   1.061 -0.1345 -0.1171  0.3072
 8461SOL    HW137016   0.604   2.221   1.045 -0.5535  2.0075  1.8518
 8461SOL    HW237017   0.720   2.136   1.047  0.0671  0.0250 -0.3137
 8462SOL     OW37018   2.613   3.612   0.797 -0.0315  0.1817 -0.2428
 8462SOL    HW137019   2.546   3.676   0.772 -1.0831 -1.4221 -1.5720
 8462SOL    HW237020   2.618   3.575   0.709  0.6365 -0.4500  0.0594
 8463SOL     OW37021   0.509   1.027   1.635  0.0446  0.0899 -0.3872
 8463SOL    HW137022   0.510   0.963   1.706 -0.7059  0.6638  0.1391
 8463SOL    HW237023   0.422   1.064   1.648 -0.2933 -0.7416 -0.2395
 8464SOL     OW37024   2.719   3.871   5.843 -0.7397 -0.0965  0.2851
 8464SOL    HW137025   2.749   3.808   5.909  1.5748  0.9664  0.2574
 8464SOL    HW237026   2.773   3.851   5.766 -1.2859 -2.2159  0.4380
 8465SOL     OW37027   3.916   4.064   3.722  0.4259 -0.1811  0.0349
 8465SOL    HW137028   3.930   4.159   3.716  1.0665 -0.2539  0.4245
 8465SOL    HW237029   3.842   4.079   3.781 -0.1013  0.0327 -0.6737
 8466SOL     OW37030   2.736   1.590   3.344 -0.3749 -0.0584 -0.0821
 8466SOL    HW137031   2.737   1.681   3.374 -2.1533  0.0689 -0.4188
 8466SOL    HW237032   2.697   1.548   3.420  1.9397 -0.2850  0.9840
 8467SOL     OW37033   4.702   2.244   5.223 -0.6405 -0.0545  0.3245
 8467SOL    HW137034   4.731   2.336   5.222  0.0786 -0.2693  1.8975
 8467SOL    HW237035   0.033   2.205   5.279 -0.2816 -1.4330 -1.0543
 8468SOL     OW37036   1.509   1.921   5.602 -0.0900  0.0759  0.2501
 8468SOL    HW137037   1.491   1.941   5.510 -0.2193  1.4127  0.5647
 8468SOL    HW237038   1.594   1.879   5.588 -0.0578  0.2624 -0.1257
 8469SOL     OW37039   1.065   3.400   7.320  0.1602 -0.4719  0.0729
 8469SOL    HW137040   1.029   3.480   7.360 -0.3400 -1.0268  0.7212
 8469SOL    HW237041   1.150   3.402   7.363  0.6398 -0.9171 -0.8710
 8470SOL     OW37042   3.569   3.810   2.270  0.1515 -0.5678  0.5015
 8470SOL    HW137043   3.617   3.765   2.201 -1.1007 -0.5561 -0.3818
 8470SOL    HW237044   3.482   3.783   2.240 -0.3134  0.7320  0.6694
 8471SOL     OW37045   3.398   0.887   3.312  0.4315 -0.1152 -0.6715
 8471SOL    HW137046   3.359   0.856   3.393 -1.2561  3.4418 -0.1029
 8471SOL    HW237047   3.351   0.968   3.293  0.8088  0.3078  0.2184
 8472SOL     OW37048   2.104   0.986   2.434 -0.0689 -0.0545 -0.1330
 8472SOL    HW137049   2.147   1.033   2.363  1.2181  2.1501  2.0815
 8472SOL    HW237050   2.025   1.038   2.450  0.5153  0.4792  1.0150
 8473SOL     OW37051   2.002   1.191   6.664  0.1054 -0.6762 -0.0894
 8473SOL    HW137052   1.954   1.147   6.735 -1.8662  0.4711 -0.7069
 8473SOL    HW237053   1.942   1.163   6.595  1.0039 -0.6965 -0.8547
 8474SOL     OW37054   2.628   3.193   9.480  0.3553 -0.1327 -0.3478
 8474SOL    HW137055   2.620   3.106   9.520  3.2070 -2.1884 -4.2757
 8474SOL    HW237056   2.536   3.193   9.455 -0.3028 -2.7759  1.9853
 8475SOL     OW37057   4.419   0.664  10.883  0.5092  0.5407 -0.0794
 8475SOL    HW137058   4.445   0.603  10.952  1.1771  0.5343 -0.3426
 8475SOL    HW237059   4.493   0.724  10.879 -1.0634  2.5886  1.6704
 8476SOL     OW37060   3.671   2.947   9.742  0.5259  0.2964  0.4728
 8476SOL    HW137061   3.687   2.995   9.823  0.7618  2.8626 -1.0717
 8476SOL    HW237062   3.740   2.883   9.758  1.4291  0.7294 -1.6112
 8477SOL     OW37063   1.820   3.981  10.594 -0.0212  0.3767 -0.6927
 8477SOL    HW137064   1.820   3.905  10.653  0.5327  0.4837 -0.5574
 8477SOL    HW237065   1.910   4.012  10.605 -0.4493  0.4436  2.6588
 8478SOL     OW37066   3.607   0.417   3.398 -0.2909  0.4793 -0.9047
 8478SOL    HW137067   3.665   0.357   3.351  2.6915  2.5227  0.1870
 8478SOL    HW237068   3.583   0.486   3.336  0.3550  0.9231 -0.6627
 8479SOL     OW37069   4.686   2.598   5.518  0.2435  0.1589  0.5046
 8479SOL    HW137070   0.009   2.624   5.589  0.0188 -0.6161  0.9707
 8479SOL    HW237071   4.617   2.661   5.542  0.1407 -0.3255  1.4660
 8480SOL     OW37072   4.330   0.976   8.466 -0.4568  0.1734 -0.6550
 8480SOL    HW137073   4.292   0.974   8.553  1.5876  1.1475  0.2466
 8480SOL    HW237074   4.327   1.069   8.444 -3.4145  0.1965 -0.1904
 8481SOL     OW37075   3.099   3.743   2.397 -0.3502 -0.1181  0.1495
 8481SOL    HW137076   3.075   3.718   2.308 -0.8163  1.0223 -0.0426
 8481SOL    HW237077   3.119   3.660   2.441  2.4358  0.0255 -0.8225
 8482SOL     OW37078   0.180   1.415  14.478 -0.2301 -0.2221  0.1754
 8482SOL    HW137079   0.165   1.504  14.444  0.7063 -0.6008 -1.2597
 8482SOL    HW237080   0.253   1.389  14.422 -0.9209 -0.3264 -0.6805
 8483SOL     OW37081   1.141   3.644   7.974 -0.0446 -0.1820  0.4423
 8483SOL    HW137082   1.094   3.712   7.926  2.9081  0.5816 -1.3644
 8483SOL    HW237083   1.085   3.623   8.049  0.0665  2.6146  1.2982
 8484SOL     OW37084   2.782   0.328   7.175  0.0301  0.1051  0.4922
 8484SOL    HW137085   2.782   0.422   7.191  0.2952  0.1173  0.4213
 8484SOL    HW237086   2.689   0.310   7.186  0.1857 -0.1492  1.4029
 8485SOL     OW37087   0.670   2.930   8.361  0.4454 -0.6054  0.4015
 8485SOL    HW137088   0.681   3.000   8.425 -0.0188  1.3782 -1.7002
 8485SOL    HW237089   0.607   2.878   8.411 -0.0407 -0.2022  0.2044
 8486SOL     OW37090   0.666   2.009   8.912 -0.1666  0.3059  0.2397
 8486SOL    HW137091   0.692   2.053   8.831  0.6181 -2.2104 -0.8904
 8486SOL    HW237092   0.615   2.079   8.953 -0.0284  1.2906 -1.2501
 8487SOL     OW37093   1.143   4.694   7.844 -0.8355 -0.1272  0.3212
 8487SOL    HW137094   1.209   4.729   7.904 -0.0093 -1.7945  0.3982
 8487SOL    HW237095   1.183   4.704   7.757  1.8874 -2.0531  1.3569
 8488SOL     OW37096   3.483   0.929   9.940  0.5881  0.0192 -0.0815
 8488SOL    HW137097   3.563   0.901   9.985 -0.5604  0.8766  2.4587
 8488SOL    HW237098   3.476   0.855   9.879  0.6580  0.0088 -0.0771
 8489SOL     OW37099   1.885   3.127   4.412 -0.1574  0.4476 -0.3442
 8489SOL    HW137100   1.872   3.206   4.465 -3.2263  0.4417 -1.0907
 8489SOL    HW237101   1.881   3.062   4.482 -0.0693  0.7919 -0.0176
 8490SOL     OW37102   0.539   3.819   7.642 -0.1783  1.0417 -0.1312
 8490SOL    HW137103   0.479   3.779   7.705  2.1019 -1.7982  0.2512
 8490SOL    HW237104   0.521   3.777   7.558 -3.2732 -0.0511  1.0730
 8491SOL     OW37105   1.692   4.272  14.162 -0.5951 -0.7260  0.6889
 8491SOL    HW137106   1.685   4.180  14.185  0.5091 -0.7781  0.8274
 8491SOL    HW237107   1.784   4.290  14.181 -0.8277  0.2556  0.8962
 8492SOL     OW37108   3.294   0.040   5.488  0.3787 -0.5069  0.2209
 8492SOL    HW137109   3.328   0.129   5.487  0.3967 -0.5133  0.2528
 8492SOL    HW237110   3.367   4.723   5.519  0.9495  0.2783  0.2230
 8493SOL     OW37111   2.343   0.279   5.785 -0.3853 -0.1480 -0.1143
 8493SOL    HW137112   2.350   0.243   5.873 -1.7006  1.2793  0.5807
 8493SOL    HW237113   2.315   0.204   5.733  0.1996  2.3858 -4.0850
 8494SOL     OW37114   1.793   3.962  14.007 -0.3284  0.2392 -0.2587
 8494SOL    HW137115   1.851   3.913  13.949  0.5097 -0.1882  0.9547
 8494SOL    HW237116   1.756   3.892  14.061 -2.2430  1.6081  0.2249
 8495SOL     OW37117   0.572   3.326  14.192 -0.0960  0.1217  0.2279
 8495SOL    HW137118   0.520   3.390  14.241  2.0978  1.5621  0.6593
 8495SOL    HW237119   0.516   3.319  14.114  0.4816 -0.5486 -0.1275
 8496SOL     OW37120   1.438   1.018   7.445  0.6783 -0.4737  0.4791
 8496SOL    HW137121   1.406   1.084   7.384  0.6553 -0.8747  0.0505
 8496SOL    HW237122   1.407   1.028   7.534  0.3124 -1.8313  0.5121
 8497SOL     OW37123   2.763   1.586  15.645  0.4211 -0.6425 -0.9139
 8497SOL    HW137124   2.762   1.642  15.722  1.3536 -0.3021 -1.1472
 8497SOL    HW237125   2.728   1.504  15.681  2.9523 -1.0977  0.5394
 8498SOL     OW37126   0.274   4.101   9.381  1.1220  0.2416  0.8346
 8498SOL    HW137127   0.228   4.161   9.440  0.0936  1.3728 -1.1478
 8498SOL    HW237128   0.345   4.162   9.362  1.8418 -0.2643  1.8441
 8499SOL     OW37129   1.788   1.732   8.072 -0.2747  0.2185  0.0788
 8499SOL    HW137130   1.824   1.800   8.128 -1.4045  0.6376  0.2925
 8499SOL    HW237131   1.774   1.779   7.990 -0.0389  1.0144  0.4990
 8500SOL     OW37132   2.037   3.577   8.012  0.0406  0.5276  0.0845
 8500SOL    HW137133   2.011   3.589   8.104  0.1739 -3.5606  0.6554
 8500SOL    HW237134   1.973   3.510   7.989  0.4712 -0.1532  0.8898
 8501SOL     OW37135   3.416   4.065  16.647 -1.0714  0.3366  0.0824
 8501SOL    HW137136   3.487   4.007  16.619 -2.3181 -1.5456  0.8632
 8501SOL    HW237137   3.425   4.129  16.577  2.0604 -1.4463 -1.1536
 8502SOL     OW37138   0.207   1.118   1.821  0.0327 -0.0175 -0.0053
 8502SOL    HW137139   0.194   1.212   1.833  0.3603 -0.1051  1.0410
 8502SOL    HW237140   0.211   1.097   1.914  0.9319 -0.2076 -0.0892
 8503SOL     OW37141   1.939   2.761   6.445  0.2578 -0.2693  0.3566
 8503SOL    HW137142   1.931   2.675   6.404 -1.4773  1.2424 -2.4210
 8503SOL    HW237143   1.909   2.820   6.376  2.6769 -0.4189 -0.7986
 8504SOL     OW37144   0.259   2.587   6.768  0.1923 -0.1246  0.1184
 8504SOL    HW137145   0.350   2.561   6.783  0.0095 -0.4207  0.7358
 8504SOL    HW237146   0.206   2.531   6.825 -0.1504 -0.5608 -0.6283
 8505SOL     OW37147   0.219   3.912   3.690  0.9464  0.0787  0.1710
 8505SOL    HW137148   0.195   3.989   3.742 -1.4146 -1.4268  1.3270
 8505SOL    HW237149   0.258   3.862   3.762  1.6784  0.8398  0.2991
 8506SOL     OW37150   0.015   2.184   6.161  0.5245 -0.1542  0.1593
 8506SOL    HW137151   0.105   2.201   6.134  0.4865 -1.6697 -0.9086
 8506SOL    HW237152   0.012   2.208   6.254  2.0616  1.3115 -0.1816
 8507SOL     OW37153   3.680   4.416  14.635  0.3152  0.4097  0.2655
 8507SOL    HW137154   3.747   4.386  14.697  0.0042 -1.0519 -0.1267
 8507SOL    HW237155   3.699   4.510  14.626  0.3859  0.3234 -0.4262
 8508SOL     OW37156   4.408   1.380   7.621  0.0669  0.4059 -0.2263
 8508SOL    HW137157   4.419   1.462   7.670  0.6837  0.2637 -0.1302
 8508SOL    HW237158   4.322   1.405   7.587 -1.2816 -0.3382  2.6413
 8509SOL     OW37159   1.753   2.254   0.733 -0.0447  0.0235 -0.9923
 8509SOL    HW137160   1.664   2.274   0.763  0.3819  0.5756 -0.1093
 8509SOL    HW237161   1.777   2.173   0.780 -0.8300  0.8011  0.7369
 8510SOL     OW37162   0.883   0.587   2.002  0.2097  0.6587  0.9613
 8510SOL    HW137163   0.801   0.540   1.987  1.5304 -1.2001 -0.4585
 8510SOL    HW237164   0.873   0.652   1.933  0.2461 -0.8315 -0.4402
 8511SOL     OW37165   3.005   1.347  11.212  0.1768 -0.1250 -0.6475
 8511SOL    HW137166   3.013   1.295  11.133 -0.0188 -0.1992 -0.6189
 8511SOL    HW237167   3.054   1.426  11.191 -2.5735  2.0694  1.1863
 8512SOL     OW37168   3.835   3.684   3.651 -0.9155  0.3272 -0.7729
 8512SOL    HW137169   3.753   3.733   3.644 -0.5990  0.5986 -2.7280
 8512SOL    HW237170   3.793   3.599   3.649 -1.5441  0.5695  2.4207
 8513SOL     OW37171   2.137   0.928   1.983  0.4798 -0.3893 -0.0315
 8513SOL    HW137172   2.114   0.868   2.054 -0.1861 -0.5359 -0.3748
 8513SOL    HW237173   2.082   0.996   2.022  0.8103  0.7199 -1.5230
 8514SOL     OW37174   2.833   4.010   9.580 -0.3357 -0.2707 -0.0992
 8514SOL    HW137175   2.859   3.942   9.641 -2.2608 -1.2845 -0.4127
 8514SOL    HW237176   2.910   4.005   9.523 -1.5141 -0.8047 -1.6564
 8515SOL     OW37177   4.676   3.325  11.905  0.4678  0.2309  0.3263
 8515SOL    HW137178   4.632   3.242  11.920  0.0914  0.5753  1.1672
 8515SOL    HW237179   0.011   3.325  11.969  0.0112  0.6001  0.8417
 8516SOL     OW37180   4.228   0.284   8.770 -0.7763 -0.1854  0.0026
 8516SOL    HW137181   4.153   0.301   8.828 -0.9100 -1.5457  0.2314
 8516SOL    HW237182   4.284   0.355   8.799 -0.8229  0.5021 -1.6101
 8517SOL     OW37183   3.515   1.432   4.467 -0.0495 -0.2109  0.1096
 8517SOL    HW137184   3.512   1.520   4.430 -1.1288 -0.2068  0.2178
 8517SOL    HW237185   3.472   1.388   4.393  1.0687 -1.6526  0.3096
 8518SOL     OW37186   3.590   3.051   6.569 -0.1768 -0.2881  0.1795
 8518SOL    HW137187   3.528   3.092   6.508 -0.5221 -1.4946 -0.2626
 8518SOL    HW237188   3.594   2.962   6.534 -3.1632 -0.5943  0.6087
 8519SOL     OW37189   1.990   3.678   9.899  0.7053  0.1433 -0.0937
 8519SOL    HW137190   2.048   3.607   9.870  0.6320 -0.0297  0.1869
 8519SOL    HW237191   2.050   3.751   9.890  0.4453  0.2010 -1.4334
 8520SOL     OW37192   2.587   1.266   4.180 -0.0076  0.0705 -0.3349
 8520SOL    HW137193   2.570   1.249   4.087  0.3893  2.8102 -0.9244
 8520SOL    HW237194   2.530   1.201   4.220  0.2156  0.5764  0.7875
 8521SOL     OW37195   4.273   1.351   4.666  0.1359 -0.5769 -0.6585
 8521SOL    HW137196   4.177   1.354   4.662  0.1674  0.6173 -0.5784
 8521SOL    HW237197   4.295   1.262   4.639  0.4947 -1.1312  1.4449
 8522SOL     OW37198   3.002   2.331   8.734 -0.0723 -0.4399  0.2495
 8522SOL    HW137199   3.090   2.369   8.728 -0.3304  0.0871 -0.2200
 8522SOL    HW237200   3.017   2.266   8.666  1.9672  1.3359 -1.0449
 8523SOL     OW37201   3.968   4.540   3.337 -0.6746 -0.1425  0.1199
 8523SOL    HW137202   3.926   4.527   3.422  2.7800 -0.9794  1.6889
 8523SOL    HW237203   3.912   4.604   3.292 -0.6013 -0.0178  0.2053
 8524SOL     OW37204   1.717   0.216  11.287  0.2840  0.5529  0.1120
 8524SOL    HW137205   1.663   0.231  11.210  0.5578 -1.4573 -0.4983
 8524SOL    HW237206   1.743   0.123  11.288 -0.7832  0.2753  1.3819
 8525SOL     OW37207   4.424   0.224  15.211 -0.1739  0.2269  0.4430
 8525SOL    HW137208   4.518   0.205  15.209 -0.7159 -2.3434  0.3896
 8525SOL    HW237209   4.425   0.304  15.263  2.6926  1.0454 -0.8148
 8526SOL     OW37210   3.362   2.518   3.890 -0.1649  0.2036  0.4764
 8526SOL    HW137211   3.373   2.432   3.849 -0.1030 -0.1588  1.2645
 8526SOL    HW237212   3.284   2.541   3.840  0.6180 -1.5447 -1.5828
 8527SOL     OW37213   0.602   4.244   4.933 -0.8950  0.3050 -0.3420
 8527SOL    HW137214   0.522   4.201   4.962 -1.8746  2.2983 -0.1088
 8527SOL    HW237215   0.637   4.187   4.864  0.2426 -0.7358  1.0855
 8528SOL     OW37216   1.820   3.688   1.601 -0.5731  0.7110  0.1025
 8528SOL    HW137217   1.880   3.644   1.661 -0.4967 -1.4971 -1.6391
 8528SOL    HW237218   1.818   3.616   1.538 -1.3186 -0.8435  1.9123
 8529SOL     OW37219   1.300   0.014   2.794 -0.0169  0.3116  0.0453
 8529SOL    HW137220   1.342   0.023   2.879  1.1667 -0.2139 -0.4835
 8529SOL    HW237221   1.358   0.064   2.736  0.0539  1.2791  0.9457
 8530SOL     OW37222   2.947   2.369  15.515  0.1947  0.1055 -0.2209
 8530SOL    HW137223   2.965   2.308  15.586  1.1155  0.5484 -0.0734
 8530SOL    HW237224   2.935   2.452  15.561  1.0648  0.0907  0.0250
 8531SOL     OW37225   1.248   0.553   1.747 -0.3427  0.2991 -0.1183
 8531SOL    HW137226   1.272   0.462   1.766  3.6059  1.4610  0.2982
 8531SOL    HW237227   1.314   0.601   1.796 -2.3194  0.3148  2.4937
 8532SOL     OW37228   1.016   0.379   2.677 -0.1154  0.0991  0.2742
 8532SOL    HW137229   0.963   0.383   2.598 -1.2214  2.9405  1.1621
 8532SOL    HW237230   1.105   0.394   2.645 -0.1242 -0.6359 -0.0833
 8533SOL     OW37231   1.165   4.599  13.338 -0.0659 -0.3395 -0.2534
 8533SOL    HW137232   1.259   4.614  13.328  0.4756 -2.4732  1.7139
 8533SOL    HW237233   1.153   4.564  13.250  1.8644  1.8532 -1.3938
 8534SOL     OW37234   2.262   1.290   4.958 -0.5595  0.0124 -0.4307
 8534SOL    HW137235   2.211   1.356   4.910  0.6291  0.9083 -0.4706
 8534SOL    HW237236   2.234   1.292   5.049  0.1107 -2.2312 -0.1716
 8535SOL     OW37237   1.807   2.166   0.295 -0.4052 -0.1018 -0.5412
 8535SOL    HW137238   1.719   2.200   0.280 -1.0772 -1.1296  1.0863
 8535SOL    HW237239   1.800   2.122   0.380 -0.5495  0.9127 -0.0239
 8536SOL     OW37240   0.120   0.309   1.990  0.2172  0.1802  0.3100
 8536SOL    HW137241   0.200   0.272   2.027 -0.3880 -0.9278  0.5216
 8536SOL    HW237242   0.106   0.388   2.042  2.5679  0.9855 -0.2936
 8537SOL     OW37243   3.087   3.263   8.612 -0.3699  0.2829  0.4116
 8537SOL    HW137244   3.025   3.204   8.654  0.6422 -0.6116  0.6371
 8537SOL    HW237245   3.161   3.202   8.614  0.5649  1.4484  1.4655
 8538SOL     OW37246   2.605   4.258  12.007  0.2881  0.0987  0.1987
 8538SOL    HW137247   2.607   4.257  12.103  1.8990  0.7696  0.1860
 8538SOL    HW237248   2.625   4.349  11.984 -0.9460  0.2225 -0.3600
 8539SOL     OW37249   4.346   4.328   6.903  0.1743  0.8178  0.9608
 8539SOL    HW137250   4.360   4.248   6.954 -1.7637  1.8402  3.1363
 8539SOL    HW237251   4.267   4.354   6.951  0.1029  1.9486  0.2330
 8540SOL     OW37252   1.701   2.850  10.303 -0.2494 -0.3576  0.2618
 8540SOL    HW137253   1.782   2.844  10.252  0.2823  1.8586  0.7976
 8540SOL    HW237254   1.732   2.778  10.359 -0.6723 -0.4255  0.4070
 8541SOL     OW37255   4.377   1.820   0.106 -0.0117 -0.4466 -0.1821
 8541SOL    HW137256   4.426   1.902   0.098 -2.2047  0.7142 -1.6232
 8541SOL    HW237257   4.377   1.769   0.025  1.9515 -1.3529  0.3804
 8542SOL     OW37258   4.529   0.094  12.968 -0.4210  0.3632  0.1733
 8542SOL    HW137259   4.493   0.136  13.047 -0.7047  2.8650 -1.2741
 8542SOL    HW237260   4.585   0.026  13.005  0.7450  2.7773  2.8610
 8543SOL     OW37261   0.383   0.894   2.034 -0.1172  0.3109  0.2101
 8543SOL    HW137262   0.404   0.987   2.033 -1.3702  0.5962  0.4747
 8543SOL    HW237263   0.394   0.872   2.127 -2.9972 -4.0954 -0.4750
 8544SOL     OW37264   0.633   2.587   2.255 -0.0515 -0.1834 -0.2717
 8544SOL    HW137265   0.550   2.561   2.215 -0.1145 -0.4746  0.0441
 8544SOL    HW237266   0.615   2.663   2.310 -0.0818 -1.9449  2.1750
 8545SOL     OW37267   3.871   0.057  16.920 -0.1814 -0.0854  0.7995
 8545SOL    HW137268   3.809   0.079  16.990 -0.2577  1.1717  0.3491
 8545SOL    HW237269   3.823   0.077  16.840 -0.5050  2.6318  1.6501
 8546SOL     OW37270   0.821   1.790  16.266 -0.2500 -0.5491 -0.2686
 8546SOL    HW137271   0.765   1.805  16.343  0.1806 -2.5505  0.4545
 8546SOL    HW237272   0.833   1.695  16.274 -1.5254 -0.8754 -2.0811
 8547SOL     OW37273   1.631   0.142   5.689 -0.0261 -0.2124  0.0125
 8547SOL    HW137274   1.644   0.073   5.754 -0.8808  0.3810  0.8070
 8547SOL    HW237275   1.648   0.211   5.753 -2.6465  0.5390 -0.1195
 8548SOL     OW37276   4.719   2.958  13.497 -0.3429 -0.2828 -0.1582
 8548SOL    HW137277   0.078   2.965  13.493 -0.3573  0.4024  0.5985
 8548SOL    HW237278   4.692   2.884  13.443  0.0569 -0.3207 -0.3041
 8549SOL     OW37279   3.690   2.946   4.533  0.9319  0.1567  0.1653
 8549SOL    HW137280   3.733   2.949   4.447  0.5123  0.2420 -0.0422
 8549SOL    HW237281   3.609   2.984   4.500 -0.7395 -1.1300  2.7772
 8550SOL     OW37282   1.790   1.928   4.738  0.2206  0.2763  0.0557
 8550SOL    HW137283   1.878   1.889   4.736  0.0304 -0.2759  2.6971
 8550SOL    HW237284   1.770   1.912   4.646  0.8112  1.1558 -0.2262
 8551SOL     OW37285   1.296   1.220   6.078 -0.3150  0.4430  0.7434
 8551SOL    HW137286   1.334   1.306   6.056 -0.2667  0.3908  0.6205
 8551SOL    HW237287   1.260   1.206   5.990  1.4690  0.9884 -0.0896
 8552SOL     OW37288   1.364   0.275   5.692  0.9097 -0.4833 -0.3571
 8552SOL    HW137289   1.440   0.333   5.701  0.8966 -0.7743  1.5685
 8552SOL    HW237290   1.403   0.207   5.636 -2.7501 -1.6367 -1.4687
 8553SOL     OW37291   4.028   3.214   8.797 -0.8230 -0.5764 -0.0507
 8553SOL    HW137292   4.029   3.123   8.768 -1.6757 -0.2862 -0.9758
 8553SOL    HW237293   4.028   3.219   8.893  1.5184 -0.1608 -0.0560
 8554SOL     OW37294   2.354   4.007  13.333 -0.0930  0.4620  0.2201
 8554SOL    HW137295   2.277   4.013  13.276 -0.5939  3.5427  1.2156
 8554SOL    HW237296   2.388   4.097  13.330 -1.3082  0.8282 -3.7545
 8555SOL     OW37297   0.188   3.396   5.413 -0.2548  0.6576  0.4486
 8555SOL    HW137298   0.172   3.489   5.396 -1.1548  0.3995 -0.1175
 8555SOL    HW237299   0.118   3.377   5.475 -1.6912  1.7732 -0.8360
 8556SOL     OW37300   0.382   3.955   3.939 -0.1975 -0.3048  0.1765
 8556SOL    HW137301   0.313   4.013   3.907 -0.6682 -0.6703  0.5245
 8556SOL    HW237302   0.369   3.947   4.034 -0.6878 -3.0238 -0.1168
 8557SOL     OW37303   4.333   0.069  10.797 -0.5996 -0.3548  0.2481
 8557SOL    HW137304   4.242   0.039  10.792 -1.0630  1.1909 -0.7209
 8557SOL    HW237305   4.328   0.152  10.843 -2.0393 -1.0436  1.3362
 8558SOL     OW37306   0.909   0.248   8.652  0.5163  0.0504  0.0875
 8558SOL    HW137307   0.871   0.175   8.701 -0.7101  1.7531  1.6856
 8558SOL    HW237308   0.976   0.199   8.604  1.5195  0.7920  0.7385
 8559SOL     OW37309   3.395   3.857   2.580 -0.0239  0.1656  0.0499
 8559SOL    HW137310   3.464   3.791   2.581  0.6906  1.0028  3.3251
 8559SOL    HW237311   3.437   3.931   2.623 -2.3654  1.7779 -0.4076
 8560SOL     OW37312   3.112   0.659   5.348 -0.3318 -0.8508 -0.3952
 8560SOL    HW137313   3.188   0.716   5.362 -0.4854 -0.4122 -1.3993
 8560SOL    HW237314   3.096   0.627   5.437 -0.8193 -1.1386 -0.5894
 8561SOL     OW37315   4.159   0.023   8.544 -0.0986 -0.1659 -0.0629
 8561SOL    HW137316   4.142   0.116   8.531 -2.1041 -0.4385  0.5476
 8561SOL    HW237317   4.249   0.013   8.515  0.2089 -0.1428  0.8974
 8562SOL     OW37318   0.470   4.261   2.976 -0.5651  0.1438  0.3712
 8562SOL    HW137319   0.525   4.338   2.992 -1.3601  0.8713 -0.3939
 8562SOL    HW237320   0.486   4.255   2.882 -0.1713  2.9909  0.2604
 8563SOL     OW37321   0.537   0.318   2.191  0.2758 -0.3831  0.0259
 8563SOL    HW137322   0.486   0.261   2.134  2.5397 -2.6433  0.2562
 8563SOL    HW237323   0.499   0.299   2.277 -0.6491  0.8442 -0.1100
 8564SOL     OW37324   0.826   1.072   4.837  0.3948 -0.1485  0.8577
 8564SOL    HW137325   0.823   1.009   4.910 -1.0211 -2.0186 -0.8319
 8564SOL    HW237326   0.823   1.143   4.901  1.4425 -0.9718  1.8424
 8565SOL     OW37327   1.408   2.122   6.727 -0.6300 -0.5972 -0.0648
 8565SOL    HW137328   1.387   2.184   6.657  0.1941  1.8157  1.8189
 8565SOL    HW237329   1.360   2.047   6.692 -2.0898  0.1676  0.2820
 8566SOL     OW37330   4.731   3.925   8.766  0.0858 -0.3720 -0.4854
 8566SOL    HW137331   4.652   3.871   8.763 -1.4141  1.7802  0.3779
 8566SOL    HW237332   4.708   3.994   8.704 -1.2661  1.4479  2.0743
 8567SOL     OW37333   3.765   2.817   9.324  0.6648  0.0075 -0.0232
 8567SOL    HW137334   3.709   2.885   9.287 -0.7709 -0.6710  0.8747
 8567SOL    HW237335   3.728   2.792   9.409 -1.3515 -0.2095 -0.9560
 8568SOL     OW37336   2.872   3.322   4.238  0.1391 -0.2485  0.1636
 8568SOL    HW137337   2.857   3.232   4.267  0.1643 -0.0467  0.7837
 8568SOL    HW237338   2.803   3.375   4.277 -0.5025  0.3943 -1.8210
 8569SOL     OW37339   0.620   0.496   2.008  0.3404  0.2956 -0.5644
 8569SOL    HW137340   0.580   0.443   2.077 -0.7683  0.7999 -0.8249
 8569SOL    HW237341   0.543   0.516   1.954  0.3513 -2.6990 -1.6940
 8570SOL     OW37342   3.708   4.627   9.686 -0.6461 -0.8091 -0.1478
 8570SOL    HW137343   3.709   4.604   9.779 -2.3251 -0.6796 -0.1139
 8570SOL    HW237344   3.635   4.571   9.660 -0.1366 -1.5158 -0.0489
 8571SOL     OW37345   1.318   0.128   5.133  0.1595  0.3061  0.6476
 8571SOL    HW137346   1.240   0.097   5.180  0.6628 -0.7415  0.7836
 8571SOL    HW237347   1.376   0.053   5.146 -0.1448  0.1578  1.1557
 8572SOL     OW37348   4.397   1.152   2.497 -0.0957  0.2436 -0.5067
 8572SOL    HW137349   4.392   1.217   2.427  2.3231 -0.0357 -0.9404
 8572SOL    HW237350   4.327   1.189   2.551  1.0866  2.3277 -0.4133
 8573SOL     OW37351   2.344   1.340   5.268  0.3859 -0.0959 -0.1029
 8573SOL    HW137352   2.307   1.257   5.299  0.3478  0.2542  0.7983
 8573SOL    HW237353   2.435   1.323   5.244  0.3881  0.1804 -0.2826
 8574SOL     OW37354   1.836   0.682   9.038 -0.1249 -0.0412 -0.6170
 8574SOL    HW137355   1.768   0.653   8.977 -0.8844  0.5752 -0.0663
 8574SOL    HW237356   1.828   0.776   9.025 -0.8589 -0.4342 -2.9352
 8575SOL     OW37357   1.564   3.098   2.838 -0.1923 -0.5716  0.0136
 8575SOL    HW137358   1.528   3.154   2.907 -0.9834 -1.0321 -0.0225
 8575SOL    HW237359   1.525   3.138   2.760 -1.1617  0.5746  1.0543
 8576SOL     OW37360   0.648   3.803   3.156  0.3020 -0.2657  0.0777
 8576SOL    HW137361   0.666   3.885   3.202 -1.3205  0.5906 -0.8308
 8576SOL    HW237362   0.595   3.752   3.218 -1.1465 -0.0523 -0.9910
 8577SOL     OW37363   1.782   1.728   0.005 -0.0417  0.2215 -0.6284
 8577SOL    HW137364   1.829   1.708  17.668 -1.3513 -1.6545 -0.9170
 8577SOL    HW237365   1.749   1.640   0.024 -0.4722  0.9877  2.1594
 8578SOL     OW37366   1.483   4.316   8.401 -0.0145  0.4067  0.0425
 8578SOL    HW137367   1.478   4.284   8.311  0.7988 -1.6567  0.7330
 8578SOL    HW237368   1.474   4.236   8.453 -0.6430  0.5705  0.1879
 8579SOL     OW37369   2.272   2.746  13.545  0.5318 -0.5891  0.0056
 8579SOL    HW137370   2.314   2.791  13.471  0.8708 -3.3208 -1.4424
 8579SOL    HW237371   2.235   2.817  13.598 -1.2699 -1.8145  0.3750
 8580SOL     OW37372   1.941   3.561   9.128 -0.8465 -0.1244  0.0648
 8580SOL    HW137373   1.905   3.519   9.049 -0.8791  0.5422 -0.2782
 8580SOL    HW237374   1.950   3.484   9.184 -0.4294 -1.4008 -1.7497
 8581SOL     OW37375   0.786   2.117  12.127 -0.0555  0.1106  0.1981
 8581SOL    HW137376   0.828   2.196  12.092 -1.3789  1.5739  1.8664
 8581SOL    HW237377   0.736   2.103  12.047 -2.9833  2.6333  1.5635
 8582SOL     OW37378   0.767   0.566   4.555  0.0127  0.5573  0.4159
 8582SOL    HW137379   0.810   0.651   4.561 -2.3411  1.8147 -0.2938
 8582SOL    HW237380   0.748   0.536   4.643 -1.5299 -1.5619 -0.6321
 8583SOL     OW37381   1.517   2.436   2.247 -0.1747  0.1527  0.0518
 8583SOL    HW137382   1.558   2.402   2.168 -1.2046 -0.3675 -0.2608
 8583SOL    HW237383   1.596   2.442   2.301  0.5514  0.1576 -1.0199
 8584SOL     OW37384   1.981   2.119   6.902  0.1710  0.0125 -0.5664
 8584SOL    HW137385   1.894   2.079   6.901  0.3280 -0.2959 -1.5184
 8584SOL    HW237386   2.034   2.049   6.864  0.6147 -0.5189  0.9892
 8585SOL     OW37387   4.345   0.113   3.895 -0.0504 -0.0372 -0.1800
 8585SOL    HW137388   4.294   0.178   3.847  2.4808  1.7045 -0.5407
 8585SOL    HW237389   4.282   0.044   3.914  0.0327 -0.7306 -2.3666
 8586SOL     OW37390   0.889   0.800   2.896 -0.2403 -0.0505  0.5229
 8586SOL    HW137391   0.965   0.749   2.921  0.2208  0.3130 -0.1477
 8586SOL    HW237392   0.828   0.728   2.879 -1.3688  0.6534  1.5204
 8587SOL     OW37393   3.512   3.728   2.983  0.2769 -0.2014  0.0657
 8587SOL    HW137394   3.456   3.662   2.942 -1.0936  0.7557  0.4048
 8587SOL    HW237395   3.600   3.696   2.963  1.3303  2.3317  0.6904
 8588SOL     OW37396   2.140   2.967   4.953 -0.2326 -0.3747 -0.1961
 8588SOL    HW137397   2.162   2.962   5.046 -0.2773 -1.3748 -0.2369
 8588SOL    HW237398   2.216   2.917   4.921 -0.2229 -0.2062 -0.4379
 8589SOL     OW37399   1.000   3.621   6.128 -0.1184 -0.1187  0.0091
 8589SOL    HW137400   0.956   3.539   6.150  0.0376  0.0827  1.0534
 8589SOL    HW237401   0.993   3.614   6.032 -1.6559 -0.1570  0.1191
 8590SOL     OW37402   1.554   2.622  17.625 -0.4507 -0.1494 -0.3666
 8590SOL    HW137403   1.607   2.694  17.657 -1.1220  0.2879 -0.2308
 8590SOL    HW237404   1.552   2.652  17.534  1.2342  1.7294  0.2266
 8591SOL     OW37405   2.882   1.847  12.033 -0.2473  0.0811 -0.4948
 8591SOL    HW137406   2.889   1.937  12.002  0.8957  0.9416  2.2556
 8591SOL    HW237407   2.789   1.837  12.015 -0.2712 -0.8551  0.1781
 8592SOL     OW37408   2.538   0.725   4.226 -0.3165 -0.0085  0.1122
 8592SOL    HW137409   2.585   0.729   4.143 -0.8341 -3.4652 -0.3503
 8592SOL    HW237410   2.578   0.797   4.275  0.3424 -0.9424  0.9536
 8593SOL     OW37411   2.626   1.693   2.595  0.2440 -0.6063 -0.0557
 8593SOL    HW137412   2.646   1.600   2.605  2.8121  0.0224  0.5840
 8593SOL    HW237413   2.595   1.719   2.682  1.2512 -2.1533  0.7609
 8594SOL     OW37414   1.178   3.508   6.863 -0.7385 -0.3991  0.3961
 8594SOL    HW137415   1.135   3.535   6.944 -1.8554  0.6280 -0.5420
 8594SOL    HW237416   1.240   3.581   6.866  0.0070 -1.0472  0.6832
 8595SOL     OW37417   4.706   4.334  17.528  0.2864 -0.1682 -0.0678
 8595SOL    HW137418   4.629   4.364  17.575 -0.8971  0.5173 -2.4606
 8595SOL    HW237419   0.045   4.387  17.554  1.4564 -0.6781 -2.3816
 8596SOL     OW37420   3.176   3.343  16.265 -0.0507 -0.2227 -0.0582
 8596SOL    HW137421   3.194   3.389  16.183 -1.7291 -0.1259 -0.3812
 8596SOL    HW237422   3.175   3.424  16.317  1.7634 -0.6536  0.6459
 8597SOL     OW37423   2.558   3.641   2.120  0.0161  0.5604  0.1449
 8597SOL    HW137424   2.622   3.697   2.076 -0.9813  0.5519 -1.3187
 8597SOL    HW237425   2.554   3.568   2.058  0.9374 -0.1851  0.9791
 8598SOL     OW37426   4.508   3.854   5.510  0.1490  0.9063  0.5155
 8598SOL    HW137427   4.457   3.921   5.465  0.2540  1.4970  1.2780
 8598SOL    HW237428   4.581   3.858   5.449 -1.1654 -0.7924 -1.1533
 8599SOL     OW37429   0.054   1.879  17.099 -0.7032  0.0008 -0.4737
 8599SOL    HW137430   0.080   1.787  17.097 -2.0959 -0.4193  1.4188
 8599SOL    HW237431   4.715   1.881  17.040 -1.1010  1.5295  0.0901
 8600SOL     OW37432   0.170   0.010   8.094  0.4025 -0.1617 -0.1244
 8600SOL    HW137433   0.198   0.066   8.021 -0.2823  0.1782 -0.1223
 8600SOL    HW237434   0.077   0.030   8.100  0.5620  0.5295  0.0677
 8601SOL     OW37435   2.474   0.080  10.446 -0.1990 -0.3010 -0.9374
 8601SOL    HW137436   2.437   0.083  10.534 -0.9456  0.2063 -1.2744
 8601SOL    HW237437   2.547   0.142  10.448 -0.7055  0.2761 -0.0874
 8602SOL     OW37438   2.909   2.396   8.170 -0.0244  0.0774 -0.5197
 8602SOL    HW137439   2.867   2.365   8.250 -0.2686  0.4881 -0.4876
 8602SOL    HW237440   2.953   2.478   8.195 -2.5617  1.5101 -0.7491
 8603SOL     OW37441   3.817   1.033  10.439  0.3179  0.5520  0.0697
 8603SOL    HW137442   3.837   0.939  10.437  0.8805  0.6185  2.5997
 8603SOL    HW237443   3.873   1.066  10.368 -1.6585  1.3952 -1.0912
 8604SOL     OW37444   3.844   1.310  12.088 -0.3176 -0.1893 -0.0460
 8604SOL    HW137445   3.901   1.236  12.109  0.8215  0.4916 -0.7784
 8604SOL    HW237446   3.878   1.374  12.150 -1.0082 -1.3732  1.5474
 8605SOL     OW37447   0.817   1.790  10.128  0.0861  0.1653  0.3080
 8605SOL    HW137448   0.835   1.864  10.186 -0.9654 -1.1401  2.3088
 8605SOL    HW237449   0.814   1.832  10.042 -0.4095 -0.1755  0.1612
 8606SOL     OW37450   3.419   2.121   4.466  0.5881  0.0836 -0.3516
 8606SOL    HW137451   3.427   2.026   4.469 -0.0393  0.0920  1.3412
 8606SOL    HW237452   3.419   2.124   4.370 -0.3425 -0.6389 -0.3796
 8607SOL     OW37453   4.177   1.391   8.589 -0.0657 -0.6436 -0.2606
 8607SOL    HW137454   4.093   1.394   8.544 -1.6365 -1.2670  2.6067
 8607SOL    HW237455   4.151   1.430   8.672 -1.1963 -1.2519 -0.3225
 8608SOL     OW37456   2.327   3.962   3.993 -0.1368  0.2221  0.1738
 8608SOL    HW137457   2.320   4.010   4.076  3.6970 -1.1055  1.2738
 8608SOL    HW237458   2.317   3.873   4.027 -1.2102  1.1735  2.4184
 8609SOL     OW37459   0.568   4.712   8.445  0.2885 -0.3018  0.0984
 8609SOL    HW137460   0.490   4.696   8.392  0.5340  1.2615 -0.7156
 8609SOL    HW237461   0.574   0.071   8.451 -0.0089 -0.2875  0.1515
 8610SOL     OW37462   4.513   2.731  10.840  0.2576 -0.2437  0.8998
 8610SOL    HW137463   4.478   2.678  10.769  0.3534 -1.7212  1.9705
 8610SOL    HW237464   4.479   2.676  10.910 -0.4359 -0.6022  0.2802
 8611SOL     OW37465   1.535   2.926  13.687  0.2828 -0.2886  0.1178
 8611SOL    HW137466   1.510   2.900  13.599  2.4576  3.3401 -1.5836
 8611SOL    HW237467   1.600   2.994  13.671  0.3663 -0.5443 -0.6454
 8612SOL     OW37468   1.792   4.694  14.397 -0.7467 -0.5822 -0.3065
 8612SOL    HW137469   1.731   4.621  14.389 -0.0372 -1.2314  0.2766
 8612SOL    HW237470   1.728   0.027  14.416 -0.3570  0.2981 -2.1729
 8613SOL     OW37471   3.760   3.611   2.970 -0.4911  0.0590 -1.1983
 8613SOL    HW137472   3.801   3.546   2.913  0.5952 -0.3476  0.0745
 8613SOL    HW237473   3.751   3.568   3.055  0.0176  0.4499 -0.9474
 8614SOL     OW37474   1.803   2.008   7.886  0.3366  0.4693 -0.3007
 8614SOL    HW137475   1.889   2.038   7.915 -0.1015  2.1321 -0.7057
 8614SOL    HW237476   1.838   1.950   7.818  1.8495 -0.5103  1.2992
 8615SOL     OW37477   2.569   1.002   5.106  0.4209 -0.1235 -0.0301
 8615SOL    HW137478   2.624   0.964   5.038  1.8399 -0.4509  1.3132
 8615SOL    HW237479   2.489   0.952   5.088  0.6445 -0.1937 -0.8041
 8616SOL     OW37480   2.564   3.060   0.834  0.1732 -0.3607  0.3710
 8616SOL    HW137481   2.547   3.066   0.740 -2.7083 -1.3680  0.8198
 8616SOL    HW237482   2.500   3.124   0.866 -1.4193 -0.4300 -2.6643
 8617SOL     OW37483   0.582   0.929   7.314  0.4925 -0.7162  0.3324
 8617SOL    HW137484   0.496   0.895   7.339  0.6863 -0.2799  1.5871
 8617SOL    HW237485   0.553   0.993   7.249 -1.5849 -0.5019  1.4832
 8618SOL     OW37486   1.752   0.049   3.896  0.1532  0.0212 -0.0989
 8618SOL    HW137487   1.821   0.115   3.894  1.3663 -1.2655 -0.8591
 8618SOL    HW237488   1.670   0.092   3.919 -1.2798 -1.8572 -1.7488
 8619SOL     OW37489   4.311   0.375   7.102  0.4006  0.2907 -0.1012
 8619SOL    HW137490   4.220   0.387   7.128  0.5148  2.6694 -0.7573
 8619SOL    HW237491   4.315   0.434   7.027 -0.5286  0.4379 -0.0348
 8620SOL     OW37492   3.285   0.995  15.143  0.2351  0.9674 -0.5365
 8620SOL    HW137493   3.268   0.998  15.237 -2.0752  0.0638 -0.9227
 8620SOL    HW237494   3.338   1.075  15.147 -0.2901  1.2233  1.1265
 8621SOL     OW37495   0.263   4.423   2.732  0.0787  0.5779 -1.0344
 8621SOL    HW137496   0.350   4.399   2.701 -0.0018 -2.1043  0.7936
 8621SOL    HW237497   0.275   4.517   2.723 -3.8424  1.2374  0.7558
 8622SOL     OW37498   2.951   2.096  17.125 -0.3613  0.2519  0.1099
 8622SOL    HW137499   2.892   2.036  17.079 -2.2507  1.5037  0.9073
 8622SOL    HW237500   2.919   2.087  17.215 -0.8816 -0.2368 -0.1208
 8623SOL     OW37501   3.636   2.398   6.052 -0.1796  0.0396  0.2996
 8623SOL    HW137502   3.664   2.394   5.960 -0.7880  0.5547  0.0853
 8623SOL    HW237503   3.723   2.402   6.090 -0.0887  3.0522 -0.1628
 8624SOL     OW37504   2.266   2.030   4.027 -0.0692  0.0461 -0.0765
 8624SOL    HW137505   2.180   1.990   4.037  0.3792 -0.4004  2.0980
 8624SOL    HW237506   2.254   2.110   4.078 -1.8436  0.0200 -0.4718
 8625SOL     OW37507   1.632   2.963   4.711 -0.1221  0.3780 -0.7562
 8625SOL    HW137508   1.560   2.902   4.731 -1.0559  1.1732 -1.6965
 8625SOL    HW237509   1.598   3.021   4.643  2.1287  1.5077 -0.9188
 8626SOL     OW37510   1.897   0.388   5.311  0.3456 -0.4592  0.0902
 8626SOL    HW137511   1.911   0.297   5.287  1.4206  0.1809 -1.7243
 8626SOL    HW237512   1.882   0.383   5.405 -0.1309 -1.1273 -0.0263
 8627SOL     OW37513   3.782   3.558   7.709  0.4674  0.4374 -0.1649
 8627SOL    HW137514   3.827   3.625   7.656  0.2179 -1.5501 -2.8867
 8627SOL    HW237515   3.794   3.474   7.665 -1.4607  1.4584 -2.6724
 8628SOL     OW37516   3.849   4.611  13.349  0.0901  0.0780 -0.3334
 8628SOL    HW137517   3.797   4.627  13.427  1.4753  0.0834  0.5806
 8628SOL    HW237518   3.811   4.529  13.318  1.6517 -0.3912 -0.9789
 8629SOL     OW37519   2.329   2.258   0.802 -0.0197 -0.1516 -0.2931
 8629SOL    HW137520   2.350   2.351   0.797  0.5976 -0.2405  0.7264
 8629SOL    HW237521   2.409   2.230   0.757  0.5693 -0.2812  0.8417
 8630SOL     OW37522   3.453   3.053   6.943 -0.1818  0.4052 -0.2451
 8630SOL    HW137523   3.387   3.088   6.883  0.4764  1.8878 -0.1003
 8630SOL    HW237524   3.529   3.034   6.889  0.2923 -1.1003  0.9544
 8631SOL     OW37525   4.133   2.816   7.215 -0.3367 -0.1917 -0.4640
 8631SOL    HW137526   4.089   2.900   7.224  1.8423  0.7116  1.6969
 8631SOL    HW237527   4.053   2.767   7.199 -0.2275 -1.0591  1.6247
 8632SOL     OW37528   0.766   2.844  17.072 -0.3484 -0.3574 -0.2487
 8632SOL    HW137529   0.685   2.893  17.056  2.3354  4.6616  1.4096
 8632SOL    HW237530   0.824   2.917  17.096  0.1331 -0.9516  0.4073
 8633SOL     OW37531   0.185   4.486   2.324  0.2050 -0.0326  0.5365
 8633SOL    HW137532   0.138   4.460   2.403  0.5660 -1.9807  0.1167
 8633SOL    HW237533   0.115   4.530   2.277 -1.5294 -2.1795  1.1355
 8634SOL     OW37534   4.200   3.854  14.440 -0.1985  0.0268 -0.0515
 8634SOL    HW137535   4.257   3.819  14.372  1.2078  0.5061  0.8794
 8634SOL    HW237536   4.255   3.930  14.461 -1.2057  0.5878  0.5644
 8635SOL     OW37537   1.633   0.740   9.832  0.2075 -0.1086 -0.1283
 8635SOL    HW137538   1.544   0.763   9.806  0.6700  1.4829 -0.2865
 8635SOL    HW237539   1.620   0.653   9.871 -0.7673 -0.5538 -1.4474
 8636SOL     OW37540   1.979   3.090   5.211 -0.1126  0.0175 -0.2354
 8636SOL    HW137541   2.058   3.082   5.264 -0.8943  0.4974  1.0094
 8636SOL    HW237542   2.005   3.152   5.142 -4.1259  0.0939 -1.6888
 8637SOL     OW37543   1.234   3.922   2.142  0.1528  0.1720  0.1899
 8637SOL    HW137544   1.152   3.953   2.179 -0.0925  1.1589 -1.2163
 8637SOL    HW237545   1.223   3.827   2.150 -1.4988  0.5056  1.7307
 8638SOL     OW37546   4.116   4.632   2.699  0.2269 -0.1065  0.6094
 8638SOL    HW137547   4.046   4.695   2.718 -1.0172 -1.3226  0.0442
 8638SOL    HW237548   4.152   4.665   2.617  0.1160 -0.5370  0.3893
 8639SOL     OW37549   0.343   2.904   6.919  0.2176  0.0185 -0.5603
 8639SOL    HW137550   0.303   2.864   6.842 -1.0666 -0.6870  0.4607
 8639SOL    HW237551   0.302   2.990   6.911 -1.0853 -0.2768  2.8687
 8640SOL     OW37552   2.131   4.110   3.359  0.5024 -0.1935  0.4781
 8640SOL    HW137553   2.113   4.028   3.405 -1.6400  0.0405  0.0508
 8640SOL    HW237554   2.058   4.159   3.396  0.2036 -0.3758  0.1345
 8641SOL     OW37555   4.638   3.979  11.336 -0.0797 -0.3858  0.1044
 8641SOL    HW137556   4.595   3.953  11.417  1.2833  0.6551  1.1523
 8641SOL    HW237557   4.701   4.048  11.356 -0.1007 -0.4784  0.4774
 8642SOL     OW37558   3.855   4.331   7.443  0.2198 -0.7049  0.1092
 8642SOL    HW137559   3.821   4.251   7.402 -2.2515 -0.1016  1.0281
 8642SOL    HW237560   3.876   4.373   7.359 -1.1338 -0.0785  0.0913
 8643SOL     OW37561   0.693   0.498   3.838 -0.3429 -0.2667  0.1855
 8643SOL    HW137562   0.680   0.462   3.750  0.3878 -0.5005  0.1730
 8643SOL    HW237563   0.785   0.494   3.862 -0.8949  0.5407  2.4449
 8644SOL     OW37564   4.210   4.644   1.908  0.3599 -0.2216 -0.0272
 8644SOL    HW137565   4.269   4.590   1.961  1.0080  0.2276 -0.3008
 8644SOL    HW237566   4.135   4.586   1.891  0.0982 -0.2177  1.0864
 8645SOL     OW37567   1.454   2.348   6.160  0.2403 -0.1135 -0.6613
 8645SOL    HW137568   1.504   2.267   6.150 -1.4449 -1.3172  0.8433
 8645SOL    HW237569   1.506   2.396   6.225 -0.0418  2.2510 -2.2067
 8646SOL     OW37570   4.700   0.174   7.488  0.1897 -0.5978  0.1611
 8646SOL    HW137571   0.030   0.130   7.542  1.4328 -0.9868 -1.6946
 8646SOL    HW237572   4.704   0.117   7.411  0.8205 -3.0854  2.0355
 8647SOL     OW37573   2.294   1.081   2.238 -0.3679  0.9225 -0.6654
 8647SOL    HW137574   2.291   1.170   2.274  1.1848  1.0018 -0.7373
 8647SOL    HW237575   2.380   1.078   2.196 -0.6592  0.8522 -1.2623
 8648SOL     OW37576   1.338   0.246   7.737  0.1692  0.4212  0.5223
 8648SOL    HW137577   1.421   0.198   7.733  1.0279  1.8908  0.9063
 8648SOL    HW237578   1.326   0.262   7.831  1.0547  0.9363  0.5425
 8649SOL     OW37579   1.529   3.622   6.316  0.2310 -0.1906 -0.1832
 8649SOL    HW137580   1.581   3.696   6.283  0.8261 -0.5029  0.0738
 8649SOL    HW237581   1.445   3.656   6.285  0.7966  0.9684 -0.4659
 8650SOL     OW37582   3.937   3.733   4.084  0.8154  0.3430 -0.2268
 8650SOL    HW137583   3.856   3.770   4.049  0.5109 -0.9435 -0.8820
 8650SOL    HW237584   3.904   3.655   4.130 -0.3396 -0.4456 -2.4051
 8651SOL     OW37585   3.966   3.895  14.283 -0.2133 -0.5830  0.2669
 8651SOL    HW137586   4.038   3.894  14.346 -0.7667 -0.6948  0.8986
 8651SOL    HW237587   3.892   3.893  14.343 -0.3509  1.2149  0.1445
 8652SOL     OW37588   2.346   0.571   6.972  1.0620 -0.3909  0.0388
 8652SOL    HW137589   2.321   0.531   6.889 -0.6172 -0.4586  0.5835
 8652SOL    HW237590   2.271   0.536   7.020  1.1933  0.0397  0.5636
 8653SOL     OW37591   1.916   2.897   7.885 -0.3388  0.0745  0.1045
 8653SOL    HW137592   1.832   2.859   7.912 -0.1386 -0.8206 -0.5352
 8653SOL    HW237593   1.922   2.860   7.797  0.5942  1.1322 -0.2773
 8654SOL     OW37594   3.210   1.660   2.236  0.3021  0.1912  0.7779
 8654SOL    HW137595   3.238   1.722   2.168 -2.8314 -0.4083 -1.0710
 8654SOL    HW237596   3.212   1.580   2.183 -2.5657  3.1588 -3.8534
 8655SOL     OW37597   3.076   3.516  10.830  0.4720 -0.5206  0.1115
 8655SOL    HW137598   3.051   3.588  10.772 -1.2320 -0.6287  0.7125
 8655SOL    HW237599   2.988   3.491  10.859  0.1672  0.0732 -0.3020
 8656SOL     OW37600   4.580   1.572   5.598  0.2341  0.0262  0.0634
 8656SOL    HW137601   4.510   1.565   5.662  1.1901 -1.0484  1.0135
 8656SOL    HW237602   4.529   1.551   5.520  0.5182  0.8018 -0.3289
 8657SOL     OW37603   1.594   2.525   5.649 -0.4967  0.0940  0.4276
 8657SOL    HW137604   1.566   2.529   5.740 -3.3046  2.3333 -0.5244
 8657SOL    HW237605   1.527   2.574   5.601 -0.9780  0.8082  1.8424
 8658SOL     OW37606   4.652   4.378  13.112 -0.0374  0.2434 -0.0683
 8658SOL    HW137607   4.675   4.469  13.091 -0.6171  0.2054 -0.8470
 8658SOL    HW237608   4.714   4.369  13.184  0.0017  0.4962 -0.0706
 8659SOL     OW37609   2.513   3.603   3.498  0.7888 -0.0619  0.3300
 8659SOL    HW137610   2.577   3.635   3.434  1.4283  1.1721  1.5958
 8659SOL    HW237611   2.530   3.659   3.573 -0.9021  1.6933 -0.5923
 8660SOL     OW37612   2.105   4.210  10.378  0.5609 -0.1032  0.6983
 8660SOL    HW137613   2.087   4.304  10.367 -0.0334 -0.0916  1.8098
 8660SOL    HW237614   2.087   4.203  10.472  1.4176  0.8563  0.9420
 8661SOL     OW37615   4.497   1.699   1.807 -0.3378  0.7578 -0.3009
 8661SOL    HW137616   4.483   1.744   1.724 -0.3355  2.5176  0.6476
 8661SOL    HW237617   4.455   1.618   1.776  0.1827 -0.2956  1.7269
 8662SOL     OW37618   1.713   0.317  11.939 -0.1472  0.1860  0.3700
 8662SOL    HW137619   1.804   0.290  11.946  0.1944  1.7348  1.7613
 8662SOL    HW237620   1.696   0.291  11.849  1.3260  0.3489  0.0463
 8663SOL     OW37621   2.848   1.771   7.959  0.5012  0.1153  0.0158
 8663SOL    HW137622   2.905   1.749   8.032  1.2367  0.7795 -0.3616
 8663SOL    HW237623   2.830   1.863   7.979  0.3094 -0.1173  0.9128
 8664SOL     OW37624   0.299   0.632   3.771  0.0054  0.4687  0.0091
 8664SOL    HW137625   0.212   0.665   3.795 -0.4447 -1.2136  0.6777
 8664SOL    HW237626   0.287   0.582   3.690  1.5940 -0.4698  0.3609
 8665SOL     OW37627   4.422   0.434  12.263 -0.1590 -0.3116  0.0949
 8665SOL    HW137628   4.499   0.484  12.238 -0.8980  0.6326 -0.3209
 8665SOL    HW237629   4.389   0.483  12.338 -1.6169 -2.7107  1.0473
 8666SOL     OW37630   3.175   1.272   5.950  0.7673 -0.4347 -0.0720
 8666SOL    HW137631   3.155   1.345   6.007 -3.0982 -1.1206 -0.5331
 8666SOL    HW237632   3.193   1.208   6.019  0.3931 -1.6419 -1.0706
 8667SOL     OW37633   2.918   3.417   6.648 -0.1205 -0.2870  0.1374
 8667SOL    HW137634   2.942   3.339   6.599  0.3850 -0.7756  1.1634
 8667SOL    HW237635   2.838   3.402   6.697  0.1928  0.9842  1.0568
 8668SOL     OW37636   1.439   1.413  13.284 -0.1032  0.2016 -0.6327
 8668SOL    HW137637   1.500   1.390  13.354 -0.1404  1.1910 -0.2864
 8668SOL    HW237638   1.489   1.378  13.210 -0.4853 -1.9523  0.1229
 8669SOL     OW37639   0.795   2.614   5.410 -1.0006 -0.3092  0.2399
 8669SOL    HW137640   0.769   2.663   5.488 -0.5512  0.2716  0.0220
 8669SOL    HW237641   0.872   2.664   5.387 -0.6771 -0.7261  0.4040
 8670SOL     OW37642   4.107   1.675  16.183  0.1490 -0.4133 -0.1500
 8670SOL    HW137643   4.172   1.724  16.133  0.5934 -0.3858  0.4519
 8670SOL    HW237644   4.147   1.589  16.168  0.8127 -0.1414  0.0406
 8671SOL     OW37645   1.578   4.534  13.553  0.1162  0.4797 -0.6933
 8671SOL    HW137646   1.568   4.588  13.632 -1.7118  1.2345 -1.4542
 8671SOL    HW237647   1.495   4.551  13.509 -0.8035  1.9545  1.6010
 8672SOL     OW37648   1.569   1.160  16.866 -0.2205 -0.0506  0.3529
 8672SOL    HW137649   1.580   1.208  16.948  1.9697  1.4150 -0.8104
 8672SOL    HW237650   1.474   1.167  16.858 -0.2138  0.8150  0.9926
 8673SOL     OW37651   3.908   3.912   7.455 -0.8371 -0.5954 -0.0533
 8673SOL    HW137652   3.864   3.833   7.422  1.3111 -1.5884 -0.5542
 8673SOL    HW237653   3.984   3.902   7.397  0.0444  1.0884  0.8303
 8674SOL     OW37654   4.322   2.145   5.597  0.2017 -0.2795 -0.1779
 8674SOL    HW137655   4.260   2.218   5.595  2.5872  1.6945 -1.1121
 8674SOL    HW237656   4.256   2.084   5.630 -1.9764  1.0184 -2.0858
 8675SOL     OW37657   2.963   3.106   9.756 -0.0211 -0.2111 -0.1088
 8675SOL    HW137658   2.907   3.085   9.680 -1.2275  2.7179 -0.0116
 8675SOL    HW237659   2.970   3.022   9.802 -0.1728  2.0453  4.0010
 8676SOL     OW37660   0.063   0.381   3.978 -0.6074  0.4775 -0.3451
 8676SOL    HW137661   0.021   0.406   3.895  0.1804  0.7976 -0.6469
 8676SOL    HW237662   0.158   0.384   3.965 -0.4191  1.8846  1.3352
 8677SOL     OW37663   2.348   4.293   9.367 -0.3465  0.6200  0.2396
 8677SOL    HW137664   2.355   4.367   9.306 -2.5986 -1.5096 -2.5884
 8677SOL    HW237665   2.440   4.265   9.375 -0.2126  0.6637 -1.1106
 8678SOL     OW37666   1.526   4.244   5.711  0.2401  0.0369  0.3175
 8678SOL    HW137667   1.518   4.228   5.617 -0.6343  1.5608  0.1300
 8678SOL    HW237668   1.578   4.323   5.700  1.2708 -0.6381  0.4120
 8679SOL     OW37669   2.016   2.269   1.240 -0.1187  0.0920  0.7408
 8679SOL    HW137670   1.989   2.184   1.205  1.5442 -0.4924  0.8522
 8679SOL    HW237671   2.108   2.246   1.256 -0.3079 -0.3482  1.1872
 8680SOL     OW37672   0.068   0.787   4.917  0.2571  0.5054  0.1615
 8680SOL    HW137673   0.016   0.707   4.912  0.5539  0.2710  0.8253
 8680SOL    HW237674   0.117   0.788   4.834  0.9583 -0.1491  0.5707
 8681SOL     OW37675   2.658   0.581   9.308 -0.6597 -0.2256 -0.0302
 8681SOL    HW137676   2.699   0.547   9.229  0.2221  0.3419  0.1879
 8681SOL    HW237677   2.643   0.508   9.368 -1.0754 -0.6099 -0.5990
 8682SOL     OW37678   3.382   0.535   6.836 -0.5846  0.1780 -0.3713
 8682SOL    HW137679   3.459   0.543   6.892  0.1368 -1.3827 -1.1564
 8682SOL    HW237680   3.377   0.625   6.802 -2.8201  0.1746 -0.1017
 8683SOL     OW37681   1.063   1.750   3.369 -0.0765  0.3388 -0.1403
 8683SOL    HW137682   1.049   1.669   3.417  2.9999  2.0593  3.6562
 8683SOL    HW237683   1.036   1.821   3.427 -0.8246  2.4481 -3.0850
 8684SOL     OW37684   0.909   1.736   2.718 -0.1861 -0.0470 -0.0878
 8684SOL    HW137685   0.863   1.764   2.797  1.4553 -1.0472  1.2262
 8684SOL    HW237686   0.927   1.642   2.727 -0.4125 -0.2814 -2.1160
 8685SOL     OW37687   1.970   4.083   4.918 -0.0839 -0.3938 -0.1448
 8685SOL    HW137688   1.933   4.072   5.006  0.5844  2.4423  0.4804
 8685SOL    HW237689   2.055   4.123   4.936 -0.5504  1.6680 -2.6301
 8686SOL     OW37690   1.033   3.261  13.267  0.1873 -0.6061  0.0364
 8686SOL    HW137691   1.086   3.279  13.345  0.2759 -0.9648  0.0561
 8686SOL    HW237692   1.006   3.170  13.283 -0.8290 -0.2525  0.3643
 8687SOL     OW37693   2.710   2.956   2.529  0.3209 -0.6432 -0.1111
 8687SOL    HW137694   2.633   3.012   2.528  0.6131 -0.2745 -1.4476
 8687SOL    HW237695   2.682   2.878   2.480  0.9788 -1.0514  0.1523
 8688SOL     OW37696   3.292   3.340   3.987  0.2024 -0.3495  0.6740
 8688SOL    HW137697   3.199   3.322   4.004  0.1872 -0.7374  0.1941
 8688SOL    HW237698   3.301   3.422   4.034  1.5060 -0.2287  0.2180
 8689SOL     OW37699   3.179   1.905   7.080  0.2240 -0.5707 -0.0866
 8689SOL    HW137700   3.243   1.861   7.025  0.1670  1.0604 -1.4558
 8689SOL    HW237701   3.164   1.989   7.037  3.2446  0.0837  0.1945
 8690SOL     OW37702   1.194   2.299   0.899 -0.1293 -0.1108 -0.0075
 8690SOL    HW137703   1.113   2.251   0.921  1.6418 -3.5853 -1.0153
 8690SOL    HW237704   1.252   2.234   0.858 -0.0204 -0.6083  0.9350
 8691SOL     OW37705   3.081   0.861   3.137 -0.3172 -0.0043 -0.3620
 8691SOL    HW137706   3.092   0.766   3.144 -0.5231 -0.0674 -0.9215
 8691SOL    HW237707   3.005   0.864   3.079 -0.5956  1.5002  0.0829
 8692SOL     OW37708   0.108   0.210   2.709  0.3865 -0.3947 -0.1159
 8692SOL    HW137709   0.033   0.210   2.770 -0.4226  0.9352 -1.0965
 8692SOL    HW237710   0.057   0.215   2.628  0.1229 -1.0295  0.0134
 8693SOL     OW37711   1.723   1.802   4.502 -0.1519 -0.0378 -0.0742
 8693SOL    HW137712   1.669   1.881   4.499  0.1210  0.2642  2.8676
 8693SOL    HW237713   1.655   1.734   4.509  1.0569 -1.1192  1.2589
 8694SOL     OW37714   3.459   2.147   2.765  0.3325 -0.1585 -0.4216
 8694SOL    HW137715   3.433   2.103   2.846 -2.9970  1.7019 -0.4599
 8694SOL    HW237716   3.385   2.122   2.710 -0.8599  0.2476  0.9765
 8695SOL     OW37717   3.784   0.590   5.090 -0.0488 -0.1290  0.7984
 8695SOL    HW137718   3.728   0.668   5.086 -0.3439 -0.3417  0.7808
 8695SOL    HW237719   3.863   0.634   5.122 -0.2589  0.1952  0.8683
 8696SOL     OW37720   2.508   4.145   5.246 -0.2125 -0.0434 -0.5996
 8696SOL    HW137721   2.444   4.136   5.316  1.7932 -0.1277  1.2039
 8696SOL    HW237722   2.486   4.066   5.197  1.1058 -0.6589 -0.2083
 8697SOL     OW37723   1.216   0.663   3.702 -0.6200  0.0524  0.7900
 8697SOL    HW137724   1.248   0.616   3.779  0.3011 -1.7695 -0.7096
 8697SOL    HW237725   1.200   0.584   3.650  1.5996  0.1121  0.0123
 8698SOL     OW37726   3.603   0.073  11.857 -0.5572  0.1573 -0.0140
 8698SOL    HW137727   3.664   0.031  11.918  2.6087  1.1245 -2.5093
 8698SOL    HW237728   3.517   0.061  11.898  0.0368 -0.9442  0.9285
 8699SOL     OW37729   0.514   3.182   2.004  0.2272  0.2255  0.1761
 8699SOL    HW137730   0.485   3.141   2.085 -0.7902  0.5764 -0.0177
 8699SOL    HW237731   0.542   3.266   2.041  2.3568  0.0128 -0.9153
 8700SOL     OW37732   3.505   1.671   0.469 -0.0330 -0.0468 -0.0952
 8700SOL    HW137733   3.545   1.632   0.391 -0.0150  1.7500 -0.9871
 8700SOL    HW237734   3.553   1.755   0.471  0.7892 -0.5408  0.9056
 8701SOL     OW37735   4.136   3.695   4.732  0.0074  0.2001  0.0285
 8701SOL    HW137736   4.136   3.669   4.824 -1.2996 -1.7385 -0.5186
 8701SOL    HW237737   4.171   3.784   4.727  0.6386 -0.1080 -1.1902
 8702SOL     OW37738   0.549   4.640   7.266  0.2061 -0.3611 -0.3335
 8702SOL    HW137739   0.465   4.636   7.221  0.7181 -1.2653 -1.2298
 8702SOL    HW237740   0.561   4.734   7.284  0.0867 -0.6328  1.0827
 8703SOL     OW37741   0.874   2.154   4.484  0.0088 -0.3276 -0.0766
 8703SOL    HW137742   0.903   2.213   4.415 -2.4576 -0.3800 -1.1641
 8703SOL    HW237743   0.788   2.195   4.495  0.6160  0.7106  0.8143
 8704SOL     OW37744   1.880   1.801   2.390  0.0248 -0.2446  0.0161
 8704SOL    HW137745   1.815   1.776   2.325 -0.7449 -0.2679  0.7914
 8704SOL    HW237746   1.935   1.841   2.323  2.9588 -1.5977  1.5852
 8705SOL     OW37747   0.973   2.525   7.410  0.0269 -0.1285 -0.0270
 8705SOL    HW137748   0.984   2.430   7.408 -0.6198 -0.2427  1.4863
 8705SOL    HW237749   1.019   2.548   7.491 -1.0063 -1.9994  1.0897
 8706SOL     OW37750   0.975   3.541  10.900 -0.0909  0.1150  0.3743
 8706SOL    HW137751   0.974   3.560  10.994 -0.9208  1.8125  0.0273
 8706SOL    HW237752   0.881   3.526  10.884  0.5856 -2.2881 -1.3779
 8707SOL     OW37753   2.683   4.480   5.178 -0.2231  0.0504 -0.3986
 8707SOL    HW137754   2.749   4.548   5.185 -0.6673  0.4412  0.0285
 8707SOL    HW237755   2.620   4.519   5.116  0.1873  2.5342  0.7641
 8708SOL     OW37756   2.361   0.957  14.181 -0.2013 -0.3084 -0.2158
 8708SOL    HW137757   2.274   0.922  14.163  0.2542 -1.9242  0.6584
 8708SOL    HW237758   2.360   1.015  14.106 -1.6086  1.4706  1.1968
 8709SOL     OW37759   2.028   1.167  16.573 -0.0327  0.1767 -0.2043
 8709SOL    HW137760   1.981   1.087  16.548 -0.4936  0.3647  0.0657
 8709SOL    HW237761   1.988   1.192  16.656 -1.0063 -0.7088 -0.4061
 8710SOL     OW37762   2.107   4.554  14.462 -0.4687  0.0817 -0.3758
 8710SOL    HW137763   2.048   4.486  14.427 -0.8936  0.6893 -0.8383
 8710SOL    HW237764   2.192   4.511  14.459  0.6531  2.2792  0.2193
 8711SOL     OW37765   3.422   0.558   1.164 -0.6250  0.1696 -0.1773
 8711SOL    HW137766   3.430   0.470   1.127 -1.5745 -0.3710  0.9107
 8711SOL    HW237767   3.437   0.547   1.257  0.9410 -1.1742 -0.5828
 8712SOL     OW37768   3.457   1.598   7.524 -0.0748  0.0309  0.4476
 8712SOL    HW137769   3.518   1.672   7.520 -0.3777  0.1857 -1.3354
 8712SOL    HW237770   3.440   1.586   7.617 -0.3425  1.0701  0.5432
 8713SOL     OW37771   0.671   3.595   1.787  0.0814 -0.0394  0.2641
 8713SOL    HW137772   0.642   3.509   1.816  0.1359  0.0258  0.5135
 8713SOL    HW237773   0.593   3.640   1.820  0.4451  1.2593 -0.6283
 8714SOL     OW37774   4.559   2.777   6.804  0.0982  0.3217 -0.9994
 8714SOL    HW137775   4.507   2.753   6.880  2.4821 -0.1706  0.4808
 8714SOL    HW237776   4.532   2.710   6.743 -0.5864  1.2870 -1.7541
 8715SOL     OW37777   0.832   0.840   7.828  0.0460 -0.2558  0.1650
 8715SOL    HW137778   0.761   0.883   7.779  0.1149  0.8859  1.0899
 8715SOL    HW237779   0.895   0.912   7.833 -0.1435 -0.1964  1.6635
 8716SOL     OW37780   2.589   3.740   5.358  0.4508 -0.3649  0.5636
 8716SOL    HW137781   2.652   3.811   5.369 -0.5423  0.3242  1.8272
 8716SOL    HW237782   2.534   3.745   5.436  0.4377 -3.4279  0.7503
 8717SOL     OW37783   0.128   1.784   3.792  0.1549 -0.4910 -1.0882
 8717SOL    HW137784   0.076   1.814   3.717 -1.4381 -0.9048 -0.1475
 8717SOL    HW237785   0.187   1.729   3.739  0.6357 -0.0674 -0.9874
 8718SOL     OW37786   2.564   0.446  10.202 -0.4083 -0.6143  0.4781
 8718SOL    HW137787   2.608   0.471  10.284 -1.1106  1.0200  0.3592
 8718SOL    HW237788   2.519   0.529  10.186  1.8813  0.2159 -1.7381
 8719SOL     OW37789   4.303   2.848  17.419 -0.4853 -0.1394  0.5935
 8719SOL    HW137790   4.219   2.810  17.447 -0.2627 -1.2811 -0.2895
 8719SOL    HW237791   4.273   2.905  17.349 -3.6623 -1.4827  0.8648
 8720SOL     OW37792   4.487   4.092   7.362  0.7068  0.0486 -0.4160
 8720SOL    HW137793   4.421   4.054   7.419  2.2048  0.3134  1.5256
 8720SOL    HW237794   4.567   4.054   7.399 -0.1452 -0.1660  1.1781
 8721SOL     OW37795   4.210   0.821   9.635  0.1448  0.5323  0.3022
 8721SOL    HW137796   4.196   0.784   9.722 -2.9753  2.1130  0.4978
 8721SOL    HW237797   4.199   0.738   9.589 -1.5013 -0.5268  2.6222
 8722SOL     OW37798   3.555   3.822   5.444  0.1829  0.5843 -0.1491
 8722SOL    HW137799   3.548   3.757   5.374 -0.8057  1.2903 -0.6987
 8722SOL    HW237800   3.495   3.891   5.417 -0.4446  0.1112  0.0322
 8723SOL     OW37801   2.413   2.906   2.830  0.2760 -0.1476 -0.7592
 8723SOL    HW137802   2.345   2.898   2.896  1.6009 -0.3905  0.5798
 8723SOL    HW237803   2.379   2.871   2.748  0.2816  2.5095 -1.8667
 8724SOL     OW37804   4.715   2.946   8.866  0.8224 -0.8361  0.3303
 8724SOL    HW137805   0.047   3.011   8.881  0.1550  0.1823 -0.9432
 8724SOL    HW237806   4.666   2.941   8.948 -0.7322 -0.5554 -0.5719
 8725SOL     OW37807   4.553   2.714  16.190 -0.2280 -0.0179  0.0559
 8725SOL    HW137808   4.505   2.671  16.261 -0.2810  0.7704  0.4854
 8725SOL    HW237809   4.602   2.636  16.162 -1.8329 -0.7248 -0.7824
 8726SOL     OW37810   4.414   0.871  11.724 -0.6026 -0.0347 -0.2562
 8726SOL    HW137811   4.402   0.887  11.817  1.1264 -2.5316  0.3989
 8726SOL    HW237812   4.374   0.946  11.681 -0.4843 -0.2132 -0.6833
 8727SOL     OW37813   4.025   4.269   2.507 -0.1484 -0.2400  0.1663
 8727SOL    HW137814   4.076   4.320   2.569 -1.7214 -1.4848  2.4560
 8727SOL    HW237815   4.045   4.176   2.522 -2.4245 -0.9075 -0.8378
 8728SOL     OW37816   4.340   2.274   4.117 -0.0218  0.0463  0.1682
 8728SOL    HW137817   4.248   2.300   4.111 -0.3893 -1.6469 -1.4467
 8728SOL    HW237818   4.324   2.202   4.177 -2.5859  0.6857  0.2576
 8729SOL     OW37819   3.858   0.490  16.020 -0.3974  0.1220  0.4015
 8729SOL    HW137820   3.922   0.555  15.990  0.1251 -0.3857  0.4248
 8729SOL    HW237821   3.781   0.533  15.980  0.1733  1.4476  0.7118
 8730SOL     OW37822   4.683   1.689   8.344 -0.4321 -0.5758  0.2393
 8730SOL    HW137823   4.650   1.635   8.272 -0.1579  0.7360 -0.8706
 8730SOL    HW237824   4.619   1.758   8.333 -0.5543 -0.7611 -0.2210
 8731SOL     OW37825   2.714   1.853   3.072 -0.2848  0.9005  0.2621
 8731SOL    HW137826   2.652   1.786   3.101 -0.4249  1.6540  1.6907
 8731SOL    HW237827   2.672   1.877   2.989 -1.9606  0.8797  1.0981
 8732SOL     OW37828   1.572   3.135   6.063  0.1159 -0.5573 -0.5486
 8732SOL    HW137829   1.598   3.141   5.971 -0.1656 -1.0668 -0.6634
 8732SOL    HW237830   1.657   3.111   6.102 -0.0319 -3.5315 -2.0585
 8733SOL     OW37831   4.661   0.909   0.966 -0.5136 -0.1472 -0.0204
 8733SOL    HW137832   4.709   0.944   1.041 -2.1172 -0.0377  0.9680
 8733SOL    HW237833   4.709   0.951   0.895 -1.8408 -2.3629 -2.2612
 8734SOL     OW37834   3.797   1.542   2.936 -0.3051  0.2464  0.0629
 8734SOL    HW137835   3.732   1.512   2.872 -2.1075  2.7939  0.7057
 8734SOL    HW237836   3.865   1.476   2.933 -0.1738  0.4200 -0.9617
 8735SOL     OW37837   3.279   1.041   9.217  0.4964  0.0901 -0.3124
 8735SOL    HW137838   3.363   1.043   9.171  0.1520 -0.3090 -0.9532
 8735SOL    HW237839   3.308   1.085   9.297  0.3534 -0.0113 -0.2040
 8736SOL     OW37840   3.299   1.802  16.915  0.2356 -0.3530 -0.2048
 8736SOL    HW137841   3.273   1.885  16.877  3.3466  0.3696 -0.7290
 8736SOL    HW237842   3.216   1.773  16.953 -0.1391  0.6292 -0.2916
 8737SOL     OW37843   0.677   0.411   3.571 -1.1151  0.2437 -0.0939
 8737SOL    HW137844   0.691   0.489   3.518 -1.2548  0.5204  0.2797
 8737SOL    HW237845   0.725   0.344   3.522 -1.4765 -0.5270  0.5861
 8738SOL     OW37846   0.493   3.474   4.435  0.1805  0.1281 -0.4476
 8738SOL    HW137847   0.533   3.387   4.434 -2.7507 -1.2267  1.0118
 8738SOL    HW237848   0.493   3.495   4.528 -0.4197  0.8531 -0.6164
 8739SOL     OW37849   2.954   3.435   8.441 -0.2629 -0.5643  0.3810
 8739SOL    HW137850   3.011   3.382   8.497  1.5861  0.7517 -0.2426
 8739SOL    HW237851   3.004   3.516   8.429 -4.0192  1.4484 -1.7234
 8740SOL     OW37852   3.665   0.590  15.879  0.9334 -0.5190 -0.2386
 8740SOL    HW137853   3.605   0.560  15.811 -1.1273  1.3234  0.7918
 8740SOL    HW237854   3.650   0.684  15.869 -0.7719 -0.6951  0.7283
 8741SOL     OW37855   4.568   0.793   8.421 -0.5855 -0.8049 -0.4091
 8741SOL    HW137856   4.488   0.843   8.435 -0.4081 -0.6368  0.0047
 8741SOL    HW237857   4.543   0.750   8.503 -0.7895 -1.2991 -0.7338
 8742SOL     OW37858   4.638   0.470   6.769 -0.4928  0.0210  0.4194
 8742SOL    HW137859   4.731   0.465   6.747 -0.4316  0.7261  0.5257
 8742SOL    HW237860   4.643   0.537   6.836  0.8258  0.3261  0.0088
 8743SOL     OW37861   1.566   3.983  14.488 -0.0662  0.2106  0.2793
 8743SOL    HW137862   1.503   3.913  14.473  1.1481 -0.3615 -2.0148
 8743SOL    HW237863   1.519   4.065  14.468 -0.3068 -0.2761 -1.1543
 8744SOL     OW37864   1.194   1.172  13.913  0.1842  0.0445 -0.2443
 8744SOL    HW137865   1.109   1.216  13.925  0.7793  0.7353  1.3791
 8744SOL    HW237866   1.218   1.176  14.005  0.1359 -2.2436 -0.1420
 8745SOL     OW37867   0.999   3.782  12.495 -0.4268 -0.5956  0.5876
 8745SOL    HW137868   1.072   3.842  12.507 -0.0777 -0.9203  0.1218
 8745SOL    HW237869   1.036   3.709  12.444  0.9396 -0.3837  1.2879
 8746SOL     OW37870   0.521   1.174  11.745 -0.2117 -0.4628 -0.1600
 8746SOL    HW137871   0.608   1.151  11.713 -0.0499 -1.3161  0.9142
 8746SOL    HW237872   0.544   1.259  11.782  0.5935 -1.4365  1.5442
 8747SOL     OW37873   0.585   4.724   2.833  0.1021 -0.5988  0.3731
 8747SOL    HW137874   0.602   0.057   2.769 -0.9363 -0.3515  0.3591
 8747SOL    HW237875   0.589   0.040   2.913 -1.3214 -0.7599  0.5455
 8748SOL     OW37876   4.144   3.645  14.175  0.1309  0.6438  0.8081
 8748SOL    HW137877   4.224   3.678  14.216 -1.7263  1.4493  3.7885
 8748SOL    HW237878   4.131   3.710  14.105 -1.6367 -0.9764 -0.3844
 8749SOL     OW37879   0.363   3.267  14.029 -0.2912 -0.1289 -0.0504
 8749SOL    HW137880   0.277   3.239  14.063  0.0089  0.0942  0.8838
 8749SOL    HW237881   0.348   3.268  13.934  0.4615  1.1441 -0.1443
 8750SOL     OW37882   3.214   4.503   4.934 -0.3206  0.2914 -0.0502
 8750SOL    HW137883   3.298   4.539   4.905  1.1500 -2.4267  0.7461
 8750SOL    HW237884   3.167   4.564   4.878  1.3417  0.7056 -1.0084
 8751SOL     OW37885   1.589   0.413   8.460  0.0603 -0.0207 -0.2000
 8751SOL    HW137886   1.620   0.355   8.390  0.8496 -1.7033  1.5436
 8751SOL    HW237887   1.603   0.496   8.415 -2.3350  0.3519 -0.2703
 8752SOL     OW37888   1.281   3.131   2.245 -0.3186 -0.4371  0.4226
 8752SOL    HW137889   1.355   3.182   2.211  1.1841 -2.5910  0.5093
 8752SOL    HW237890   1.270   3.064   2.178 -0.5988 -0.4288  0.4614
 8753SOL     OW37891   3.685   1.736   8.028 -0.6593 -0.4025  0.1111
 8753SOL    HW137892   3.690   1.674   8.101  4.7270 -1.9388 -1.5537
 8753SOL    HW237893   3.635   1.807   8.067 -0.7301  0.3393 -1.3180
 8754SOL     OW37894   3.299   4.502   6.537  0.0891  0.1175  0.4896
 8754SOL    HW137895   3.262   4.414   6.527  0.1248  0.1030  0.4875
 8754SOL    HW237896   3.281   4.516   6.630 -0.7237 -0.1272  0.3715
 8755SOL     OW37897   0.481   1.656  16.553 -0.3911  0.1445 -0.3989
 8755SOL    HW137898   0.394   1.682  16.582 -0.6729  0.4482 -1.4982
 8755SOL    HW237899   0.535   1.735  16.558  0.4932 -0.4103 -1.1561
 8756SOL     OW37900   3.858   2.423   4.716 -0.4853 -0.0819 -0.3294
 8756SOL    HW137901   3.912   2.496   4.687 -1.3141  0.6840  0.0625
 8756SOL    HW237902   3.821   2.467   4.792 -2.7306 -3.1322  0.3430
 8757SOL     OW37903   4.523   2.315   3.951  0.7314  0.2673 -0.0765
 8757SOL    HW137904   4.446   2.301   4.005 -0.0559  2.6494 -0.5775
 8757SOL    HW237905   4.567   2.238   3.986  1.1442  1.4871  2.0568
 8758SOL     OW37906   2.245   4.465  10.276  0.0258 -0.3357 -0.1096
 8758SOL    HW137907   2.217   4.414  10.200 -2.9675  2.2400 -0.7353
 8758SOL    HW237908   2.231   4.552  10.240  0.2137 -0.3589 -0.2338
 8759SOL     OW37909   3.967   3.179   7.889 -0.1076 -0.0416  0.1966
 8759SOL    HW137910   4.008   3.245   7.945 -0.3156 -1.0576  1.5578
 8759SOL    HW237911   4.034   3.110   7.892  1.1906  1.2181  0.1554
 8760SOL     OW37912   4.063   3.370   8.074 -0.1894 -0.0736 -0.2185
 8760SOL    HW137913   4.000   3.359   8.145 -1.9331  0.5391 -1.6736
 8760SOL    HW237914   4.045   3.459   8.045 -0.9420 -0.7756 -1.8676
 8761SOL     OW37915   1.703   1.999   3.896  0.1455  0.1699  0.0115
 8761SOL    HW137916   1.724   2.078   3.945 -2.1898  0.4023  0.6257
 8761SOL    HW237917   1.740   2.019   3.809  0.9378 -1.3701 -0.0110
 8762SOL     OW37918   4.461   2.464   4.307 -0.2489 -0.1118  0.1430
 8762SOL    HW137919   4.551   2.454   4.279 -0.9414 -2.4926 -1.2476
 8762SOL    HW237920   4.418   2.422   4.232  0.0946  2.8925 -1.6968
 8763SOL     OW37921   3.746   3.155   4.224  0.4112 -0.1302 -0.6276
 8763SOL    HW137922   3.698   3.078   4.194 -0.9678  0.6422 -0.3744
 8763SOL    HW237923   3.835   3.121   4.225  0.6957  0.5964 -0.8607
 8764SOL     OW37924   0.112   0.021   7.663 -0.3537 -0.3945  0.5994
 8764SOL    HW137925   0.133   0.074   7.740 -0.5693 -0.0677  0.4362
 8764SOL    HW237926   0.195   0.022   7.616  0.3966 -0.3320  1.9522
 8765SOL     OW37927   1.189   0.163   8.596  0.3268  0.3882 -0.7262
 8765SOL    HW137928   1.257   0.105   8.632 -0.8553  0.7419  2.0216
 8765SOL    HW237929   1.230   0.240   8.558  0.8882  0.0894 -0.7270
 8766SOL     OW37930   1.021   3.685  13.931  0.3187 -0.0026  0.3258
 8766SOL    HW137931   0.983   3.773  13.935 -0.6660 -0.3094 -1.9794
 8766SOL    HW237932   1.000   3.648  14.017  2.2031  0.1010  0.8397
 8767SOL     OW37933   1.725   4.619  17.385  0.2205 -0.1513  0.1261
 8767SOL    HW137934   1.762   4.570  17.458 -0.7425  1.5066  1.7357
 8767SOL    HW237935   1.743   4.554  17.317  0.5401 -1.9773  1.9612
 8768SOL     OW37936   0.935   3.087   5.852  0.2915 -0.6424  0.4319
 8768SOL    HW137937   1.030   3.074   5.860 -0.1079 -2.1310  2.7952
 8768SOL    HW237938   0.926   3.140   5.931 -0.4264  1.0714 -0.7852
 8769SOL     OW37939   3.487   0.448   8.712  0.0739 -0.0332  0.6728
 8769SOL    HW137940   3.393   0.448   8.730 -0.0402 -1.1737  0.0384
 8769SOL    HW237941   3.515   0.369   8.759 -0.2384 -0.1567  0.6448
 8770SOL     OW37942   3.084   0.928   9.042  0.3448 -0.4651 -0.9021
 8770SOL    HW137943   3.139   0.963   9.113  0.0788 -0.3007 -0.7774
 8770SOL    HW237944   3.043   0.855   9.087  0.8503 -0.0175  0.2990
 8771SOL     OW37945   0.693   4.467   2.429  0.2821  0.0656 -0.0358
 8771SOL    HW137946   0.771   4.421   2.460 -1.7711 -2.6747  0.9497
 8771SOL    HW237947   0.716   4.560   2.441  0.9668 -0.5792  3.5710
 8772SOL     OW37948   4.258   2.558  17.540  0.0995 -0.0701 -0.7091
 8772SOL    HW137949   4.201   2.482  17.542 -0.7824  0.5752 -1.6666
 8772SOL    HW237950   4.309   2.542  17.461  0.4134  0.7785 -0.6766
 8773SOL     OW37951   2.969   0.261   9.651 -1.1113  0.0106 -0.0051
 8773SOL    HW137952   2.973   0.169   9.627 -0.0581 -0.3362  1.4576
 8773SOL    HW237953   2.966   0.298   9.563  0.5915  1.0038  0.3449
 8774SOL     OW37954   1.347   3.488   1.924  0.1362  0.6257 -0.1030
 8774SOL    HW137955   1.441   3.501   1.915  0.2834  0.7942  1.7106
 8774SOL    HW237956   1.342   3.399   1.958  2.2115  0.7896  0.6338
 8775SOL     OW37957   0.901   1.863   8.671  0.5292  0.1435 -0.3415
 8775SOL    HW137958   0.819   1.889   8.629  0.7383  0.1058 -0.7757
 8775SOL    HW237959   0.951   1.831   8.596 -0.0854  0.6839 -0.9888
 8776SOL     OW37960   1.677   1.212  11.711  0.5951 -0.1840  0.4411
 8776SOL    HW137961   1.616   1.223  11.637  1.6388  1.9268 -0.1088
 8776SOL    HW237962   1.745   1.279  11.709  0.5564 -0.1713 -0.4538
 8777SOL     OW37963   3.055   2.217  14.773  0.3849  0.3913  0.5959
 8777SOL    HW137964   3.011   2.251  14.851 -1.6739 -1.5468  0.2584
 8777SOL    HW237965   3.027   2.128  14.791 -1.6290  1.3431  2.1580
 8778SOL     OW37966   3.722   0.287   7.162  0.3323 -0.3210 -0.0946
 8778SOL    HW137967   3.763   0.265   7.246 -1.0382 -0.1106  0.6273
 8778SOL    HW237968   3.683   0.201   7.148 -2.0670  0.7447  0.0644
 8779SOL     OW37969   2.069   1.544  17.278 -0.3139 -0.0366  0.1062
 8779SOL    HW137970   2.049   1.624  17.230  0.3238 -0.7323 -1.2851
 8779SOL    HW237971   2.163   1.539  17.297 -0.6744 -0.4226  1.7973
 8780SOL     OW37972   0.455   0.998   7.753 -0.0062 -0.0675 -0.2749
 8780SOL    HW137973   0.419   1.085   7.773 -1.0278 -0.5803  0.1031
 8780SOL    HW237974   0.533   0.995   7.808  0.4580 -0.3920 -0.9594
 8781SOL     OW37975   2.298   4.559   7.755 -0.1691  0.0752  0.0071
 8781SOL    HW137976   2.259   4.517   7.831 -2.6722  1.8317 -0.3028
 8781SOL    HW237977   2.326   4.490   7.695 -0.2417  0.1862 -0.1557
 8782SOL     OW37978   3.440   3.511   6.279  0.2742  0.6517 -0.1133
 8782SOL    HW137979   3.372   3.577   6.266 -0.4543 -0.0569  0.1751
 8782SOL    HW237980   3.395   3.427   6.276  2.7957 -0.7024 -0.1320
 8783SOL     OW37981   3.864   1.781  14.103  0.2671  0.0891 -0.0505
 8783SOL    HW137982   3.942   1.835  14.118 -0.2755  0.8620  0.0102
 8783SOL    HW237983   3.875   1.716  14.172 -0.7960 -1.6175 -1.4804
 8784SOL     OW37984   1.458   1.233   4.026  0.0644  0.3179 -0.4447
 8784SOL    HW137985   1.482   1.324   4.005  1.7768  0.4619  2.0649
 8784SOL    HW237986   1.529   1.178   3.993 -1.3097  0.0819 -3.0435
 8785SOL     OW37987   1.540   2.718  17.105  0.0058 -0.1191 -0.0660
 8785SOL    HW137988   1.615   2.661  17.121 -0.9356 -1.1699  0.6537
 8785SOL    HW237989   1.509   2.705  17.015 -1.2941  3.2628 -0.0993
 8786SOL     OW37990   0.926   3.153   3.615  0.0357 -0.0362  0.2747
 8786SOL    HW137991   0.923   3.135   3.521 -0.2337  0.3541  0.2080
 8786SOL    HW237992   1.016   3.123   3.631  0.1290  0.6136  0.9655
 8787SOL     OW37993   2.344   2.727   9.464 -0.4956  0.0348 -0.5282
 8787SOL    HW137994   2.301   2.707   9.547 -0.1216  0.2301 -0.2902
 8787SOL    HW237995   2.417   2.664   9.468 -0.3658  0.1270 -1.3391
 8788SOL     OW37996   3.974   4.462   4.742 -0.6740  0.0951 -0.2603
 8788SOL    HW137997   4.065   4.447   4.717 -0.8795  1.0567 -1.6218
 8788SOL    HW237998   3.959   4.380   4.788  0.5249  0.1585  0.2287
 8789SOL     OW37999   2.152   1.176   8.436 -0.1518  0.1379 -0.1399
 8789SOL    HW138000   2.241   1.146   8.415 -1.0364 -1.6712 -1.2185
 8789SOL    HW238001   2.098   1.119   8.382 -0.5902  0.1759  0.2596
 8790SOL     OW38002   0.107   2.986   8.505  0.8799 -0.2925  0.5228
 8790SOL    HW138003   0.028   2.987   8.559  1.2252 -0.7577  1.0307
 8790SOL    HW238004   0.155   3.065   8.530  1.1806 -0.0104 -0.9635
 8791SOL     OW38005   0.368   2.303   2.047  0.1054  0.1121 -0.6800
 8791SOL    HW138006   0.313   2.359   2.102 -0.0540  0.9998 -1.7534
 8791SOL    HW238007   0.391   2.233   2.108 -1.0850 -0.5086 -0.9461
 8792SOL     OW38008   1.268   1.373   9.229  0.3131 -0.3229  0.7304
 8792SOL    HW138009   1.335   1.364   9.161 -0.5025  0.6447 -0.1993
 8792SOL    HW238010   1.197   1.323   9.188 -1.1801  0.6070  2.1977
 8793SOL     OW38011   1.160   4.367   8.056  0.7267 -0.4757  0.3157
 8793SOL    HW138012   1.125   4.342   7.971  0.8770  0.1281  0.0776
 8793SOL    HW238013   1.080   4.393   8.102  0.6950  0.6834 -0.3915
 8794SOL     OW38014   2.783   3.924  13.369 -0.0724  0.2926 -0.0733
 8794SOL    HW138015   2.851   3.878  13.419 -0.2150 -0.1133 -0.2479
 8794SOL    HW238016   2.714   3.929  13.435 -1.1963 -1.7336 -1.0837
 8795SOL     OW38017   2.713   1.984   8.854  0.2044  0.4500  0.5451
 8795SOL    HW138018   2.652   1.971   8.927  0.8936  0.4900  1.1235
 8795SOL    HW238019   2.728   2.077   8.870 -2.1367  0.7181  1.3345
 8796SOL     OW38020   2.417   0.880   5.929 -0.5340 -0.0038  0.2618
 8796SOL    HW138021   2.404   0.935   5.852  0.3574 -0.5381 -0.2781
 8796SOL    HW238022   2.326   0.875   5.959  0.3615 -2.7902  2.5018
 8797SOL     OW38023   2.169   0.427   5.462 -0.5272  0.4558  0.0532
 8797SOL    HW138024   2.253   0.456   5.498 -0.1366 -0.4697 -0.1317
 8797SOL    HW238025   2.146   0.341   5.496 -2.6038  1.4033  1.0592
 8798SOL     OW38026   2.155   4.282   1.572  0.0350 -0.2422  0.3531
 8798SOL    HW138027   2.143   4.194   1.538  1.9894 -0.1361 -0.6415
 8798SOL    HW238028   2.218   4.256   1.640  1.2011  0.8779 -0.2811
 8799SOL     OW38029   0.778   4.580   3.343  0.7858  0.0091  0.1158
 8799SOL    HW138030   0.688   4.548   3.337  0.9363 -0.5419  0.8274
 8799SOL    HW238031   0.768   4.649   3.277 -1.3517 -1.6546 -1.3120
 8800SOL     OW38032   1.744   4.189   1.382 -0.0685 -0.1962  0.2001
 8800SOL    HW138033   1.705   4.186   1.469 -1.6934 -0.0068 -0.5259
 8800SOL    HW238034   1.689   4.252   1.335  0.9705  0.3748 -0.2499
 8801SOL     OW38035   1.487   3.048   4.468 -0.0579 -0.3295 -0.0561
 8801SOL    HW138036   1.423   3.119   4.469 -1.3990 -1.4810 -2.7142
 8801SOL    HW238037   1.553   3.098   4.422 -0.4072  0.2621  0.0882
 8802SOL     OW38038   2.205   3.417   7.396 -0.2665  0.2885  0.2170
 8802SOL    HW138039   2.154   3.402   7.316 -0.4041  1.2696  0.1243
 8802SOL    HW238040   2.265   3.487   7.371  1.1854 -1.4295 -1.1725
 8803SOL     OW38041   0.267   0.467   0.215 -1.0656 -0.1079  0.0847
 8803SOL    HW138042   0.234   0.437   0.300  0.1767  0.5617  0.8107
 8803SOL    HW238043   0.293   0.379   0.186  0.8226  0.2570  0.6558
 8804SOL     OW38044   2.318   0.138   5.017  0.0981  0.2615 -0.2452
 8804SOL    HW138045   2.296   0.216   5.069  2.4585  0.6457  0.1771
 8804SOL    HW238046   2.413   0.134   5.031 -0.2656 -2.3245  1.4941
 8805SOL     OW38047   1.305   0.361   2.971 -0.2202  0.5106  0.1793
 8805SOL    HW138048   1.346   0.324   3.049  0.1960  0.1650 -0.2012
 8805SOL    HW238049   1.378   0.375   2.910 -0.5817  1.4285 -0.0424
 8806SOL     OW38050   2.499   0.245  16.647  0.2690  0.4492  0.0914
 8806SOL    HW138051   2.441   0.217  16.576  0.8839  0.2659 -0.3294
 8806SOL    HW238052   2.584   0.204  16.636 -0.3211  0.2492 -3.5745
 8807SOL     OW38053   2.749   4.611   8.827  0.0871  0.6708  0.2723
 8807SOL    HW138054   2.667   4.567   8.849  0.9344 -0.4876  1.1437
 8807SOL    HW238055   2.711   4.698   8.832 -2.3878 -0.3843 -0.0859
 8808SOL     OW38056   3.460   1.569   3.982 -0.0726 -0.0394  0.4916
 8808SOL    HW138057   3.379   1.589   3.935  1.1933  1.9616 -0.8645
 8808SOL    HW238058   3.521   1.641   3.963  0.1112 -0.4982 -0.6800
 8809SOL     OW38059   2.446   0.242   8.645  0.1273  0.1702  0.1147
 8809SOL    HW138060   2.408   0.305   8.584  0.6526 -0.1870 -0.5774
 8809SOL    HW238061   2.376   0.178   8.641  1.7736 -1.3934 -3.2585
 8810SOL     OW38062   3.705   0.102  12.434 -0.5054 -0.2501  0.8481
 8810SOL    HW138063   3.630   0.075  12.381 -0.8405  0.9009  0.7475
 8810SOL    HW238064   3.755   0.021  12.448 -0.5415 -0.0482  2.1042
 8811SOL     OW38065   3.819   1.761  10.927  0.0622  0.2271 -0.2212
 8811SOL    HW138066   3.800   1.709  11.006  1.0661 -0.3003 -0.3272
 8811SOL    HW238067   3.902   1.801  10.952 -1.3793  0.9152  3.4886
 8812SOL     OW38068   4.048   2.361   2.279 -0.0351  0.3047  0.5418
 8812SOL    HW138069   4.012   2.307   2.208  0.0864  2.2736 -1.0120
 8812SOL    HW238070   4.110   2.291   2.300  0.4182  0.4656 -0.2484
 8813SOL     OW38071   4.430   2.927   0.885  0.0713 -0.2220 -0.3677
 8813SOL    HW138072   4.508   2.928   0.830  1.3464  2.6531  1.5156
 8813SOL    HW238073   4.397   2.838   0.871  0.5028 -0.4916  0.3641
 8814SOL     OW38074   2.939   0.551   3.468 -0.0147  0.0529 -0.1127
 8814SOL    HW138075   3.016   0.594   3.506  0.8936 -1.3731 -0.3262
 8814SOL    HW238076   2.927   0.496   3.545  0.0337  2.3907  1.5627
 8815SOL     OW38077   1.503   1.334  14.993  0.3569  0.2257  0.5277
 8815SOL    HW138078   1.449   1.280  15.050 -2.0669  1.3223 -0.7118
 8815SOL    HW238079   1.473   1.420  15.023  0.1409  0.6112 -0.7873
 8816SOL     OW38080   1.609   1.510   9.378  0.3219 -0.5012 -0.3650
 8816SOL    HW138081   1.639   1.590   9.419 -1.5040 -0.2927  0.5632
 8816SOL    HW238082   1.691   1.462   9.381  0.3615 -0.2948  1.7525
 8817SOL     OW38083   2.230   3.537   7.043 -0.0115 -0.1907  0.3635
 8817SOL    HW138084   2.190   3.453   7.066  0.8569 -0.2997  1.4656
 8817SOL    HW238085   2.213   3.529   6.949 -0.0280 -0.8925  0.4245
 8818SOL     OW38086   1.675   1.278  14.381 -0.6072 -0.2346  0.1557
 8818SOL    HW138087   1.663   1.348  14.444  0.6919 -0.0505  0.2004
 8818SOL    HW238088   1.770   1.269  14.376 -0.4892  0.9076  0.5861
 8819SOL     OW38089   1.298   2.942   7.529 -0.0400  0.1121  0.1612
 8819SOL    HW138090   1.264   3.001   7.597 -1.6790 -0.8584  0.1952
 8819SOL    HW238091   1.350   3.003   7.477 -0.3492  0.3038  0.0787
 8820SOL     OW38092   0.992   0.369   6.029  0.3785  0.5712 -0.0678
 8820SOL    HW138093   1.031   0.423   5.961  1.6571  2.1372  1.9233
 8820SOL    HW238094   0.959   0.443   6.080 -1.2557  0.1051 -0.4390
 8821SOL     OW38095   0.853   0.726  15.889  0.0386  0.2713  0.0174
 8821SOL    HW138096   0.792   0.656  15.865  0.0926 -0.2954  1.5408
 8821SOL    HW238097   0.796   0.777  15.945  2.2905  1.5147  1.1752
 8822SOL     OW38098   2.477   4.594   5.509 -0.8801  0.1145 -0.2186
 8822SOL    HW138099   2.542   4.555   5.567  0.7671  3.4602  0.1792
 8822SOL    HW238100   2.485   4.524   5.444  0.2791  0.2502 -0.2130
 8823SOL     OW38101   0.443   0.968   0.419  0.0869 -0.3378 -0.9707
 8823SOL    HW138102   0.430   0.876   0.443  0.6590 -0.0244  0.5324
 8823SOL    HW238103   0.532   0.965   0.382  0.7178  3.2788  0.3390
 8824SOL     OW38104   4.575   3.280   2.094 -0.4105  0.0716 -0.2155
 8824SOL    HW138105   4.592   3.197   2.139  1.7332  1.6892  1.9660
 8824SOL    HW238106   4.528   3.239   2.021  2.0288 -2.7720 -0.1899
 8825SOL     OW38107   1.140   2.951   6.277  0.2297  0.4933 -0.5255
 8825SOL    HW138108   1.225   2.995   6.285 -0.7100  1.7441  2.3964
 8825SOL    HW238109   1.083   3.021   6.310 -0.2816 -1.1179  1.9469
 8826SOL     OW38110   0.423   2.128  12.666 -0.1527 -0.2194 -0.1098
 8826SOL    HW138111   0.514   2.102  12.649 -0.5547 -1.7592  0.0732
 8826SOL    HW238112   0.401   2.166  12.581  0.1368 -0.6798 -0.3926
 8827SOL     OW38113   0.689   2.106   1.857 -0.6893 -0.3327  0.1654
 8827SOL    HW138114   0.679   2.194   1.892  1.9228  0.5056 -1.2190
 8827SOL    HW238115   0.709   2.061   1.939 -1.8035  1.1719  1.2520
 8828SOL     OW38116   3.576   3.158   7.595 -0.1984 -0.3868 -0.3667
 8828SOL    HW138117   3.669   3.178   7.602 -0.2730 -0.0261 -0.4143
 8828SOL    HW238118   3.552   3.180   7.685  1.6228 -0.2635  0.0861
 8829SOL     OW38119   2.555   1.859   8.676  0.2020 -0.6177 -0.1471
 8829SOL    HW138120   2.620   1.890   8.739  0.4819 -0.3783 -0.5613
 8829SOL    HW238121   2.474   1.848   8.727 -0.8593  2.0459 -1.2332
 8830SOL     OW38122   1.310   1.213  12.509 -0.3456 -0.1741 -0.3503
 8830SOL    HW138123   1.282   1.139  12.456 -1.4810  1.3448 -1.8711
 8830SOL    HW238124   1.341   1.164  12.585  2.9025  1.5362 -0.5948
 8831SOL     OW38125   0.897   3.681   4.125  0.2517  0.6207 -0.0959
 8831SOL    HW138126   0.961   3.676   4.196  2.1308  1.0476 -1.7442
 8831SOL    HW238127   0.821   3.677   4.182 -0.7688  2.1064 -1.3471
 8832SOL     OW38128   4.586   2.551   0.021 -0.5612 -0.5944  0.0374
 8832SOL    HW138129   4.526   2.572  17.693  0.6766 -1.0819 -1.1649
 8832SOL    HW238130   4.583   2.455   0.023  2.1812 -0.6940  0.0326
 8833SOL     OW38131   4.198   1.977   9.571 -0.0331  0.0308  0.2079
 8833SOL    HW138132   4.268   1.912   9.564 -1.4883 -1.2418 -2.1575
 8833SOL    HW238133   4.147   1.948   9.495 -1.6905  2.9231  0.2280
 8834SOL     OW38134   1.613   0.754   4.253  0.4645 -0.6987 -0.1894
 8834SOL    HW138135   1.531   0.798   4.274  0.1609 -0.7834 -1.1871
 8834SOL    HW238136   1.672   0.816   4.296 -0.9263  0.4203  0.0889
 8835SOL     OW38137   0.450   1.345   1.676  0.2930 -0.1720 -0.0809
 8835SOL    HW138138   0.381   1.353   1.611 -0.5692  2.8179  1.2276
 8835SOL    HW238139   0.531   1.369   1.632  1.0062 -1.6997  0.3750
 8836SOL     OW38140   0.156   2.803   3.762 -0.6431  0.5751  0.2854
 8836SOL    HW138141   0.205   2.885   3.765  1.8312 -0.9055 -0.1469
 8836SOL    HW238142   0.169   2.774   3.852 -0.4923  2.2057  0.8010
 8837SOL     OW38143   3.000   3.600   8.132  0.4544  0.8865 -0.2923
 8837SOL    HW138144   3.089   3.566   8.141  0.7261  2.1900  2.0998
 8837SOL    HW238145   2.949   3.564   8.205 -1.3689  2.0524 -0.9981
 8838SOL     OW38146   1.910   1.184  10.060 -0.3459 -0.1412 -0.1931
 8838SOL    HW138147   1.845   1.244  10.097  1.4678  0.0717  2.6522
 8838SOL    HW238148   1.860   1.108  10.029  0.1731 -0.3014 -0.6361
 8839SOL     OW38149   0.383   2.026   1.816 -0.4553 -0.7005  0.2918
 8839SOL    HW138150   0.377   2.118   1.788  0.6716 -0.7871 -0.2182
 8839SOL    HW238151   0.467   2.030   1.862 -0.8172  1.4557  0.8046
 8840SOL     OW38152   1.764   4.503   6.184  0.5823 -0.1739 -0.1075
 8840SOL    HW138153   1.720   4.494   6.268  1.6985  1.5487  0.6757
 8840SOL    HW238154   1.769   4.410   6.164  1.6485 -0.2940  0.7053
 8841SOL     OW38155   0.782   0.804   3.984 -0.0478 -0.4338 -0.0485
 8841SOL    HW138156   0.702   0.775   3.939  0.3215 -0.9995 -0.3366
 8841SOL    HW238157   0.837   0.733   3.952  0.2571  0.2341 -0.9926
 8842SOL     OW38158   0.551   0.701  14.465 -0.1483  0.1898  0.2819
 8842SOL    HW138159   0.534   0.630  14.402 -1.4702  0.3521  0.4462
 8842SOL    HW238160   0.619   0.752  14.421  2.4318 -2.3361  1.3413
 8843SOL     OW38161   0.695   1.318   6.134  0.5235 -0.2914  0.4419
 8843SOL    HW138162   0.625   1.358   6.082 -0.2799  0.0072  1.7529
 8843SOL    HW238163   0.649   1.315   6.218 -1.2275 -0.0593 -0.4939
 8844SOL     OW38164   3.281   3.309   6.153 -0.5045  0.4364 -0.2758
 8844SOL    HW138165   3.273   3.270   6.067 -2.5583  0.8556 -0.2814
 8844SOL    HW238166   3.190   3.305   6.183 -0.5237 -1.9624 -0.7354
 8845SOL     OW38167   0.293   0.027   2.312 -0.2465 -0.1724  0.2668
 8845SOL    HW138168   0.208   4.721   2.297 -1.1859  1.2290  1.7631
 8845SOL    HW238169   0.355   4.691   2.306 -1.6915 -1.5376  1.6438
 8846SOL     OW38170   1.919   2.775  10.155 -0.0154 -0.2040  0.8237
 8846SOL    HW138171   1.930   2.834  10.080 -2.0227 -0.6673  0.1914
 8846SOL    HW238172   1.994   2.716  10.153  0.3715  0.4330 -3.9982
 8847SOL     OW38173   1.062   2.701  13.031  0.2321 -0.4823  0.2506
 8847SOL    HW138174   0.973   2.713  12.997  0.4415  1.4513  0.4285
 8847SOL    HW238175   1.070   2.605  13.028  0.2007 -0.5019  0.9687
 8848SOL     OW38176   2.399   3.922   8.418 -0.3102 -0.3768  0.3274
 8848SOL    HW138177   2.451   3.976   8.358 -0.4979  0.4618  0.9222
 8848SOL    HW238178   2.465   3.900   8.484  0.8359  1.9810 -0.0075
 8849SOL     OW38179   2.084   2.959   4.650  0.1054  0.4758 -0.5589
 8849SOL    HW138180   2.099   2.893   4.718  0.6512 -0.6945 -1.8183
 8849SOL    HW238181   2.163   2.960   4.597  0.2434 -1.5599 -0.3701
 8850SOL     OW38182   3.376   3.930   3.375 -0.7052  0.0716  0.0649
 8850SOL    HW138183   3.321   3.867   3.422 -0.5991 -1.0232 -1.2768
 8850SOL    HW238184   3.328   3.927   3.292  0.0188  1.2528 -0.3869
 8851SOL     OW38185   1.329   0.057   8.051 -0.7815 -0.6368  0.1463
 8851SOL    HW138186   1.397   0.033   8.115 -0.2893  0.9313  0.2090
 8851SOL    HW238187   1.301   0.142   8.084  0.1494 -1.0510  1.9997
 8852SOL     OW38188   1.692   1.303   2.347 -0.2063  0.1628 -0.6300
 8852SOL    HW138189   1.610   1.344   2.320 -1.4446 -2.4700 -0.8914
 8852SOL    HW238190   1.700   1.251   2.267 -1.1317 -0.4375 -0.3260
 8853SOL     OW38191   4.070   3.837   3.703 -0.7658  0.0449  0.1463
 8853SOL    HW138192   4.025   3.920   3.719 -0.7063  0.2508 -0.7516
 8853SOL    HW238193   3.992   3.790   3.674  1.3827 -2.4719 -1.4866
 8854SOL     OW38194   4.417   2.965  16.255  0.1396  0.1161  0.1680
 8854SOL    HW138195   4.455   2.958  16.343  0.1539 -0.0260  0.1511
 8854SOL    HW238196   4.449   2.882  16.219  0.3664 -0.5887  1.9769
 8855SOL     OW38197   0.131   3.278   6.708 -0.6942  0.1178  0.0673
 8855SOL    HW138198   0.143   3.213   6.638 -0.9054  0.7616 -0.5640
 8855SOL    HW238199   0.159   3.225   6.782 -4.4075 -0.6757  0.9298
 8856SOL     OW38200   3.560   4.575   8.526  0.1904 -0.2023  0.3438
 8856SOL    HW138201   3.490   4.522   8.489 -0.0596 -0.4493  1.1636
 8856SOL    HW238202   3.611   4.504   8.565 -0.7949  0.1360  2.2767
 8857SOL     OW38203   1.409   1.218   7.272  0.2996  0.2496 -0.1125
 8857SOL    HW138204   1.419   1.235   7.178 -2.5495  0.2732 -0.4250
 8857SOL    HW238205   1.408   1.305   7.313 -0.1300  1.0392 -1.8074
 8858SOL     OW38206   4.102   3.855   7.257  0.5505 -0.1978  0.7171
 8858SOL    HW138207   4.196   3.842   7.247  0.5240  1.8573 -2.1698
 8858SOL    HW238208   4.075   3.763   7.254  0.8407 -0.3229  1.8123
 8859SOL     OW38209   1.486   0.085   8.500 -0.2953  0.0753 -0.0452
 8859SOL    HW138210   1.444   0.171   8.502 -1.9541 -0.7636  0.6178
 8859SOL    HW238211   1.452   0.041   8.578  1.0898 -0.7175  0.1115
 8860SOL     OW38212   0.401   0.979   3.921 -0.4494  0.3129  0.5540
 8860SOL    HW138213   0.347   0.983   3.842 -1.7947  0.9674  1.5339
 8860SOL    HW238214   0.410   0.883   3.924  0.0913  0.3744  0.9131
 8861SOL     OW38215   2.907   0.241   6.853  0.5827 -0.7279  0.1956
 8861SOL    HW138216   2.858   0.211   6.777  1.6038 -2.3440  0.1946
 8861SOL    HW238217   2.990   0.269   6.814 -0.9843  1.9100 -1.2622
 8862SOL     OW38218   1.404   1.017   2.495  0.2589  0.0532  0.2942
 8862SOL    HW138219   1.417   1.000   2.588 -0.9902  1.4310  0.7389
 8862SOL    HW238220   1.473   1.082   2.484  0.2241  0.5700  3.0585
 8863SOL     OW38221   3.869   3.476   9.453 -0.4540 -0.1808 -1.0324
 8863SOL    HW138222   3.927   3.463   9.528 -1.1575 -0.0819 -0.4635
 8863SOL    HW238223   3.916   3.524   9.385 -0.7046  0.3797 -0.8154
 8864SOL     OW38224   1.427   3.311   1.646  0.4912  0.6182 -0.3104
 8864SOL    HW138225   1.502   3.371   1.647  1.3257 -0.4299  0.8386
 8864SOL    HW238226   1.360   3.376   1.624 -0.3746  0.8686  3.0669
 8865SOL     OW38227   3.739   0.840  12.569 -0.3006  0.1012  0.0903
 8865SOL    HW138228   3.749   0.761  12.516  0.3532 -0.6706  1.3542
 8865SOL    HW238229   3.743   0.904  12.499  0.3680  1.0041  0.9549
 8866SOL     OW38230   1.841   1.320   5.551 -0.6435  0.1667  0.0846
 8866SOL    HW138231   1.844   1.362   5.466 -1.0437  0.8235  0.3949
 8866SOL    HW238232   1.754   1.284   5.537 -0.0623 -1.2837  0.1277
 8867SOL     OW38233   1.391   3.680   1.500  0.0378  0.4102  0.2873
 8867SOL    HW138234   1.339   3.745   1.454  0.3046 -0.7444 -1.7071
 8867SOL    HW238235   1.330   3.643   1.563 -0.3114  0.1212 -0.2124
 8868SOL     OW38236   2.153   4.236  12.450  0.6502  0.0971 -0.3973
 8868SOL    HW138237   2.232   4.184  12.433  0.3406 -0.5032  0.0325
 8868SOL    HW238238   2.109   4.209  12.369 -2.0841 -0.1312  1.1654
 8869SOL     OW38239   1.444   4.143   7.742  0.2241 -0.6565 -0.0679
 8869SOL    HW138240   1.537   4.129   7.761  0.7327  1.8640 -0.6374
 8869SOL    HW238241   1.459   4.214   7.679  1.2301 -1.3907 -0.6608
 8870SOL     OW38242   0.901   0.824   8.365  0.1352 -0.0395 -0.8069
 8870SOL    HW138243   0.844   0.771   8.422 -0.2370  1.9572  0.6559
 8870SOL    HW238244   0.888   0.903   8.417 -0.8481 -2.4830  2.6671
 8871SOL     OW38245   1.216   4.292   4.411  0.5036 -0.1194  0.8423
 8871SOL    HW138246   1.209   4.387   4.397 -0.4856 -0.0242  2.0227
 8871SOL    HW238247   1.308   4.281   4.435  1.0912 -1.4706 -2.1332
 8872SOL     OW38248   1.569   2.015   4.501  0.1441 -0.2388 -0.2681
 8872SOL    HW138249   1.517   2.011   4.581 -0.9951  0.5689 -0.9659
 8872SOL    HW238250   1.621   2.093   4.523 -1.1279  0.4738  0.2259
 8873SOL     OW38251   4.442   4.195   4.966  0.8663  0.7687 -0.2984
 8873SOL    HW138252   4.463   4.108   4.932 -1.2079  0.1963 -0.1762
 8873SOL    HW238253   4.421   4.173   5.057 -1.2358 -0.0372 -0.9650
 8874SOL     OW38254   2.400   3.080   4.551 -0.5655  0.2644  0.0808
 8874SOL    HW138255   2.388   3.160   4.500 -0.3266 -0.1351 -0.6052
 8874SOL    HW238256   2.492   3.082   4.579 -0.8169  0.3570  0.9083
 8875SOL     OW38257   1.905   1.778   7.080  0.5458 -0.4915  0.2738
 8875SOL    HW138258   1.874   1.706   7.133  0.5102 -1.2147 -0.7303
 8875SOL    HW238259   1.900   1.846   7.148 -0.3330  0.1656 -0.4421
 8876SOL     OW38260   4.258   4.199   8.293  0.5245  0.2249 -0.2706
 8876SOL    HW138261   4.184   4.175   8.237 -0.2701 -2.6373  2.0051
 8876SOL    HW238262   4.210   4.190   8.375 -0.8885  2.6179 -0.8304
 8877SOL     OW38263   3.600   2.356  10.160 -1.0169 -0.2534  0.0115
 8877SOL    HW138264   3.585   2.435  10.108 -1.0886  0.1818  0.6824
 8877SOL    HW238265   3.695   2.356  10.177 -0.9547 -0.2381 -0.3461
 8878SOL     OW38266   4.439   3.569   7.381  0.7189 -0.0003 -0.3694
 8878SOL    HW138267   4.447   3.546   7.473  2.2853 -0.2037 -0.5464
 8878SOL    HW238268   4.507   3.511   7.346  0.5663  0.5626 -1.6020
 8879SOL     OW38269   3.722   2.763   0.481 -0.5756 -0.5565  0.2792
 8879SOL    HW138270   3.808   2.796   0.508 -1.8035  1.6586  1.4806
 8879SOL    HW238271   3.740   2.696   0.415  1.0486 -1.4650  1.6403
 8880SOL     OW38272   1.440   1.775   0.053 -0.0986 -0.0134  0.0699
 8880SOL    HW138273   1.448   1.817  17.711  1.7159 -0.3533  0.0784
 8880SOL    HW238274   1.512   1.809   0.106  0.1846  0.3930 -0.5723
 8881SOL     OW38275   0.776   2.548   8.017 -0.5505 -0.4638 -0.3167
 8881SOL    HW138276   0.689   2.580   8.043  0.5278  1.7440  0.5561
 8881SOL    HW238277   0.784   2.622   7.957  1.9443 -0.9846 -0.6075
 8882SOL     OW38278   4.055   2.584   8.693 -0.2250 -0.4573  0.0147
 8882SOL    HW138279   4.000   2.563   8.618  2.4696  0.7010 -2.2774
 8882SOL    HW238280   4.108   2.504   8.694  1.5078  0.6681 -2.3678
 8883SOL     OW38281   1.054   3.782   8.956  0.3010  0.1558  0.2544
 8883SOL    HW138282   0.960   3.799   8.964  0.1088  0.6126 -2.7736
 8883SOL    HW238283   1.045   3.700   8.908 -5.8286  1.3020 -0.6147
 8884SOL     OW38284   2.546   0.161   9.675 -0.0125 -0.0495  0.1888
 8884SOL    HW138285   2.554   0.080   9.725  0.5375 -1.0876 -1.5948
 8884SOL    HW238286   2.610   0.209   9.728 -0.2116  0.3469  0.0749
 8885SOL     OW38287   3.072   2.719   3.535 -0.2712 -0.4918  0.2310
 8885SOL    HW138288   3.155   2.709   3.488 -1.3318  1.6380 -2.1226
 8885SOL    HW238289   3.010   2.721   3.462  0.0662 -0.5155 -0.0620
 8886SOL     OW38290   4.519   0.888   6.556 -0.0363 -0.3139 -0.5823
 8886SOL    HW138291   4.580   0.913   6.626  1.5673 -0.5551 -1.8857
 8886SOL    HW238292   4.442   0.867   6.607  0.2108  1.0084  0.3600
 8887SOL     OW38293   3.383   1.498   4.704 -0.0829  0.6251 -0.0080
 8887SOL    HW138294   3.457   1.452   4.744  0.8586  1.9211 -0.2627
 8887SOL    HW238295   3.397   1.469   4.614 -1.6545 -0.2846  0.0285
 8888SOL     OW38296   0.211   1.416   8.548 -0.1490  0.3936  0.4733
 8888SOL    HW138297   0.292   1.385   8.589 -0.0644  0.0019  0.0006
 8888SOL    HW238298   0.200   1.346   8.483 -2.6826  1.4494 -0.2469
 8889SOL     OW38299   1.300   0.920   3.773  0.5041  0.6257  0.4577
 8889SOL    HW138300   1.284   0.828   3.753 -0.1649  1.4052 -2.5473
 8889SOL    HW238301   1.351   0.912   3.854  1.9220  1.0530 -0.3733
 8890SOL     OW38302   3.786   3.372  12.366 -0.3915 -0.1285  0.2325
 8890SOL    HW138303   3.803   3.443  12.428  1.3310 -0.8320  0.5685
 8890SOL    HW238304   3.698   3.403  12.343 -1.5989 -0.4095  4.3070
 8891SOL     OW38305   0.900   4.655   5.764  0.2755  0.2758  0.0918
 8891SOL    HW138306   0.896   4.722   5.832  0.6949 -0.8095  1.1623
 8891SOL    HW238307   0.992   4.628   5.771  0.6854  1.0865 -1.8793
 8892SOL     OW38308   0.364   3.364   6.570 -0.5158  0.4465 -0.3440
 8892SOL    HW138309   0.412   3.290   6.534 -0.0395 -0.2060  1.6443
 8892SOL    HW238310   0.363   3.331   6.660  2.0445 -2.3978 -1.3533
 8893SOL     OW38311   1.734   3.804   6.222  0.4082 -0.6894 -0.4444
 8893SOL    HW138312   1.811   3.769   6.267 -0.0170 -0.2388  0.6352
 8893SOL    HW238313   1.780   3.869   6.169  2.3472 -1.9587 -0.3216
 8894SOL     OW38314   2.409   0.642   2.846 -0.4902 -1.4565 -0.1003
 8894SOL    HW138315   2.474   0.573   2.860 -1.2406 -2.2539 -0.5633
 8894SOL    HW238316   2.396   0.641   2.751  2.4145  1.8753 -0.5397
 8895SOL     OW38317   0.066   4.277   9.455  1.0140 -0.5023 -0.0107
 8895SOL    HW138318   0.033   4.248   9.370 -1.8246 -2.0036  1.5642
 8895SOL    HW238319   4.729   4.249   9.511  2.9271 -3.0840  1.1947
 8896SOL     OW38320   3.330   1.917   8.827 -0.2308 -0.3178  0.3881
 8896SOL    HW138321   3.276   1.884   8.756  0.0086  1.4257 -0.6078
 8896SOL    HW238322   3.329   2.011   8.808 -0.2842 -0.2443  0.7509
 8897SOL     OW38323   0.052   3.161   6.152  0.1426 -0.4621  0.3346
 8897SOL    HW138324   4.709   3.206   6.181  0.2814 -1.2275  1.9254
 8897SOL    HW238325   0.110   3.235   6.131 -2.8266  1.4917 -0.8809
 8898SOL     OW38326   4.044   0.060  13.266 -0.2816  0.3560  0.3696
 8898SOL    HW138327   3.970   4.736  13.275 -0.2176  0.0537 -1.1924
 8898SOL    HW238328   3.993   0.140  13.280 -2.2098 -1.0000  1.1624
 8899SOL     OW38329   4.174   1.359  11.260 -0.6822 -0.1589  0.5973
 8899SOL    HW138330   4.267   1.337  11.261 -0.5440  0.4904  1.1324
 8899SOL    HW238331   4.133   1.296  11.319 -1.0413 -1.7135 -1.2661
 8900SOL     OW38332   1.543   4.400   4.888  0.3807 -0.1037 -0.0550
 8900SOL    HW138333   1.636   4.419   4.887  0.6465 -1.3595  0.8196
 8900SOL    HW238334   1.530   4.411   4.982  0.4005  1.0610 -0.1885
 8901SOL     OW38335   1.733   3.004   5.194  0.0966  0.3685 -0.3170
 8901SOL    HW138336   1.740   3.010   5.099  1.5679  0.9811 -0.1642
 8901SOL    HW238337   1.818   3.042   5.216 -1.4424  2.5336  1.9267
 8902SOL     OW38338   0.923   3.212   7.459  0.0986 -0.2662 -0.1600
 8902SOL    HW138339   0.932   3.136   7.403 -1.3662 -0.5853  0.0450
 8902SOL    HW238340   0.979   3.274   7.411  1.2315 -1.4253 -0.3336
 8903SOL     OW38341   2.974   4.384   3.616 -0.1506  0.4216  0.6442
 8903SOL    HW138342   2.999   4.474   3.595  0.6788  0.2728  0.9818
 8903SOL    HW238343   2.931   4.353   3.537 -0.7190  1.4186  0.5682
 8904SOL     OW38344   3.368   1.049   0.975  0.5924  0.3072 -0.1528
 8904SOL    HW138345   3.419   1.005   0.907  0.5073  0.7141 -0.4808
 8904SOL    HW238346   3.353   0.982   1.041  0.9880 -0.1545 -0.5328
 8905SOL     OW38347   0.854   4.473   1.692  0.3713  0.2933 -0.1457
 8905SOL    HW138348   0.759   4.467   1.697  0.6903 -4.0335  0.4170
 8905SOL    HW238349   0.859   4.569   1.688  1.5013  0.2528  0.2774
 8906SOL     OW38350   2.961   1.906   2.888 -0.1721  0.3644 -1.1472
 8906SOL    HW138351   2.930   1.875   2.803  1.3589 -0.1131 -1.5199
 8906SOL    HW238352   2.876   1.898   2.931 -0.9014  0.9896 -2.4770
 8907SOL     OW38353   1.967   1.803   5.013  0.1678  0.2106 -0.2554
 8907SOL    HW138354   1.887   1.765   4.977  1.2030 -3.1401  0.9699
 8907SOL    HW238355   1.974   1.735   5.080 -0.0397  0.5296  0.0881
 8908SOL     OW38356   4.321   4.158   9.025  0.1185  0.0121 -0.1895
 8908SOL    HW138357   4.279   4.200   9.099 -1.4314 -1.7465 -0.0613
 8908SOL    HW238358   4.346   4.238   8.979  1.2528 -0.0664  0.2961
 8909SOL     OW38359   1.461   2.305   3.846  0.1447  0.4964  0.5007
 8909SOL    HW138360   1.465   2.276   3.937 -0.0675  0.4991  0.5110
 8909SOL    HW238361   1.469   2.400   3.859  1.3163  0.2124  1.8850
 8910SOL     OW38362   0.278   0.647   5.301  0.3576  0.0209  0.1500
 8910SOL    HW138363   0.343   0.629   5.233 -2.4825 -0.1761 -2.5038
 8910SOL    HW238364   0.316   0.596   5.372 -0.6850  0.1795  0.8274
 8911SOL     OW38365   3.173   4.606   2.127 -0.0660  0.4952 -0.2516
 8911SOL    HW138366   3.094   4.641   2.169  1.0478  1.1062  1.3511
 8911SOL    HW238367   3.235   4.650   2.186 -1.1692  1.3855  0.2410
 8912SOL     OW38368   4.381   1.629   7.001 -0.2711 -0.4517 -0.6465
 8912SOL    HW138369   4.309   1.688   7.026 -0.4053 -0.7190 -0.3983
 8912SOL    HW238370   4.375   1.558   7.065  0.6379 -0.7817 -0.9229
 8913SOL     OW38371   0.705   3.516   4.263  0.4671 -0.0890  0.3168
 8913SOL    HW138372   0.737   3.432   4.230 -1.8378  0.2268 -2.6983
 8913SOL    HW238373   0.624   3.484   4.304  0.6011 -1.1065 -0.2223
 8914SOL     OW38374   3.935   3.083   2.552  0.1418 -0.2999  0.0208
 8914SOL    HW138375   4.016   3.134   2.550  0.4145 -0.7309  0.1789
 8914SOL    HW238376   3.902   3.099   2.463 -1.2973 -0.1892  0.5904
 8915SOL     OW38377   1.401   2.705   1.698  0.3290  0.2309  0.0482
 8915SOL    HW138378   1.318   2.670   1.730 -0.0419  0.0645 -1.0997
 8915SOL    HW238379   1.441   2.746   1.775  1.1041 -2.4130  1.0319
 8916SOL     OW38380   2.954   0.783   7.458  0.0622  0.3092 -0.4460
 8916SOL    HW138381   2.992   0.696   7.443 -0.3976  0.3171 -1.6830
 8916SOL    HW238382   2.866   0.757   7.431  0.3991 -0.3148 -0.9691
 8917SOL     OW38383   2.556   2.462  10.994 -0.1226 -0.1781 -0.3083
 8917SOL    HW138384   2.644   2.431  11.012  1.3721  3.2012 -1.7671
 8917SOL    HW238385   2.574   2.553  11.017  0.9568 -0.5558  0.3300
 8918SOL     OW38386   3.763   2.061   0.748  0.1039  0.6213  0.4136
 8918SOL    HW138387   3.789   2.052   0.840 -1.3205  0.2896  0.7715
 8918SOL    HW238388   3.823   2.004   0.699  0.8523 -0.7167  2.8550
 8919SOL     OW38389   3.030   1.169   0.752  0.3539  0.1815  0.0816
 8919SOL    HW138390   3.085   1.207   0.821 -0.0656  1.4507 -0.2907
 8919SOL    HW238391   3.093   1.116   0.703  0.6616  0.7757 -0.1642
 8920SOL     OW38392   4.245   2.169   9.777 -0.2470 -0.3899 -0.1336
 8920SOL    HW138393   4.231   2.113   9.700  0.7842 -2.4879  1.2132
 8920SOL    HW238394   4.340   2.175   9.782 -0.1918 -1.2689 -0.0752
 8921SOL     OW38395   3.196   4.406   9.056  1.4120 -0.3465 -0.4118
 8921SOL    HW138396   3.239   4.454   9.128 -0.7671  1.1063 -0.0611
 8921SOL    HW238397   3.106   4.436   9.070  1.8200  0.1414  1.1874
 8922SOL     OW38398   4.080   4.493   7.667 -0.2585 -0.3706 -0.1547
 8922SOL    HW138399   4.143   4.552   7.707 -0.8563  1.0888 -1.3828
 8922SOL    HW238400   4.135   4.425   7.629  0.9193  0.4968  0.0252
 8923SOL     OW38401   3.943   2.973  10.632  0.1910  0.5899 -0.0780
 8923SOL    HW138402   3.949   2.915  10.556 -0.8970 -0.0983  0.3704
 8923SOL    HW238403   3.981   3.059  10.612  0.6671  0.5328  0.5963
 8924SOL     OW38404   2.476   2.504   3.217 -0.3904 -0.4608  0.4868
 8924SOL    HW138405   2.510   2.591   3.196 -1.4535 -0.2280 -0.2360
 8924SOL    HW238406   2.384   2.499   3.191 -0.1751  0.5345 -0.4740
 8925SOL     OW38407   3.272   0.680   6.465  0.5572 -0.4134  0.1941
 8925SOL    HW138408   3.366   0.693   6.457  0.5639  0.1599  1.2032
 8925SOL    HW238409   3.260   0.642   6.552 -0.5549 -0.0125  0.2111
 8926SOL     OW38410   0.425   2.678   1.690 -0.5189 -0.9754  0.3081
 8926SOL    HW138411   0.446   2.766   1.722  2.0231 -1.6733  0.5713
 8926SOL    HW238412   0.508   2.642   1.721 -1.1652 -1.3879  1.5352
 8927SOL     OW38413   0.308   1.150   4.913  0.0224  0.8252 -0.0351
 8927SOL    HW138414   0.276   1.098   4.987 -1.5955  1.4372 -0.3240
 8927SOL    HW238415   0.379   1.196   4.957 -0.1346  0.3824  0.6754
 8928SOL     OW38416   4.585   1.932   4.302  0.0390 -0.0314 -0.4407
 8928SOL    HW138417   4.565   1.998   4.369  1.2654 -0.0638 -0.0434
 8928SOL    HW238418   4.657   1.882   4.341 -0.6609  0.7184  1.7813
 8929SOL     OW38419   2.509   3.964   4.457  0.3738  0.1606  0.4034
 8929SOL    HW138420   2.440   3.963   4.523  0.2960  1.7186  0.3387
 8929SOL    HW238421   2.586   3.994   4.506  0.2473  1.2705 -0.0831
 8930SOL     OW38422   4.271   3.356   4.602 -0.1647  0.0822 -0.0447
 8930SOL    HW138423   4.186   3.400   4.612 -0.7126 -0.9789 -0.1001
 8930SOL    HW238424   4.328   3.428   4.630 -0.3568  0.0902  0.3338
 8931SOL     OW38425   3.837   3.853   5.322 -0.0079  0.0556  0.1217
 8931SOL    HW138426   3.743   3.869   5.325  0.3049  1.7709  0.6537
 8931SOL    HW238427   3.853   3.803   5.402  0.3474 -0.8254 -0.4985
 8932SOL     OW38428   1.912   2.294  13.627 -0.0187 -0.4625  0.2025
 8932SOL    HW138429   1.925   2.289  13.722 -0.7407 -0.2958  0.3139
 8932SOL    HW238430   1.930   2.201  13.612  2.8768 -0.0415  1.1681
 8933SOL     OW38431   1.381   2.424  15.433 -0.5335 -0.7805  0.1128
 8933SOL    HW138432   1.419   2.340  15.406  2.8254  0.9777 -0.5361
 8933SOL    HW238433   1.314   2.442  15.367 -2.2268  4.5493  3.2363
 8934SOL     OW38434   0.008   0.132  10.765  0.1263 -0.1664  0.2799
 8934SOL    HW138435   4.697   0.215  10.758 -1.3906 -0.9408  1.2004
 8934SOL    HW238436   4.683   0.064  10.794  1.1095 -0.8136  0.8560
 8935SOL     OW38437   1.281   2.728  10.827  0.3738  0.5584 -0.3067
 8935SOL    HW138438   1.334   2.776  10.763 -0.2191 -0.7720 -1.8147
 8935SOL    HW238439   1.275   2.645  10.780 -2.0615  0.0842  0.8213
 8936SOL     OW38440   1.505   0.515  13.185  0.1132 -0.6004  0.0079
 8936SOL    HW138441   1.545   0.440  13.141  1.2812  0.6200 -1.0180
 8936SOL    HW238442   1.548   0.571  13.120  0.9860 -2.1778 -0.7512
 8937SOL     OW38443   0.550   0.016   8.963 -0.6089 -0.3129 -0.0591
 8937SOL    HW138444   0.479   4.704   8.920  0.6996 -0.2527 -2.3179
 8937SOL    HW238445   0.618   4.734   8.897 -0.1168  0.0638  0.3395
 8938SOL     OW38446   1.935   0.262   7.129  0.2654 -0.1656  0.1065
 8938SOL    HW138447   1.880   0.197   7.172  1.4084 -0.8876  0.5032
 8938SOL    HW238448   1.974   0.206   7.062  0.9764 -0.4388  0.7461
 8939SOL     OW38449   3.095   1.537  16.810 -0.0248 -0.1771  0.2484
 8939SOL    HW138450   3.161   1.500  16.750  0.7987  2.0425 -0.2130
 8939SOL    HW238451   3.033   1.465  16.802 -2.0880  1.6346  0.2234
 8940SOL     OW38452   2.976   3.376   3.728 -0.2421  0.3477 -0.4754
 8940SOL    HW138453   3.021   3.424   3.797 -4.5849 -0.2263  2.7979
 8940SOL    HW238454   2.940   3.449   3.678  2.0112  1.2808 -0.7151
 8941SOL     OW38455   1.370   0.848   4.292  0.2080  0.7721  0.2551
 8941SOL    HW138456   1.362   0.900   4.212  1.3633 -1.5502 -1.3531
 8941SOL    HW238457   1.283   0.848   4.332  0.4925  0.4783  0.8758
 8942SOL     OW38458   2.265   4.674   6.404  0.7381  0.1218 -0.4116
 8942SOL    HW138459   2.303   4.635   6.483  0.9365 -0.3203 -0.7253
 8942SOL    HW238460   2.178   4.643   6.429  0.7008  0.9061  0.4390
 8943SOL     OW38461   1.585   1.775  12.127  0.1671 -0.2128  0.3634
 8943SOL    HW138462   1.584   1.687  12.091  1.6225  0.4052 -1.1772
 8943SOL    HW238463   1.494   1.793  12.152  0.2183  1.6807 -0.7874
 8944SOL     OW38464   1.580   1.612   2.768  0.6715 -0.2871 -0.5597
 8944SOL    HW138465   1.565   1.540   2.829 -0.9287  1.4710  1.1326
 8944SOL    HW238466   1.646   1.663   2.816 -0.3451  1.0353 -0.5739
 8945SOL     OW38467   2.354   1.556   8.797 -0.2893 -0.5830  0.3499
 8945SOL    HW138468   2.365   1.565   8.891 -1.1733 -0.3144  0.4312
 8945SOL    HW238469   2.265   1.522   8.785 -0.6199  0.5674 -0.6108
 8946SOL     OW38470   4.649   2.918   7.944 -0.5568 -0.4563  0.1079
 8946SOL    HW138471   4.575   2.962   7.985 -0.9713  0.1386 -1.3037
 8946SOL    HW238472   4.677   2.858   8.013  1.9041  1.8972  1.1426
 8947SOL     OW38473   1.996   2.364   2.353 -0.2403  0.2771 -0.4332
 8947SOL    HW138474   2.006   2.445   2.402 -1.0911 -0.0293  0.2339
 8947SOL    HW238475   2.078   2.348   2.306  0.3117  1.2992  0.1999
 8948SOL     OW38476   2.000   1.896   4.356 -0.2498  0.1048 -0.1074
 8948SOL    HW138477   2.086   1.920   4.392 -0.8059  0.9304  0.6616
 8948SOL    HW238478   1.962   1.847   4.429  1.1285 -1.1894 -0.2546
 8949SOL     OW38479   2.248   1.635   9.335 -0.0950 -0.3461  0.0439
 8949SOL    HW138480   2.291   1.566   9.387 -1.2461 -1.1296 -0.0497
 8949SOL    HW238481   2.269   1.720   9.373  2.0731 -0.2138 -1.4256
 8950SOL     OW38482   3.036   0.653   6.735 -0.5524  0.5246  0.5735
 8950SOL    HW138483   3.032   0.597   6.813  1.9757  0.1406  0.4415
 8950SOL    HW238484   2.951   0.630   6.697 -0.3214  0.9461 -0.2041
 8951SOL     OW38485   3.262   1.461  13.947  0.0187  0.5711 -0.1763
 8951SOL    HW138486   3.351   1.490  13.927 -0.0245  0.6704 -0.2296
 8951SOL    HW238487   3.271   1.368  13.965  0.7376  0.7889  0.6192
 8952SOL     OW38488   3.517   2.982   1.117  0.3904  0.1835 -0.2531
 8952SOL    HW138489   3.552   2.912   1.173  1.5932  0.3878 -0.7396
 8952SOL    HW238490   3.597   3.018   1.079  1.0827  0.6578  1.6310
 8953SOL     OW38491   4.386   3.803  14.255  0.3624  0.5967 -0.0824
 8953SOL    HW138492   4.454   3.869  14.267  0.4316  0.4976  0.0851
 8953SOL    HW238493   4.446   3.728  14.252 -0.0458  0.2486  0.3809
 8954SOL     OW38494   1.828   4.158   4.292 -0.0767 -0.2206  0.2530
 8954SOL    HW138495   1.799   4.243   4.259  0.6338  0.2017  0.7199
 8954SOL    HW238496   1.810   4.162   4.386 -0.4304  0.9715  0.1244
 8955SOL     OW38497   2.338   1.589  12.075  0.1020 -0.2569 -0.0211
 8955SOL    HW138498   2.419   1.551  12.042  0.9410 -0.5331  2.3684
 8955SOL    HW238499   2.307   1.639  11.999 -1.1443 -0.2283  0.4970
 8956SOL     OW38500   1.772   3.105   8.104 -0.3117  0.8101  0.9522
 8956SOL    HW138501   1.793   3.083   8.013 -1.0851 -1.3632  1.3035
 8956SOL    HW238502   1.803   3.027   8.150 -0.9813  0.6221  1.0775
 8957SOL     OW38503   2.167   3.078   5.411 -0.3636  0.0834  0.4967
 8957SOL    HW138504   2.105   3.073   5.484 -1.4620 -0.5544 -0.4801
 8957SOL    HW238505   2.243   3.036   5.452 -0.4437 -1.4326 -0.9113
 8958SOL     OW38506   2.287   0.828   1.050  0.3943 -0.2731 -0.6351
 8958SOL    HW138507   2.257   0.851   0.962  3.1053  2.0904 -0.9177
 8958SOL    HW238508   2.358   0.890   1.063 -0.1263 -0.0342  1.1546
 8959SOL     OW38509   3.028   4.420   9.878  0.0752  0.1544  0.1295
 8959SOL    HW138510   3.017   4.423   9.973  1.0188 -0.0179  0.2446
 8959SOL    HW238511   2.951   4.366   9.859  0.0884 -0.2603  1.2551
 8960SOL     OW38512   2.204   1.356  14.864  0.1081  0.4262 -0.0505
 8960SOL    HW138513   2.260   1.320  14.933 -2.6257  0.1280  1.9997
 8960SOL    HW238514   2.254   1.344  14.783 -0.8083  1.3614 -0.7619
 8961SOL     OW38515   3.265   2.398  16.400 -0.0064  0.3386  0.3181
 8961SOL    HW138516   3.222   2.436  16.323 -0.2278 -2.1954 -0.7961
 8961SOL    HW238517   3.328   2.335  16.364  0.7596 -0.1217  2.4410
 8962SOL     OW38518   4.341   2.841   9.787 -0.3402 -0.1737  0.0720
 8962SOL    HW138519   4.338   2.746   9.796  2.5107 -0.1657  0.8907
 8962SOL    HW238520   4.415   2.847   9.728 -0.7125 -0.8383 -0.4648
 8963SOL     OW38521   1.632   4.489   6.819  0.7080 -0.2068  0.3517
 8963SOL    HW138522   1.708   4.480   6.762  0.4742  0.6926 -0.1131
 8963SOL    HW238523   1.564   4.493   6.752 -1.2903  3.4878  2.6235
 8964SOL     OW38524   0.479   3.594   9.267  0.5421 -0.1380  0.0546
 8964SOL    HW138525   0.390   3.609   9.299  0.0834 -1.5384 -0.5739
 8964SOL    HW238526   0.509   3.529   9.330 -0.5406 -1.5052 -0.8553
 8965SOL     OW38527   0.852   4.684   5.259  0.2993 -0.0293  0.4027
 8965SOL    HW138528   0.900   0.029   5.244  0.6242 -0.3144 -0.1002
 8965SOL    HW238529   0.900   4.633   5.194 -2.0529 -1.7763  0.0164
 8966SOL     OW38530   1.572   1.234   8.269 -0.7846 -0.0068  0.7260
 8966SOL    HW138531   1.514   1.310   8.275  1.9211  2.2364 -1.5446
 8966SOL    HW238532   1.510   1.162   8.279 -0.4801 -0.5425 -1.2791
 8967SOL     OW38533   2.674   0.063   9.438 -0.5143 -0.5644 -0.2937
 8967SOL    HW138534   2.601   0.056   9.377  0.2373  1.1688 -1.3557
 8967SOL    HW238535   2.622   0.092   9.513 -0.1215  1.9455 -1.0145
 8968SOL     OW38536   2.957   3.436  12.246 -0.0722  0.1746 -0.3534
 8968SOL    HW138537   3.037   3.430  12.299 -0.1205  1.2199 -0.1703
 8968SOL    HW238538   2.999   3.477  12.170 -0.9381 -1.1345 -1.5417
 8969SOL     OW38539   4.635   2.102   2.445 -0.1452 -0.0576  0.1490
 8969SOL    HW138540   4.699   2.071   2.381 -2.4728 -0.9543 -1.7499
 8969SOL    HW238541   4.600   2.178   2.399  3.4355  1.7778  0.4574
 8970SOL     OW38542   3.135   3.657   8.432  0.3046  0.3004 -0.5918
 8970SOL    HW138543   3.140   3.711   8.511 -0.6363  0.1400 -0.4201
 8970SOL    HW238544   3.090   3.714   8.369  2.2457 -0.7453 -2.9724
 8971SOL     OW38545   4.434   2.167  10.630  0.3330 -0.4036  0.0805
 8971SOL    HW138546   4.384   2.194  10.708  0.3854  1.3224 -0.4943
 8971SOL    HW238547   4.440   2.243  10.573  3.3917 -1.5207 -1.0363
 8972SOL     OW38548   1.267   2.069   2.138 -0.5788  0.0309 -1.2382
 8972SOL    HW138549   1.190   2.123   2.153 -0.7837 -0.2751 -1.1764
 8972SOL    HW238550   1.334   2.089   2.204  0.3098 -1.8619 -1.5638
 8973SOL     OW38551   3.608   0.711  12.776  0.1577 -0.1244  0.2062
 8973SOL    HW138552   3.661   0.713  12.697 -0.1876 -0.8175 -0.0477
 8973SOL    HW238553   3.601   0.618  12.799 -0.2452  0.0628  0.8382
 8974SOL     OW38554   1.532   2.765  10.038 -0.5355 -0.6608 -0.0531
 8974SOL    HW138555   1.534   2.706  10.114  1.6232 -0.2714  0.1984
 8974SOL    HW238556   1.607   2.729   9.990  0.3955 -0.1904  1.0508
 8975SOL     OW38557   3.223   0.960   0.607 -0.5519  0.2849  0.1807
 8975SOL    HW138558   3.293   1.010   0.567  0.2386 -1.4749 -0.6414
 8975SOL    HW238559   3.180   0.916   0.533  1.0747  1.1213 -1.2449
 8976SOL     OW38560   0.390   2.112   9.637 -0.5898 -0.1500  0.0767
 8976SOL    HW138561   0.411   2.027   9.599 -0.1734  0.6473 -1.4474
 8976SOL    HW238562   0.310   2.128   9.587  0.3157  1.3297 -0.8778
 8977SOL     OW38563   3.092   1.340   9.128  0.2581  0.6609 -0.0037
 8977SOL    HW138564   3.062   1.286   9.055  2.1750 -0.0104 -0.2796
 8977SOL    HW238565   3.133   1.408   9.074 -1.9556  1.2254 -0.9782
 8978SOL     OW38566   3.380   0.835   3.984 -0.4615  0.3576 -0.1706
 8978SOL    HW138567   3.434   0.766   3.945  1.3219  1.3099  0.6055
 8978SOL    HW238568   3.451   0.898   3.989 -0.4870  0.3973 -0.3217
 8979SOL     OW38569   2.160   2.421   3.436 -0.2061 -0.3663 -0.1207
 8979SOL    HW138570   2.134   2.491   3.496  0.4132  1.0461 -1.5012
 8979SOL    HW238571   2.223   2.365   3.482  1.8171  2.2464  0.2433
 8980SOL     OW38572   3.185   1.417   2.095  0.2907  0.1031  0.4629
 8980SOL    HW138573   3.186   1.329   2.133 -0.3060 -0.2445 -0.3253
 8980SOL    HW238574   3.195   1.406   2.001 -0.9587 -0.5226  0.3983
 8981SOL     OW38575   0.206   4.412   1.497  1.2617  0.3703  0.0255
 8981SOL    HW138576   0.295   4.378   1.501  0.5428 -1.1699  2.8352
 8981SOL    HW238577   0.182   4.347   1.431  0.4991  1.0235 -0.3429
 8982SOL     OW38578   3.313   1.995   9.338  0.0378  0.1188 -0.0846
 8982SOL    HW138579   3.327   1.970   9.247 -0.1311 -0.9526  0.1793
 8982SOL    HW238580   3.231   2.045   9.338  1.3194  2.2047 -1.8295
 8983SOL     OW38581   4.684   0.766  11.427 -0.4294 -0.4859 -0.1781
 8983SOL    HW138582   4.596   0.736  11.449 -1.4981  3.3691  0.8417
 8983SOL    HW238583   4.701   0.693  11.367 -1.8771 -0.9138 -0.0762
 8984SOL     OW38584   4.395   1.190   8.759 -0.4526  0.1239 -0.4900
 8984SOL    HW138585   4.430   1.106   8.728 -1.1431 -0.7465  1.1437
 8984SOL    HW238586   4.317   1.203   8.706 -1.2607 -1.7231  0.2371
 8985SOL     OW38587   4.047   2.864  14.903  0.1769 -0.2144 -0.1867
 8985SOL    HW138588   4.055   2.950  14.861 -3.0214 -0.5087 -1.3858
 8985SOL    HW238589   4.141   2.845  14.903  0.1900 -0.1409 -0.9742
 8986SOL     OW38590   1.670   0.556  10.810  0.3840 -0.3431 -0.1633
 8986SOL    HW138591   1.603   0.567  10.878  0.9779 -0.4030  0.4270
 8986SOL    HW238592   1.738   0.506  10.855 -0.4227  0.4294  1.9365
 8987SOL     OW38593   2.966   4.691  14.140 -0.0647  0.2300 -0.4001
 8987SOL    HW138594   3.005   0.018  14.079  0.3933  0.1022 -0.2400
 8987SOL    HW238595   3.043   4.647  14.175  1.0983  2.7565  0.2195
 8988SOL     OW38596   2.237   4.244   8.374  0.0290  0.1398  0.5101
 8988SOL    HW138597   2.195   4.159   8.360  0.0445 -0.0077  1.3902
 8988SOL    HW238598   2.320   4.215   8.335 -0.3591 -1.0058  0.5344
 8989SOL     OW38599   3.294   3.322   0.729  0.4906  0.3826  0.3907
 8989SOL    HW138600   3.388   3.321   0.709  0.4108  0.7555  0.0031
 8989SOL    HW238601   3.281   3.231   0.754  0.7264  0.3497  0.3927
 8990SOL     OW38602   4.143   3.756   2.515 -0.6326  0.2229  0.5977
 8990SOL    HW138603   4.076   3.825   2.509  0.8677  1.6341  0.0165
 8990SOL    HW238604   4.205   3.793   2.452 -0.2002 -0.3860  0.6649
 8991SOL     OW38605   3.397   3.909   4.429 -0.0318 -0.1597  0.5066
 8991SOL    HW138606   3.349   3.950   4.501 -0.8954 -0.0412 -0.1358
 8991SOL    HW238607   3.324   3.865   4.387  0.6024 -0.7043 -0.0311
 8992SOL     OW38608   1.014   4.571   2.502 -0.1880  0.1759  0.2455
 8992SOL    HW138609   0.939   4.595   2.448 -1.1401 -1.0109  1.0284
 8992SOL    HW238610   0.989   4.605   2.588 -1.4963 -1.0430  0.3456
 8993SOL     OW38611   1.577   4.417  16.149 -0.3606  0.3085 -0.3876
 8993SOL    HW138612   1.566   4.418  16.054  2.6240 -1.1819 -0.7858
 8993SOL    HW238613   1.487   4.400  16.177  0.1011 -2.0370 -0.3357
 8994SOL     OW38614   3.667   2.689   2.321  0.4263 -0.0313  0.1942
 8994SOL    HW138615   3.757   2.699   2.292  0.7130 -0.1868  1.0463
 8994SOL    HW238616   3.669   2.611   2.377  2.6872 -0.0450  0.0979
 8995SOL     OW38617   1.721   4.399   9.982  0.6690  0.3080 -0.0577
 8995SOL    HW138618   1.781   4.466   9.948  1.4256 -0.6913 -0.7114
 8995SOL    HW238619   1.787   4.331   9.996 -1.8274 -1.8586  1.1552
 8996SOL     OW38620   1.571   3.712   6.563 -0.4858  0.7309 -0.4112
 8996SOL    HW138621   1.570   3.681   6.472  1.0907 -0.0765 -0.1459
 8996SOL    HW238622   1.593   3.805   6.560  0.3678  0.5738  0.9069
 8997SOL     OW38623   0.526   3.580   2.858 -0.0300 -0.1192 -0.1737
 8997SOL    HW138624   0.482   3.623   2.931  0.1569  2.6248 -1.7073
 8997SOL    HW238625   0.465   3.589   2.785 -0.5010 -2.5977 -0.0967
 8998SOL     OW38626   3.023   1.192   6.339  0.1028 -0.2986 -0.4373
 8998SOL    HW138627   3.055   1.103   6.352  3.0547  0.7927 -0.3281
 8998SOL    HW238628   2.985   1.183   6.251 -0.3721  1.5382 -0.4210
 8999SOL     OW38629   0.301   1.843   2.064  0.5217 -0.2465 -0.3922
 8999SOL    HW138630   0.231   1.860   2.002  1.5111  0.6384 -1.2537
 8999SOL    HW238631   0.373   1.862   2.004  0.5263  1.7867  0.2753
 9000SOL     OW38632   1.976   2.402   5.994 -0.0210  0.8428  0.4012
 9000SOL    HW138633   1.948   2.333   6.055 -0.5330  0.6050 -0.1053
 9000SOL    HW238634   1.909   2.470   5.992  0.7997  1.6577  0.7621
 9001SOL     OW38635   4.707   2.521   8.644  0.7111  0.1413 -0.2548
 9001SOL    HW138636   4.726   2.467   8.566 -1.1617  1.3149 -1.5204
 9001SOL    HW238637   0.005   2.606   8.616  2.7366  0.0514  1.9856
 9002SOL     OW38638   2.117   3.593   9.629 -0.0363 -0.0359  0.2996
 9002SOL    HW138639   2.199   3.554   9.599  0.8563  1.5404  0.6963
 9002SOL    HW238640   2.062   3.522   9.597 -1.9801  2.5539 -2.1035
 9003SOL     OW38641   4.253   2.987  14.337  0.0778  0.1975  0.1667
 9003SOL    HW138642   4.169   3.020  14.304  0.0040 -1.3459 -1.2185
 9003SOL    HW238643   4.225   2.909  14.386 -1.9325  0.3499 -0.7426
 9004SOL     OW38644   1.226   1.034   7.163  0.0746  0.0019  0.1385
 9004SOL    HW138645   1.180   1.031   7.247  0.8946  1.2917  0.6231
 9004SOL    HW238646   1.291   1.103   7.171  0.0759  0.2698 -2.0174
 9005SOL     OW38647   3.257   1.618   3.812  0.3444  0.1711  0.1415
 9005SOL    HW138648   3.259   1.580   3.724  0.7140  0.4229  0.0381
 9005SOL    HW238649   3.321   1.685   3.787 -0.5912  1.1649  0.4177
 9006SOL     OW38650   2.643   1.784   2.325 -0.7900 -0.2479  0.4973
 9006SOL    HW138651   2.571   1.846   2.315 -0.3964  0.3987  1.5672
 9006SOL    HW238652   2.629   1.756   2.416 -1.3880 -1.3150  0.0726
 9007SOL     OW38653   4.294   2.072  14.125  0.1327  0.0560 -0.3615
 9007SOL    HW138654   4.293   2.167  14.115  1.5751  0.0605 -0.3374
 9007SOL    HW238655   4.384   2.049  14.103  0.5438  2.3574 -1.0610
 9008SOL     OW38656   2.055   0.233  10.628 -0.3744  0.3740  0.2715
 9008SOL    HW138657   1.985   0.297  10.622 -1.4624 -0.9252 -0.8286
 9008SOL    HW238658   2.071   0.235  10.722  0.7640  1.7782  0.0468
 9009SOL     OW38659   4.040   0.965   6.810  0.9864 -0.0994  0.3517
 9009SOL    HW138660   3.999   1.037   6.761  2.6986 -1.0881 -2.5488
 9009SOL    HW238661   4.002   0.980   6.897  3.0725 -0.8979  1.3910
 9010SOL     OW38662   3.136   0.909   4.013  0.4795 -0.3313  0.2161
 9010SOL    HW138663   3.092   0.869   3.938  1.9767 -0.3272 -0.6598
 9010SOL    HW238664   3.224   0.873   3.999  0.5716  0.1638 -0.4970
 9011SOL     OW38665   0.379   0.445  15.615  0.3183 -0.4776 -0.0496
 9011SOL    HW138666   0.352   0.369  15.667  0.8450 -1.1309 -0.7201
 9011SOL    HW238667   0.405   0.408  15.530  2.0985 -0.3122  0.4085
 9012SOL     OW38668   0.126   2.968   7.618 -0.1370  0.0855 -0.3222
 9012SOL    HW138669   0.119   3.058   7.649 -2.2397 -0.6351  1.3116
 9012SOL    HW238670   0.040   2.928   7.632  0.1324 -0.6594 -0.8292
 9013SOL     OW38671   1.004   1.486   8.507 -0.3956  0.1458  0.3698
 9013SOL    HW138672   0.929   1.538   8.537 -0.5546 -0.3546  0.8537
 9013SOL    HW238673   1.074   1.533   8.552 -0.7687  0.2351  0.8623
 9014SOL     OW38674   3.465   2.174  14.953  0.2844  0.1805 -0.2510
 9014SOL    HW138675   3.413   2.167  14.873  0.2707 -1.8394 -0.0720
 9014SOL    HW238676   3.522   2.250  14.936 -0.9020  1.0808 -0.1960
 9015SOL     OW38677   0.573   2.369   7.727 -0.0016  0.8108 -0.6685
 9015SOL    HW138678   0.561   2.442   7.789 -0.1199  1.9186 -2.0023
 9015SOL    HW238679   0.629   2.418   7.667  2.9779 -1.0133  0.6671
 9016SOL     OW38680   4.483   0.029   4.209 -0.3392 -0.4414  0.6950
 9016SOL    HW138681   4.514   0.118   4.195  0.6179 -0.7590  0.7623
 9016SOL    HW238682   4.465   0.005   4.118 -0.7729 -1.1974  0.9781
 9017SOL     OW38683   4.435   0.012   6.839  0.1680  0.4925 -0.2305
 9017SOL    HW138684   4.380   0.059   6.776 -0.5191  1.3132  0.9874
 9017SOL    HW238685   4.488   0.087   6.865 -0.2185  1.1337 -1.2668
 9018SOL     OW38686   3.631   0.422   9.036 -0.1875 -0.0858 -0.4141
 9018SOL    HW138687   3.678   0.473   8.970 -2.4245  0.7050 -1.3969
 9018SOL    HW238688   3.635   0.330   9.010 -0.8154 -0.3083  0.2720
 9019SOL     OW38689   0.231   0.173   9.107 -0.2091 -0.2497 -0.3848
 9019SOL    HW138690   0.320   0.210   9.107 -0.2177 -0.2267 -0.6110
 9019SOL    HW238691   0.238   0.120   9.027  0.2370 -0.4255 -0.2298
 9020SOL     OW38692   3.461   3.042   5.697  0.2212 -0.0254 -0.0949
 9020SOL    HW138693   3.400   3.053   5.624 -1.0239  0.8217  1.0807
 9020SOL    HW238694   3.531   3.104   5.674  1.6460 -1.3328  0.6937
 9021SOL     OW38695   2.600   4.574   3.385 -0.2694 -0.1512 -0.3716
 9021SOL    HW138696   2.609   4.547   3.294  0.4413 -0.4155 -0.2244
 9021SOL    HW238697   2.526   4.524   3.420  1.0963 -2.5270 -0.9078
 9022SOL     OW38698   1.246   3.702   3.088 -0.0302 -0.4125 -0.5167
 9022SOL    HW138699   1.243   3.757   3.167  0.1246  0.5176 -1.1584
 9022SOL    HW238700   1.173   3.738   3.038  0.4833 -0.9097 -1.6210
 9023SOL     OW38701   0.883   4.598  12.353 -0.0375  0.2586  0.3076
 9023SOL    HW138702   0.917   4.684  12.330 -1.8251  0.6204 -1.0312
 9023SOL    HW238703   0.949   4.542  12.312 -1.1745 -1.2095  0.4771
 9024SOL     OW38704   0.995   0.648   9.123 -0.1461 -0.4878 -0.1743
 9024SOL    HW138705   1.080   0.672   9.160  0.0234 -1.5009  0.0793
 9024SOL    HW238706   0.936   0.708   9.168 -1.3242 -1.9405  0.2051
 9025SOL     OW38707   0.670   3.085   5.160 -0.1831 -0.6383  0.4208
 9025SOL    HW138708   0.616   3.008   5.179  1.8622 -2.0125  0.6303
 9025SOL    HW238709   0.642   3.153   5.222  0.8603  0.9222 -0.8182
 9026SOL     OW38710   4.448   1.531   8.257 -0.6528 -0.7606  0.3942
 9026SOL    HW138711   4.442   1.436   8.246 -0.7624 -0.9462  2.1154
 9026SOL    HW238712   4.390   1.565   8.189 -0.6871 -1.9277 -0.1649
 9027SOL     OW38713   2.946   0.387  10.565 -0.0679 -0.0805 -0.3065
 9027SOL    HW138714   2.926   0.326  10.636 -0.9570 -0.3496 -0.7851
 9027SOL    HW238715   3.038   0.367  10.548  0.0756  1.4971 -1.4240
 9028SOL     OW38716   4.605   1.061   6.224  0.6899  0.4325  0.2959
 9028SOL    HW138717   4.526   1.025   6.265  2.5894 -1.9749  1.8726
 9028SOL    HW238718   4.578   1.118   6.152 -1.1421 -1.4942 -0.5721
 9029SOL     OW38719   0.975   0.447   6.483  0.9541 -0.1507 -0.1501
 9029SOL    HW138720   0.973   0.540   6.463  0.3919 -0.5898 -2.1707
 9029SOL    HW238721   0.890   0.440   6.526  0.6754  2.5549 -0.2831
 9030SOL     OW38722   1.279   1.454   5.932  0.1338 -0.1599 -0.4177
 9030SOL    HW138723   1.284   1.549   5.921  1.0863  0.1247  2.5575
 9030SOL    HW238724   1.196   1.454   5.979 -0.1312  0.1675 -0.8891
 9031SOL     OW38725   0.655   2.893   3.952  0.3529  0.1931  0.6428
 9031SOL    HW138726   0.590   2.931   3.892 -0.7293 -0.6296  1.2830
 9031SOL    HW238727   0.730   2.899   3.892  0.4408  0.1547  0.7498
 9032SOL     OW38728   4.068   0.803   2.802 -0.7256 -0.4459  0.1730
 9032SOL    HW138729   4.029   0.821   2.887  0.2142 -1.0832  0.7307
 9032SOL    HW238730   4.153   0.764   2.824 -0.5681  0.5397  1.2505
 9033SOL     OW38731   4.476   2.671   1.569  0.5289  0.0261 -0.5277
 9033SOL    HW138732   4.543   2.651   1.504  0.5011 -2.0774  0.0919
 9033SOL    HW238733   4.465   2.585   1.610 -2.0073  0.9255  0.6857
 9034SOL     OW38734   1.107   4.186   2.970 -0.2156  0.1758  0.1477
 9034SOL    HW138735   1.170   4.126   3.008 -1.3867 -0.8948  0.3914
 9034SOL    HW238736   1.024   4.143   2.990  0.4395 -1.1925 -0.0898
 9035SOL     OW38737   2.091   4.530   3.503  0.6452  0.0623  0.3794
 9035SOL    HW138738   2.028   4.598   3.528  1.0682  1.1516 -1.5275
 9035SOL    HW238739   2.037   4.475   3.447 -0.0563 -2.0664  3.1729
 9036SOL     OW38740   0.914   2.057  15.998 -0.8515 -0.2493  0.0554
 9036SOL    HW138741   0.882   2.100  15.919 -0.5242  2.8384  1.5904
 9036SOL    HW238742   0.987   2.113  16.026  0.4983 -0.8881 -2.2771
 9037SOL     OW38743   2.760   2.386   4.845  0.1908  0.5475 -0.4092
 9037SOL    HW138744   2.813   2.310   4.822 -0.9432 -0.7296  1.1550
 9037SOL    HW238745   2.825   2.455   4.860  0.3214  0.4299 -0.4391
 9038SOL     OW38746   3.997   1.447   3.701 -0.2659 -0.2565 -0.0750
 9038SOL    HW138747   4.034   1.456   3.788  1.8423  2.2811 -1.2493
 9038SOL    HW238748   3.976   1.538   3.682  1.3100  0.7413  3.1426
 9039SOL     OW38749   1.963   3.688  10.437  0.2371 -0.4948 -0.0476
 9039SOL    HW138750   1.917   3.770  10.420  2.8230  0.8537 -0.4956
 9039SOL    HW238751   1.990   3.668  10.348 -1.7686 -0.8782 -0.5830
 9040SOL     OW38752   0.384   2.372   8.101  0.0871 -0.0178  0.5591
 9040SOL    HW138753   0.304   2.415   8.071  0.3819 -0.2101 -0.4777
 9040SOL    HW238754   0.362   2.280   8.092 -0.8343  0.5124 -2.5173
 9041SOL     OW38755   1.039   1.220   3.050 -0.0229 -0.2481  0.1058
 9041SOL    HW138756   1.123   1.203   3.007 -0.8465 -0.5621 -1.3888
 9041SOL    HW238757   0.983   1.149   3.019 -1.9145  0.8209  1.0432
 9042SOL     OW38758   3.667   4.308   6.652  0.2850 -0.1599  0.0401
 9042SOL    HW138759   3.667   4.248   6.578 -0.9121 -1.4651  1.0898
 9042SOL    HW238760   3.581   4.286   6.687 -0.3481  1.8496 -0.2562
 9043SOL     OW38761   4.142   0.658  14.073  0.0777  0.6934  0.3614
 9043SOL    HW138762   4.120   0.688  14.161 -1.9977 -1.3310  0.5577
 9043SOL    HW238763   4.061   0.625  14.034 -0.0176  1.8677 -0.4067
 9044SOL     OW38764   2.073   0.209   8.406  0.1506 -0.1842 -0.0074
 9044SOL    HW138765   1.982   0.183   8.423  0.2696 -0.1790  0.6445
 9044SOL    HW238766   2.093   0.253   8.489  1.7030  0.8834 -0.9487
 9045SOL     OW38767   0.651   3.541   0.893 -0.7054 -0.0675 -0.0062
 9045SOL    HW138768   0.646   3.487   0.971  0.2613 -1.4215 -0.8939
 9045SOL    HW238769   0.642   3.480   0.820  1.0693 -2.2023  1.5774
 9046SOL     OW38770   3.376   4.375   1.545 -0.3685  0.3099  0.4825
 9046SOL    HW138771   3.415   4.369   1.632  2.7098  1.7180 -0.7804
 9046SOL    HW238772   3.454   4.388   1.490 -0.6348  2.2957  0.5564
 9047SOL     OW38773   3.553   0.400   4.316 -0.0305  0.3799 -0.3405
 9047SOL    HW138774   3.579   0.451   4.393  1.1988 -0.1977 -0.3790
 9047SOL    HW238775   3.622   0.334   4.321 -0.5632 -0.0789  1.1529
 9048SOL     OW38776   0.547   0.168   4.636 -0.3811  0.2574 -0.1823
 9048SOL    HW138777   0.514   0.232   4.573 -2.2412  0.4885  1.0066
 9048SOL    HW238778   0.485   0.096   4.627  0.2700 -0.2066 -0.8973
 9049SOL     OW38779   0.166   4.258   8.993  0.2077  0.5127 -0.6291
 9049SOL    HW138780   0.150   4.352   8.979 -2.3960 -0.1013 -1.6911
 9049SOL    HW238781   0.098   4.243   9.059  0.7315  0.0791 -0.1913
 9050SOL     OW38782   3.174   4.108  17.642  0.2290 -0.2333  0.0345
 9050SOL    HW138783   3.255   4.143  17.680  1.3927 -0.2656 -2.3542
 9050SOL    HW238784   3.114   4.163  17.692  0.3195 -0.2117  0.1183
 9051SOL     OW38785   1.331   0.758   8.785  0.2721  0.1296  0.3913
 9051SOL    HW138786   1.319   0.671   8.823  1.1022 -0.4624 -0.6972
 9051SOL    HW238787   1.405   0.741   8.727  0.1044  2.7423 -0.5814
 9052SOL     OW38788   3.757   2.700   4.313 -0.2814  0.0601 -0.1150
 9052SOL    HW138789   3.790   2.715   4.402 -0.1694  0.2867 -0.1936
 9052SOL    HW238790   3.684   2.641   4.328 -0.6300 -0.1586 -2.6967
 9053SOL     OW38791   1.449   4.060  14.825 -0.2149  0.9004  0.2059
 9053SOL    HW138792   1.426   3.969  14.809 -1.2367  1.4408 -1.3367
 9053SOL    HW238793   1.448   4.059  14.921 -5.3635 -0.2047  0.1547
 9054SOL     OW38794   3.624   4.012  10.059  0.0501  0.1755  0.1481
 9054SOL    HW138795   3.533   3.989  10.040  0.1388 -0.2073  0.1855
 9054SOL    HW238796   3.622   4.020  10.154 -1.5679  1.7221 -0.0118
 9055SOL     OW38797   0.285   1.465  17.445 -0.0185 -0.1535  0.3143
 9055SOL    HW138798   0.306   1.476  17.353 -0.2977  1.0875  0.3855
 9055SOL    HW238799   0.336   1.387  17.464  0.2085 -0.4125 -1.3799
 9056SOL     OW38800   3.807   0.924  17.348 -0.2321 -1.0944  0.1205
 9056SOL    HW138801   3.880   0.863  17.359 -1.1623 -2.1798  0.3780
 9056SOL    HW238802   3.840   0.996  17.295 -0.2069 -0.0398  1.5606
 9057SOL     OW38803   4.553   2.790   0.171 -0.2912  0.0168 -0.2555
 9057SOL    HW138804   4.474   2.817   0.124 -1.1283  1.1454  1.7940
 9057SOL    HW238805   4.555   2.698   0.145  0.5962  0.0726 -0.3907
 9058SOL     OW38806   2.888   3.676   2.708  0.2397 -0.2501 -0.3079
 9058SOL    HW138807   2.811   3.676   2.651 -0.6318 -2.5461  0.8552
 9058SOL    HW238808   2.848   3.660   2.793 -2.1770 -1.6789 -1.7130
 9059SOL     OW38809   3.961   0.337  10.080  0.5882 -0.0490 -0.0989
 9059SOL    HW138810   3.895   0.287  10.032  0.1183  1.6215 -1.1699
 9059SOL    HW238811   3.967   0.285  10.160  1.8749  0.3361  0.0530
 9060SOL     OW38812   2.376   3.907   3.268 -0.1852  0.3743  0.3774
 9060SOL    HW138813   2.321   3.985   3.257 -0.3953  0.0279 -1.1278
 9060SOL    HW238814   2.346   3.856   3.192 -0.5548  0.3159  0.5633
 9061SOL     OW38815   4.409   4.411   8.941  0.0465 -0.0140 -0.1401
 9061SOL    HW138816   4.370   4.417   8.853 -2.1442 -0.5715  0.8015
 9061SOL    HW238817   4.474   4.480   8.930 -0.3621  0.6309  1.5987
 9062SOL     OW38818   0.869   2.375   2.101 -0.1759 -0.1554  0.1091
 9062SOL    HW138819   0.903   2.459   2.069  1.1386 -0.9069 -0.4381
 9062SOL    HW238820   0.793   2.373   2.043  0.5347  0.7380 -0.8489
 9063SOL     OW38821   0.505   0.107   5.772  0.2076  0.0939  0.1554
 9063SOL    HW138822   0.513   0.103   5.868 -0.0665 -1.0468  0.1309
 9063SOL    HW238823   0.435   0.043   5.762  0.8637 -0.3432 -1.5741
 9064SOL     OW38824   2.885   3.773   4.916 -0.1916  0.0111  0.7092
 9064SOL    HW138825   2.961   3.716   4.924  0.4500  1.1038  2.2673
 9064SOL    HW238826   2.922   3.861   4.914 -3.1388  1.2153 -1.2568
 9065SOL     OW38827   3.852   3.764   5.903 -0.3227  0.2069  0.0349
 9065SOL    HW138828   3.903   3.765   5.822  0.6804 -2.2964  0.6146
 9065SOL    HW238829   3.792   3.835   5.884 -0.4000  0.5634  1.5861
 9066SOL     OW38830   2.603   4.544   3.109 -0.1809 -0.1664 -0.2467
 9066SOL    HW138831   2.629   4.628   3.073  1.5340 -0.8314 -0.5309
 9066SOL    HW238832   2.643   4.478   3.053  1.2944  1.3367 -0.9661
 9067SOL     OW38833   3.195   0.009   7.025  0.4542  0.1745 -0.0103
 9067SOL    HW138834   3.115   0.012   7.078 -0.5954 -2.1265 -1.4926
 9067SOL    HW238835   3.264   0.044   7.082  0.5190 -0.9869  0.6108
 9068SOL     OW38836   4.568   2.415   7.338 -0.2983  0.2337  0.0341
 9068SOL    HW138837   4.596   2.338   7.387  1.4264 -0.8195 -2.6259
 9068SOL    HW238838   4.617   2.473   7.396  0.6546  0.3557 -0.8910
 9069SOL     OW38839   0.505   2.410   2.707  0.0528  0.1312 -1.0204
 9069SOL    HW138840   0.463   2.358   2.776  2.1893  0.6578  0.6533
 9069SOL    HW238841   0.537   2.343   2.646 -1.2784 -0.8157 -0.7019
 9070SOL     OW38842   4.075   3.250   3.892  0.2358 -0.2585 -0.1548
 9070SOL    HW138843   4.139   3.181   3.877 -0.7943 -1.1765 -0.2901
 9070SOL    HW238844   4.014   3.241   3.819  0.1430  0.5630 -0.1842
 9071SOL     OW38845   4.438   4.015  15.929  0.3575  0.2794  0.1775
 9071SOL    HW138846   4.460   4.007  16.022 -0.7219 -0.5538  0.3625
 9071SOL    HW238847   4.342   4.010  15.927  0.4026 -0.8150  0.6114
 9072SOL     OW38848   4.456   1.622  13.549  0.6109 -0.7192 -0.1027
 9072SOL    HW138849   4.532   1.675  13.524  0.3520 -1.3236 -2.1640
 9072SOL    HW238850   4.402   1.695  13.580  1.9789 -0.1062  0.8055
 9073SOL     OW38851   4.042   1.608   4.442 -0.2484 -0.2681  0.1918
 9073SOL    HW138852   4.023   1.627   4.534 -1.2026 -1.9969  0.3542
 9073SOL    HW238853   4.102   1.679   4.422  0.5214 -1.1801 -0.7297
 9074SOL     OW38854   2.592   1.821  12.049  0.3537 -0.4439 -0.1197
 9074SOL    HW138855   2.510   1.869  12.054  0.0971 -0.8571 -0.4267
 9074SOL    HW238856   2.596   1.749  12.111 -0.6779 -1.5527 -1.3401
 9075SOL     OW38857   3.794   1.437   1.658  0.3848 -0.3285 -0.2589
 9075SOL    HW138858   3.853   1.422   1.584 -0.6666  0.7357 -1.3363
 9075SOL    HW238859   3.731   1.371   1.629  1.4215 -0.7713 -1.4843
 9076SOL     OW38860   3.211   2.501  14.997  0.2944  0.2355  0.0838
 9076SOL    HW138861   3.286   2.525  14.942  1.3508 -2.6792  0.2832
 9076SOL    HW238862   3.143   2.546  14.946  0.7604 -0.2948 -1.0240
 9077SOL     OW38863   2.357   0.797   5.360  0.4803  0.2996  0.1334
 9077SOL    HW138864   2.332   0.781   5.269  0.7382  1.8224 -0.1939
 9077SOL    HW238865   2.448   0.772   5.372  0.7732  1.2182 -0.1885
 9078SOL     OW38866   4.323   4.571  13.724  0.2463 -0.1571  0.4482
 9078SOL    HW138867   4.370   4.587  13.641 -0.6125 -0.0832 -0.0186
 9078SOL    HW238868   4.244   4.529  13.692  0.7718  0.6743 -1.9406
 9079SOL     OW38869   0.481   2.520   4.722  0.1343  0.0189  0.1015
 9079SOL    HW138870   0.477   2.492   4.630 -0.4309  0.8159 -0.1099
 9079SOL    HW238871   0.423   2.456   4.765  0.1644  1.2964  2.0388
 9080SOL     OW38872   3.032   3.175   3.320 -0.0046  0.6010 -0.1874
 9080SOL    HW138873   3.035   3.147   3.412 -1.7018 -3.5524 -1.3931
 9080SOL    HW238874   2.949   3.222   3.329  0.0270  0.9044 -1.4941
 9081SOL     OW38875   2.770   3.733   7.977  0.1333 -0.1418  0.5479
 9081SOL    HW138876   2.746   3.825   7.992 -2.1645 -0.6071 -0.2452
 9081SOL    HW238877   2.764   3.712   8.070  0.4722 -1.6936  0.2148
 9082SOL     OW38878   3.445   1.021   2.240  0.2448  0.4116 -0.2903
 9082SOL    HW138879   3.464   0.937   2.281 -0.4564  0.5188  0.2375
 9082SOL    HW238880   3.461   0.995   2.149 -1.0979 -2.3765  0.2689
 9083SOL     OW38881   3.980   1.007   0.860 -0.0332  0.0767 -0.2841
 9083SOL    HW138882   3.946   1.082   0.812 -0.4625  0.0378 -0.0480
 9083SOL    HW238883   4.069   1.041   0.863 -0.1263  0.3947 -1.0541
 9084SOL     OW38884   2.897   2.517   5.158  0.0303 -0.7523  0.2039
 9084SOL    HW138885   2.914   2.480   5.071  1.4643 -0.1526  0.2278
 9084SOL    HW238886   2.928   2.452   5.221  2.3274  0.5328  0.4200
 9085SOL     OW38887   3.486   4.475   9.692 -0.0154 -0.4459 -0.5806
 9085SOL    HW138888   3.459   4.442   9.606 -1.2073 -2.5929  0.6135
 9085SOL    HW238889   3.405   4.479   9.743 -1.1989 -1.1278 -2.3877
 9086SOL     OW38890   1.453   1.127   0.944 -0.4110  0.2157 -0.1197
 9086SOL    HW138891   1.399   1.138   0.866 -1.6915 -0.2087  0.6931
 9086SOL    HW238892   1.533   1.172   0.917  0.5557 -0.9292  0.7957
 9087SOL     OW38893   2.419   3.927   8.767  0.2453  0.3352  0.4058
 9087SOL    HW138894   2.398   3.989   8.837 -0.6514  1.5529 -0.9382
 9087SOL    HW238895   2.486   3.975   8.719  0.4359 -0.3117  0.0337
 9088SOL     OW38896   4.008   2.280  15.308  0.4815 -0.0666 -0.1680
 9088SOL    HW138897   3.982   2.361  15.352  3.5934  0.8360 -0.0305
 9088SOL    HW238898   3.926   2.255  15.265  0.4248  0.1431 -0.1824
 9089SOL     OW38899   3.414   2.446   0.885 -0.1263  0.0346 -0.1560
 9089SOL    HW138900   3.469   2.522   0.905 -0.4024  0.3776 -0.6960
 9089SOL    HW238901   3.459   2.388   0.824 -1.2453 -0.6741 -0.3095
 9090SOL     OW38902   0.429   1.821   5.977 -0.0873 -0.2015  0.4366
 9090SOL    HW138903   0.488   1.896   5.980  0.1308 -0.2896 -1.3536
 9090SOL    HW238904   0.353   1.851   6.027 -0.7998  0.9005 -1.2799
 9091SOL     OW38905   0.658   1.563   6.715  0.0341 -0.0568 -0.0958
 9091SOL    HW138906   0.568   1.542   6.689 -0.7546  0.6636  2.0407
 9091SOL    HW238907   0.696   1.477   6.703 -0.9849 -0.7300  1.4832
 9092SOL     OW38908   3.612   3.330   1.316 -0.1514  0.4757  0.6710
 9092SOL    HW138909   3.702   3.362   1.319  0.1117 -0.0970 -1.3696
 9092SOL    HW238910   3.558   3.408   1.314 -0.1941  0.4297  0.1494
 9093SOL     OW38911   4.396   3.847   9.439  0.1317 -0.1808 -0.0293
 9093SOL    HW138912   4.309   3.832   9.403  0.1876 -1.4711  0.3898
 9093SOL    HW238913   4.436   3.801   9.365  2.2022 -1.8375  2.1117
 9094SOL     OW38914   2.452   1.416   2.217 -0.5794  0.4011  0.1119
 9094SOL    HW138915   2.364   1.455   2.213 -1.7164 -2.0706  0.7830
 9094SOL    HW238916   2.507   1.484   2.179 -1.0960  0.1810 -1.0312
 9095SOL     OW38917   0.657   3.899  12.006  0.2088  0.1110 -0.3284
 9095SOL    HW138918   0.578   3.930  11.962 -0.6527 -0.9109  0.4686
 9095SOL    HW238919   0.717   3.924  11.936  2.3632 -0.4895  1.2983
 9096SOL     OW38920   3.361   2.988   7.845 -0.1105 -0.8271 -0.1946
 9096SOL    HW138921   3.435   3.047   7.853 -0.1102 -0.7567 -0.7218
 9096SOL    HW238922   3.404   2.905   7.865  1.9395  0.2445 -0.2132
 9097SOL     OW38923   1.972   2.663   4.046 -0.5990  0.2857 -0.0537
 9097SOL    HW138924   1.879   2.680   4.062 -0.2805  2.1006 -0.1630
 9097SOL    HW238925   1.965   2.569   4.027 -1.4644  0.4228 -0.4330
 9098SOL     OW38926   2.046   3.157   0.560  0.0719 -0.0267  0.4223
 9098SOL    HW138927   2.009   3.201   0.636 -2.3854 -0.0536 -0.7541
 9098SOL    HW238928   2.136   3.154   0.593 -0.0694  0.3691  0.8456
 9099SOL     OW38929   2.710   2.079  12.107  0.0922 -0.3927  0.1657
 9099SOL    HW138930   2.703   2.066  12.202 -1.2235 -0.6566  0.0352
 9099SOL    HW238931   2.680   1.993  12.078 -0.0669 -0.7599  1.4308
 9100SOL     OW38932   0.422   3.982   4.262  0.0143  0.0460  0.2574
 9100SOL    HW138933   0.382   3.944   4.340 -0.3515  1.8425  0.9385
 9100SOL    HW238934   0.463   3.904   4.224  0.4530 -1.3543  3.5803
 9101SOL     OW38935   3.954   1.818   0.013 -0.0075  0.2598  0.2328
 9101SOL    HW138936   3.976   1.900   0.057 -0.7079 -0.8730  2.6929
 9101SOL    HW238937   3.884   1.781   0.066  0.2153  0.0685  0.3959
 9102SOL     OW38938   2.719   2.096   0.233 -0.0786 -0.0661 -0.4583
 9102SOL    HW138939   2.665   2.019   0.255 -0.7978  0.7835  0.7129
 9102SOL    HW238940   2.702   2.146   0.313  0.5200 -0.1784 -0.2603
 9103SOL     OW38941   1.111   2.492   4.607  0.2047 -0.2012  0.2072
 9103SOL    HW138942   1.083   2.542   4.530  1.8711 -0.5957 -0.6635
 9103SOL    HW238943   1.118   2.401   4.577 -1.0492  0.2889 -1.5488
 9104SOL     OW38944   3.130   1.102  11.839 -0.2546 -0.5085 -0.2863
 9104SOL    HW138945   3.219   1.074  11.857 -0.6662 -1.0112  0.9571
 9104SOL    HW238946   3.115   1.052  11.758  0.2831  0.8781 -1.2384
 9105SOL     OW38947   0.985   0.578  14.035 -0.1615  0.9378 -0.0672
 9105SOL    HW138948   0.975   0.622  14.119 -1.0992 -0.3209  0.4935
 9105SOL    HW238949   1.010   0.649  13.977  1.3380 -1.1699 -2.0233
 9106SOL     OW38950   2.835   2.746   3.362 -0.6732  0.1563 -0.1400
 9106SOL    HW138951   2.838   2.708   3.274  0.8989 -3.7741  1.5992
 9106SOL    HW238952   2.764   2.810   3.352  0.6309  1.6635  0.2283
 9107SOL     OW38953   4.541   2.696   6.445  0.3937 -0.0491 -0.0501
 9107SOL    HW138954   4.601   2.699   6.519  3.0118 -0.3559 -2.1604
 9107SOL    HW238955   4.486   2.621   6.468  1.5643 -0.2640  2.0508
 9108SOL     OW38956   0.927   3.385  12.270  0.3362 -0.0562 -0.4555
 9108SOL    HW138957   0.854   3.416  12.324  0.2838  1.2103 -1.2320
 9108SOL    HW238958   0.988   3.458  12.277  0.9005 -0.4441 -1.3955
 9109SOL     OW38959   3.953   1.221  11.505  0.1415  0.4604 -0.2598
 9109SOL    HW138960   3.920   1.296  11.556 -1.3225  2.4650 -4.1466
 9109SOL    HW238961   3.867   1.199  11.468 -1.7490  0.4393  4.1195
 9110SOL     OW38962   1.398   3.838   3.433 -0.1519 -0.0098  0.1942
 9110SOL    HW138963   1.304   3.820   3.439  0.0589 -1.0953  0.2667
 9110SOL    HW238964   1.442   3.763   3.473  0.4424  0.9255  1.2751
 9111SOL     OW38965   3.016   1.660   2.455 -1.0099  0.3143 -0.3221
 9111SOL    HW138966   3.089   1.658   2.393 -0.7537  1.7194 -0.0724
 9111SOL    HW238967   2.973   1.575   2.454 -0.9814  0.3178 -1.3247
 9112SOL     OW38968   1.456   2.338   9.906 -0.1388 -0.0107 -0.5978
 9112SOL    HW138969   1.435   2.355   9.815  1.1125  0.6129 -0.7705
 9112SOL    HW238970   1.374   2.326   9.954 -0.2735 -0.8972 -1.0602
 9113SOL     OW38971   4.632   0.188  14.388 -0.1334 -0.1753  0.0506
 9113SOL    HW138972   4.612   0.168  14.296  0.9881 -1.8648  0.1613
 9113SOL    HW238973   4.599   0.277  14.390  1.9314  0.5326  2.1532
 9114SOL     OW38974   0.055   0.033   6.752 -0.0112  0.2843 -0.3785
 9114SOL    HW138975   0.008   4.693   6.719 -2.0343  0.5154  1.9585
 9114SOL    HW238976   4.721   0.091   6.782  1.6517  1.4213  1.3660
 9115SOL     OW38977   1.584   4.069   9.239  0.7477  0.1453  0.6795
 9115SOL    HW138978   1.582   4.116   9.322 -1.8843  1.3424 -0.0640
 9115SOL    HW238979   1.602   4.141   9.179 -0.1327 -0.1142  0.1116
 9116SOL     OW38980   0.270   2.014   4.641 -0.5927  0.1510 -0.0237
 9116SOL    HW138981   0.290   2.041   4.552 -0.3691  0.1438  0.0247
 9116SOL    HW238982   0.348   2.037   4.692  0.2736  0.2859 -1.4256
 9117SOL     OW38983   4.580   4.605   8.802  0.4646  0.0494 -0.5945
 9117SOL    HW138984   4.604   4.590   8.711  0.1576  1.2708 -0.8752
 9117SOL    HW238985   4.534   4.687   8.784 -0.1058  0.1664  1.3945
 9118SOL     OW38986   2.864   4.501   3.310  0.0412 -0.4627  0.9337
 9118SOL    HW138987   2.799   4.546   3.364  0.7295  0.7673  0.7361
 9118SOL    HW238988   2.855   4.555   3.232  1.7809  0.1834  1.1804
 9119SOL     OW38989   0.369   1.255  16.581 -0.0295  0.3114 -0.9262
 9119SOL    HW138990   0.416   1.172  16.566 -0.1420 -0.0038  0.5129
 9119SOL    HW238991   0.413   1.287  16.660 -2.4016  0.1590  0.4597
 9120SOL     OW38992   2.203   4.647   6.015  0.0432  0.1719  0.1591
 9120SOL    HW138993   2.243   4.592   6.082  0.9282  0.0609 -0.4569
 9120SOL    HW238994   2.257   4.626   5.939 -0.1813  1.4246 -0.3599
 9121SOL     OW38995   1.018   0.050  17.553  0.1984 -0.4736 -0.3984
 9121SOL    HW138996   1.034   0.021  17.464  0.2844 -1.5771 -0.0199
 9121SOL    HW238997   1.080   0.123  17.565 -0.5295  0.0247  0.3807
 9122SOL     OW38998   3.040   0.722  11.629 -0.2192  0.7010 -0.2676
 9122SOL    HW138999   3.017   0.806  11.589 -2.0457  0.0248 -0.6393
 9122SOL    HW239000   3.081   0.670  11.561  1.1091  0.5485  0.6604
 9123SOL     OW39001   4.459   3.134  15.619  0.0395 -0.1936  0.2566
 9123SOL    HW139002   4.473   3.117  15.712 -0.2369 -2.0779 -0.0412
 9123SOL    HW239003   4.392   3.202  15.620  2.0790  1.8386  0.2069
 9124SOL     OW39004   3.629   2.995   5.022 -0.6504 -0.0075 -0.0227
 9124SOL    HW139005   3.621   3.042   5.105  0.3155  2.6807 -1.4346
 9124SOL    HW239006   3.599   3.066   4.964  1.6729  1.6624  0.8217
 9125SOL     OW39007   1.765   3.736  10.688  0.6334  0.0713  0.1970
 9125SOL    HW139008   1.741   3.648  10.718 -0.4056  0.8613  1.6394
 9125SOL    HW239009   1.705   3.730  10.613  1.4639 -2.7576 -0.2519
 9126SOL     OW39010   0.050   3.808  12.169  0.5274  0.0419  0.2811
 9126SOL    HW139011   0.142   3.802  12.194  0.0508  1.1783  2.2511
 9126SOL    HW239012   0.078   3.878  12.109  2.9626  0.8477  2.3632
 9127SOL     OW39013   3.759   1.583   4.957 -0.0864  0.0745 -0.4153
 9127SOL    HW139014   3.791   1.584   5.047 -0.2032 -0.5970 -0.3685
 9127SOL    HW239015   3.679   1.530   4.957 -0.4489  0.6281 -0.2509
 9128SOL     OW39016   1.980   3.006   3.768  0.0538 -0.4930 -0.5044
 9128SOL    HW139017   2.061   3.056   3.784  0.3598 -1.9370  2.4808
 9128SOL    HW239018   1.975   3.004   3.673  2.0767 -0.3196 -0.6262
 9129SOL     OW39019   2.180   0.416   6.786  0.3049 -0.6207  0.2629
 9129SOL    HW139020   2.210   0.378   6.703 -0.2646  1.3762 -0.8686
 9129SOL    HW239021   2.109   0.358   6.815  0.6805 -0.4300  1.5543
 9130SOL     OW39022   2.635   0.217   7.727  0.2360  0.0873 -0.2714
 9130SOL    HW139023   2.574   0.234   7.799 -0.4800  0.0067 -0.8683
 9130SOL    HW239024   2.667   0.129   7.747  3.4144  1.5545  1.2010
 9131SOL     OW39025   2.911   4.095   4.253  0.0155 -0.5092  0.2666
 9131SOL    HW139026   2.895   4.162   4.187 -2.0079 -2.4442 -1.2356
 9131SOL    HW239027   2.961   4.147   4.316  1.4952 -1.0054 -0.5228
 9132SOL     OW39028   2.871   3.075   6.240  0.2134  0.0240  0.3716
 9132SOL    HW139029   2.922   2.994   6.245  0.0316 -0.1719 -0.9915
 9132SOL    HW239030   2.803   3.054   6.176 -0.4240  1.7055  0.4805
 9133SOL     OW39031   0.300   0.956  11.090 -0.5876  0.6878  0.2749
 9133SOL    HW139032   0.248   0.980  11.167  1.6451  2.3252  1.2738
 9133SOL    HW239033   0.242   0.990  11.022 -1.6879 -0.4628  0.6465
 9134SOL     OW39034   0.955   0.700   0.922 -0.4289 -0.0219  0.3801
 9134SOL    HW139035   0.894   0.643   0.970 -1.8269  1.4611  0.3843
 9134SOL    HW239036   0.961   0.654   0.838 -1.0498  0.7254 -0.0774
 9135SOL     OW39037   1.907   1.585   3.002 -0.1082  0.4144 -0.2934
 9135SOL    HW139038   1.910   1.538   3.085 -2.4359 -0.1877 -0.5559
 9135SOL    HW239039   1.948   1.668   3.025  0.2767  0.4461 -1.0635
 9136SOL     OW39040   0.328   2.327   4.854 -0.0716 -0.5894 -0.0747
 9136SOL    HW139041   0.258   2.267   4.880 -1.6783  0.1023 -2.7884
 9136SOL    HW239042   0.326   2.384   4.930  0.3535  1.6726 -1.7400
 9137SOL     OW39043   4.088   0.958   4.492  0.1835  0.1047 -0.0623
 9137SOL    HW139044   4.136   1.024   4.440 -1.0083  0.1716 -1.0738
 9137SOL    HW239045   4.084   1.006   4.575  3.9069  0.8008 -0.2637
 9138SOL     OW39046   3.031   4.724  15.037 -0.3356  0.1002 -0.5731
 9138SOL    HW139047   3.109   0.029  15.075 -0.6967  0.3147 -0.0590
 9138SOL    HW239048   3.050   4.632  15.054  3.2824  0.8370 -0.4611
 9139SOL     OW39049   2.722   0.494   5.768 -0.1363  0.1470 -0.1885
 9139SOL    HW139050   2.720   0.540   5.852 -0.4934  0.0290 -0.1321
 9139SOL    HW239051   2.663   0.547   5.715  1.1970  2.0724  0.2710
 9140SOL     OW39052   3.438   0.450   9.441 -0.3168 -0.2535 -0.0961
 9140SOL    HW139053   3.467   0.363   9.466 -0.5402  0.0663  1.2593
 9140SOL    HW239054   3.352   0.444   9.482 -0.4327 -1.0493 -0.4692
 9141SOL     OW39055   0.578   1.297   5.493 -0.5492 -0.2772  0.1078
 9141SOL    HW139056   0.645   1.327   5.431 -0.4420 -0.6773  0.0286
 9141SOL    HW239057   0.512   1.363   5.474  0.0776  0.5678  0.8591
 9142SOL     OW39058   4.061   3.543   0.856  0.2074  0.3308  0.4346
 9142SOL    HW139059   4.111   3.574   0.932 -0.6585 -0.6979  1.4304
 9142SOL    HW239060   3.972   3.579   0.861 -0.3113 -0.9186  0.1332
 9143SOL     OW39061   4.698   1.713  16.299  0.1716  0.0392  0.4068
 9143SOL    HW139062   4.694   1.756  16.385  0.0328  0.6278  0.1030
 9143SOL    HW239063   0.028   1.763  16.252  0.8840 -0.5624  0.7687
 9144SOL     OW39064   1.669   4.480  16.888  0.2007 -0.7021  0.4605
 9144SOL    HW139065   1.717   4.406  16.923  0.7553 -0.7969 -0.5027
 9144SOL    HW239066   1.598   4.447  16.833  0.1649  1.2719 -0.6855
 9145SOL     OW39067   4.412   0.884   0.768 -0.2591  0.3040 -0.7336
 9145SOL    HW139068   4.433   0.796   0.739 -0.4315  1.1620 -3.4513
 9145SOL    HW239069   4.482   0.901   0.832  1.7823 -2.0714 -2.3484
 9146SOL     OW39070   3.519   4.136   4.270 -0.6187  0.2943  0.2995
 9146SOL    HW139071   3.614   4.129   4.279 -0.4958 -1.1815 -2.1420
 9146SOL    HW239072   3.490   4.066   4.329  1.3649 -0.1165  0.8006
 9147SOL     OW39073   4.358   1.165  15.369 -0.0090 -0.1166  0.7019
 9147SOL    HW139074   4.449   1.194  15.364 -0.0382 -0.2831 -0.9251
 9147SOL    HW239075   4.357   1.072  15.388 -3.1246 -0.2224  0.0361
 9148SOL     OW39076   1.796   0.055   1.104  0.1649  0.6080 -0.3012
 9148SOL    HW139077   1.816   0.026   1.015 -0.5118  1.0209 -0.5799
 9148SOL    HW239078   1.730   4.729   1.134  0.1967  0.0573 -1.3663
 9149SOL     OW39079   4.373   2.365  12.351 -0.2943  0.6727  0.1612
 9149SOL    HW139080   4.467   2.350  12.359 -0.2714  0.7188 -0.0081
 9149SOL    HW239081   4.370   2.461  12.354 -0.8948  0.6067  1.3983
 9150SOL     OW39082   2.518   3.090   1.526 -0.4744  0.2640  0.0181
 9150SOL    HW139083   2.569   3.170   1.511  0.7833 -0.6200 -0.4000
 9150SOL    HW239084   2.432   3.132   1.534 -0.4472  0.8255 -2.4482
 9151SOL     OW39085   1.466   2.463   3.571 -0.6623  0.4508 -0.5117
 9151SOL    HW139086   1.430   2.542   3.532 -1.8979  0.0889 -0.1076
 9151SOL    HW239087   1.428   2.458   3.659 -0.8228 -0.0110 -0.6061
 9152SOL     OW39088   4.361   2.887   3.511 -0.0172  0.0401 -0.5447
 9152SOL    HW139089   4.416   2.888   3.589 -0.0617 -0.1994 -0.5117
 9152SOL    HW239090   4.310   2.968   3.520  1.3049  0.4408  3.1603
 9153SOL     OW39091   2.698   0.682  16.600  0.9065  0.2103  0.3840
 9153SOL    HW139092   2.678   0.765  16.556 -1.4053  1.0042  2.9739
 9153SOL    HW239093   2.767   0.728  16.649 -0.3905  1.3379  1.1493
 9154SOL     OW39094   1.392   3.320  13.634  0.0624  0.2577 -0.2296
 9154SOL    HW139095   1.427   3.235  13.608 -1.0583 -0.8798  1.9402
 9154SOL    HW239096   1.475   3.351  13.672  0.2729 -0.2685 -0.2541
 9155SOL     OW39097   3.124   1.527   0.586  0.0902  0.0146 -0.2833
 9155SOL    HW139098   3.061   1.458   0.568 -1.2968  2.4274 -4.6486
 9155SOL    HW239099   3.075   1.597   0.630 -0.0304  0.2833 -0.8478
 9156SOL     OW39100   0.964   3.032   7.235 -0.5274  0.3515 -0.1221
 9156SOL    HW139101   0.920   3.037   7.150 -1.7478 -0.1551  0.4798
 9156SOL    HW239102   0.939   2.943   7.258  2.2252 -0.4377 -0.1820
 9157SOL     OW39103   4.646   3.906   5.749 -0.1226 -0.0300  0.4273
 9157SOL    HW139104   4.556   3.914   5.779 -0.5720 -1.4455 -0.5774
 9157SOL    HW239105   4.630   3.897   5.655  3.0387  1.1291 -0.2216
 9158SOL     OW39106   0.314   2.037   1.376  0.8434 -0.4143 -0.3866
 9158SOL    HW139107   0.289   1.955   1.418 -0.1366 -0.2720 -0.6997
 9158SOL    HW239108   0.254   2.039   1.301 -0.2392  0.1728  0.4964
 9159SOL     OW39109   4.096   2.053   3.649 -0.6991  0.2433 -0.4020
 9159SOL    HW139110   4.098   2.017   3.738  0.1710 -2.4428 -1.4964
 9159SOL    HW239111   4.058   2.139   3.666  1.5678  1.5706 -2.1757
 9160SOL     OW39112   1.662   0.335  13.060  0.3699 -0.1045 -0.2619
 9160SOL    HW139113   1.652   0.354  12.967  2.5873  0.5299 -0.3703
 9160SOL    HW239114   1.736   0.392  13.080 -0.0450  0.8993 -1.6113
 9161SOL     OW39115   0.431   0.840   2.296  1.0078  0.3389  0.5392
 9161SOL    HW139116   0.443   0.892   2.375 -0.1113 -2.2136  2.4005
 9161SOL    HW239117   0.376   0.770   2.330  1.0293  0.1366  0.1673
 9162SOL     OW39118   1.913   3.433   9.495 -0.1149 -0.2728  0.1061
 9162SOL    HW139119   1.845   3.385   9.541  0.8685 -0.4670  1.3745
 9162SOL    HW239120   1.853   3.489   9.446 -0.7605 -0.4399  0.7116
 9163SOL     OW39121   0.920   0.379   5.031  0.1897 -0.4162  0.1746
 9163SOL    HW139122   0.945   0.363   4.940 -0.0234 -0.2920  0.0943
 9163SOL    HW239123   0.832   0.342   5.028 -0.8467  2.0026  1.2113
 9164SOL     OW39124   0.127   2.686   2.939 -0.1146  0.1982  0.2168
 9164SOL    HW139125   0.111   2.687   2.845 -0.0361 -0.7473  0.1939
 9164SOL    HW239126   0.069   2.753   2.975 -0.7114 -0.6751  0.8595
 9165SOL     OW39127   2.278   1.648   4.035 -0.2957 -0.1549  0.2812
 9165SOL    HW139128   2.230   1.657   4.118 -1.4562 -1.4483 -0.2542
 9165SOL    HW239129   2.350   1.594   4.067 -0.7662 -3.0621 -3.5500
 9166SOL     OW39130   2.092   2.781   6.712 -0.7179 -0.0451  0.7583
 9166SOL    HW139131   2.023   2.794   6.647 -0.2459 -0.0274  0.2594
 9166SOL    HW239132   2.172   2.759   6.664  0.7183  0.3077  2.9648
 9167SOL     OW39133   2.564   4.125   8.299 -0.2635  0.4975 -0.1512
 9167SOL    HW139134   2.641   4.070   8.311 -0.1660  0.6673  0.0086
 9167SOL    HW239135   2.601   4.191   8.240  0.4759 -0.2158 -0.4917
 9168SOL     OW39136   3.027   3.323  13.745  0.2940 -0.4496  0.3484
 9168SOL    HW139137   3.041   3.381  13.820 -0.3848  1.2735 -0.8485
 9168SOL    HW239138   3.118   3.302  13.723  0.8313 -0.4054  2.5496
 9169SOL     OW39139   0.835   0.860   4.632  0.2939 -0.6619  0.3861
 9169SOL    HW139140   0.800   0.918   4.700 -1.7370 -1.1230 -0.2943
 9169SOL    HW239141   0.928   0.860   4.657  0.6047  0.9737 -0.8203
 9170SOL     OW39142   1.270   2.207  11.846 -0.3429  0.0051 -0.2053
 9170SOL    HW139143   1.354   2.180  11.808  0.5854 -0.1311  1.9538
 9170SOL    HW239144   1.266   2.283  11.787 -0.8554 -0.0163 -0.1909
 9171SOL     OW39145   4.568   2.940   8.646 -0.3405  0.3842  0.3501
 9171SOL    HW139146   4.488   2.984   8.675 -0.2864  0.3097  0.6101
 9171SOL    HW239147   4.626   2.947   8.722 -0.9241 -1.2493  0.9454
 9172SOL     OW39148   4.487   3.569  13.683 -0.1044  0.1041 -0.2309
 9172SOL    HW139149   4.450   3.562  13.770 -0.5075 -0.4316 -0.4469
 9172SOL    HW239150   4.580   3.579  13.702 -0.6397  2.3384  1.1745
 9173SOL     OW39151   3.001   1.241   4.655  0.5909  0.0524 -0.8298
 9173SOL    HW139152   2.946   1.216   4.730  1.7342  1.0638  0.3405
 9173SOL    HW239153   2.960   1.188   4.586  0.1779 -0.0924 -0.4753
 9174SOL     OW39154   3.985   3.605   3.325 -0.3309  0.1416  0.0163
 9174SOL    HW139155   3.893   3.614   3.301 -0.1574 -1.8186 -1.3301
 9174SOL    HW239156   3.988   3.513   3.352 -0.6090 -0.3955 -1.8238
 9175SOL     OW39157   1.205   0.374  11.950  0.3215  0.1070  0.3043
 9175SOL    HW139158   1.290   0.330  11.947  1.7998  2.8815  0.9706
 9175SOL    HW239159   1.207   0.389  11.855 -1.5186 -1.5802  0.0182
 9176SOL     OW39160   4.474   2.916   2.763  0.2100  0.0999  0.6906
 9176SOL    HW139161   4.461   2.958   2.678  1.7672 -1.4213 -0.3080
 9176SOL    HW239162   4.532   2.976   2.810 -1.3433  1.8364  0.3738
 9177SOL     OW39163   1.606   0.080   5.419  0.0230 -0.1851 -0.6571
 9177SOL    HW139164   1.524   0.041   5.447 -1.9470  2.5211 -2.6963
 9177SOL    HW239165   1.632   0.104   5.508  0.6313  1.2926 -1.2307
 9178SOL     OW39166   2.499   3.571   6.757 -0.4117  0.3045 -0.2267
 9178SOL    HW139167   2.502   3.628   6.833  0.2224  0.9187 -0.7117
 9178SOL    HW239168   2.416   3.592   6.713  0.1257  0.0718 -1.3718
 9179SOL     OW39169   4.570   2.359   6.775  0.1180 -0.3009 -0.5048
 9179SOL    HW139170   4.566   2.432   6.714 -2.2540 -0.0521 -0.0459
 9179SOL    HW239171   4.510   2.292   6.741 -1.4659  0.1169  1.4726
 9180SOL     OW39172   4.304   3.455   8.521  0.2100 -0.7085 -0.0556
 9180SOL    HW139173   4.238   3.435   8.588  0.4834 -1.8545 -0.1338
 9180SOL    HW239174   4.369   3.385   8.521  3.2192  2.0902 -1.9359
 9181SOL     OW39175   1.634   3.431   2.969 -0.2439 -0.4992  0.4780
 9181SOL    HW139176   1.707   3.370   2.969 -0.1109 -0.3367  0.9517
 9181SOL    HW239177   1.601   3.408   3.056 -1.9925 -0.2133 -0.1146
 9182SOL     OW39178   2.753   1.561   7.100  0.0630  0.9014 -0.5184
 9182SOL    HW139179   2.722   1.599   7.183  1.2896  3.3638 -1.2119
 9182SOL    HW239180   2.841   1.596   7.097  0.5985 -0.7457 -4.1003
 9183SOL     OW39181   3.322   3.199   3.323 -0.4426  0.2663  0.2363
 9183SOL    HW139182   3.226   3.207   3.321 -0.3887  0.8279 -0.1390
 9183SOL    HW239183   3.344   3.248   3.244  3.2101  0.7424  1.5593
 9184SOL     OW39184   0.830   3.393   4.797 -0.6602 -0.5519  0.0768
 9184SOL    HW139185   0.762   3.345   4.750  0.1471 -1.3630 -0.2378
 9184SOL    HW239186   0.770   3.457   4.837 -1.4888 -1.2263 -0.0893
 9185SOL     OW39187   2.548   0.416   2.921 -0.1820  0.4170 -0.1764
 9185SOL    HW139188   2.535   0.333   2.967  0.3324  0.6498  0.3864
 9185SOL    HW239189   2.641   0.411   2.899 -0.2240 -1.7142  0.1028
 9186SOL     OW39190   0.394   4.288  17.446  0.1887 -0.0310 -0.1324
 9186SOL    HW139191   0.353   4.211  17.407 -1.0827  0.8019 -0.4209
 9186SOL    HW239192   0.475   4.303  17.397 -0.5645  1.7727 -0.8138
 9187SOL     OW39193   3.117   3.300   4.903  0.0957  0.1789  0.2555
 9187SOL    HW139194   3.109   3.261   4.816  0.0687  0.4443  0.1396
 9187SOL    HW239195   3.148   3.222   4.949 -1.6983 -0.7873 -0.1998
 9188SOL     OW39196   4.245   3.732   5.790  0.1183  0.3734  0.5367
 9188SOL    HW139197   4.206   3.647   5.815  1.8345 -0.3518  0.7240
 9188SOL    HW239198   4.336   3.704   5.787 -0.3640 -1.2877  0.7572
 9189SOL     OW39199   3.382   3.963   7.224 -0.2950  0.4010  0.0302
 9189SOL    HW139200   3.440   3.945   7.298  3.2847 -1.0000 -3.0890
 9189SOL    HW239201   3.441   3.962   7.148  0.1193  0.5560  0.3473
 9190SOL     OW39202   0.568   4.628   8.102 -0.0321 -0.0952 -0.3846
 9190SOL    HW139203   0.613   4.688   8.041 -1.2383  0.0139 -1.1795
 9190SOL    HW239204   0.628   4.554   8.109 -0.5484 -0.4117  0.6785
 9191SOL     OW39205   3.000   3.890  13.577  0.4307  0.0373  0.1998
 9191SOL    HW139206   3.016   3.800  13.604 -0.9428 -0.3421 -0.2837
 9191SOL    HW239207   3.090   3.912  13.551  0.0292  0.4707 -0.8238
 9192SOL     OW39208   2.729   2.203   2.994 -0.7411  0.4650 -0.4558
 9192SOL    HW139209   2.685   2.209   3.079  2.0172 -2.8788  1.2308
 9192SOL    HW239210   2.680   2.129   2.960  0.8682 -0.0044 -1.7694
 9193SOL     OW39211   2.455   1.644   5.368  0.0732 -0.1472  0.6228
 9193SOL    HW139212   2.414   1.626   5.284 -0.3902  1.6020  0.4720
 9193SOL    HW239213   2.434   1.737   5.373  1.9064  0.1959  2.1532
 9194SOL     OW39214   2.735   0.552   9.645 -0.3258 -0.2954 -0.0388
 9194SOL    HW139215   2.679   0.629   9.635 -1.0435 -0.7411  0.5457
 9194SOL    HW239216   2.816   0.598   9.669 -1.9414  2.4470  0.1026
 9195SOL     OW39217   0.342   0.801   4.311 -0.0707 -0.1159  0.2983
 9195SOL    HW139218   0.421   0.768   4.354 -0.8272 -0.7577  1.1857
 9195SOL    HW239219   0.335   0.730   4.248  1.0289  0.4183 -0.4395
 9196SOL     OW39220   4.422   2.662   7.827  0.3864  0.3578  0.2318
 9196SOL    HW139221   4.454   2.574   7.845 -1.5490 -0.5208 -0.7592
 9196SOL    HW239222   4.417   2.695   7.917  0.5428  0.1768  0.3055
 9197SOL     OW39223   0.763   3.713   6.362 -0.1805 -0.2649 -0.2721
 9197SOL    HW139224   0.737   3.719   6.454 -1.0182  0.0583 -0.5203
 9197SOL    HW239225   0.789   3.621   6.362 -0.2078 -0.2708  0.4621
 9198SOL     OW39226   3.712   1.456   7.459 -0.2131  0.1388 -0.4721
 9198SOL    HW139227   3.685   1.415   7.376  0.9314 -2.1673  0.2902
 9198SOL    HW239228   3.629   1.491   7.490 -0.4454 -0.3970 -0.4864
 9199SOL     OW39229   2.232   3.011   7.243  0.0832  0.0916 -0.3093
 9199SOL    HW139230   2.314   2.990   7.198  0.3640  0.5944 -0.0284
 9199SOL    HW239231   2.170   2.997   7.171 -0.0169 -0.9749 -0.0134
 9200SOL     OW39232   1.448   0.073   6.713  0.1857  0.7140  0.0267
 9200SOL    HW139233   1.400   4.726   6.715  0.5018  0.4858 -1.8672
 9200SOL    HW239234   1.401   0.124   6.779 -1.4765 -0.9966  0.1518
 9201SOL     OW39235   1.152   3.926   1.776 -0.0587 -0.1990  0.0857
 9201SOL    HW139236   1.102   3.884   1.847 -1.2002  0.4397 -0.3431
 9201SOL    HW239237   1.135   3.874   1.697  0.4383 -1.2750  0.6856
 9202SOL     OW39238   0.035   1.842   3.096 -0.1861 -0.4311  0.0054
 9202SOL    HW139239   0.072   1.760   3.063  0.0106 -0.4981  0.3953
 9202SOL    HW239240   0.062   1.912   3.036  1.4470 -0.9966  0.0998
 9203SOL     OW39241   0.091   4.349   5.463 -0.5772  0.2957 -0.4984
 9203SOL    HW139242   0.175   4.375   5.500 -0.7608  0.9380 -0.5183
 9203SOL    HW239243   0.118   4.351   5.371  0.1437 -2.9515 -0.3490
 9204SOL     OW39244   1.322   4.388   4.025 -0.2542  0.1525  0.0930
 9204SOL    HW139245   1.268   4.392   3.947  0.9731  0.4638 -0.7407
 9204SOL    HW239246   1.395   4.330   4.002 -0.5209  0.1575 -0.7299
 9205SOL     OW39247   0.148   3.183   8.893 -0.3701 -0.2830  0.0558
 9205SOL    HW139248   0.106   3.269   8.897 -0.4573 -0.3335  0.2545
 9205SOL    HW239249   0.166   3.182   8.799 -2.8500  1.5872 -0.4293
 9206SOL     OW39250   4.560   1.274   4.232 -0.6862  0.1954  0.0613
 9206SOL    HW139251   4.485   1.257   4.175  0.4773 -0.3007 -1.3010
 9206SOL    HW239252   4.635   1.254   4.176  0.2791  0.5309  1.2344
 9207SOL     OW39253   4.651   3.144   2.793 -0.3867  0.7250  0.0588
 9207SOL    HW139254   4.635   3.189   2.876  0.1038 -0.7133  0.9276
 9207SOL    HW239255   0.008   3.132   2.809 -0.6305 -1.5172 -0.1760
 9208SOL     OW39256   1.177   3.664   5.007 -0.6065  0.6362  0.4613
 9208SOL    HW139257   1.093   3.659   4.963 -0.5110 -1.7649  0.5293
 9208SOL    HW239258   1.155   3.650   5.099 -1.6924  0.1551  0.1223
 9209SOL     OW39259   3.292   1.038  17.364  0.0617  0.0472  0.0792
 9209SOL    HW139260   3.264   1.127  17.342  0.6047  0.8056  2.4329
 9209SOL    HW239261   3.348   1.025  17.288  0.9837 -1.9564  1.1184
 9210SOL     OW39262   1.245   3.131  15.093  0.2100  0.3287  0.0554
 9210SOL    HW139263   1.284   3.101  15.175  0.6538 -0.1621 -0.3419
 9210SOL    HW239264   1.315   3.110  15.032 -0.8183 -0.3776 -0.8848
 9211SOL     OW39265   0.876   4.386   4.226  0.0358  0.4928 -0.0425
 9211SOL    HW139266   0.845   4.439   4.152  0.1186 -1.6937 -1.6577
 9211SOL    HW239267   0.913   4.465   4.266 -0.3480 -0.0209  1.3249
 9212SOL     OW39268   1.992   0.769   6.700 -0.0463 -0.0824 -0.3912
 9212SOL    HW139269   2.014   0.767   6.607  0.2809  0.9940 -0.3352
 9212SOL    HW239270   1.910   0.720   6.700  0.3349 -0.7002  1.1778
 9213SOL     OW39271   4.559   0.088   3.074  0.0906 -0.5736  0.0714
 9213SOL    HW139272   4.583   0.116   3.163  2.3821 -1.6980 -0.1813
 9213SOL    HW239273   4.466   0.069   3.084  0.4568 -1.0390  2.5579
 9214SOL     OW39274   0.102   1.567   5.584 -0.4402  0.0645  0.0024
 9214SOL    HW139275   0.007   1.562   5.592 -0.4098  0.5042  0.6514
 9214SOL    HW239276   0.118   1.626   5.510  1.9418 -1.3742 -0.6359
 9215SOL     OW39277   4.121   4.642   5.665  0.3043  0.4658 -0.2559
 9215SOL    HW139278   4.139   4.551   5.645 -2.1636  0.1765 -1.1458
 9215SOL    HW239279   4.083   4.668   5.581  1.1607 -0.7522 -1.0187
 9216SOL     OW39280   1.236   4.580   1.466 -0.7760  0.3235 -0.0510
 9216SOL    HW139281   1.187   4.640   1.521 -0.6727  0.0147  0.3756
 9216SOL    HW239282   1.221   4.504   1.522 -1.2408  1.9007  1.9330
 9217SOL     OW39283   1.413   1.669  15.596  0.2339 -0.1979 -0.2215
 9217SOL    HW139284   1.358   1.599  15.561  0.2483 -0.9790  1.2963
 9217SOL    HW239285   1.419   1.651  15.690 -0.6846 -1.5848 -0.4336
 9218SOL     OW39286   1.620   2.515   7.356 -0.4641 -0.2918  0.3564
 9218SOL    HW139287   1.576   2.575   7.296  0.5096  0.7908  0.7193
 9218SOL    HW239288   1.544   2.457   7.365 -3.2532  3.1485 -1.0218
 9219SOL     OW39289   4.728   0.859   7.876 -0.3506  0.2217  0.2137
 9219SOL    HW139290   0.004   0.952   7.858 -0.8250  0.2909  0.2381
 9219SOL    HW239291   4.721   0.854   7.971 -0.4173 -1.9418  0.1018
 9220SOL     OW39292   4.146   0.558   5.501 -0.5173  0.5562 -0.2686
 9220SOL    HW139293   4.242   0.555   5.495 -0.4559  2.3833 -0.1566
 9220SOL    HW239294   4.129   0.499   5.428 -0.5696  0.8739 -0.5150
 9221SOL     OW39295   4.688   1.150   2.295 -0.0712 -0.0636 -0.2908
 9221SOL    HW139296   4.666   1.133   2.387 -2.4591  0.4457 -0.7526
 9221SOL    HW239297   4.632   1.228   2.286  2.8799  2.1193  0.2056
 9222SOL     OW39298   0.818   4.528   6.851 -0.3816  0.0926  0.0605
 9222SOL    HW139299   0.730   4.532   6.888 -0.3532  2.3958 -0.1516
 9222SOL    HW239300   0.821   4.602   6.791  0.7361 -0.5005 -0.6025
 9223SOL     OW39301   1.264   2.934   2.026  0.0141 -0.4575  0.0013
 9223SOL    HW139302   1.240   2.973   1.942 -1.9065  1.4428  1.4519
 9223SOL    HW239303   1.349   2.902   1.996 -0.0513  0.2007 -0.9081
 9224SOL     OW39304   3.938   3.397   4.675 -0.2049 -0.0538  0.4749
 9224SOL    HW139305   4.010   3.377   4.735 -0.7147 -2.7721  0.1714
 9224SOL    HW239306   3.887   3.450   4.736  1.9603  1.2302  1.1648
 9225SOL     OW39307   0.228   3.004   2.103 -0.2289 -0.4487  0.3870
 9225SOL    HW139308   0.197   3.083   2.147 -0.9024 -0.9793  0.8641
 9225SOL    HW239309   0.143   2.963   2.088 -0.4652  0.1308  0.1612
 9226SOL     OW39310   1.135   2.882  12.436 -0.1389 -0.3533 -0.4501
 9226SOL    HW139311   1.093   2.827  12.502 -2.3923  1.2353 -0.5753
 9226SOL    HW239312   1.103   2.842  12.355 -0.5010 -0.0500 -0.4574
 9227SOL     OW39313   4.578   4.579   2.557 -0.1806  0.0485 -0.9070
 9227SOL    HW139314   4.611   4.618   2.638 -2.6790 -0.0616  0.1520
 9227SOL    HW239315   4.653   4.521   2.538  1.2300  0.7372  2.5066
 9228SOL     OW39316   0.209   2.265  13.639 -0.0835 -0.2317  0.0682
 9228SOL    HW139317   0.172   2.211  13.708 -1.5321  0.2588 -0.3237
 9228SOL    HW239318   0.178   2.220  13.560  2.2367 -0.1640 -0.9016
 9229SOL     OW39319   1.838   2.577  10.843 -0.3822 -0.1256  0.4323
 9229SOL    HW139320   1.770   2.641  10.819  0.5236  1.0800  1.0695
 9229SOL    HW239321   1.857   2.542  10.756  1.3984  0.5988  0.5198
 9230SOL     OW39322   2.065   2.432   6.582  1.1316 -0.0901 -0.9294
 9230SOL    HW139323   2.025   2.489   6.517 -0.1603 -1.4440 -1.3261
 9230SOL    HW239324   2.035   2.470   6.664  1.3387 -1.8828 -0.0114
 9231SOL     OW39325   1.481   1.012  14.599 -0.9366  0.2843  0.2211
 9231SOL    HW139326   1.392   0.977  14.590 -0.6259 -0.2646 -0.8073
 9231SOL    HW239327   1.519   0.925  14.613 -0.1153  0.5670 -0.2582
 9232SOL     OW39328   3.799   2.816   4.754 -0.0029  0.0324 -0.0778
 9232SOL    HW139329   3.769   2.883   4.693 -0.5881 -0.0776  0.0964
 9232SOL    HW239330   3.718   2.768   4.767 -0.2200  0.4512  0.1427
 9233SOL     OW39331   2.144   1.008   4.224 -0.0392  0.0320  0.7280
 9233SOL    HW139332   2.061   0.971   4.254 -0.7196 -0.2204 -1.4458
 9233SOL    HW239333   2.155   0.954   4.146 -1.7967  1.2993 -0.4130
 9234SOL     OW39334   0.109   3.269   5.743  0.4068 -0.3461 -0.7532
 9234SOL    HW139335   0.199   3.277   5.710  0.5874  0.6282 -0.0184
 9234SOL    HW239336   0.129   3.264   5.837  1.6596 -0.4532 -1.0263
 9235SOL     OW39337   4.259   4.058   5.437  0.1481  0.6673 -0.0214
 9235SOL    HW139338   4.230   4.067   5.528 -0.0000  1.5650 -0.1624
 9235SOL    HW239339   4.184   4.086   5.385 -0.5990 -0.3522  0.5150
 9236SOL     OW39340   1.705   4.585  12.035  1.0523 -0.1724  0.1769
 9236SOL    HW139341   1.676   4.496  12.056 -0.0195 -0.2118 -1.5237
 9236SOL    HW239342   1.623   4.633  12.045  0.3639 -1.5831  1.4123
 9237SOL     OW39343   0.310   3.859   4.460 -0.1705 -0.3703 -0.0791
 9237SOL    HW139344   0.291   3.904   4.542  0.5379 -1.0083  0.4355
 9237SOL    HW239345   0.221   3.838   4.433 -0.1591 -1.1663  0.4932
 9238SOL     OW39346   2.850   3.340  16.228  0.1755 -0.1924  0.2557
 9238SOL    HW139347   2.833   3.282  16.154  1.7296  0.3310 -0.5110
 9238SOL    HW239348   2.944   3.327  16.231  0.2818 -0.2187 -3.4694
 9239SOL     OW39349   1.980   4.716  13.265  0.2260 -0.5269  0.4226
 9239SOL    HW139350   1.903   4.700  13.320 -1.0304  0.0628 -1.1743
 9239SOL    HW239351   2.041   0.011  13.333  0.4359 -1.7852  0.8258
 9240SOL     OW39352   2.819   2.402  11.074 -0.3435 -0.6503 -0.0430
 9240SOL    HW139353   2.914   2.388  11.071 -0.1335  1.2380 -1.9459
 9240SOL    HW239354   2.809   2.329  11.135 -1.3026 -0.7776 -0.3480
 9241SOL     OW39355   1.640   2.776   7.593 -0.4860 -0.3855  0.0912
 9241SOL    HW139356   1.559   2.745   7.633 -0.6820  0.9631  0.7495
 9241SOL    HW239357   1.709   2.735   7.645 -2.1587 -0.1323  2.5392
 9242SOL     OW39358   4.359   2.296   5.843 -0.1103  0.0283 -0.2064
 9242SOL    HW139359   4.441   2.343   5.861 -0.5359  0.4352  0.6866
 9242SOL    HW239360   4.375   2.246   5.763  2.5571 -3.1884  2.3496
 9243SOL     OW39361   2.377   2.503   3.719  0.2607 -0.1775  0.7660
 9243SOL    HW139362   2.442   2.568   3.692 -2.4968  1.8092 -1.0811
 9243SOL    HW239363   2.299   2.525   3.669  0.8817 -1.5109 -0.7831
 9244SOL     OW39364   2.487   0.782   8.972 -0.5343  0.1240  0.1926
 9244SOL    HW139365   2.399   0.815   8.989 -0.0187  2.6378 -1.9177
 9244SOL    HW239366   2.468   0.702   9.021 -2.0329 -0.0009 -0.5874
 9245SOL     OW39367   2.577   0.625   3.115 -0.4119  0.2886 -0.3567
 9245SOL    HW139368   2.669   0.607   3.134 -0.0591  2.1210 -0.3462
 9245SOL    HW239369   2.558   0.543   3.069  1.9575 -0.1259 -0.5831
 9246SOL     OW39370   0.727   1.644   8.519 -0.3919 -0.0148 -0.0405
 9246SOL    HW139371   0.683   1.643   8.604  1.5420 -1.5152  0.9374
 9246SOL    HW239372   0.753   1.736   8.507 -1.6591  0.2824 -0.4864
 9247SOL     OW39373   4.084   1.042  11.654 -0.1622  0.2158  0.1172
 9247SOL    HW139374   4.030   1.111  11.615 -0.6286 -0.7261 -0.8989
 9247SOL    HW239375   4.169   1.051  11.611 -0.0927  2.0608  0.6329
 9248SOL     OW39376   0.319   1.019   5.872  0.3936  0.0739  0.0362
 9248SOL    HW139377   0.396   1.031   5.928  0.3692 -1.4506  0.4057
 9248SOL    HW239378   0.258   1.085   5.903  1.2349  0.1181  1.5828
 9249SOL     OW39379   0.246   4.635   0.272 -0.2281 -0.3814 -0.0105
 9249SOL    HW139380   0.176   4.648   0.337  0.7333  0.5596  0.8316
 9249SOL    HW239381   0.313   4.599   0.329  0.2534 -1.2554 -1.1332
 9250SOL     OW39382   4.307   0.337  10.462  0.0872  0.2283 -0.2952
 9250SOL    HW139383   4.306   0.411  10.522  1.9557 -0.4753  0.6156
 9250SOL    HW239384   4.277   0.270  10.522  0.2364 -0.0597 -0.5406
 9251SOL     OW39385   3.622   3.025   8.273 -0.4247 -0.5884 -0.2215
 9251SOL    HW139386   3.654   3.074   8.198 -1.3137  1.3939  0.6914
 9251SOL    HW239387   3.542   3.073   8.296 -1.0404 -1.2283 -1.0223
 9252SOL     OW39388   2.588   3.528   2.368  0.0937  0.4174 -0.4453
 9252SOL    HW139389   2.678   3.507   2.342  0.2348  1.4679 -0.7805
 9252SOL    HW239390   2.549   3.563   2.288  1.7711 -0.3375 -1.6165
 9253SOL     OW39391   0.010   2.410   3.505 -0.0762  0.1908  0.1285
 9253SOL    HW139392   0.045   2.322   3.514  2.0116  1.1668  1.4641
 9253SOL    HW239393   4.710   2.420   3.592 -1.9321  2.5912 -0.9016
 9254SOL     OW39394   2.730   2.149   6.832 -0.5198  0.1752 -0.0089
 9254SOL    HW139395   2.722   2.135   6.926  1.8783  0.7891  0.2930
 9254SOL    HW239396   2.694   2.067   6.797 -1.4572  0.1234  1.1027
 9255SOL     OW39397   2.830   2.521  14.084  0.4026  0.3552 -0.0742
 9255SOL    HW139398   2.879   2.482  14.012 -0.6866 -1.4034  0.1288
 9255SOL    HW239399   2.743   2.517  14.044 -0.9519 -0.7732  2.9843
 9256SOL     OW39400   2.697   3.962  16.617 -0.0434 -0.3705 -0.1992
 9256SOL    HW139401   2.717   3.869  16.605  0.1072  0.0035 -2.7970
 9256SOL    HW239402   2.624   3.961  16.678  0.4577 -0.4284  0.3993
 9257SOL     OW39403   1.096   0.205   6.484 -0.4932 -0.2992  0.5742
 9257SOL    HW139404   1.101   0.191   6.579  2.0748  1.9475  0.7704
 9257SOL    HW239405   1.067   0.296   6.481  0.0570 -0.1209  0.7567
 9258SOL     OW39406   1.204   1.288   4.764  0.1606 -0.8883  0.1898
 9258SOL    HW139407   1.192   1.253   4.853  0.4589 -1.0237  0.1747
 9258SOL    HW239408   1.146   1.243   4.703  1.5911 -2.0350 -0.3078
 9259SOL     OW39409   0.472   1.581   3.872 -0.9652 -0.3589  0.3253
 9259SOL    HW139410   0.545   1.523   3.850 -1.4223 -0.7528 -0.1736
 9259SOL    HW239411   0.391   1.534   3.851 -0.1030 -0.6760 -2.2648
 9260SOL     OW39412   1.581   4.661   2.055  0.8250  0.4221 -0.1170
 9260SOL    HW139413   1.585   4.565   2.053  0.3687  0.3781  1.4671
 9260SOL    HW239414   1.648   4.688   1.993  0.3790 -1.2986 -1.3554
 9261SOL     OW39415   1.231   4.324   2.783 -0.7993  0.1384  0.0537
 9261SOL    HW139416   1.247   4.407   2.828 -0.7783 -0.0944  0.4814
 9261SOL    HW239417   1.171   4.286   2.848 -0.1879 -1.1028 -0.1124
 9262SOL     OW39418   2.933   3.262   9.446 -0.2842  0.5175  0.4850
 9262SOL    HW139419   2.953   3.313   9.368 -1.8010 -1.4482 -1.1817
 9262SOL    HW239420   2.847   3.225   9.426 -0.1481  0.1216  0.6238
 9263SOL     OW39421   3.260   2.073  13.267 -0.0525 -0.0166 -0.6843
 9263SOL    HW139422   3.204   2.012  13.219 -1.2115  1.6520 -1.4546
 9263SOL    HW239423   3.278   2.143  13.204 -1.4174  0.0382 -1.0327
 9264SOL     OW39424   4.194   3.599   8.960 -0.1152  0.2589 -0.1601
 9264SOL    HW139425   4.138   3.616   8.884 -0.3196 -0.7979 -0.2433
 9264SOL    HW239426   4.261   3.539   8.927 -1.4752 -0.9548 -0.6968
 9265SOL     OW39427   1.567   2.946  11.740 -0.1631 -0.7279  0.0622
 9265SOL    HW139428   1.524   2.861  11.729 -0.2033 -0.6642 -0.2757
 9265SOL    HW239429   1.508   2.978  11.809  0.5317 -0.1834  0.4089
 9266SOL     OW39430   2.690   1.652   4.220  0.3824 -0.3522  0.0758
 9266SOL    HW139431   2.775   1.665   4.177  0.3951  0.1660  0.2621
 9266SOL    HW239432   2.725   1.667   4.308 -0.5037 -1.6123  0.6374
 9267SOL     OW39433   4.350   2.129   1.689 -0.3684 -0.6767  0.6490
 9267SOL    HW139434   4.381   2.044   1.657  0.9795  0.1609 -0.2536
 9267SOL    HW239435   4.350   2.123   1.785 -0.8068  0.2361  0.7044
 9268SOL     OW39436   2.402   0.730   4.872 -0.2119  0.0030 -0.2323
 9268SOL    HW139437   2.467   0.703   4.937  0.3227 -0.2828 -0.8712
 9268SOL    HW239438   2.357   0.807   4.904  0.8347  0.9715 -1.0870
 9269SOL     OW39439   3.645   4.433   3.905 -0.2257 -0.0032 -0.0392
 9269SOL    HW139440   3.590   4.365   3.944  0.9982 -1.1478 -0.2688
 9269SOL    HW239441   3.624   4.429   3.812 -0.2011  0.6432 -0.0690
 9270SOL     OW39442   1.954   3.438   2.321 -0.0454  0.5875  0.2826
 9270SOL    HW139443   2.037   3.392   2.332 -0.6863 -0.4756  0.7267
 9270SOL    HW239444   1.978   3.524   2.287 -0.9842  0.1479 -1.4965
 9271SOL     OW39445   4.479   3.616   9.721 -0.1401  0.2925 -0.2119
 9271SOL    HW139446   4.399   3.630   9.771 -0.4377 -0.1434 -0.5700
 9271SOL    HW239447   4.453   3.606   9.630 -2.8244 -0.0931  0.6060
 9272SOL     OW39448   1.202   0.821   8.540  0.2702 -0.2957 -0.0576
 9272SOL    HW139449   1.247   0.815   8.624 -1.4978 -0.8357  0.8532
 9272SOL    HW239450   1.145   0.746   8.552  1.3618 -1.2543 -0.9249
 9273SOL     OW39451   1.016   1.394  13.577  0.3839  0.3865 -0.2232
 9273SOL    HW139452   0.975   1.443  13.648  2.0873  1.6232 -0.1071
 9273SOL    HW239453   1.017   1.302  13.605 -4.5024  0.7050  1.0216
 9274SOL     OW39454   0.593   2.916   7.041 -0.3693 -0.3446 -0.1920
 9274SOL    HW139455   0.605   3.009   7.021 -2.1320  0.2627  1.5655
 9274SOL    HW239456   0.516   2.899   6.987  0.4978  0.4085 -1.6728
 9275SOL     OW39457   1.072   3.690  14.237 -0.5099  0.2208 -0.3392
 9275SOL    HW139458   1.007   3.728  14.296  1.7866  2.0029  1.0349
 9275SOL    HW239459   1.120   3.768  14.210 -0.7142 -0.6106 -3.0703
 9276SOL     OW39460   1.867   4.719   3.547 -0.1617  0.0695 -0.0076
 9276SOL    HW139461   1.798   0.017   3.490 -1.0628 -1.1968  0.3005
 9276SOL    HW239462   1.934   0.050   3.537 -0.7270  0.6593  0.2459
 9277SOL     OW39463   1.808   1.216   4.283  0.2449 -0.0379 -0.1746
 9277SOL    HW139464   1.829   1.124   4.268  0.6672  0.0654 -0.2242
 9277SOL    HW239465   1.732   1.205   4.341  0.7880  1.3188  0.7859
 9278SOL     OW39466   4.403   1.819   2.933  0.3419  0.4319 -0.4527
 9278SOL    HW139467   4.419   1.781   2.847 -1.3288 -1.5228  0.0953
 9278SOL    HW239468   4.385   1.910   2.910  2.1853 -0.0249 -3.6652
 9279SOL     OW39469   0.388   2.429   2.344 -0.8689  0.4807  0.6266
 9279SOL    HW139470   0.358   2.504   2.395  0.1160  0.4422  1.2456
 9279SOL    HW239471   0.380   2.354   2.403  0.1341 -1.5091 -1.7649
 9280SOL     OW39472   2.895   3.853   6.621  0.0787 -0.7341  0.5073
 9280SOL    HW139473   2.845   3.772   6.625  0.0367 -0.7598 -0.4839
 9280SOL    HW239474   2.953   3.843   6.696  1.2201  2.0161 -0.0082
 9281SOL     OW39475   1.408   2.885   3.712  0.1439 -0.8579  0.5311
 9281SOL    HW139476   1.431   2.978   3.713 -1.0814 -0.5402  0.4172
 9281SOL    HW239477   1.417   2.868   3.805  2.1850 -1.5942  0.1975
 9282SOL     OW39478   0.967   2.958  13.321 -0.0670 -0.1375 -0.7708
 9282SOL    HW139479   0.947   2.953  13.228  0.9863  0.5941 -1.0306
 9282SOL    HW239480   1.032   2.889  13.328 -0.4360 -0.5074 -0.9755
 9283SOL     OW39481   4.003   0.280  10.819  0.2521 -0.1220  0.2997
 9283SOL    HW139482   3.917   0.320  10.831  0.2924  0.3414 -0.9727
 9283SOL    HW239483   4.038   0.364  10.790 -0.1063 -0.3944 -0.9056
 9284SOL     OW39484   3.330   0.010  10.709  0.1966  0.6605  0.1678
 9284SOL    HW139485   3.423   0.024  10.728 -0.6118  1.3966  3.6923
 9284SOL    HW239486   3.290   0.052  10.785 -0.8253  1.4902 -0.8197
 9285SOL     OW39487   2.330   3.705   4.086 -0.6154  0.0855  0.0897
 9285SOL    HW139488   2.353   3.644   4.016  0.5933 -1.7672  2.0916
 9285SOL    HW239489   2.237   3.685   4.097 -0.2660 -0.9598  1.1316
 9286SOL     OW39490   4.318   4.298   8.617  0.5155  0.0784  0.2702
 9286SOL    HW139491   4.234   4.342   8.631  1.6607  1.9474  1.3166
 9286SOL    HW239492   4.366   4.373   8.582 -1.1126  0.5885 -0.9104
 9287SOL     OW39493   0.889   0.586   7.767  0.4122 -0.1880  0.3506
 9287SOL    HW139494   0.846   0.668   7.791  0.0639  0.1218 -1.3257
 9287SOL    HW239495   0.838   0.518   7.812  0.4215 -0.6200 -0.2810
 9288SOL     OW39496   2.972   3.842   4.461  0.2244 -0.5423 -0.2797
 9288SOL    HW139497   2.946   3.911   4.399  0.1041  1.3694  1.9108
 9288SOL    HW239498   3.032   3.889   4.520 -0.6716 -0.3079  0.4355
 9289SOL     OW39499   4.179   1.533   0.527 -0.1377 -0.0142 -0.0029
 9289SOL    HW139500   4.088   1.543   0.554  0.1172  3.2223 -0.3541
 9289SOL    HW239501   4.177   1.523   0.432 -0.1208  3.3304 -0.3568
 9290SOL     OW39502   3.038   3.159   3.589  0.2058 -0.2653  0.2021
 9290SOL    HW139503   2.984   3.230   3.624 -1.2848 -1.3491  0.0909
 9290SOL    HW239504   3.114   3.182   3.643 -0.9740  1.5120  1.1197
 9291SOL     OW39505   3.487   3.739   7.456 -0.1681  0.5982  0.1707
 9291SOL    HW139506   3.422   3.677   7.422  0.4590 -0.2558  0.5322
 9291SOL    HW239507   3.566   3.686   7.466  0.2149  1.1257 -0.0572
 9292SOL     OW39508   2.108   4.029   5.504 -0.3279 -0.6409  0.3443
 9292SOL    HW139509   2.013   4.041   5.502 -0.4276 -1.7944 -1.4091
 9292SOL    HW239510   2.136   4.062   5.419 -0.6844 -3.2281 -0.7530
 9293SOL     OW39511   4.307   2.034   4.453 -0.1002 -0.2811  0.8900
 9293SOL    HW139512   4.329   2.127   4.452 -0.4543 -0.2443 -1.6155
 9293SOL    HW239513   4.361   2.001   4.525  1.1350 -1.5176 -0.6136
 9294SOL     OW39514   4.637   4.096  15.088  0.0052  0.1392 -0.3046
 9294SOL    HW139515   4.655   4.166  15.151  1.1210  0.5654 -1.0907
 9294SOL    HW239516   4.619   4.022  15.145 -1.1802  1.1602  0.6510
 9295SOL     OW39517   0.138   2.184   4.994 -0.6798  0.5340 -0.2942
 9295SOL    HW139518   0.076   2.185   5.067  0.3253  0.9896  0.5615
 9295SOL    HW239519   0.078   2.170   4.921  1.5985 -2.6642 -1.5696
 9296SOL     OW39520   4.080   3.083  14.770  0.7311  0.0492  0.0865
 9296SOL    HW139521   4.000   3.088  14.718  0.8494  0.3203 -0.0654
 9296SOL    HW239522   4.109   3.173  14.781  1.1249 -0.3272  2.1091
 9297SOL     OW39523   2.781   4.580  11.116 -0.3636  0.3496  0.2507
 9297SOL    HW139524   2.700   4.532  11.130  0.7454 -0.6796  3.1530
 9297SOL    HW239525   2.846   4.516  11.146 -0.1257 -0.3914 -1.7685
 9298SOL     OW39526   1.888   4.509   2.104  0.2303 -0.7946 -0.1262
 9298SOL    HW139527   1.882   4.522   2.199  0.5929 -2.2086  0.0836
 9298SOL    HW239528   1.799   4.481   2.081  0.8158 -1.0576 -2.0925
 9299SOL     OW39529   2.421   4.072   1.397  0.8709  0.1768 -0.6098
 9299SOL    HW139530   2.326   4.068   1.404  0.8821  1.3420  0.2451
 9299SOL    HW239531   2.433   4.167   1.402 -0.3741  0.2709  0.6842
 9300SOL     OW39532   3.447   3.179   6.349 -0.3054 -0.2388 -0.5321
 9300SOL    HW139533   3.529   3.216   6.318  0.2401 -0.5907  0.4921
 9300SOL    HW239534   3.392   3.207   6.275  1.5095  3.5382 -0.4537
 9301SOL     OW39535   3.308   3.307  16.849  0.1944 -0.2603 -0.2848
 9301SOL    HW139536   3.239   3.264  16.900 -0.8746  0.4062 -1.1616
 9301SOL    HW239537   3.314   3.267  16.763 -0.4118  2.6727 -1.6778
 9302SOL     OW39538   1.162   2.187  12.785  0.6181 -0.4801 -0.5310
 9302SOL    HW139539   1.080   2.145  12.811 -1.0135  1.9905 -1.6980
 9302SOL    HW239540   1.205   2.117  12.736  0.6895  0.4082 -1.7282
 9303SOL     OW39541   1.559   3.845   0.441  0.2246 -0.0922  0.1150
 9303SOL    HW139542   1.636   3.801   0.406 -0.2197 -1.3277  0.6714
 9303SOL    HW239543   1.489   3.813   0.384  0.8022 -0.2287 -0.5098
 9304SOL     OW39544   1.759   1.520  11.546  0.3981  0.0821  0.3651
 9304SOL    HW139545   1.810   1.599  11.567 -0.6744  0.7431  0.4714
 9304SOL    HW239546   1.718   1.514  11.633  1.0758  1.5963  0.8006
 9305SOL     OW39547   3.220   1.034   6.643 -0.0460  0.7457  0.4323
 9305SOL    HW139548   3.315   1.037   6.656  0.1903 -1.5220 -0.8030
 9305SOL    HW239549   3.208   1.128   6.657 -2.9469  0.1745  1.6582
 9306SOL     OW39550   3.662   3.914   3.362 -0.0102  0.0591 -0.4301
 9306SOL    HW139551   3.587   3.930   3.306 -1.7069 -2.9903  0.9950
 9306SOL    HW239552   3.687   3.824   3.337 -3.7082 -1.3839  1.1336
 9307SOL     OW39553   3.691   1.312   2.549  0.0555 -0.4137 -0.0894
 9307SOL    HW139554   3.685   1.217   2.553 -0.7263 -0.2935  1.3316
 9307SOL    HW239555   3.672   1.329   2.456  1.5750 -0.4097 -0.3919
 9308SOL     OW39556   4.107   4.589   6.908  0.1609  0.2275  0.2371
 9308SOL    HW139557   4.032   4.538   6.880  0.4459  1.3067 -2.5644
 9308SOL    HW239558   4.104   4.671   6.859  0.2679  0.0250 -0.1065
 9309SOL     OW39559   2.801   4.252   1.581  0.1639 -0.7494  0.2118
 9309SOL    HW139560   2.790   4.165   1.621  1.0324 -1.9972 -2.2050
 9309SOL    HW239561   2.750   4.244   1.500 -2.6452  1.6358  1.7549
 9310SOL     OW39562   4.226   0.974   6.090 -0.0977  0.0952  0.6275
 9310SOL    HW139563   4.181   0.893   6.065 -1.0862  0.8250  0.0425
 9310SOL    HW239564   4.283   0.960   6.165  0.3220 -0.1600  0.2601
 9311SOL     OW39565   2.273   2.998   1.994  0.2072 -0.6393 -0.0504
 9311SOL    HW139566   2.189   2.954   2.002 -0.9484  1.7583  1.1245
 9311SOL    HW239567   2.309   2.964   1.912 -0.3468 -0.4045 -0.3867
 9312SOL     OW39568   3.466   2.735   8.464  0.0584  0.3928  0.0392
 9312SOL    HW139569   3.430   2.764   8.380 -0.5435 -1.6610 -0.4222
 9312SOL    HW239570   3.442   2.642   8.463  0.0407  0.4038 -0.3957
 9313SOL     OW39571   4.684   0.805  17.482  0.2939 -0.2155  0.3482
 9313SOL    HW139572   4.651   0.719  17.455  1.3957 -0.5599  0.0968
 9313SOL    HW239573   4.717   0.841  17.400  1.9261  0.8921  1.5024
 9314SOL     OW39574   0.477   4.695   1.604 -0.2352  0.0645  0.3359
 9314SOL    HW139575   0.385   4.716   1.593 -0.2638 -1.4651 -2.3819
 9314SOL    HW239576   0.522   0.032   1.562  1.3555 -0.7168  0.6505
 9315SOL     OW39577   1.848   3.500   6.923 -0.3625  0.1700 -0.0984
 9315SOL    HW139578   1.828   3.440   6.995 -0.3412 -1.1035 -1.1748
 9315SOL    HW239579   1.891   3.442   6.861 -1.0641 -0.2592 -0.1766
 9316SOL     OW39580   0.224   3.045   1.032 -0.0106 -0.0617  0.3565
 9316SOL    HW139581   0.165   2.969   1.028  0.4739 -0.4186 -0.0988
 9316SOL    HW239582   0.232   3.066   0.939  0.0567 -0.4561  0.2698
 9317SOL     OW39583   2.828   3.826   8.690 -0.5070 -0.2879 -0.3048
 9317SOL    HW139584   2.814   3.736   8.722  3.3459 -1.0138 -0.6807
 9317SOL    HW239585   2.922   3.813   8.675  0.1378  0.4985  3.0280
 9318SOL     OW39586   0.376   4.475   8.486  0.1044  0.4102  0.2042
 9318SOL    HW139587   0.381   4.401   8.546 -0.5819 -0.6248 -1.0156
 9318SOL    HW239588   0.466   4.466   8.453 -0.6920 -0.3915 -1.7547
 9319SOL     OW39589   1.478   3.318   5.369  0.9991  0.3535  0.4429
 9319SOL    HW139590   1.483   3.268   5.288  1.9393 -1.4985  1.6289
 9319SOL    HW239591   1.531   3.395   5.347 -1.2860  2.0125  0.7713
 9320SOL     OW39592   1.684   3.769   1.822  0.3702  0.7532  0.0616
 9320SOL    HW139593   1.705   3.860   1.842 -1.3432  1.1433  0.0677
 9320SOL    HW239594   1.747   3.742   1.754  1.6611  0.3466  1.4194
 9321SOL     OW39595   4.655   0.148  11.763 -0.0229  0.3858 -0.0575
 9321SOL    HW139596   0.013   0.165  11.770  0.4805 -2.4846  0.4898
 9321SOL    HW239597   4.656   0.066  11.713  1.6016  1.8785 -2.4864
 9322SOL     OW39598   3.993   1.616   5.513 -0.2623 -0.9028  0.2389
 9322SOL    HW139599   3.906   1.595   5.549 -1.2637  0.5315 -1.3284
 9322SOL    HW239600   4.029   1.527   5.518  2.5888  0.1826 -1.1603
 9323SOL     OW39601   1.330   4.381  16.228 -0.0681  0.4652 -0.0905
 9323SOL    HW139602   1.256   4.320  16.230  1.3271 -1.2012  0.5558
 9323SOL    HW239603   1.282   4.459  16.254  0.3844 -0.0399  2.2426
 9324SOL     OW39604   2.968   4.316   4.425  0.1821  0.0978 -0.1378
 9324SOL    HW139605   3.012   4.326   4.509 -2.7294  1.1740  1.2633
 9324SOL    HW239606   2.906   4.390   4.424  1.5942  1.2491 -1.3397
 9325SOL     OW39607   0.495   0.267   4.906  0.5505 -0.3916 -0.3357
 9325SOL    HW139608   0.506   0.223   4.822  0.1758 -0.7139 -0.2151
 9325SOL    HW239609   0.429   0.328   4.874 -1.0717 -2.3422 -0.7742
 9326SOL     OW39610   3.781   1.632   3.230  0.2718 -0.5812  0.2668
 9326SOL    HW139611   3.792   1.598   3.141 -0.5932 -0.5440  0.1475
 9326SOL    HW239612   3.839   1.573   3.278 -1.5972 -0.0795  3.1298
 9327SOL     OW39613   0.589   1.228  13.736  0.3923  0.3142 -0.5371
 9327SOL    HW139614   0.606   1.135  13.750  3.6789  1.2866  1.9652
 9327SOL    HW239615   0.518   1.227  13.672 -1.5331 -0.7386  1.6256
 9328SOL     OW39616   4.363   1.819   0.888 -0.0693  0.3744 -0.0193
 9328SOL    HW139617   4.306   1.770   0.829  0.0700 -0.6447  0.6916
 9328SOL    HW239618   4.439   1.762   0.873 -2.1149 -1.8582 -1.8513
 9329SOL     OW39619   1.198   0.762   2.551 -0.0414  0.8390  0.1041
 9329SOL    HW139620   1.276   0.818   2.553  0.9533 -0.5474  0.9548
 9329SOL    HW239621   1.140   0.807   2.613 -0.6091 -0.4560  0.5091
 9330SOL     OW39622   1.264   2.311   5.543  0.4381  0.0220 -0.0052
 9330SOL    HW139623   1.285   2.286   5.633  0.8369  2.1904  0.5036
 9330SOL    HW239624   1.275   2.220   5.513 -2.1593 -0.4805  0.5561
 9331SOL     OW39625   3.973   2.477   0.764  0.0721  0.6596  0.1355
 9331SOL    HW139626   3.886   2.507   0.740 -0.1582 -1.0088 -1.1501
 9331SOL    HW239627   3.952   2.460   0.856 -0.5213 -0.8900 -0.2822
 9332SOL     OW39628   2.392   4.369   2.536 -0.2079  0.1239  0.1120
 9332SOL    HW139629   2.380   4.289   2.588  1.1058  0.0566  0.2995
 9332SOL    HW239630   2.420   4.442   2.591  0.1480  0.8151 -0.9941
 9333SOL     OW39631   0.712   3.556   7.389  0.6593  0.4163  0.5608
 9333SOL    HW139632   0.715   3.477   7.443  1.4539 -0.7762 -1.2493
 9333SOL    HW239633   0.751   3.627   7.441  2.5578 -0.7983  0.7954
 9334SOL     OW39634   3.799   1.687  11.191  0.1022 -0.4468 -0.4487
 9334SOL    HW139635   3.848   1.606  11.178  0.5037  0.3233 -3.7243
 9334SOL    HW239636   3.852   1.725  11.261 -1.3728 -0.6157  0.7442
 9335SOL     OW39637   2.770   2.758  14.834  0.0771 -0.3855  0.8147
 9335SOL    HW139638   2.863   2.754  14.810 -0.5905  0.6228 -1.9942
 9335SOL    HW239639   2.744   2.671  14.802  0.8033 -0.4915  0.5040
 9336SOL     OW39640   2.126   3.799  16.928  0.1694  0.0104  0.3109
 9336SOL    HW139641   2.055   3.738  16.908  0.5220  0.0805 -1.1298
 9336SOL    HW239642   2.148   3.775  17.018 -1.1223 -0.1062  0.5897
 9337SOL     OW39643   3.958   2.494  10.039 -0.1955 -0.0379  0.2627
 9337SOL    HW139644   3.971   2.409  10.081  1.0761  0.2246  0.3851
 9337SOL    HW239645   3.975   2.484   9.946  1.4912 -2.7340  0.8530
 9338SOL     OW39646   1.785   1.009   4.901 -0.8721 -0.2200 -0.8048
 9338SOL    HW139647   1.735   0.997   4.981 -1.1079 -1.3701 -1.1261
 9338SOL    HW239648   1.846   1.078   4.926 -0.2144 -1.0131 -0.2390
 9339SOL     OW39649   3.873   4.278   9.150  0.0817 -0.3762 -0.2599
 9339SOL    HW139650   3.913   4.361   9.122 -1.0268 -0.4020 -1.9381
 9339SOL    HW239651   3.916   4.211   9.096 -3.5585 -1.7813 -1.3681
 9340SOL     OW39652   3.454   1.499   6.325 -0.4224 -0.5069  0.1789
 9340SOL    HW139653   3.403   1.426   6.359 -0.4286  0.1055  1.4895
 9340SOL    HW239654   3.539   1.455   6.321 -0.2096  0.0015 -1.0310
 9341SOL     OW39655   0.528   3.477   8.955 -0.2600 -0.5690  0.1011
 9341SOL    HW139656   0.608   3.470   9.007  0.1935  0.3267 -0.4672
 9341SOL    HW239657   0.489   3.560   8.983  0.3586 -0.3281  0.2466
 9342SOL     OW39658   2.052   3.337   8.642 -0.1633  0.1612 -0.0374
 9342SOL    HW139659   2.108   3.390   8.584  1.6386 -1.4335  0.2588
 9342SOL    HW239660   1.963   3.371   8.635 -0.2467 -0.7559 -3.1749
 9343SOL     OW39661   2.966   3.175   1.138  0.1441  0.1775 -0.4137
 9343SOL    HW139662   3.013   3.254   1.110 -0.9432  0.6912 -0.7999
 9343SOL    HW239663   2.907   3.158   1.064 -0.5376 -0.5563  0.2911
 9344SOL     OW39664   3.733   2.624   5.163 -0.5809  0.0162  0.0902
 9344SOL    HW139665   3.757   2.710   5.197 -3.9468  0.8101  0.4407
 9344SOL    HW239666   3.729   2.574   5.245 -1.1047 -1.9133 -1.1141
 9345SOL     OW39667   3.959   2.986  16.015  0.6057 -0.3896 -0.1052
 9345SOL    HW139668   3.915   2.922  16.071 -0.6266 -0.0175 -0.6436
 9345SOL    HW239669   3.986   3.051  16.080  1.4819 -1.3371  0.4771
 9346SOL     OW39670   1.096   2.857  13.932  0.1484 -1.5013 -0.0498
 9346SOL    HW139671   1.063   2.769  13.952  1.8941 -2.2197 -0.2767
 9346SOL    HW239672   1.081   2.899  14.016 -0.5647  0.0369 -0.9587
 9347SOL     OW39673   1.185   2.223   7.959 -0.4022 -0.1801 -0.1364
 9347SOL    HW139674   1.248   2.181   8.018 -0.0550 -1.1932 -1.2260
 9347SOL    HW239675   1.104   2.188   7.995 -1.6674  3.0179  0.0930
 9348SOL     OW39676   3.683   1.105   3.067  0.2979 -0.3243 -0.1390
 9348SOL    HW139677   3.660   1.130   3.156 -1.1054 -0.4323 -0.4671
 9348SOL    HW239678   3.766   1.150   3.052  1.4018 -2.7131 -1.3222
 9349SOL     OW39679   0.384   4.035   5.052  0.0912  0.0658 -0.1058
 9349SOL    HW139680   0.451   4.049   5.119 -0.9738  0.1710  0.9323
 9349SOL    HW239681   0.379   3.939   5.050 -0.8328  0.1309 -0.8210
 9350SOL     OW39682   4.294   3.220   6.705 -0.2011 -0.0974  0.3753
 9350SOL    HW139683   4.296   3.129   6.734  1.2576 -1.0021 -2.6058
 9350SOL    HW239684   4.356   3.215   6.633  1.8708  0.9693  2.0520
 9351SOL     OW39685   3.611   1.744  15.926 -0.6028 -0.7402  0.3048
 9351SOL    HW139686   3.631   1.837  15.919  0.6774 -1.1352 -1.2334
 9351SOL    HW239687   3.698   1.713  15.951 -0.1189  0.3870  0.0164
 9352SOL     OW39688   2.344   4.453   7.020 -0.3099 -0.1718 -0.2396
 9352SOL    HW139689   2.331   4.469   7.114  3.0589 -2.2451  0.6209
 9352SOL    HW239690   2.437   4.474   7.008 -0.7126  1.4349 -0.5566
 9353SOL     OW39691   3.710   4.218   6.002 -0.6420 -0.1580 -0.5406
 9353SOL    HW139692   3.742   4.262   5.923 -2.8441  1.1581 -0.6802
 9353SOL    HW239693   3.668   4.294   6.043  0.7551  1.7257 -2.5858
 9354SOL     OW39694   1.562   1.071   1.171  0.0840  0.4095  0.4429
 9354SOL    HW139695   1.530   1.124   1.098 -1.6757  0.6168  1.3695
 9354SOL    HW239696   1.508   0.993   1.160 -0.1918  0.7210 -0.3862
 9355SOL     OW39697   0.553   3.959   9.721  0.8639 -0.2344 -0.3536
 9355SOL    HW139698   0.543   3.877   9.769  0.2181  0.2867  0.3911
 9355SOL    HW239699   0.647   3.977   9.716  0.4490  1.9576 -0.1969
 9356SOL     OW39700   0.927   0.405   4.426  0.0377 -0.1221 -0.3306
 9356SOL    HW139701   0.992   0.476   4.427 -0.8896  0.7121  2.3322
 9356SOL    HW239702   0.853   0.452   4.466  0.2730 -1.3647  1.5400
 9357SOL     OW39703   3.415   3.675   7.742 -0.2495 -0.1294  0.1781
 9357SOL    HW139704   3.423   3.702   7.651  2.6279 -0.9371  0.1861
 9357SOL    HW239705   3.464   3.735   7.797 -0.3517 -0.3292  0.4880
 9358SOL     OW39706   2.372   0.041   2.574 -0.2997 -0.2206  0.3030
 9358SOL    HW139707   2.375   0.124   2.623  0.4895  0.2360 -0.5239
 9358SOL    HW239708   2.344   0.070   2.487  1.7696 -0.1090 -0.3171
 9359SOL     OW39709   2.205   1.701  13.047 -0.1813  0.4251 -0.0023
 9359SOL    HW139710   2.157   1.659  13.119 -0.8516 -0.5220 -0.9951
 9359SOL    HW239711   2.291   1.721  13.084  0.3920 -0.9274 -0.6055
 9360SOL     OW39712   2.426   2.770   8.466  0.1266  0.3808  0.2239
 9360SOL    HW139713   2.455   2.680   8.455 -0.4469  0.4282 -1.6556
 9360SOL    HW239714   2.407   2.796   8.376 -0.9855  0.3777  0.4556
 9361SOL     OW39715   1.201   2.823  13.666  0.3186  0.1597 -0.1478
 9361SOL    HW139716   1.246   2.906  13.649 -2.9338  2.1585  1.0141
 9361SOL    HW239717   1.175   2.839  13.757  0.4214  0.2136 -0.1283
 9362SOL     OW39718   3.531   3.229  15.855 -0.1528  0.8719  0.6117
 9362SOL    HW139719   3.562   3.157  15.800 -1.9632  0.1275  0.5834
 9362SOL    HW239720   3.615   3.275  15.865  0.5086 -0.4732  1.2593
 9363SOL     OW39721   4.537   2.409   7.890 -0.6135  0.4026  0.2775
 9363SOL    HW139722   4.628   2.437   7.877 -0.2949 -0.8761 -0.1842
 9363SOL    HW239723   4.527   2.427   7.983 -0.0837 -2.0222  0.7932
 9364SOL     OW39724   2.972   4.078  13.807 -0.0538 -0.6277  0.6594
 9364SOL    HW139725   2.983   4.029  13.726 -0.4693  2.7381 -1.4473
 9364SOL    HW239726   3.055   4.122  13.823  0.8391 -2.3087  0.5428
 9365SOL     OW39727   4.360   1.563   9.981  0.3085 -0.0478  0.2256
 9365SOL    HW139728   4.372   1.638   9.924  0.0116  0.7814  1.2580
 9365SOL    HW239729   4.339   1.598  10.067 -1.5981  2.9450 -1.4738
 9366SOL     OW39730   1.354   2.593   2.407 -0.0551  0.5804 -0.1001
 9366SOL    HW139731   1.419   2.554   2.349 -1.6453 -3.1900  0.6330
 9366SOL    HW239732   1.365   2.539   2.484 -1.6031  1.2201  0.5880
 9367SOL     OW39733   0.975   1.119  16.418  0.4774 -0.3622 -0.3768
 9367SOL    HW139734   0.952   1.030  16.392  1.2896 -0.0972 -2.0396
 9367SOL    HW239735   0.947   1.172  16.343 -0.6773 -1.6857 -0.8790
 9368SOL     OW39736   4.064   1.679   1.835  0.4766  0.1173 -0.0486
 9368SOL    HW139737   4.084   1.676   1.929 -1.0991 -1.8264  0.2277
 9368SOL    HW239738   4.002   1.606   1.832 -0.1883  0.7753 -2.5044
 9369SOL     OW39739   0.043   4.641   3.199 -0.0891 -0.2421  0.5507
 9369SOL    HW139740   0.013   4.651   3.109 -1.3454 -0.8937  0.8978
 9369SOL    HW239741   4.699   4.605   3.237 -0.4637  0.0462  0.0374
 9370SOL     OW39742   1.519   0.085   6.447 -0.0773  0.0090 -0.1178
 9370SOL    HW139743   1.480   0.087   6.534 -1.9544 -0.3886 -0.9547
 9370SOL    HW239744   1.447   0.051   6.394 -0.7090 -0.7938  1.2630
 9371SOL     OW39745   3.519   3.104   8.822  0.4992 -0.1651 -0.0524
 9371SOL    HW139746   3.524   3.015   8.859 -2.4256  0.3809  1.6241
 9371SOL    HW239747   3.603   3.134   8.859 -0.1438  0.8868  0.5598
 9372SOL     OW39748   3.903   0.397   1.679  0.6447  0.2888  0.0695
 9372SOL    HW139749   3.950   0.389   1.763  2.6660  2.6204 -0.8295
 9372SOL    HW239750   3.947   0.478   1.654  2.4155 -1.1012 -1.2913
 9373SOL     OW39751   2.338   4.318   2.931  0.2243 -0.7572  0.1005
 9373SOL    HW139752   2.278   4.282   2.997 -0.7181 -1.7716 -1.3051
 9373SOL    HW239753   2.408   4.254   2.919 -0.0230 -1.0883  0.4274
 9374SOL     OW39754   0.224   3.293   6.008 -0.3064 -0.4817 -0.3894
 9374SOL    HW139755   0.237   3.388   6.001 -0.5787 -0.5931 -2.3649
 9374SOL    HW239756   0.315   3.265   6.000 -1.5256 -4.4949  0.1382
 9375SOL     OW39757   2.674   3.046   9.910  0.4675  0.0369  0.0760
 9375SOL    HW139758   2.614   3.003   9.850  0.8016 -0.9297  0.4408
 9375SOL    HW239759   2.641   3.134   9.928 -2.0798 -0.7619 -0.8060
 9376SOL     OW39760   3.689   1.678  17.109  0.2285  0.4121 -0.3294
 9376SOL    HW139761   3.640   1.644  17.034 -1.5035 -1.4436  1.6687
 9376SOL    HW239762   3.760   1.729  17.070 -1.2843  0.5492 -2.9639
 9377SOL     OW39763   3.055   2.672   5.352 -0.0264 -0.2298 -0.6064
 9377SOL    HW139764   3.076   2.605   5.418 -2.5013  1.4660  1.9258
 9377SOL    HW239765   3.006   2.613   5.294 -1.6800  1.6819 -1.1719
 9378SOL     OW39766   2.740   0.159   3.959 -0.4905  0.2441 -0.3350
 9378SOL    HW139767   2.706   0.113   3.882 -2.4454  0.5105  0.3733
 9378SOL    HW239768   2.737   0.247   3.923  0.8422  1.8345  3.4581
 9379SOL     OW39769   3.281   0.421   2.872 -0.2125  0.2015  0.2818
 9379SOL    HW139770   3.284   0.462   2.958  2.9963 -1.4931  0.9921
 9379SOL    HW239771   3.286   0.503   2.823  0.2217  0.1404  0.2226
 9380SOL     OW39772   1.997   0.712   4.225 -0.1646 -0.3196 -0.1119
 9380SOL    HW139773   2.090   0.705   4.203 -0.0486 -0.0066  0.2852
 9380SOL    HW239774   1.951   0.659   4.160  0.8595  0.1114 -1.1838
 9381SOL     OW39775   0.893   4.348  10.802  0.1220  0.3014  0.2056
 9381SOL    HW139776   0.956   4.398  10.751  1.6356 -0.2595  1.4830
 9381SOL    HW239777   0.834   4.404  10.853  2.1461 -0.9370  3.9611
 9382SOL     OW39778   0.705   0.320  10.647 -0.4267  0.4534 -0.0691
 9382SOL    HW139779   0.761   0.353  10.717  1.8698  1.4861 -2.3657
 9382SOL    HW239780   0.771   0.274  10.594  0.1026  1.0747  0.0533
 9383SOL     OW39781   0.665   0.574  10.098 -0.0318 -0.4842 -0.4298
 9383SOL    HW139782   0.570   0.575  10.091  0.0132 -0.4123 -1.0197
 9383SOL    HW239783   0.680   0.614  10.184  1.8120 -1.4355 -0.3189
 9384SOL     OW39784   2.677   1.271   2.848  0.0785  0.4859 -0.3518
 9384SOL    HW139785   2.642   1.296   2.933  0.0293  0.8039 -0.4649
 9384SOL    HW239786   2.772   1.273   2.864  0.1219  0.9594 -0.6317
 9385SOL     OW39787   1.684   0.317   5.883  0.1309  0.3068 -0.2341
 9385SOL    HW139788   1.673   0.314   5.978  1.0128 -3.6498 -0.2610
 9385SOL    HW239789   1.706   0.409   5.865  1.6579  0.1048  0.5748
 9386SOL     OW39790   0.119   3.771   8.570  0.3354 -0.0573  0.1188
 9386SOL    HW139791   0.206   3.752   8.604  0.1144 -0.5830  0.4087
 9386SOL    HW239792   0.092   3.823   8.645 -2.0958  0.1370 -0.8848
 9387SOL     OW39793   1.658   3.569   2.743  0.1443  0.6533  0.2200
 9387SOL    HW139794   1.637   3.522   2.823 -2.1703  1.0939 -0.1382
 9387SOL    HW239795   1.746   3.604   2.757  0.5202 -0.9248  1.8348
 9388SOL     OW39796   4.177   0.773   7.763  0.4413 -0.5243  0.2026
 9388SOL    HW139797   4.231   0.794   7.839  1.9169  1.8374 -1.4845
 9388SOL    HW239798   4.166   0.857   7.719  1.2675 -0.3254  0.3730
 9389SOL     OW39799   2.208   2.325   7.701  0.0593 -0.1870  0.7153
 9389SOL    HW139800   2.287   2.318   7.648 -0.2297  1.3453  0.0900
 9389SOL    HW239801   2.176   2.235   7.690 -1.1577  0.4228 -0.7657
 9390SOL     OW39802   0.814   1.159   8.181 -0.3938  0.1960 -0.2275
 9390SOL    HW139803   0.828   1.188   8.272 -1.2891 -0.0459 -0.0142
 9390SOL    HW239804   0.882   1.214   8.144 -0.0868  0.6261  0.9637
 9391SOL     OW39805   4.536   0.624   0.050 -0.1521 -0.1105  0.4283
 9391SOL    HW139806   4.600   0.613  17.724 -1.5131  0.1827 -0.8736
 9391SOL    HW239807   4.468   0.647  17.730  2.0966 -1.2133 -2.3552
 9392SOL     OW39808   1.410   4.494   1.749 -0.0871  0.1179 -0.2385
 9392SOL    HW139809   1.346   4.428   1.724 -1.2829  0.2708  2.3990
 9392SOL    HW239810   1.443   4.445   1.825 -0.6350 -0.6114 -0.4739
 9393SOL     OW39811   2.710   2.808  12.410 -0.3538  0.1377 -0.1697
 9393SOL    HW139812   2.754   2.867  12.472  0.8873  0.0332 -0.9587
 9393SOL    HW239813   2.689   2.868  12.338 -1.2308  2.0687  1.6808
 9394SOL     OW39814   0.091   3.496  12.315  0.1550  0.1833 -0.6847
 9394SOL    HW139815   0.146   3.565  12.278 -0.7092 -0.2050 -2.6835
 9394SOL    HW239816   0.005   3.536  12.324 -1.6376 -3.7019 -0.3044
 9395SOL     OW39817   3.935   0.247  17.401 -0.4257 -0.8951  0.1278
 9395SOL    HW139818   3.973   0.248  17.489  0.3094  1.1998 -0.1974
 9395SOL    HW239819   3.906   0.338  17.394  0.3366 -0.6768 -0.1994
 9396SOL     OW39820   4.693   3.014   3.075 -0.6286 -0.0001  0.2798
 9396SOL    HW139821   0.045   2.978   3.083 -0.2563  0.5876 -1.1846
 9396SOL    HW239822   4.694   3.042   2.983 -1.1236 -2.4931 -0.4894
 9397SOL     OW39823   4.680   4.592   8.510  0.0726  0.1881  0.0618
 9397SOL    HW139824   0.029   4.627   8.533  0.9584 -1.6652 -0.3528
 9397SOL    HW239825   4.690   4.521   8.445  1.0945 -1.1007  1.6368
 9398SOL     OW39826   0.547   2.748  12.369  0.4686  0.1559 -0.5172
 9398SOL    HW139827   0.590   2.687  12.428 -1.2240 -0.3911  0.1553
 9398SOL    HW239828   0.611   2.819  12.374 -1.3683  1.8362 -0.5469
 9399SOL     OW39829   4.214   2.198  17.265  0.1251 -0.4149  0.1548
 9399SOL    HW139830   4.150   2.269  17.262  0.5144 -0.1208 -1.1147
 9399SOL    HW239831   4.239   2.201  17.173  2.5436 -1.1997  0.7671
 9400SOL     OW39832   1.447   0.147  11.257 -0.1593 -0.3990  0.9650
 9400SOL    HW139833   1.385   0.103  11.316 -1.4204  0.9086  0.6084
 9400SOL    HW239834   1.528   0.135  11.307  1.1518  0.5394 -0.9549
 9401SOL     OW39835   4.650   3.607   3.717 -0.1241  0.5558 -0.2491
 9401SOL    HW139836   4.588   3.579   3.649  1.3509  1.4207 -1.9483
 9401SOL    HW239837   4.700   3.671   3.667 -0.3502  2.9284  2.5554
 9402SOL     OW39838   4.642   4.580   7.741  0.2392 -0.0319  0.1573
 9402SOL    HW139839   4.715   4.519   7.726 -0.2128 -0.5067 -0.0877
 9402SOL    HW239840   4.689   4.664   7.743 -0.4872  0.4014 -0.7800
 9403SOL     OW39841   1.661   0.784   6.637  0.4481  0.0480 -0.3013
 9403SOL    HW139842   1.615   0.714   6.589  0.6883 -1.3272  1.5017
 9403SOL    HW239843   1.620   0.772   6.722 -2.3099 -0.7951 -1.7275
 9404SOL     OW39844   3.397   4.633  16.049  0.5179 -0.2286 -0.0756
 9404SOL    HW139845   3.315   4.596  16.018  1.0974 -0.4403 -1.3610
 9404SOL    HW239846   3.431   4.567  16.110  3.7704 -1.4496 -3.1802
 9405SOL     OW39847   2.968   3.327   0.739 -0.0345  0.9135 -0.4590
 9405SOL    HW139848   2.894   3.340   0.799  0.2529  0.7298 -0.0664
 9405SOL    HW239849   3.008   3.249   0.777 -0.8785  1.1486  0.9077
 9406SOL     OW39850   1.537   1.085   0.253  0.0750  0.1846  0.1499
 9406SOL    HW139851   1.466   1.139   0.289  0.8399  1.1433  0.2260
 9406SOL    HW239852   1.515   0.995   0.275 -1.0270 -0.1972 -2.6821
 9407SOL     OW39853   0.270   1.633   3.634  0.0007  0.0398  0.4995
 9407SOL    HW139854   0.363   1.646   3.616 -0.2101  0.8600 -0.0245
 9407SOL    HW239855   0.237   1.575   3.565 -0.8023  1.3709 -0.2427
 9408SOL     OW39856   3.667   3.993   2.633 -0.5819 -0.1633  0.4025
 9408SOL    HW139857   3.625   4.013   2.549 -0.2707  1.2797  0.5908
 9408SOL    HW239858   3.726   4.066   2.650  0.6542 -1.2668  0.8214
 9409SOL     OW39859   3.206   2.338   4.546 -0.0026  0.1002 -0.2587
 9409SOL    HW139860   3.216   2.380   4.632  1.4629  0.6729 -0.7049
 9409SOL    HW239861   3.273   2.269   4.544 -1.6142 -1.5079  0.8751
 9410SOL     OW39862   3.279   0.364   9.175  0.2861  0.0405  0.1834
 9410SOL    HW139863   3.259   0.283   9.223  0.7123 -1.0501 -1.4867
 9410SOL    HW239864   3.332   0.411   9.240 -0.6683  0.7278  0.4528
 9411SOL     OW39865   4.247   1.545   6.017  0.0572 -0.1938 -0.1411
 9411SOL    HW139866   4.183   1.616   6.031  1.5993  0.5719  3.0060
 9411SOL    HW239867   4.248   1.512   6.107  1.2213  0.4371  0.0820
 9412SOL     OW39868   0.592   0.167   2.603 -0.0301 -0.3704 -0.3402
 9412SOL    HW139869   0.528   0.188   2.535 -1.1751 -2.1116  0.2097
 9412SOL    HW239870   0.556   0.208   2.682 -0.0400 -1.8958  0.4335
 9413SOL     OW39871   2.102   0.045   7.224  0.3285  0.2256 -0.0081
 9413SOL    HW139872   2.134   0.041   7.314 -0.8441  0.6900  0.4341
 9413SOL    HW239873   2.008   0.037   7.240 -0.2750  1.2629 -3.2212
 9414SOL     OW39874   2.752   2.492   4.476  0.6015  0.0987  0.1588
 9414SOL    HW139875   2.841   2.461   4.456  1.0782  0.8275  1.1699
 9414SOL    HW239876   2.696   2.443   4.416 -0.5324  0.6904  0.7473
 9415SOL     OW39877   1.869   3.969   6.051 -0.4781 -0.4339  0.2112
 9415SOL    HW139878   1.901   3.922   5.975 -2.3438 -1.0335 -0.1930
 9415SOL    HW239879   1.947   4.016   6.081  0.3658 -1.5738 -0.1842
 9416SOL     OW39880   3.953   1.760  16.669 -0.1980  0.0512 -0.3411
 9416SOL    HW139881   3.953   1.667  16.689  1.6162  0.5962  2.2789
 9416SOL    HW239882   3.984   1.754  16.579 -0.1960 -1.7963 -0.2066
 9417SOL     OW39883   1.116   0.995  14.762  0.4724 -0.4225 -0.0301
 9417SOL    HW139884   1.163   1.076  14.782 -1.1900  0.5660 -0.1608
 9417SOL    HW239885   1.079   0.983  14.849  0.5705 -0.3679  0.0194
 9418SOL     OW39886   0.759   0.222   6.262 -0.1609 -0.0090 -0.1604
 9418SOL    HW139887   0.801   0.305   6.287  0.4811 -0.8785  1.6697
 9418SOL    HW239888   0.828   0.161   6.287 -1.7724 -0.5227  2.9923
 9419SOL     OW39889   3.243   4.622  14.183 -0.2706 -1.0575  0.0137
 9419SOL    HW139890   3.279   4.632  14.095  1.5747  0.1529  0.9040
 9419SOL    HW239891   3.327   4.620  14.228 -0.5036  0.0971  0.5101
 9420SOL     OW39892   4.233   2.013   6.562  0.1335 -0.0416 -0.4184
 9420SOL    HW139893   4.315   2.029   6.609  0.4862  1.8927 -1.7130
 9420SOL    HW239894   4.241   2.078   6.492  0.2759 -0.4258 -0.7577
 9421SOL     OW39895   4.681   3.792  10.443 -0.0188 -0.1905  0.3058
 9421SOL    HW139896   0.032   3.810  10.480  0.5206 -0.3285 -0.9054
 9421SOL    HW239897   4.707   3.763  10.356 -0.5118  1.2195 -0.3142
 9422SOL     OW39898   1.646   3.785  15.894 -0.0122  0.2357 -0.1398
 9422SOL    HW139899   1.738   3.787  15.868  0.1842 -0.8277  0.4744
 9422SOL    HW239900   1.656   3.851  15.963 -1.8143 -0.4551  0.7780
 9423SOL     OW39901   0.007   3.204   7.435 -0.4823 -0.5653  0.1549
 9423SOL    HW139902   4.708   3.278   7.485  1.1833  0.5319 -0.2722
 9423SOL    HW239903   4.693   3.221   7.356  0.5547  1.6671 -0.0151
 9424SOL     OW39904   3.708   2.888   6.810  0.0420 -0.3733  0.2691
 9424SOL    HW139905   3.753   2.853   6.733 -1.1147 -0.7730 -0.2225
 9424SOL    HW239906   3.763   2.965   6.824  1.7549 -1.2815 -1.4617
 9425SOL     OW39907   0.102   4.368   7.786 -0.5328  0.0029  0.3139
 9425SOL    HW139908   0.158   4.402   7.716  0.2366  1.4848  1.6636
 9425SOL    HW239909   0.146   4.286   7.810 -0.9592 -0.7492 -1.4309
 9426SOL     OW39910   0.589   0.226  12.145 -0.0540 -0.0035 -0.4879
 9426SOL    HW139911   0.652   0.187  12.205 -0.3514  0.0968 -0.1052
 9426SOL    HW239912   0.523   0.158  12.133  0.9956 -0.6716 -2.4787
 9427SOL     OW39913   0.868   4.198   5.788 -0.2579  0.0804  0.0593
 9427SOL    HW139914   0.879   4.125   5.727  0.6561 -1.3721  1.9492
 9427SOL    HW239915   0.810   4.170   5.859  1.8925 -0.1226  1.7389
 9428SOL     OW39916   0.082   2.723   6.375  0.2357 -0.7807  0.6901
 9428SOL    HW139917   0.119   2.802   6.334 -0.5245 -0.4097  0.7133
 9428SOL    HW239918   4.725   2.747   6.380 -0.0230 -1.5791 -0.4128
 9429SOL     OW39919   0.908   3.552   2.142 -0.5375 -0.3612 -0.4652
 9429SOL    HW139920   0.987   3.543   2.195 -1.0606  2.4347  0.7813
 9429SOL    HW239921   0.846   3.572   2.212 -1.0620 -1.6062 -0.5616
 9430SOL     OW39922   0.779   2.964   5.676 -0.2279  0.0541 -0.0977
 9430SOL    HW139923   0.801   3.025   5.746  0.3396  0.8688 -0.9775
 9430SOL    HW239924   0.862   2.918   5.665 -2.1813 -3.3511 -0.7123
 9431SOL     OW39925   0.400   2.376   7.045 -0.3460  0.6192 -0.2650
 9431SOL    HW139926   0.343   2.299   7.051 -1.0293  1.0758 -0.8801
 9431SOL    HW239927   0.355   2.431   7.109  2.3260 -0.1419  2.2692
 9432SOL     OW39928   4.270   4.344  17.117  0.0963 -0.1475  0.4466
 9432SOL    HW139929   4.176   4.354  17.099  0.2296  0.3794  0.0209
 9432SOL    HW239930   4.291   4.428  17.076  1.8676 -1.0727 -0.5336
 9433SOL     OW39931   2.213   3.345   5.660 -0.2143  0.0386 -0.1919
 9433SOL    HW139932   2.122   3.339   5.686  0.3099  1.4347  1.9775
 9433SOL    HW239933   2.242   3.401   5.732  0.2717  0.0569 -0.3972
 9434SOL     OW39934   0.125   3.682   1.653 -0.4102 -0.1840  0.0079
 9434SOL    HW139935   0.100   3.772   1.634  0.9700  0.1743 -0.1234
 9434SOL    HW239936   0.041   3.637   1.659  1.3480 -3.8037 -1.9925
 9435SOL     OW39937   3.742   2.582   3.574  0.0984  0.9379  0.5492
 9435SOL    HW139938   3.652   2.614   3.577 -0.0627  0.7488 -2.3240
 9435SOL    HW239939   3.731   2.502   3.625 -2.3870  1.2020  0.4263
 9436SOL     OW39940   1.802   0.079   8.432  0.0962  0.1200 -0.0691
 9436SOL    HW139941   1.835   0.015   8.496  1.9685  1.1001 -0.0596
 9436SOL    HW239942   1.715   0.097   8.468 -0.0965 -0.1034 -0.4264
 9437SOL     OW39943   0.375   4.235   6.947  0.4126  0.2098  0.0356
 9437SOL    HW139944   0.369   4.213   6.854  0.2495 -1.1021  0.3573
 9437SOL    HW239945   0.288   4.207   6.976 -0.0937 -0.3736 -2.0421
 9438SOL     OW39946   0.643   1.425  16.554  0.7048  0.1902  0.3388
 9438SOL    HW139947   0.609   1.419  16.644  0.5977  1.0848  0.3587
 9438SOL    HW239948   0.601   1.500  16.511 -1.3602  0.2015  2.3586
 9439SOL     OW39949   2.347   0.007  10.219  0.4943 -0.0509  0.3327
 9439SOL    HW139950   2.373   0.025  10.310  1.7377 -1.0963  0.1772
 9439SOL    HW239951   2.302   0.089  10.198 -0.3284  0.2248  3.1271
 9440SOL     OW39952   3.387   0.154  16.114  0.2896 -0.3267  0.0848
 9440SOL    HW139953   3.382   0.064  16.084  0.5546  0.0603 -1.1150
 9440SOL    HW239954   3.400   0.141  16.208 -0.8172  2.2753  0.6000
 9441SOL     OW39955   3.354   2.062  15.179  0.5368 -0.0357  0.0620
 9441SOL    HW139956   3.298   2.132  15.213  1.5089  1.0943 -0.6701
 9441SOL    HW239957   3.393   2.107  15.104 -1.8460  0.3074 -0.9638
 9442SOL     OW39958   0.701   0.105   7.920 -0.1975  0.5073 -0.3015
 9442SOL    HW139959   0.619   0.100   7.870 -0.2984  0.8185 -0.1653
 9442SOL    HW239960   0.767   0.066   7.864 -0.1050 -1.7524  1.3782
 9443SOL     OW39961   0.991   0.956  12.397  0.4427 -0.6056 -0.2694
 9443SOL    HW139962   1.080   0.988  12.380  0.0620  0.5327 -0.0702
 9443SOL    HW239963   0.955   1.039  12.427 -1.8612 -1.8414  0.3375
 9444SOL     OW39964   2.672   2.292   6.526 -0.6680  0.0506  0.2492
 9444SOL    HW139965   2.670   2.347   6.447 -0.1515  1.3720  1.1415
 9444SOL    HW239966   2.611   2.219   6.517 -2.5135  1.5221  0.8906
 9445SOL     OW39967   1.279   3.738   2.708 -0.0566 -0.1740  0.6960
 9445SOL    HW139968   1.203   3.778   2.749 -2.3963 -1.9581 -1.7993
 9445SOL    HW239969   1.338   3.747   2.783 -0.9445  1.4294  1.1953
 9446SOL     OW39970   4.418   3.117  15.281 -0.3300  0.1579  0.0686
 9446SOL    HW139971   4.465   3.064  15.345 -0.1109 -0.1987 -0.3856
 9446SOL    HW239972   4.470   3.104  15.202  0.4976  1.1400  0.4469
 9447SOL     OW39973   2.005   3.607   4.575 -0.2600  0.5335  0.0599
 9447SOL    HW139974   2.061   3.534   4.603 -0.5326 -1.1064 -3.5335
 9447SOL    HW239975   2.013   3.663   4.651  2.8261  0.1233  0.0452
 9448SOL     OW39976   4.201   4.527   8.811 -0.0090 -0.3023  0.2585
 9448SOL    HW139977   4.234   4.612   8.782 -0.1847 -0.8673 -1.6446
 9448SOL    HW239978   4.141   4.500   8.740  1.2883  0.1427 -1.0040
 9449SOL     OW39979   4.133   1.374   5.524  0.2661 -0.0873 -0.4213
 9449SOL    HW139980   4.144   1.381   5.619  1.2296 -1.2788 -0.4332
 9449SOL    HW239981   4.223   1.353   5.497  0.0398 -1.1594 -0.3299
 9450SOL     OW39982   4.554   2.770  12.172 -0.0534 -0.4591  0.1596
 9450SOL    HW139983   4.570   2.854  12.215  1.7996 -0.8699  0.2830
 9450SOL    HW239984   4.637   2.726  12.191  1.9407  2.9934 -0.5187
 9451SOL     OW39985   1.193   0.694   1.463  0.0036  0.0564  0.5667
 9451SOL    HW139986   1.265   0.641   1.496 -0.3366 -0.6590  0.1623
 9451SOL    HW239987   1.225   0.784   1.449  0.0035  0.0062  0.2471
 9452SOL     OW39988   4.206   2.319   6.700 -0.3646 -0.0838  0.0154
 9452SOL    HW139989   4.222   2.322   6.794 -0.0091  1.3887 -0.0862
 9452SOL    HW239990   4.266   2.247   6.678 -0.6519 -0.4163  0.3293
 9453SOL     OW39991   3.180   0.151   9.326  0.0667  0.0474 -0.4236
 9453SOL    HW139992   3.110   0.110   9.277  0.5819  1.2775 -2.1852
 9453SOL    HW239993   3.207   0.078   9.383 -0.6709  0.4092  0.3953
 9454SOL     OW39994   1.113   4.444   7.571  0.1134 -0.3037  0.3686
 9454SOL    HW139995   1.122   4.536   7.547  0.2852 -0.4352 -0.0869
 9454SOL    HW239996   1.019   4.442   7.591  0.3998 -0.7362  1.6826
 9455SOL     OW39997   3.258   2.804   7.009 -0.3352  0.0927  0.1537
 9455SOL    HW139998   3.252   2.898   7.023  0.5422  0.1960 -0.1778
 9455SOL    HW239999   3.297   2.803   6.921  0.7849  0.4093  0.6437
 9456SOL     OW40000   2.156   2.925   9.372  0.2370 -0.9551 -0.8825
 9456SOL    HW140001   2.216   2.859   9.410  0.7716  0.0720  0.0717
 9456SOL    HW240002   2.158   2.903   9.279 -0.9111 -2.7129 -0.4938
 9457SOL     OW40003   0.585   2.381  14.626  0.0876  0.2739  0.6426
 9457SOL    HW140004   0.497   2.357  14.655 -0.7533  0.2073 -2.0282
 9457SOL    HW240005   0.590   2.347  14.537 -0.9155  0.9024  0.3555
 9458SOL     OW40006   4.549   0.270   4.092 -0.5024  0.1638  0.2820
 9458SOL    HW140007   4.641   0.296   4.085 -0.8237  0.4785 -2.7753
 9458SOL    HW240008   4.502   0.308   4.018 -0.7679 -0.1348  0.2959
 9459SOL     OW40009   2.926   0.298   8.257  0.2597  0.0831 -0.7304
 9459SOL    HW140010   2.862   0.323   8.190  0.2506  0.9259 -0.4117
 9459SOL    HW240011   2.902   0.350   8.334  1.0192 -0.2210 -0.2916
 9460SOL     OW40012   2.538   2.550   8.355 -0.1275 -0.3271  0.4585
 9460SOL    HW140013   2.549   2.497   8.275  0.6164  1.0677 -0.3577
 9460SOL    HW240014   2.624   2.587   8.374 -0.6529  2.0989 -1.8654
 9461SOL     OW40015   3.731   2.871   7.383 -0.3596 -0.1862 -0.6023
 9461SOL    HW140016   3.719   2.793   7.437  0.9311  0.1850  0.2189
 9461SOL    HW240017   3.641   2.880   7.353  0.4477  0.0535 -2.9702
 9462SOL     OW40018   2.411   2.651   4.088  0.3096 -0.0195 -0.4984
 9462SOL    HW140019   2.452   2.602   4.159  0.0722 -0.0116 -0.3588
 9462SOL    HW240020   2.452   2.736   4.102 -0.1847 -0.2722  2.3757
 9463SOL     OW40021   3.087   0.883   4.540  0.1434 -0.0814  0.0953
 9463SOL    HW140022   3.053   0.796   4.518  0.4962 -0.8885  2.7961
 9463SOL    HW240023   3.114   0.913   4.453  1.3740 -3.0066 -0.5557
 9464SOL     OW40024   3.031   3.271   4.027  0.3253  0.3336 -0.1458
 9464SOL    HW140025   2.950   3.254   3.979  0.0801 -0.4003  0.5365
 9464SOL    HW240026   2.997   3.294   4.113 -1.0756 -0.9319 -0.3559
 9465SOL     OW40027   4.361   2.319   2.126 -0.5253 -0.0627  0.5351
 9465SOL    HW140028   4.302   2.278   2.189 -0.1380  0.4874  1.2512
 9465SOL    HW240029   4.322   2.406   2.109  1.0216  0.1997 -1.7059
 9466SOL     OW40030   2.719   2.672   9.915 -0.0840  0.5459 -0.1240
 9466SOL    HW140031   2.687   2.670   9.825  2.0356 -1.0370 -0.8475
 9466SOL    HW240032   2.646   2.724   9.946 -0.1858  0.9172 -0.9986
 9467SOL     OW40033   1.286   2.410   8.527 -0.1817  0.3181  0.7502
 9467SOL    HW140034   1.381   2.398   8.538 -0.2334  0.9564  1.8560
 9467SOL    HW240035   1.288   2.422   8.432 -0.4863  0.2718  0.7377
 9468SOL     OW40036   4.646   2.385  12.359  0.0354  0.2767 -0.3089
 9468SOL    HW140037   4.709   2.314  12.346 -1.4556 -1.0863 -0.1703
 9468SOL    HW240038   4.669   2.438  12.435  1.8303 -2.3765  0.9830
 9469SOL     OW40039   0.204   3.355   6.359  0.0101 -0.0511  0.0705
 9469SOL    HW140040   0.121   3.392   6.392 -1.2073  0.1898 -3.2986
 9469SOL    HW240041   0.263   3.360   6.434 -2.2040 -0.1766  1.8516
 9470SOL     OW40042   3.408   2.171  16.351  0.2197 -0.3148  0.1458
 9470SOL    HW140043   3.498   2.144  16.371  1.0795  2.9605  0.7413
 9470SOL    HW240044   3.358   2.092  16.333  1.6399 -0.9934 -0.8202
 9471SOL     OW40045   0.074   2.041   9.542 -0.3440  0.2685 -0.3649
 9471SOL    HW140046   0.044   2.124   9.506  0.1370  0.7654  0.3764
 9471SOL    HW240047   0.044   2.040   9.634 -2.3836  0.1534 -1.0195
 9472SOL     OW40048   1.022   4.719   3.664  0.8725 -0.0487 -0.1229
 9472SOL    HW140049   1.008   4.634   3.622  1.7051 -0.3945  0.2960
 9472SOL    HW240050   1.110   4.724   3.702  0.7017 -0.1037  0.2805
 9473SOL     OW40051   0.519   1.829   9.179 -0.0004  0.2239 -0.1481
 9473SOL    HW140052   0.464   1.759   9.213 -0.0921  0.7268  0.7388
 9473SOL    HW240053   0.547   1.787   9.098 -2.9176 -0.6091 -0.7109
 9474SOL     OW40054   3.750   0.885  14.191  0.3725 -0.4414 -0.1328
 9474SOL    HW140055   3.790   0.805  14.225  2.0820 -0.4884 -2.2113
 9474SOL    HW240056   3.823   0.900  14.131 -0.5842  3.7452 -0.2644
 9475SOL     OW40057   3.267   2.538   2.352  0.8042 -0.2624  0.1790
 9475SOL    HW140058   3.292   2.505   2.438 -0.9471 -1.8047  0.0938
 9475SOL    HW240059   3.238   2.625   2.378 -1.2096 -1.2673  1.2628
 9476SOL     OW40060   3.190   4.574   9.735 -0.0292  0.1290  0.2368
 9476SOL    HW140061   3.223   4.607   9.819  0.9817  2.4758 -1.0560
 9476SOL    HW240062   3.115   4.522   9.763 -1.2472  0.7308 -1.8814
 9477SOL     OW40063   3.662   3.580   6.450  0.4284  0.0135 -0.1867
 9477SOL    HW140064   3.574   3.556   6.422  0.3598  2.0902 -1.7702
 9477SOL    HW240065   3.708   3.582   6.366  2.3497 -0.6485  0.8386
 9478SOL     OW40066   3.050   2.749   3.945  0.4434 -0.0308  0.0408
 9478SOL    HW140067   3.006   2.822   3.903  1.6356  0.2780 -0.6679
 9478SOL    HW240068   3.036   2.683   3.877 -2.0293 -1.2945  1.7527
 9479SOL     OW40069   1.845   1.544   4.236 -0.1080 -0.1457  0.3709
 9479SOL    HW140070   1.899   1.527   4.313  0.7509 -0.0208 -0.2046
 9479SOL    HW240071   1.912   1.541   4.168 -0.7982  0.4585 -0.3433
 9480SOL     OW40072   4.050   4.317   9.572  0.3569  0.5725 -0.1000
 9480SOL    HW140073   3.968   4.319   9.621  0.5379 -0.5935  0.2670
 9480SOL    HW240074   4.066   4.223   9.565 -2.9974  0.1643 -1.6634
 9481SOL     OW40075   4.653   0.695   6.950 -0.0607  0.3994  0.0742
 9481SOL    HW140076   4.676   0.788   6.947 -0.7549  0.5850  0.5015
 9481SOL    HW240077   4.666   0.667   7.040 -2.2873 -0.5117  0.1208
 9482SOL     OW40078   0.145   4.306   3.000  0.4003  0.3607 -0.7537
 9482SOL    HW140079   0.163   4.246   3.072 -0.1120  0.1952 -0.7650
 9482SOL    HW240080   0.224   4.311   2.946  1.5513  1.6736  1.1052
 9483SOL     OW40081   2.963   2.482  13.540  0.0184 -0.0730 -0.3200
 9483SOL    HW140082   2.935   2.480  13.448  0.8785  0.9391 -0.6018
 9483SOL    HW240083   2.894   2.473  13.605  0.0945 -1.4443 -0.4211
 9484SOL     OW40084   4.168   2.996   6.131  0.5734 -0.0104  0.2209
 9484SOL    HW140085   4.120   2.913   6.137  1.0555 -0.2720  0.4578
 9484SOL    HW240086   4.187   3.005   6.224 -0.3557 -1.5222  0.5562
 9485SOL     OW40087   3.285   3.285  13.680 -0.2107 -0.3720 -0.1455
 9485SOL    HW140088   3.270   3.269  13.587 -1.1847 -1.1055  0.1402
 9485SOL    HW240089   3.339   3.210  13.707  0.9021  0.2161 -0.7330
 9486SOL     OW40090   0.152   1.594  10.893 -0.5601 -0.8232 -0.7121
 9486SOL    HW140091   0.089   1.641  10.948  1.3486  0.2440  0.5596
 9486SOL    HW240092   0.215   1.567  10.960 -0.0941  1.1164 -0.3793
 9487SOL     OW40093   3.544   4.685  12.854 -0.5678 -0.7969 -0.6230
 9487SOL    HW140094   3.605   0.011  12.894 -1.7610 -0.3896  0.5490
 9487SOL    HW240095   3.464   4.734  12.871 -0.5035 -0.8719 -0.1149
 9488SOL     OW40096   4.613   2.359   2.728  1.0386 -0.4081 -0.0950
 9488SOL    HW140097   4.706   2.349   2.747  0.8793  1.8268  1.7976
 9488SOL    HW240098   4.586   2.448   2.749 -3.3684 -1.7991  0.1282
 9489SOL     OW40099   3.106   1.073   6.941  0.1641  0.4231 -0.2780
 9489SOL    HW140100   3.044   1.118   6.884 -1.8530 -0.9950  0.7993
 9489SOL    HW240101   3.055   1.048   7.018 -0.0444 -0.3112 -0.6471
 9490SOL     OW40102   2.778   3.055   4.313 -0.2839  0.9068 -0.1926
 9490SOL    HW140103   2.769   2.960   4.322  1.5808  0.8178  0.7202
 9490SOL    HW240104   2.763   3.076   4.405  1.8813 -0.1770  0.3993
 9491SOL     OW40105   0.329   0.542  17.699  0.1630 -0.0624  0.2133
 9491SOL    HW140106   0.372   0.628  17.701  0.2695 -0.1132  0.1147
 9491SOL    HW240107   0.305   0.525   0.047 -0.4937 -0.0651  0.0404
 9492SOL     OW40108   3.626   0.093   5.000  0.1904 -0.2772  0.1861
 9492SOL    HW140109   3.621   0.103   4.905  1.1588  2.2167  0.3991
 9492SOL    HW240110   3.696   0.154   5.021  0.5197 -0.4064 -0.5242
 9493SOL     OW40111   0.033   2.164  17.209  0.1889 -1.0917  0.1637
 9493SOL    HW140112   0.027   2.086  17.154  0.1851 -0.0802 -1.2618
 9493SOL    HW240113   0.128   2.158  17.220  0.4861  2.5583 -0.4231
 9494SOL     OW40114   4.452   1.476  14.664  0.0012 -0.4024 -0.2985
 9494SOL    HW140115   4.461   1.569  14.645 -0.8352 -0.3055 -0.2330
 9494SOL    HW240116   4.539   1.440  14.647 -0.2842 -0.9320 -0.6459
 9495SOL     OW40117   1.623   1.684   4.188  0.8813  0.3945  0.1100
 9495SOL    HW140118   1.690   1.632   4.232 -0.7198 -2.5432 -0.8790
 9495SOL    HW240119   1.539   1.652   4.222  1.4714 -2.6194 -1.2471
 9496SOL     OW40120   2.376   0.671   2.538  0.3285 -0.4695  0.9831
 9496SOL    HW140121   2.419   0.665   2.453  1.4503  1.5407  1.4211
 9496SOL    HW240122   2.366   0.765   2.554 -2.5888 -0.4868 -0.7201
 9497SOL     OW40123   0.587   2.693   1.413  0.0371  0.5986 -0.2089
 9497SOL    HW140124   0.575   2.766   1.473  4.0127  1.1578 -0.1246
 9497SOL    HW240125   0.676   2.666   1.432 -0.4435 -1.8653 -1.4118
 9498SOL     OW40126   1.389   1.890   3.551 -0.2569  0.2437 -0.1782
 9498SOL    HW140127   1.358   1.973   3.515  0.3877  0.4608 -0.2316
 9498SOL    HW240128   1.343   1.885   3.634  0.1486 -1.4925 -0.0492
 9499SOL     OW40129   1.800   2.567   2.086 -0.0176 -0.2877 -0.0618
 9499SOL    HW140130   1.863   2.522   2.142 -0.5917  0.1673  0.9494
 9499SOL    HW240131   1.760   2.494   2.038  0.4086  1.0969 -2.4669
 9500SOL     OW40132   1.793   1.095   8.190 -0.2869  0.3909  0.2512
 9500SOL    HW140133   1.720   1.157   8.197 -0.7769 -0.3028  1.3575
 9500SOL    HW240134   1.757   1.023   8.139  1.4791  0.1378 -0.6327
 9501SOL     OW40135   4.357   2.920  12.003 -0.1243  0.4454 -0.5529
 9501SOL    HW140136   4.424   2.857  12.031 -0.5985 -1.2728 -3.2231
 9501SOL    HW240137   4.326   2.945  12.090  0.7903  2.6967 -0.8799
 9502SOL     OW40138   2.653   3.065  17.743 -0.0332 -0.1635 -0.0891
 9502SOL    HW140139   2.688   2.983   0.035  0.5535  0.0328 -0.2129
 9502SOL    HW240140   2.697   3.074  17.658  1.7115  1.9721  1.0391
 9503SOL     OW40141   3.254   2.349   9.001 -0.4865  0.1341 -0.5565
 9503SOL    HW140142   3.316   2.413   9.035 -2.5296  0.6527  2.2378
 9503SOL    HW240143   3.173   2.369   9.049 -0.3021 -1.7038  0.5297
 9504SOL     OW40144   0.972   1.982   2.377  0.6274  0.0633 -0.0165
 9504SOL    HW140145   0.992   2.063   2.330 -0.6021 -0.4493 -1.4442
 9504SOL    HW240146   1.021   1.998   2.457  3.0540  1.2803 -1.7526
 9505SOL     OW40147   2.464   3.363   2.769 -0.3517 -0.4911  0.3788
 9505SOL    HW140148   2.456   3.358   2.674 -0.3122 -0.8945  0.3981
 9505SOL    HW240149   2.529   3.299   2.797  0.8673  0.2655 -0.7031
 9506SOL     OW40150   4.259   2.591   9.863  0.1581  0.3527 -0.1385
 9506SOL    HW140151   4.201   2.530   9.819  0.6846  0.1580 -0.5527
 9506SOL    HW240152   4.277   2.544   9.945  1.2122  2.4604  0.8626
 9507SOL     OW40153   3.207   1.322   6.655  0.1412 -0.0472  0.0176
 9507SOL    HW140154   3.298   1.349   6.639 -0.0767 -0.0669 -1.2211
 9507SOL    HW240155   3.183   1.352   6.567  0.0588 -2.0035 -0.6169
 9508SOL     OW40156   4.519   2.670   3.772 -0.2330  0.3109  0.0076
 9508SOL    HW140157   4.557   2.745   3.726  0.1264  0.8933  1.2675
 9508SOL    HW240158   4.436   2.709   3.797 -0.2905  0.9834 -1.2157
 9509SOL     OW40159   1.261   0.234   4.891  0.7242  1.0733  0.1553
 9509SOL    HW140160   1.259   0.324   4.923  0.7103 -0.0879  3.3676
 9509SOL    HW240161   1.294   0.195   4.972  2.7806  1.0052 -0.7197
 9510SOL     OW40162   3.476   0.593   5.425 -0.3675 -0.4308 -0.2190
 9510SOL    HW140163   3.566   0.619   5.442 -0.7401  0.9677 -0.3708
 9510SOL    HW240164   3.435   0.680   5.429 -0.4879 -0.5344  0.7664
 9511SOL     OW40165   3.987   0.927  14.060 -0.2180  0.0934 -0.7330
 9511SOL    HW140166   4.070   0.887  14.034 -0.3652 -0.5432 -0.2103
 9511SOL    HW240167   4.019   1.018  14.056  1.5250 -0.3882  2.3226
 9512SOL     OW40168   1.532   2.727  15.177  0.2343  0.1467  0.2455
 9512SOL    HW140169   1.556   2.650  15.124 -0.0255  0.8638 -0.9282
 9512SOL    HW240170   1.599   2.790  15.151 -2.2035  1.8445 -1.9895
 9513SOL     OW40171   1.211   0.438   6.834 -0.2719  0.3759  0.2994
 9513SOL    HW140172   1.232   0.468   6.922  0.2137  0.2114  0.2393
 9513SOL    HW240173   1.269   0.362   6.840 -0.0160  0.7754  2.5183
 9514SOL     OW40174   4.632   1.109  14.695 -0.1624  0.2499  0.0702
 9514SOL    HW140175   4.710   1.055  14.702  0.3932  1.1573  0.9704
 9514SOL    HW240176   4.601   1.106  14.605 -2.0890 -1.4362  0.7886
 9515SOL     OW40177   1.201   0.316   0.660 -0.2732 -0.0765  0.0258
 9515SOL    HW140178   1.295   0.319   0.677 -0.7131  2.6062  1.9212
 9515SOL    HW240179   1.201   0.267   0.577  0.1500  0.2533 -0.1761
 9516SOL     OW40180   3.902   2.881   2.251  0.4480 -0.0339  0.1087
 9516SOL    HW140181   3.891   2.868   2.157  0.8699  0.6899 -0.0343
 9516SOL    HW240182   3.930   2.971   2.269 -0.1549  0.4114 -1.2069
 9517SOL     OW40183   1.055   2.672  12.608 -0.5889 -0.1448  0.3455
 9517SOL    HW140184   0.988   2.657  12.675 -1.5521  0.1604 -0.5363
 9517SOL    HW240185   1.097   2.586  12.605  0.1477  0.2388 -0.3703
 9518SOL     OW40186   3.231   1.390  17.577  0.3661 -0.5086 -0.1098
 9518SOL    HW140187   3.248   1.304  17.614  0.0382 -0.3470  0.4274
 9518SOL    HW240188   3.267   1.373  17.490 -0.0114 -0.0158 -0.3570
 9519SOL     OW40189   3.276   3.132   6.762  0.0780  0.1799  0.8119
 9519SOL    HW140190   3.258   3.138   6.669  0.6791 -0.1417  0.6805
 9519SOL    HW240191   3.185   3.140   6.791  0.6711  4.3591  1.5218
 9520SOL     OW40192   3.339   4.700   8.268  0.1904 -0.8017  0.2447
 9520SOL    HW140193   3.364   0.026   8.336  1.4709  1.1101 -2.0267
 9520SOL    HW240194   3.247   4.719   8.249  0.2677 -3.3153 -2.6116
 9521SOL     OW40195   1.287   0.662   6.633  0.1560 -0.4312  0.1654
 9521SOL    HW140196   1.305   0.569   6.626  1.6015 -0.3727  2.5831
 9521SOL    HW240197   1.199   0.654   6.668 -0.8255  1.0341 -2.0187
 9522SOL     OW40198   0.334   3.122  16.843  0.1452  0.1819  0.0364
 9522SOL    HW140199   0.337   3.051  16.779  1.6764 -0.8459  1.2424
 9522SOL    HW240200   0.243   3.126  16.872 -0.7839 -3.7684 -2.3107
 9523SOL     OW40201   3.563   2.516   5.755  0.0864  0.0899  0.0436
 9523SOL    HW140202   3.477   2.491   5.789  0.0637  2.9856  2.0164
 9523SOL    HW240203   3.587   2.600   5.793 -0.3675 -0.2987  1.1831
 9524SOL     OW40204   1.665   0.213   4.693 -0.7388  0.5458  0.0577
 9524SOL    HW140205   1.683   0.188   4.784 -1.5583  1.1481  0.3910
 9524SOL    HW240206   1.580   0.171   4.689  0.7423 -2.3675 -0.5981
 9525SOL     OW40207   1.392   0.557   5.368 -0.4274  0.3942 -0.0635
 9525SOL    HW140208   1.400   0.626   5.302  0.6997 -0.5933 -0.9615
 9525SOL    HW240209   1.413   0.476   5.321  3.7930 -0.3337  3.0735
 9526SOL     OW40210   0.811   2.761  12.540 -0.2617 -0.4940 -0.0799
 9526SOL    HW140211   0.903   2.746  12.521 -0.7014 -0.2364 -2.3307
 9526SOL    HW240212   0.785   2.850  12.518 -0.1954 -0.6610 -0.8142
 9527SOL     OW40213   1.788   3.415   8.597  0.5457  0.2909  0.7727
 9527SOL    HW140214   1.830   3.493   8.632  1.9706 -0.9683  1.8948
 9527SOL    HW240215   1.699   3.444   8.577 -0.4116 -2.2234  1.3623
 9528SOL     OW40216   3.490   4.096   6.219  0.3041  0.0105 -0.5499
 9528SOL    HW140217   3.525   4.110   6.131  0.9327 -1.3341 -0.5204
 9528SOL    HW240218   3.417   4.039   6.196 -2.1178  1.7976  2.6746
 9529SOL     OW40219   2.157   3.359   1.063 -0.0088 -0.0242  0.2276
 9529SOL    HW140220   2.119   3.330   0.980  0.9487  0.2753 -0.3104
 9529SOL    HW240221   2.088   3.418   1.094 -0.9606 -0.8130 -0.3844
 9530SOL     OW40222   2.737   2.558  10.162 -0.0856 -0.2918 -0.7584
 9530SOL    HW140223   2.760   2.589  10.074  1.1906  1.1226  0.0786
 9530SOL    HW240224   2.732   2.642  10.207  0.9438 -0.6599  0.0448
 9531SOL     OW40225   3.941   0.237   4.449  0.0433  0.4925  0.2519
 9531SOL    HW140226   3.991   0.277   4.520 -0.4850  0.8949  0.4007
 9531SOL    HW240227   3.966   0.145   4.456  0.6025  0.4825 -1.9811
 9532SOL     OW40228   3.678   1.304  13.432 -0.1957 -0.4677  0.4068
 9532SOL    HW140229   3.614   1.341  13.493  0.3874 -1.3785  1.5633
 9532SOL    HW240230   3.684   1.373  13.365 -0.5094 -2.0867 -1.3007
 9533SOL     OW40231   4.224   1.781  11.630  0.2007  0.0179 -0.1740
 9533SOL    HW140232   4.192   1.698  11.594 -3.7581  1.3675  0.2443
 9533SOL    HW240233   4.298   1.758  11.686  0.7618 -1.3377 -1.4702
 9534SOL     OW40234   0.430   1.121   9.976  0.3833  0.3268 -0.5521
 9534SOL    HW140235   0.364   1.091  10.038  1.4665  0.3216  0.6032
 9534SOL    HW240236   0.446   1.053   9.910  0.3057 -1.2491  1.0369
 9535SOL     OW40237   2.773   4.366   6.515  0.3984 -0.5420 -0.4741
 9535SOL    HW140238   2.772   4.271   6.525  0.8206 -0.4356  0.5254
 9535SOL    HW240239   2.705   4.397   6.573  2.4817 -0.1404  1.7529
 9536SOL     OW40240   2.379   0.420   0.294 -0.2405  0.4912 -0.3717
 9536SOL    HW140241   2.449   0.472   0.333  1.7202 -0.9741 -1.9148
 9536SOL    HW240242   2.391   0.342   0.348 -0.3259 -0.8855 -2.3238
 9537SOL     OW40243   4.047   4.373   6.099  0.4267 -0.2381 -0.2569
 9537SOL    HW140244   3.960   4.396   6.132 -0.1328  0.1985 -2.0256
 9537SOL    HW240245   4.093   4.349   6.179 -0.1235 -0.2924  0.0362
 9538SOL     OW40246   0.810   4.714   7.348  0.3897 -0.5300  0.6828
 9538SOL    HW140247   0.749   4.640   7.348 -0.7502  0.3883  3.1132
 9538SOL    HW240248   0.832   4.721   7.255  0.2923  0.8143  0.7552
 9539SOL     OW40249   4.547   1.566  16.879 -0.3458 -0.2468 -0.2826
 9539SOL    HW140250   4.546   1.512  16.958 -2.4322  0.0762 -0.1047
 9539SOL    HW240251   4.580   1.509  16.809 -1.5846 -0.7271 -0.4701
 9540SOL     OW40252   1.192   1.718   4.805 -0.7197 -0.2853  0.0722
 9540SOL    HW140253   1.197   1.664   4.884 -0.5930  0.7616  0.7771
 9540SOL    HW240254   1.239   1.661   4.744 -0.4421  1.3385 -1.2273
 9541SOL     OW40255   2.349   4.456   4.854  0.2710 -0.6110  0.1168
 9541SOL    HW140256   2.330   4.371   4.816 -1.1099 -0.9457  1.5739
 9541SOL    HW240257   2.284   4.514   4.814 -0.6983 -2.7627 -1.4083
 9542SOL     OW40258   3.856   2.286  16.316 -0.4506 -0.0044 -0.3191
 9542SOL    HW140259   3.919   2.259  16.249  1.8134  0.8713  1.4470
 9542SOL    HW240260   3.852   2.209  16.373 -0.1994  0.8232  0.8249
 9543SOL     OW40261   4.445   2.307  11.928 -0.3104  0.6091  0.6562
 9543SOL    HW140262   4.493   2.354  11.996  0.2520  2.9225 -1.3580
 9543SOL    HW240263   4.434   2.371  11.858  0.9809 -1.7680 -1.7233
 9544SOL     OW40264   3.254   0.778   8.572 -0.0442 -0.0762  0.4736
 9544SOL    HW140265   3.235   0.842   8.641 -3.4625  0.2102 -0.7081
 9544SOL    HW240266   3.282   0.835   8.500  1.2488  0.2796  1.2648
 9545SOL     OW40267   4.006   0.078  12.270  0.6850 -0.3122  0.0597
 9545SOL    HW140268   4.071   0.098  12.338  0.6558  1.2774 -0.3699
 9545SOL    HW240269   3.954   0.017  12.322 -1.1905 -0.3204 -1.8020
 9546SOL     OW40270   3.037   4.097   9.365  0.7514 -0.3247 -0.1494
 9546SOL    HW140271   3.103   4.138   9.421  1.8458 -0.7050 -1.1614
 9546SOL    HW240272   3.051   4.002   9.368  0.0785 -0.3949  0.8636
 9547SOL     OW40273   1.607   4.364   3.990 -0.1294 -0.2608  0.3773
 9547SOL    HW140274   1.655   4.422   3.931  0.4948  0.6319  1.7619
 9547SOL    HW240275   1.661   4.286   3.987  1.7595  1.0888 -0.4219
 9548SOL     OW40276   0.009   2.330   3.020  0.0048 -0.8919  0.6191
 9548SOL    HW140277   4.681   2.263   3.043 -1.3357  0.3688  0.5242
 9548SOL    HW240278   4.692   2.409   3.012  0.4500 -0.6199  0.3728
 9549SOL     OW40279   3.939   2.890   1.951  0.8581 -0.6299 -0.4831
 9549SOL    HW140280   3.991   2.811   1.933  0.0906 -1.2656  0.1036
 9549SOL    HW240281   3.954   2.941   1.871  0.2338 -0.8106 -0.7134
 9550SOL     OW40282   4.119   3.048   6.860  0.0665  0.1058 -0.3441
 9550SOL    HW140283   4.093   3.011   6.776  1.5789  0.2002 -0.8459
 9550SOL    HW240284   4.031   3.045   6.898 -0.0876 -1.5844 -0.8218
 9551SOL     OW40285   1.653   3.271   4.338 -0.0402 -0.2370 -0.5055
 9551SOL    HW140286   1.729   3.278   4.396 -1.1967  0.7429  0.9007
 9551SOL    HW240287   1.597   3.346   4.361 -1.1485 -0.2978 -2.9691
 9552SOL     OW40288   1.347   3.061  13.802 -0.0585 -0.1089  0.0275
 9552SOL    HW140289   1.425   3.014  13.774  0.7537 -0.0552  2.2329
 9552SOL    HW240290   1.366   3.053  13.895  3.4643 -0.3335 -0.7146
 9553SOL     OW40291   2.507   1.023   6.833 -0.3833 -0.5994  0.1608
 9553SOL    HW140292   2.430   1.077   6.818 -1.4848 -2.4376 -0.8723
 9553SOL    HW240293   2.509   0.980   6.747 -0.0268 -0.4771  0.1078
 9554SOL     OW40294   1.683   0.037   2.448  0.2435 -1.0293 -0.1198
 9554SOL    HW140295   1.637   0.052   2.365  0.9575  1.0603 -0.1454
 9554SOL    HW240296   1.689   4.678   2.439  0.4118 -0.8932 -1.4846
 9555SOL     OW40297   1.679   3.596   8.243 -0.7871  0.0260 -0.3423
 9555SOL    HW140298   1.595   3.569   8.280 -1.0127  1.6636  0.3575
 9555SOL    HW240299   1.654   3.670   8.187 -0.7052 -0.0732 -0.5082
 9556SOL     OW40300   1.574   0.544   4.102  0.3589  0.1673  0.2697
 9556SOL    HW140301   1.540   0.481   4.166 -0.2577  1.1112  0.8719
 9556SOL    HW240302   1.591   0.611   4.168  0.1833 -0.2662  0.7602
 9557SOL     OW40303   0.929   0.686  12.527  0.5251 -0.1082  0.4176
 9557SOL    HW140304   0.953   0.760  12.472  1.2780 -0.0134  0.8714
 9557SOL    HW240305   0.834   0.693  12.526  0.5855  0.5956  0.1577
 9558SOL     OW40306   4.501   1.656   3.767 -0.1704  0.0687  0.0335
 9558SOL    HW140307   4.554   1.727   3.803  1.0414  0.3199 -2.2319
 9558SOL    HW240308   4.570   1.592   3.780 -0.3566 -0.7535 -2.9671
 9559SOL     OW40309   3.436   2.296  11.569 -0.8391  0.4282  0.2643
 9559SOL    HW140310   3.441   2.211  11.526 -1.6551 -0.2049  1.4113
 9559SOL    HW240311   3.432   2.372  11.511 -0.0765  0.4138  0.1903
 9560SOL     OW40312   0.861   1.510   2.884 -0.1874 -0.8757 -0.2387
 9560SOL    HW140313   0.892   1.524   2.974  2.2935  0.2805 -1.2674
 9560SOL    HW240314   0.773   1.548   2.886  0.3710  0.5110 -2.1382
 9561SOL     OW40315   2.335   1.438   0.824 -0.8256  0.4406 -0.0832
 9561SOL    HW140316   2.271   1.419   0.755  0.1043 -3.5373  0.1557
 9561SOL    HW240317   2.343   1.348   0.857  0.1538 -0.5586 -2.9855
 9562SOL     OW40318   2.933   4.273  15.205  0.9703 -0.6327 -0.6551
 9562SOL    HW140319   2.985   4.349  15.179 -0.9651  1.0112  0.2852
 9562SOL    HW240320   2.975   4.261  15.290  0.1165 -1.9115 -0.4168
 9563SOL     OW40321   2.198   1.272   6.045  0.1132  0.0503 -0.1126
 9563SOL    HW140322   2.183   1.364   6.066 -2.5124 -0.1766 -0.9497
 9563SOL    HW240323   2.145   1.214   6.100 -0.0249  0.2885  0.0046
 9564SOL     OW40324   4.353   2.955   7.395 -0.4797 -0.2168  0.7710
 9564SOL    HW140325   4.293   2.883   7.375  0.3931 -0.9395  0.7327
 9564SOL    HW240326   4.434   2.915   7.362 -0.4998 -1.3476  2.0567
 9565SOL     OW40327   2.385   1.875   9.438  0.0838  0.2150 -0.1777
 9565SOL    HW140328   2.308   1.883   9.493 -0.1918 -2.3384 -0.2024
 9565SOL    HW240329   2.441   1.945   9.472  1.5440 -1.2712  0.5037
 9566SOL     OW40330   1.897   4.235   9.641  0.1412  0.0213  1.1063
 9566SOL    HW140331   1.959   4.184   9.588 -1.3317  0.3909 -0.9817
 9566SOL    HW240332   1.895   4.197   9.728 -0.4387 -0.9357  0.6805
 9567SOL     OW40333   3.352   3.618   9.695 -0.0915 -0.5885 -0.3797
 9567SOL    HW140334   3.337   3.683   9.764  1.1288  1.1169 -1.7169
 9567SOL    HW240335   3.393   3.671   9.627 -1.3678  0.3458 -0.4287
 9568SOL     OW40336   3.489   0.187   7.005 -0.1215 -0.2379  0.3948
 9568SOL    HW140337   3.522   0.219   6.921 -0.6381  0.0034  0.2900
 9568SOL    HW240338   3.499   0.092   6.995  0.1471 -0.2002  0.2945
 9569SOL     OW40339   3.182   4.079   9.733  0.0814 -0.5748 -0.4210
 9569SOL    HW140340   3.146   4.146   9.676 -1.8670 -1.2452  0.0174
 9569SOL    HW240341   3.269   4.071   9.694  0.4118  1.3258 -0.0373
 9570SOL     OW40342   3.363   1.587   2.791 -0.3107 -0.3603 -0.2645
 9570SOL    HW140343   3.302   1.518   2.817 -0.5063  0.2505  0.9119
 9570SOL    HW240344   3.300   1.654   2.762 -0.4968 -0.9277 -1.1649
 9571SOL     OW40345   2.664   2.104   9.439 -0.9605 -0.1277 -0.3174
 9571SOL    HW140346   2.699   2.026   9.482 -1.5006 -0.7341 -0.9867
 9571SOL    HW240347   2.585   2.122   9.491  0.7429  1.6048  1.6693
   4.73625   4.73625  17.74356
