Membrane in water
40347
    1TMC1    C1    1   2.182   4.684  12.052  1.0936 -0.3361 -0.1772
    1TMC1    C2    2   2.058   4.721  12.011 -0.9726  0.3625 -0.3189
    1TMC1    C3    3   2.043   0.008  11.879  0.6623  0.1959  0.5531
    1TMC1    C4    4   2.292   4.683  11.967 -0.3712 -0.4276  0.2216
    1TMC1    C5    5   2.274   4.725  11.839 -0.0090 -0.0991  0.3533
    1TMC1    C6    6   2.148   0.013  11.790  0.1274 -0.6023  0.0560
    1TMC1     C    7   2.211   4.653  12.190 -0.2322 -0.2962  0.0933
    1TMC1     O    8   2.322   4.615  12.220  0.0929 -0.0318 -0.2743
    1TMC1     H    9   1.967   4.712  12.069  0.7885 -3.3604  1.9073
    1TMC1    H1   10   2.393   4.685  12.006  0.0518 -2.0296 -0.8231
    1TMC1    H2   11   2.148   0.035  11.684  0.2636  0.3384  0.2509
    1TMC1    C7   12   2.394   4.700  11.762  0.0392 -0.0697  0.0325
    1TMC1    C8   13   1.902   0.037  11.842  0.3982 -0.4583 -0.4868
    1TMC1    O1   14   2.496   4.652  11.807 -0.2184  0.0470  0.5946
    1TMC1    O2   15   1.809   0.059  11.921  0.6479  0.1305  0.6344
    1TMC1    O3   16   2.399   0.046  11.660 -0.0686  0.5770 -0.3001
    1TMC1    H3   17   2.322   0.105  11.645  1.1798  2.0846 -0.8546
    1TMC1    O5   18   1.894   0.079  11.715 -0.8984 -0.3628  0.0211
    1TMC1    H5   19   1.966   0.036  11.663  0.7439  1.2475  0.9675
    2MPD2     C   20   2.029   4.512  12.643 -0.3535 -0.2771  0.6121
    2MPD2    C1   21   1.953   4.611  12.587  0.4207 -1.0233  0.0299
    2MPD2    C2   22   1.980   4.659  12.462  0.8676  0.3481  0.5378
    2MPD2    C3   23   2.081   4.603  12.395  0.4542  0.0555  1.1316
    2MPD2    C4   24   2.161   4.502  12.445 -0.2209  0.3743  0.1347
    2MPD2    C5   25   2.144   4.464  12.577  0.3877 -0.4728 -0.1200
    2MPD2     H   26   1.918   4.734  12.414 -0.9392 -1.5349 -0.0735
    2MPD2    H1   27   2.231   4.454  12.378  1.1447 -0.7323  2.3242
    2MPD2    H2   28   2.005   4.477  12.743  1.1069  1.3485  1.5461
    2MPD2    H3   29   2.190   4.375  12.615  0.6202 -0.6042 -0.7050
    2MPD2     N   30   2.092   4.654  12.262  0.3926 -1.0797  0.2624
    2MPD2    H5   31   2.024   4.721  12.228 -0.2128 -1.4728  0.6848
    2MPD2    N1   32   1.849   4.666  12.655 -0.3142 -0.4348 -0.1870
    2MPD2    H7   33   1.789   4.724  12.598 -1.6294 -0.2783  1.3579
    3TMC1    C1   34   1.946   1.267  11.082  0.2835 -0.4809  0.2907
    3TMC1    C2   35   2.057   1.333  11.124 -0.4508 -0.5891 -0.1369
    3TMC1    C3   36   2.147   1.367  11.033 -0.4705  0.2359  0.7427
    3TMC1    C4   37   1.927   1.223  10.955  0.8226  0.1992 -0.0227
    3TMC1    C5   38   2.018   1.258  10.860 -0.3798 -0.2815 -0.2533
    3TMC1    C6   39   2.121   1.342  10.901  0.4278  0.0957 -0.3829
    3TMC1     C   40   1.857   1.220  11.188  0.7197 -0.4303  0.3101
    3TMC1     O   41   1.890   1.201  11.301 -0.1447  0.2705 -0.3593
    3TMC1     H   42   2.066   1.357  11.229 -0.4095  2.2355 -0.8011
    3TMC1    H1   43   1.852   1.149  10.932  0.6971  0.5227 -0.6590
    3TMC1    H2   44   2.186   1.384  10.825 -1.4732 -0.1694 -2.1431
    3TMC1    C7   45   1.969   1.265  10.719 -0.6599  0.1177  0.1083
    3TMC1    C8   46   2.214   1.496  11.050  0.2993 -0.0903  0.7012
    3TMC1    O1   47   1.851   1.244  10.688 -0.3764 -0.4901  0.1386
    3TMC1    O2   48   2.202   1.589  10.967 -0.4483 -0.1805 -0.0232
    3TMC1    O3   49   2.074   1.264  10.644  0.3412 -0.0529  0.5829
    3TMC1    H3   50   2.152   1.237  10.698  1.0943  0.6466 -0.1395
    3TMC1    O5   51   2.310   1.485  11.142  0.5513 -0.4133 -0.2157
    3TMC1    H5   52   2.311   1.402  11.194  0.2795 -0.3991 -0.1872
    4MPD2     C   53   1.413   0.978  11.305 -0.0724  0.2131  0.3991
    4MPD2    C1   54   1.394   1.067  11.203  0.3299 -0.1429  0.5469
    4MPD2    C2   55   1.498   1.135  11.149 -0.1421  0.2639 -0.4760
    4MPD2    C3   56   1.629   1.125  11.204 -0.1132 -0.2264 -0.3987
    4MPD2    C4   57   1.650   1.040  11.315 -0.0199 -0.1664 -0.4856
    4MPD2    C5   58   1.540   0.960  11.358  0.1039  0.2868 -0.0725
    4MPD2     H   59   1.478   1.214  11.078 -0.1438  1.3499  0.7491
    4MPD2    H1   60   1.748   1.019  11.355 -1.9496 -2.0063  3.2448
    4MPD2    H2   61   1.332   0.937  11.365 -1.6801  0.0870 -1.8893
    4MPD2    H3   62   1.555   0.913  11.455 -0.7954 -0.2456 -0.1970
    4MPD2     N   63   1.728   1.201  11.138 -0.0330 -0.5822  0.2174
    4MPD2    H5   64   1.704   1.239  11.047  1.2431  0.3137  0.2489
    4MPD2    N1   65   1.268   1.108  11.158  0.3369  0.5027 -0.4474
    4MPD2    H7   66   1.269   1.178  11.085  1.6713  0.1993 -0.7229
    5TCq1    O1   67   2.443   2.739  12.505 -0.0383 -0.3859 -0.4358
    5TCq1    C1   68   2.390   2.748  12.385 -0.5388  0.0957  0.5939
    5TCq1    O2   69   2.431   2.818  12.292  0.2708 -0.1147 -0.0866
    5TCq1    C2   70   2.248   2.714  12.399 -0.6787 -0.3749  0.8599
    5TCq1    C3   71   2.190   2.699  12.523 -0.6654 -0.6234  0.2261
    5TCq1    C4   72   2.055   2.691  12.527 -0.1721  0.2120 -0.7207
    5TCq1    C5   73   1.971   2.687  12.414  0.2422  0.0575 -0.0072
    5TCq1    C6   74   2.036   2.687  12.292  0.2838 -0.2939 -0.5452
    5TCq1    C7   75   2.172   2.705  12.285 -0.3660  0.6710  0.1481
    5TCq1    C8   76   1.964   2.672  12.161  0.0932 -0.2570  0.2266
    5TCq1    O4   77   2.026   2.679  12.057 -0.1166  0.0399  0.5138
    5TCq1    C9   78   1.998   2.690  12.659  0.2856  0.7660 -0.7045
    5TCq1    O5   79   1.870   2.693  12.664 -0.4370  0.1405  0.0511
    5TCq1    O6   80   2.070   2.666  12.760  1.4781 -0.9336  0.0909
    5TCq1    H1   81   2.411   2.660  12.555 -0.1431 -0.0068  0.0993
    5TCq1    H2   82   2.248   2.705  12.614 -0.5812 -1.2479  0.2143
    5TCq1    H3   83   1.868   2.670  12.443 -0.2646  1.6292 -0.9360
    5TCq1    H4   84   2.219   2.712  12.188  0.8398  1.4925  0.7794
    6MPD2     C   85   1.602   2.591  12.150  0.0121 -0.2595 -0.4832
    6MPD2    C1   86   1.721   2.622  12.094 -0.1580 -0.5164  0.8166
    6MPD2    C2   87   1.732   2.646  11.960  0.1901 -0.5892 -0.2075
    6MPD2    C3   88   1.618   2.631  11.879 -0.7644 -0.7283  0.2628
    6MPD2    C4   89   1.495   2.615  11.940 -0.2936 -0.3934  0.0219
    6MPD2    C5   90   1.497   2.595  12.074  0.1722 -0.3368 -0.5882
    6MPD2     H   91   1.831   2.671  11.923 -0.5451  0.3098 -1.5440
    6MPD2    H1   92   1.398   2.613  11.892 -0.2030 -2.6407 -0.0703
    6MPD2    H2   93   1.598   2.561  12.254  1.7119 -1.1335 -0.6602
    6MPD2    H3   94   1.402   2.594  12.128  1.1197 -0.6127  1.0856
    6MPD2     N   95   1.631   2.645  11.741  0.4213  0.3802  0.3999
    6MPD2    H5   96   1.727   2.659  11.709  0.0982  0.7848 -0.3855
    6MPD2    N1   97   1.834   2.632  12.182  0.2045  0.0685  0.1402
    6MPD2    H7   98   1.806   2.639  12.279 -2.2781 -1.4732 -0.4899
    7TCq1    O1   99   4.317   2.253  12.931  0.9319  0.3728 -0.2474
    7TCq1    C1  100   4.231   2.310  12.849  0.3984  0.6202 -0.5025
    7TCq1    O2  101   4.238   2.416  12.795  0.0906 -0.6520  0.6252
    7TCq1    C2  102   4.106   2.254  12.885  0.6621  0.1638 -0.3753
    7TCq1    C3  103   4.000   2.337  12.895  0.3613  0.4495  0.0242
    7TCq1    C4  104   3.886   2.279  12.940  0.0178  0.2424  0.7921
    7TCq1    C5  105   3.878   2.147  12.960 -0.8417  1.1655  0.1139
    7TCq1    C6  106   3.990   2.067  12.937  0.3813 -0.2111  0.3923
    7TCq1    C7  107   4.110   2.120  12.906 -0.6001 -0.1273  0.8023
    7TCq1    C8  108   3.974   1.927  12.974 -0.0832  0.1954  0.0958
    7TCq1    O4  109   3.867   1.873  12.984 -0.4022 -0.0165  0.0112
    7TCq1    C9  110   3.769   2.353  12.991 -0.2604 -0.6901 -0.0089
    7TCq1    O5  111   3.773   2.476  12.967  0.2023 -0.5617  0.7557
    7TCq1    O6  112   3.688   2.294  13.071 -0.4517 -0.3326  0.0023
    7TCq1    H1  113   4.292   2.172  12.980  0.2666  1.0460  0.5138
    7TCq1    H2  114   4.007   2.443  12.875 -0.9218  0.2180 -1.6272
    7TCq1    H3  115   3.789   2.102  13.003 -0.5519  1.1670  0.7133
    7TCq1    H4  116   4.181   2.051  12.862 -0.3257 -0.3115  1.5203
    8MPD2     C  117   4.187   1.535  13.218  0.3805 -0.0013 -0.1272
    8MPD2    C1  118   4.060   1.582  13.222 -0.5581 -0.2481 -0.4721
    8MPD2    C2  119   4.019   1.693  13.152  0.3499 -0.1748  0.4422
    8MPD2    C3  120   4.113   1.750  13.063 -1.1458 -0.0713  0.2942
    8MPD2    C4  121   4.239   1.701  13.058 -0.5963 -0.1259 -0.4730
    8MPD2    C5  122   4.279   1.596  13.135  0.4569  0.1270 -0.1239
    8MPD2     H  123   3.928   1.749  13.173 -1.0046 -1.5235 -1.8199
    8MPD2    H1  124   4.314   1.750  12.996  1.4250  0.1404  2.1965
    8MPD2    H2  125   4.218   1.462  13.292 -0.4875 -0.2901 -0.0400
    8MPD2    H3  126   4.376   1.549  13.123 -0.6996 -2.0593 -0.9313
    8MPD2     N  127   4.100   1.868  12.995  0.3286  0.5808  0.2958
    8MPD2    H5  128   4.185   1.920  12.976  0.3399  0.4918  0.1004
    8MPD2    N1  129   3.986   1.540  13.331  0.2840  0.5180 -0.0749
    8MPD2    H7  130   4.037   1.501  13.410  0.1898 -2.7705 -1.6518
    9TMC1    C1  131   2.320   0.208  11.014 -0.0587 -0.4636 -0.1679
    9TMC1    C2  132   2.448   0.206  11.065  0.8251  0.4272  0.1273
    9TMC1    C3  133   2.549   0.257  10.992 -0.2011  0.1661 -0.1871
    9TMC1    C4  134   2.294   0.255  10.886 -0.1089 -0.3420 -0.4893
    9TMC1    C5  135   2.399   0.317  10.821  0.2153  0.4447  0.0499
    9TMC1    C6  136   2.521   0.303  10.869 -0.1473  0.3603  0.3872
    9TMC1     C  137   2.208   0.178  11.110  0.2246  0.7184  0.7467
    9TMC1     O  138   2.237   0.183  11.230  0.5541  0.1292  0.2726
    9TMC1     H  139   2.472   0.152  11.156 -1.7781  0.5679  0.9081
    9TMC1    H1  140   2.194   0.267  10.848  0.1966  1.9737 -0.6156
    9TMC1    H2  141   2.605   0.348  10.817  0.6075 -0.4922  0.8721
    9TMC1    C7  142   2.377   0.422  10.721 -0.2122 -0.5407  0.9750
    9TMC1    C8  143   2.681   0.267  11.047 -0.4554 -0.9689  0.3702
    9TMC1    O1  144   2.423   0.534  10.733 -0.5841  0.0505  0.1634
    9TMC1    O2  145   2.788   0.287  10.989  0.2134  0.2248 -0.0913
    9TMC1    O3  146   2.295   0.370  10.624 -0.1621 -0.4966 -0.6343
    9TMC1    H3  147   2.302   0.273  10.611 -0.5532 -0.5184 -0.6566
    9TMC1    O5  148   2.671   0.288  11.176  0.3833 -0.3569  0.0026
    9TMC1    H5  149   2.582   0.292  11.217 -0.0017 -0.9359 -0.7632
   10MPD2     C  150   1.846   0.109  11.048  0.1589 -0.4489 -0.7546
   10MPD2    C1  151   1.954   0.154  11.118 -0.2439  0.0931  0.4932
   10MPD2    C2  152   1.931   0.183  11.251 -0.8701  0.6869  0.6130
   10MPD2    C3  153   1.803   0.172  11.312  0.4557 -0.0299 -0.4280
   10MPD2    C4  154   1.697   0.122  11.236 -0.9862  0.8169  0.1808
   10MPD2    C5  155   1.722   0.092  11.107  0.5634  0.3761 -0.4172
   10MPD2     H  156   2.014   0.225  11.306  0.1521 -1.7348  0.9317
   10MPD2    H1  157   1.596   0.104  11.271 -1.5700  1.3220 -1.2191
   10MPD2    H2  158   1.856   0.094  10.941  0.8149  1.4104 -0.9456
   10MPD2    H3  159   1.637   0.068  11.044 -0.2104  1.2203  0.2903
   10MPD2     N  160   1.769   0.227  11.439 -0.0403  0.3201 -0.1354
   10MPD2    H5  161   1.679   0.203  11.482 -0.0667  1.9027  0.6781
   10MPD2    N1  162   2.083   0.166  11.056  0.6483  0.0208 -0.2783
   10MPD2    H7  163   2.073   0.145  10.957  0.0506  0.4509 -0.3055
   11TCq1    O1  164   2.801   1.006  14.288  0.1217 -0.5185 -0.1741
   11TCq1    C1  165   2.927   0.966  14.263  0.3288  0.6411 -0.4586
   11TCq1    O2  166   3.032   1.023  14.304 -0.1766  0.1653  0.0240
   11TCq1    C2  167   2.943   0.836  14.193  0.0275  0.2442  0.1424
   11TCq1    C3  168   3.065   0.806  14.150  0.4455  0.2113  0.0719
   11TCq1    C4  169   3.076   0.694  14.071 -0.2534 -0.2275  0.7174
   11TCq1    C5  170   2.976   0.599  14.053 -0.0715 -0.0297 -0.4007
   11TCq1    C6  171   2.855   0.627  14.115  0.0271  0.0143 -0.3834
   11TCq1    C7  172   2.834   0.747  14.179 -0.2295  1.0264  0.1629
   11TCq1    C8  173   2.738   0.535  14.123 -0.0190  0.1351 -0.0014
   11TCq1    O4  174   2.632   0.574  14.168  0.6512  0.2523  0.4000
   11TCq1    C9  175   3.196   0.673  13.994  0.6736 -0.7279  0.3873
   11TCq1    O5  176   3.293   0.749  14.018 -0.5062  0.2801  0.7336
   11TCq1    O6  177   3.197   0.585  13.904  0.0438 -0.0454  0.2100
   11TCq1    H1  178   2.734   0.971  14.226  0.1315  0.5466 -0.7861
   11TCq1    H2  179   3.147   0.877  14.143  2.4618 -1.9449  1.8829
   11TCq1    H3  180   2.993   0.504  14.002  2.3347  1.3319 -2.1471
   11TCq1    H4  181   2.742   0.774  14.229 -0.5536 -0.4453  0.3613
   12MPD2     C  182   2.512   0.328  14.094 -0.4305 -0.4318  0.9208
   12MPD2    C1  183   2.645   0.304  14.067  0.5337 -0.1347 -1.4103
   12MPD2    C2  184   2.694   0.180  14.046  0.1127 -0.1858 -0.4500
   12MPD2    C3  185   2.603   0.075  14.048 -0.0445  0.3252  0.5792
   12MPD2    C4  186   2.467   0.098  14.067  0.0754  0.4715  0.3525
   12MPD2    C5  187   2.427   0.222  14.104  0.5297 -0.2999 -0.5252
   12MPD2     H  188   2.798   0.163  14.019  0.0626 -1.3649  0.1356
   12MPD2    H1  189   2.396   0.017  14.057 -0.6149  1.1968 -0.6178
   12MPD2    H2  190   2.475   0.429  14.101 -0.0406 -0.1399 -1.2297
   12MPD2    H3  191   2.325   0.259  14.108  0.2738 -1.2029  1.2535
   12MPD2     N  192   2.630   4.677  14.024  0.1722  0.1132 -0.0041
   12MPD2    H5  193   2.552   4.612  14.027  0.4443 -0.0630  3.1850
   12MPD2    N1  194   2.751   0.405  14.067 -0.9639 -0.3374  0.1208
   12MPD2    H7  195   2.842   0.375  14.033 -0.7944  0.7619 -0.4194
   13TCq1    O1  196   1.672   0.910  10.489 -0.4110  0.2068  0.0576
   13TCq1    C1  197   1.693   0.858  10.612 -0.6172 -0.5608 -0.9090
   13TCq1    O2  198   1.616   0.783  10.672  0.4636 -0.2440 -0.1796
   13TCq1    C2  199   1.832   0.890  10.660 -0.4940  0.2428  0.6150
   13TCq1    C3  200   1.927   0.930  10.569  0.1808  0.6569 -0.3164
   13TCq1    C4  201   2.051   0.945  10.619  0.7167 -0.2042 -1.0133
   13TCq1    C5  202   2.080   0.929  10.751 -0.2275 -0.3408 -0.0218
   13TCq1    C6  203   1.987   0.890  10.839 -0.7678  0.6051  0.0751
   13TCq1    C7  204   1.856   0.865  10.791 -0.4023 -0.1779  0.0074
   13TCq1    C8  205   2.006   0.890  10.984 -0.3868  0.5998 -0.5527
   13TCq1    O4  206   1.905   0.874  11.052 -0.0686 -0.0867  0.5552
   13TCq1    C9  207   2.158   0.974  10.523 -0.7279 -0.1125  0.0182
   13TCq1    O5  208   2.127   1.003  10.411 -0.4797  0.1325  0.8117
   13TCq1    O6  209   2.273   0.969  10.568  0.4200  0.1302 -0.4826
   13TCq1    H1  210   1.747   0.961  10.453  0.4773 -1.4700 -0.4622
   13TCq1    H2  211   1.919   0.924  10.461  1.7038  0.7800 -0.4366
   13TCq1    H3  212   2.181   0.948  10.785 -0.3309  0.3720 -0.1160
   13TCq1    H4  213   1.766   0.847  10.849 -0.7535 -1.2270 -0.8649
   14MPD2     C  214   2.310   0.882  11.206  0.0135 -0.5832  0.0276
   14MPD2    C1  215   2.175   0.904  11.169 -0.2625 -0.5185  0.0080
   14MPD2    C2  216   2.086   0.943  11.269 -0.0268 -0.7983  0.3324
   14MPD2    C3  217   2.122   0.952  11.404  0.6574  0.3290 -0.5275
   14MPD2    C4  218   2.251   0.926  11.436 -0.2759 -0.1662  0.3461
   14MPD2    C5  219   2.349   0.895  11.341  0.5144 -0.1709 -0.3473
   14MPD2     H  220   1.985   0.962  11.235 -0.9061 -1.3408  2.6596
   14MPD2    H1  221   2.282   0.951  11.537 -1.2852 -0.7587  0.8060
   14MPD2    H2  222   2.389   0.863  11.135  0.7261 -0.8147  0.8868
   14MPD2    H3  223   2.452   0.882  11.372  0.2899 -3.3279 -0.9515
   14MPD2     N  224   2.021   0.997  11.490 -0.1458 -0.3936  0.0526
   14MPD2    H5  225   1.946   1.041  11.438  0.4723  2.5317  1.5983
   14MPD2    N1  226   2.139   0.894  11.031  0.7273 -0.3154  0.2921
   14MPD2    H7  227   2.216   0.869  10.970 -1.5184 -2.4497 -1.6695
   15TCq1    O1  228   4.061   0.113   1.773  0.0172  0.7561  0.3629
   15TCq1    C1  229   4.111   0.027   1.681  0.1883 -0.2966 -0.6671
   15TCq1    O2  230   4.072   0.011   1.562  1.0045  0.6257  0.4168
   15TCq1    C2  231   4.201   4.674   1.744 -0.2399  0.1543 -0.0154
   15TCq1    C3  232   4.295   4.711   1.834 -0.3834 -0.8822  0.3858
   15TCq1    C4  233   4.391   4.619   1.869 -0.7273  0.3810 -0.0980
   15TCq1    C5  234   4.376   4.487   1.821  0.4288 -0.4586 -0.0839
   15TCq1    C6  235   4.275   4.451   1.735 -0.4228  0.2501  0.3280
   15TCq1    C7  236   4.190   4.551   1.692 -0.1428  0.1404 -0.2051
   15TCq1    C8  237   4.276   4.319   1.666  0.4851 -0.6636  1.0377
   15TCq1    O4  238   4.372   4.246   1.692  0.1869  0.1265  0.3052
   15TCq1    C9  239   4.498   4.651   1.961 -0.2764 -0.4653 -0.2091
   15TCq1    O5  240   4.487   0.016   2.037 -0.2130 -0.4245  0.8648
   15TCq1    O6  241   4.580   4.556   1.980 -0.3397 -0.5052 -0.0628
   15TCq1    H1  242   4.090   0.101   1.866 -0.7787 -0.7228  0.4156
   15TCq1    H2  243   4.298   0.073   1.878  1.5682 -2.0226  2.8234
   15TCq1    H3  244   4.446   4.409   1.849 -0.2528 -0.6255  1.1355
   15TCq1    H4  245   4.109   4.527   1.624  0.8758 -1.7795 -0.7534
   16MPD2     C  246   4.002   4.149   1.487  0.4481 -0.1429 -0.8420
   16MPD2    C1  247   4.128   4.161   1.538 -0.1009  0.0312 -0.1346
   16MPD2    C2  248   4.216   4.057   1.519 -0.6768  0.6376 -0.1824
   16MPD2    C3  249   4.189   3.947   1.445 -0.2395  0.1782  0.1719
   16MPD2    C4  250   4.055   3.945   1.393  0.7776  0.7811  0.2210
   16MPD2    C5  251   3.965   4.045   1.414 -0.7484 -0.1641  0.3247
   16MPD2     H  252   4.315   4.075   1.559 -0.6505 -1.9568  0.9326
   16MPD2    H1  253   4.019   3.857   1.340 -1.6975  1.6674  0.4188
   16MPD2    H2  254   3.936   4.234   1.473  2.2401  1.4942  0.5730
   16MPD2    H3  255   3.863   4.040   1.376 -0.8976  2.3661  0.4368
   16MPD2     N  256   4.278   3.838   1.432 -0.3884  0.6274  0.1157
   16MPD2    H5  257   4.370   3.850   1.475 -0.6113  0.1013  0.7316
   16MPD2    N1  258   4.158   4.283   1.604 -0.5449 -0.5701 -0.3586
   16MPD2    H7  259   4.087   4.355   1.613 -0.3182 -0.1845 -1.5939
   17TMC1    C1  260   1.721   3.724  10.202  0.2388  0.5918 -0.2653
   17TMC1    C2  261   1.648   3.669  10.105 -0.2286  0.3196 -0.5344
   17TMC1    C3  262   1.531   3.609  10.136 -0.1515 -0.1408  0.6047
   17TMC1    C4  263   1.690   3.716  10.333  0.3167  0.1449 -0.2125
   17TMC1    C5  264   1.573   3.661  10.367  0.0584  0.6913  0.0259
   17TMC1    C6  265   1.491   3.614  10.267  0.2610  0.1457 -0.4817
   17TMC1     C  266   1.833   3.817  10.164  0.0291  0.5287 -0.5698
   17TMC1     O  267   1.849   3.837  10.044  0.1912 -0.2336 -0.6127
   17TMC1     H  268   1.673   3.675   9.999 -1.2607  2.0921 -0.6712
   17TMC1    H1  269   1.760   3.744  10.411  2.3746  0.3910 -2.1648
   17TMC1    H2  270   1.393   3.573  10.291  0.5490 -1.2767 -1.7621
   17TMC1    C7  271   1.535   3.633  10.508 -0.6185 -0.1121  0.3841
   17TMC1    C8  272   1.432   3.584  10.037  0.1474  0.6066 -0.3358
   17TMC1    O1  273   1.593   3.687  10.601 -0.0192 -0.2720  0.3964
   17TMC1    O2  274   1.406   3.656   9.939  0.3153 -0.7582  0.1749
   17TMC1    O3  275   1.404   3.613  10.508 -0.7077  0.4258 -0.0162
   17TMC1    H3  276   1.351   3.627  10.590 -1.2477  1.4010 -0.5328
   17TMC1    O5  277   1.358   3.472  10.066  0.4431 -0.0426  0.3966
   17TMC1    H5  278   1.377   3.429  10.151 -0.3243  2.0593  1.6378
   18MPD2     C  279   2.057   4.014  10.122 -0.2428 -0.3756  0.2939
   18MPD2    C1  280   1.983   3.997  10.243 -0.3655  0.1606  0.3402
   18MPD2    C2  281   2.007   4.084  10.351  0.1727  0.5738  0.5328
   18MPD2    C3  282   2.096   4.190  10.337  0.2127  0.4424  0.1149
   18MPD2    C4  283   2.172   4.200  10.222 -0.0115 -0.3943 -0.1954
   18MPD2    C5  284   2.157   4.114  10.116  0.1837  0.1636  0.3749
   18MPD2     H  285   1.957   4.060  10.445  0.2308  3.0018  1.1733
   18MPD2    H1  286   2.252   4.273  10.214 -0.1289 -0.3140 -0.6104
   18MPD2    H2  287   2.031   3.955  10.035 -0.1586  1.3891 -0.9232
   18MPD2    H3  288   2.228   4.122  10.034  0.1334 -1.7166  0.1402
   18MPD2     N  289   2.106   4.294  10.430  0.0453  0.1837  0.5310
   18MPD2    H5  290   2.174   4.366  10.407  1.3223 -0.6733  1.6150
   18MPD2    N1  291   1.893   3.892  10.267 -1.0506  0.1057 -0.3282
   18MPD2    H7  292   1.866   3.866  10.361 -1.0052 -1.0872 -0.6442
   19TMC2    C1  293   3.523   0.380  14.123  0.1988  0.3000  0.1363
   19TMC2    C2  294   3.434   0.393  14.019  0.0188 -0.2971 -0.6808
   19TMC2    C3  295   3.337   0.298  13.994  0.1712 -0.1387  0.3175
   19TMC2    C4  296   3.508   0.276  14.214 -0.0885  0.5400 -0.0939
   19TMC2    C5  297   3.404   0.187  14.196 -0.5047  0.1750  0.0449
   19TMC2    C6  298   3.323   0.197  14.083 -0.6038 -0.0497 -0.6288
   19TMC2     C  299   3.619   0.485  14.136  0.1726 -0.1782  0.3782
   19TMC2     O  300   3.649   0.557  14.039 -0.1262 -0.3245 -0.3497
   19TMC2     H  301   3.453   0.472  13.947 -4.0538  0.9060 -0.4582
   19TMC2    H1  302   3.587   0.250  14.283  1.8676  2.7821 -1.5085
   19TMC2    H2  303   3.255   0.121  14.045 -0.3622 -1.0451  0.9233
   19TMC2    C7  304   3.412   0.066  14.272 -0.1003 -0.0269  0.3344
   19TMC2    C8  305   3.286   0.271  13.856 -0.3543  0.0927  0.5593
   19TMC2    O1  306   3.515   0.031  14.324  0.0061 -0.5594 -0.2507
   19TMC2    O2  307   3.324   0.164  13.802 -0.4623  0.0221 -0.2038
   19TMC2    O5  308   3.290   0.389  13.795 -0.5692  0.2444 -0.0623
   19TMC2    H5  309   3.257   0.465  13.848 -3.1041 -2.4880  2.2427
   20MPD2     C  310   3.840   0.658  14.253 -0.1689  0.3218  0.7163
   20MPD2    C1  311   3.797   0.542  14.308 -0.2696  0.7062 -0.2222
   20MPD2    C2  312   3.857   0.482  14.419  0.0040  0.3509 -0.3051
   20MPD2    C3  313   3.969   0.540  14.471  0.0584  0.4082 -0.1743
   20MPD2    C4  314   4.008   0.661  14.430  0.2433 -0.5151  0.9447
   20MPD2    C5  315   3.948   0.720  14.319  0.3034 -0.7004 -0.1294
   20MPD2     H  316   3.809   0.402  14.475 -0.0485  0.5754 -0.0272
   20MPD2    H1  317   4.084   0.721  14.478 -0.5945  0.8296  0.6089
   20MPD2    H2  318   3.792   0.713  14.173  0.1216 -1.3912 -0.6523
   20MPD2    H3  319   3.984   0.815  14.282  0.5706 -0.9616 -0.5418
   20MPD2     N  320   4.031   0.498  14.587 -0.6181 -0.0419 -0.6852
   20MPD2    H5  321   4.112   0.553  14.613 -0.6477  0.4660 -1.6714
   20MPD2    N1  322   3.689   0.468  14.256 -0.8073  0.3617  0.2740
   20MPD2    H7  323   3.644   0.392  14.306  0.9015 -0.6057  0.3335
   21TMC2    C1  324   1.321   0.850  15.107  0.0771  0.3980  0.5138
   21TMC2    C2  325   1.292   0.770  14.995  0.5776 -0.3642  0.1063
   21TMC2    C3  326   1.168   0.785  14.949  0.1216 -0.0239 -0.5848
   21TMC2    C4  327   1.243   0.946  15.164  0.0832  0.6008 -0.5155
   21TMC2    C5  328   1.116   0.953  15.107 -0.3073 -0.0144 -0.3026
   21TMC2    C6  329   1.078   0.879  14.996  0.7462 -0.1299 -0.6720
   21TMC2     C  330   1.465   0.876  15.122 -0.1714 -0.5386 -0.0470
   21TMC2     O  331   1.543   0.788  15.098 -0.0215  0.0324  0.2267
   21TMC2     H  332   1.359   0.696  14.953  0.6302 -0.2708  0.0290
   21TMC2    H1  333   1.274   1.001  15.252 -3.0292 -3.4298  3.0748
   21TMC2    H2  334   0.972   0.872  14.973  0.5159 -0.4324  0.4570
   21TMC2    C7  335   1.024   1.040  15.174  1.1188 -0.4381 -0.1870
   21TMC2    C8  336   1.116   0.677  14.866 -0.3373 -0.1919  0.4640
   21TMC2    O1  337   1.041   1.057  15.293  0.7072  0.0683 -0.5344
   21TMC2    O2  338   1.167   0.566  14.878  0.0587  0.2696  0.2822
   21TMC2    O5  339   1.018   0.719  14.789 -0.2627 -0.0650  0.1003
   21TMC2    H5  340   1.011   0.815  14.809  2.3554  0.5046 -1.7840
   22MPD2     C  341   1.857   1.197  15.142 -0.4226  0.4892  0.3098
   22MPD2    C1  342   1.856   1.059  15.151  0.3177 -0.2051  0.4142
   22MPD2    C2  343   1.733   0.998  15.157  0.0280 -0.5579 -0.1680
   22MPD2    C3  344   1.615   1.069  15.128 -0.6072  0.6273 -0.1880
   22MPD2    C4  345   1.625   1.207  15.116  0.0391 -0.1991  0.4312
   22MPD2    C5  346   1.746   1.269  15.113  0.2711 -0.2205  0.1169
   22MPD2     H  347   1.724   0.890  15.167  2.1555 -0.8314 -1.2708
   22MPD2    H1  348   1.542   1.275  15.100  0.6414  0.4906  0.1947
   22MPD2    H2  349   1.949   1.254  15.133 -0.1814 -0.0896 -0.9617
   22MPD2    H3  350   1.760   1.374  15.088 -0.3939 -0.0676  0.4100
   22MPD2     N  351   1.486   1.011  15.128  0.5741 -0.4096  0.3914
   22MPD2    H5  352   1.407   1.070  15.106  1.4368  1.0318  1.1749
   22MPD2    N1  353   1.973   0.983  15.187 -1.0530  0.4284 -0.0990
   22MPD2    H7  354   1.958   0.883  15.197 -1.3443  0.5182  0.3521
   23TMC2    C1  355   2.305   1.457  14.480  0.2016 -0.1235 -0.4602
   23TMC2    C2  356   2.322   1.527  14.362  0.8906  0.0972  0.7141
   23TMC2    C3  357   2.213   1.562  14.290  0.4040  0.4442  0.7045
   23TMC2    C4  358   2.188   1.400  14.516 -0.5263  0.4468 -0.7975
   23TMC2    C5  359   2.078   1.437  14.440  0.7887 -0.3436  0.4998
   23TMC2    C6  360   2.090   1.530  14.336  0.2817 -0.5297 -0.1557
   23TMC2     C  361   2.399   1.477  14.588 -0.1728 -0.7159  0.3174
   23TMC2     O  362   2.369   1.428  14.698 -0.2675  0.1197  0.3928
   23TMC2     H  363   2.405   1.595  14.347  1.3624 -0.1666  2.1647
   23TMC2    H1  364   2.168   1.353  14.611 -1.2617  1.0724 -0.6387
   23TMC2    H2  365   2.007   1.581  14.290  1.5638  0.9290 -0.8134
   23TMC2    C7  366   1.941   1.403  14.490  0.3093 -0.4287  0.1513
   23TMC2    C8  367   2.228   1.675  14.200  0.5570  0.7480 -0.0276
   23TMC2    O1  368   1.936   1.355  14.602 -0.6357 -0.1775  0.0093
   23TMC2    O2  369   2.329   1.700  14.136 -0.2625  0.3485 -0.5645
   23TMC2    O5  370   2.143   1.773  14.246 -0.1590 -0.7681  0.0826
   23TMC2    H5  371   2.082   1.733  14.311  0.6867 -0.7269  0.9012
   24MPD2     C  372   2.855   1.664  14.765 -0.2501  0.3979  0.2653
   24MPD2    C1  373   2.742   1.618  14.833 -0.3453 -0.0997  0.0374
   24MPD2    C2  374   2.635   1.567  14.770 -0.0987 -0.2645 -0.8752
   24MPD2    C3  375   2.627   1.571  14.633 -0.5336 -0.4192  0.0972
   24MPD2    C4  376   2.733   1.618  14.564 -0.1752  0.1665  0.0923
   24MPD2    C5  377   2.848   1.659  14.631 -0.6488 -0.2558 -0.3327
   24MPD2     H  378   2.545   1.553  14.829  0.0616 -1.2926 -0.8762
   24MPD2    H1  379   2.737   1.627  14.456  2.2523  0.6400  0.2244
   24MPD2    H2  380   2.937   1.719  14.809  1.4276 -0.1991 -2.1204
   24MPD2    H3  381   2.936   1.679  14.571 -0.5413 -0.7635 -0.3442
   24MPD2     N  382   2.515   1.529  14.553 -0.2519  0.0348  0.1493
   24MPD2    H5  383   2.523   1.549  14.453  1.7234  1.9204  0.6821
   24MPD2    N1  384   2.739   1.617  14.975 -0.4793  0.6209  0.0001
   24MPD2    H7  385   2.657   1.582  15.024  0.1639  0.1662  0.7511
   25TMC2    C1  386   0.949   4.281  11.783  0.0930  0.1800  0.2084
   25TMC2    C2  387   1.030   4.363  11.715  0.4398  0.7085 -0.8237
   25TMC2    C3  388   1.019   4.494  11.748  0.2655  0.3638 -0.2985
   25TMC2    C4  389   0.878   4.323  11.891  0.4265 -0.0670  0.2606
   25TMC2    C5  390   0.870   4.457  11.923  0.3679 -0.6756  0.3932
   25TMC2    C6  391   0.946   4.548  11.848 -0.6328 -0.8309 -0.5110
   25TMC2     C  392   0.930   4.141  11.735 -0.4873 -0.1227 -0.0900
   25TMC2     O  393   1.000   4.103  11.644  0.5131 -0.1619  0.1935
   25TMC2     H  394   1.075   4.334  11.621  1.0915 -2.1645  0.3637
   25TMC2    H1  395   0.810   4.254  11.940  0.8869 -1.9150 -1.7068
   25TMC2    H2  396   0.961   4.653  11.866 -2.6771 -0.6390  0.1236
   25TMC2    C7  397   0.850   4.487  12.062  0.0294 -0.4150 -0.3983
   25TMC2    C8  398   1.099   4.579  11.668  0.6528  0.1996  0.6107
   25TMC2    O1  399   0.810   4.392  12.130  0.3810  0.1478 -0.0872
   25TMC2    O2  400   1.071   4.695  11.639  0.2976  0.0088  0.2205
   25TMC2    O5  401   1.219   4.524  11.654 -0.1580  0.1823  0.3275
   25TMC2    H5  402   1.225   4.433  11.690 -3.7753 -0.6631 -1.2128
   26MPD2     C  403   0.670   3.704  11.803  0.0176  0.0068 -0.0069
   26MPD2    C1  404   0.785   3.717  11.734 -0.3035  0.0718  0.1384
   26MPD2    C2  405   0.834   3.851  11.713  0.3903 -0.3007  0.1493
   26MPD2    C3  406   0.765   3.963  11.762  0.4290  0.5777 -0.0784
   26MPD2    C4  407   0.647   3.940  11.821  0.3135 -0.2924  0.1644
   26MPD2    C5  408   0.600   3.816  11.844  0.0243  0.7642  0.6780
   26MPD2     H  409   0.923   3.870  11.653  0.3594 -1.5354 -0.2818
   26MPD2    H1  410   0.581   4.012  11.868  1.5754  0.7078  0.4117
   26MPD2    H2  411   0.627   3.606  11.818  1.0110 -0.5888 -1.1553
   26MPD2    H3  412   0.502   3.807  11.889  0.2763 -1.6626  0.7440
   26MPD2     N  413   0.810   4.098  11.769 -0.1233 -0.7505  0.6552
   26MPD2    H5  414   0.754   4.150  11.836 -1.2037  0.2679 -1.0417
   26MPD2    N1  415   0.834   3.605  11.668 -0.8794  0.2962 -0.3476
   26MPD2    H7  416   0.804   3.517  11.708  0.4654 -1.0135 -2.2820
   27TMC2    C1  417   0.431   1.371  12.329 -0.5737  0.1957  0.3678
   27TMC2    C2  418   0.391   1.399  12.202  0.2197  0.4191 -1.0340
   27TMC2    C3  419   0.405   1.527  12.155  0.1960 -0.2028  0.4715
   27TMC2    C4  420   0.473   1.460  12.410 -0.0437 -0.3002 -0.0356
   27TMC2    C5  421   0.477   1.593  12.361  0.0985  0.3114 -0.1284
   27TMC2    C6  422   0.455   1.624  12.236 -0.1380 -0.8740 -0.1582
   27TMC2     C  423   0.365   1.260  12.407 -0.1332  0.8953 -0.5507
   27TMC2     O  424   0.440   1.197  12.483 -0.2911  0.0098  0.1924
   27TMC2     H  425   0.354   1.326  12.131  0.4159  0.9382 -1.6680
   27TMC2    H1  426   0.507   1.427  12.507  1.0076  0.4070 -0.1607
   27TMC2    H2  427   0.465   1.725  12.196 -0.2069 -0.3496  1.1501
   27TMC2    C7  428   0.395   1.672  12.452 -0.1280 -0.7044  0.3267
   27TMC2    C8  429   0.391   1.558  12.017  0.3422  0.0568 -0.5075
   27TMC2    O1  430   0.413   1.635  12.567 -0.2064 -0.0753  0.1810
   27TMC2    O2  431   0.447   1.661  11.973 -0.1390  0.1737  0.4433
   27TMC2    O5  432   0.276   1.496  11.970  0.2384  0.1593  0.5108
   27TMC2    H5  433   0.234   1.454  12.047  0.8487  2.4756  2.0874
   28MPD2     C  434   4.720   1.047  12.661  0.6476  0.3859 -0.0231
   28MPD2    C1  435   4.671   1.145  12.577 -0.4237 -0.8581 -0.4964
   28MPD2    C2  436   0.015   1.206  12.480 -0.7083 -0.3383 -0.1420
   28MPD2    C3  437   0.145   1.169  12.472 -0.3742 -0.0843 -0.4251
   28MPD2    C4  438   0.190   1.060  12.546  0.0467 -0.4084  0.6782
   28MPD2    C5  439   0.105   1.000  12.633  0.0249 -0.2489 -0.5999
   28MPD2     H  440   4.715   1.296  12.431 -2.5416 -0.7835  0.4406
   28MPD2    H1  441   0.292   1.025  12.538 -0.1885 -0.8791 -0.2113
   28MPD2    H2  442   4.654   0.986  12.723  0.2438 -0.3867 -1.2010
   28MPD2    H3  443   0.144   0.914  12.686  0.5410  0.8040  0.7530
   28MPD2     N  444   0.232   1.253  12.389  0.6185 -0.0612 -0.2979
   28MPD2    H5  445   0.200   1.322  12.321 -0.7301  1.0626  1.4846
   28MPD2    N1  446   4.536   1.181  12.586  0.1103 -0.2083  0.1819
   28MPD2    H7  447   4.494   1.150  12.673 -2.8545  1.6404 -0.5784
   29TMC2    C1  448   0.209   4.023  14.188 -0.2177 -0.1134 -0.2020
   29TMC2    C2  449   0.275   4.095  14.099 -0.3120 -0.1610  0.1916
   29TMC2    C3  450   0.354   4.194  14.146 -0.3111 -0.0471 -0.4440
   29TMC2    C4  451   0.214   4.051  14.324  1.0756  0.8401 -0.0119
   29TMC2    C5  452   0.298   4.153  14.368 -0.0065  0.3755  0.0817
   29TMC2    C6  453   0.363   4.233  14.280  0.2418 -0.3651  0.4126
   29TMC2     C  454   0.098   3.941  14.147  0.4029  0.5061 -0.0591
   29TMC2     O  455   0.077   3.852  14.227 -0.4609 -0.2648 -0.3548
   29TMC2     H  456   0.269   4.071  13.993 -1.6467  1.2644 -0.0455
   29TMC2    H1  457   0.146   4.007  14.396  0.6584  1.4367 -0.0336
   29TMC2    H2  458   0.427   4.315  14.310 -1.2540  1.3751 -1.2216
   29TMC2    C7  459   0.302   4.175  14.512  0.7309 -0.1641  0.2255
   29TMC2    C8  460   0.400   4.284  14.047 -0.5050  1.0043  0.4848
   29TMC2    O1  461   0.241   4.087  14.572 -0.5030 -0.5475 -0.7071
   29TMC2    O2  462   0.390   4.405  14.064 -0.0730 -0.2511 -0.1450
   29TMC2    O5  463   0.512   4.224  14.005 -0.0649 -0.6178 -0.1892
   29TMC2    H5  464   0.500   4.128  14.018  0.0035 -0.5656  0.2526
   30MPD2     C  465   4.474   3.753  13.840  0.5599 -0.1537 -0.5780
   30MPD2    C1  466   4.566   3.684  13.922 -0.6868  0.8472 -0.4915
   30MPD2    C2  467   4.670   3.762  13.982  0.1690  0.2686 -0.6203
   30MPD2    C3  468   4.681   3.903  13.966 -0.5541  0.0278  0.5384
   30MPD2    C4  469   4.594   3.963  13.877  0.3305  0.1569 -0.6262
   30MPD2    C5  470   4.497   3.889  13.824  0.4642 -0.0564  0.2245
   30MPD2     H  471   4.729   3.713  14.058  0.5076  1.0649 -0.3686
   30MPD2    H1  472   4.604   4.067  13.847  1.9770 -0.0310 -0.6949
   30MPD2    H2  473   4.392   3.709  13.784 -0.7644  2.5904 -0.7853
   30MPD2    H3  474   4.417   3.943  13.774  1.5167 -0.0187 -1.3907
   30MPD2     N  475   0.035   3.984  14.032  0.6687 -0.2590 -0.1722
   30MPD2    H5  476   0.049   4.077  13.995 -3.0438  0.0432 -0.8243
   30MPD2    N1  477   4.565   3.549  13.957  0.2515 -0.0387 -0.2671
   30MPD2    H7  478   4.648   3.508  13.997  0.4044  0.2697 -0.2649
   31TMC2    C1  479   2.118   2.505  15.585  0.3937  0.9283 -0.0080
   31TMC2    C2  480   1.986   2.527  15.565 -0.0621 -0.8363  0.3898
   31TMC2    C3  481   1.911   2.560  15.673  0.6196 -0.0591  0.5673
   31TMC2    C4  482   2.178   2.520  15.710 -0.0472  0.5800  0.1333
   31TMC2    C5  483   2.091   2.528  15.817 -0.0254  0.1426 -0.1884
   31TMC2    C6  484   1.956   2.552  15.804 -0.2641  0.2403  0.2771
   31TMC2     C  485   2.206   2.510  15.471 -0.1498 -1.0923  0.4823
   31TMC2     O  486   2.159   2.538  15.359 -0.0935 -0.7091 -0.0207
   31TMC2     H  487   1.945   2.521  15.464 -0.1734  0.5677  0.3488
   31TMC2    H1  488   2.283   2.496  15.722  0.0324  0.7600 -0.2142
   31TMC2    H2  489   1.890   2.567  15.888 -1.2196 -2.0068 -0.0599
   31TMC2    C7  490   2.160   2.523  15.946  0.3747  0.0179  0.6932
   31TMC2    C8  491   1.781   2.614  15.656 -0.3107  0.4571  0.9044
   31TMC2    O1  492   2.124   2.433  16.019  0.2215 -0.2846  0.2995
   31TMC2    O2  493   1.702   2.631  15.749  0.0348  0.5046  0.1972
   31TMC2    O5  494   1.800   2.699  15.550 -0.4173 -0.2340 -0.1307
   31TMC2    H5  495   1.879   2.682  15.495 -1.8855 -1.2995 -1.8971
   32MPD2     C  496   2.674   2.511  15.249 -0.1551 -0.2090  0.9434
   32MPD2    C1  497   2.558   2.576  15.208 -0.1750 -0.9861  0.2164
   32MPD2    C2  498   2.440   2.565  15.292  0.4339 -0.5247 -0.1404
   32MPD2    C3  499   2.450   2.480  15.398  0.3256  0.0153 -0.4326
   32MPD2    C4  500   2.567   2.417  15.429  0.3818 -0.0777 -0.0351
   32MPD2    C5  501   2.676   2.429  15.360 -0.3699  0.2265 -0.5420
   32MPD2     H  502   2.341   2.602  15.270  0.6924 -0.3805 -1.0558
   32MPD2    H1  503   2.564   2.358  15.520 -2.2334  0.6944  0.3786
   32MPD2    H2  504   2.772   2.520  15.202 -0.3437  0.7681  0.7431
   32MPD2    H3  505   2.771   2.386  15.389 -0.1406  0.8246 -0.4117
   32MPD2     N  506   2.335   2.459  15.489 -0.2713 -0.3830  0.1222
   32MPD2    H5  507   2.355   2.413  15.577  0.8976  1.0502  0.5996
   32MPD2    N1  508   2.568   2.664  15.097 -0.4501 -0.0392  0.4272
   32MPD2    H7  509   2.657   2.680  15.051 -0.6990 -1.4855 -0.5264
   33TMC2    C1  510   2.740   0.446  10.406 -0.2167  0.1915 -0.2758
   33TMC2    C2  511   2.811   0.457  10.522  0.3351  0.0330  0.2571
   33TMC2    C3  512   2.919   0.537  10.520 -0.2242  0.1588 -0.4881
   33TMC2    C4  513   2.782   0.501  10.283 -0.7678  0.4484  0.4564
   33TMC2    C5  514   2.902   0.574  10.285  0.3351 -0.5496 -0.6828
   33TMC2    C6  515   2.971   0.584  10.400 -0.5012  0.5022  0.2248
   33TMC2     C  516   2.621   0.371  10.425  0.2023  0.3628 -0.1523
   33TMC2     O  517   2.600   0.314  10.533  0.1664  0.0738  0.3605
   33TMC2     H  518   2.778   0.409  10.613 -0.6040 -0.5278 -0.3675
   33TMC2    H1  519   2.738   0.466  10.191 -0.0797  0.7922 -0.0051
   33TMC2    H2  520   3.062   0.644  10.401 -0.1463 -0.0654  1.5235
   33TMC2    C7  521   2.960   0.638  10.165 -0.0811  0.1291 -0.3531
   33TMC2    C8  522   2.979   0.578  10.640  0.1772  0.2622 -0.3208
   33TMC2    O1  523   3.069   0.686  10.165 -0.6624 -0.4859  0.3359
   33TMC2    O2  524   3.101   0.573  10.645  0.2284  0.0644  0.3167
   33TMC2    O5  525   2.891   0.674  10.693  0.5779 -0.1695 -0.5959
   33TMC2    H5  526   2.810   0.680  10.638 -0.1286  0.6327  0.5142
   34MPD2     C  527   2.203   0.157  10.209 -0.6225 -0.5252  0.3812
   34MPD2    C1  528   2.266   0.131  10.333  0.0948  0.1572  0.4725
   34MPD2    C2  529   2.372   0.206  10.364  0.2670 -0.2127  0.2971
   34MPD2    C3  530   2.428   0.303  10.282  0.0729 -0.2701 -0.1257
   34MPD2    C4  531   2.371   0.318  10.161 -0.5628 -0.0307 -0.1240
   34MPD2    C5  532   2.255   0.254  10.128 -0.4506 -0.0706  0.4338
   34MPD2     H  533   2.430   0.176  10.450 -0.8049  1.1245  1.4838
   34MPD2    H1  534   2.406   0.397  10.095 -0.1430  0.3742  0.5799
   34MPD2    H2  535   2.122   0.093  10.175 -0.6845  0.9686 -2.2521
   34MPD2    H3  536   2.205   0.277  10.034  2.8636 -0.2202 -1.3711
   34MPD2     N  537   2.548   0.368  10.311  0.0355  0.3880 -0.0898
   34MPD2    H5  538   2.585   0.426  10.236 -1.2528  0.6861 -0.4983
   34MPD2    N1  539   2.223   0.028  10.421 -0.2046  0.4569  0.5720
   34MPD2    H7  540   2.160   4.696  10.384  2.1559 -0.2754 -2.0935
   35TMC2    C1  541   3.461   1.694  11.498 -0.3726 -0.8384  0.5307
   35TMC2    C2  542   3.429   1.777  11.388 -0.1028 -0.3073  0.7056
   35TMC2    C3  543   3.301   1.759  11.337 -1.4398  0.7410  0.3683
   35TMC2    C4  544   3.384   1.590  11.542 -0.3736  0.1780  0.6405
   35TMC2    C5  545   3.263   1.567  11.475  0.5911  0.4360 -0.5540
   35TMC2    C6  546   3.227   1.649  11.372 -0.6593  0.3623  0.5107
   35TMC2     C  547   3.588   1.709  11.560  0.9289 -0.5436 -0.8871
   35TMC2     O  548   3.641   1.812  11.522  0.0375  0.1051 -0.8699
   35TMC2     H  549   3.493   1.858  11.356 -2.5476  2.0709  1.9435
   35TMC2    H1  550   3.411   1.532  11.629  2.4696 -1.1467 -1.1330
   35TMC2    H2  551   3.138   1.629  11.313  0.5843 -1.2839 -0.7899
   35TMC2    C7  552   3.174   1.478  11.542 -0.0212  0.2975  1.3081
   35TMC2    C8  553   3.256   1.848  11.232  0.1766  0.3836  0.2199
   35TMC2    O1  554   3.231   1.417  11.634 -0.0911 -0.2365 -0.3480
   35TMC2    O2  555   3.153   1.826  11.178  0.3583  0.5198  0.0778
   35TMC2    O5  556   3.290   1.969  11.274 -0.6285  0.0291 -0.5162
   35TMC2    H5  557   3.372   1.992  11.324 -1.6300  1.9135  0.2561
   36MPD2     C  558   3.981   1.578  11.845  0.1317  0.7299  0.0516
   36MPD2    C1  559   3.881   1.488  11.873 -0.0100 -0.0058 -0.1996
   36MPD2    C2  560   3.765   1.517  11.806  0.0206  0.2899 -0.0889
   36MPD2    C3  561   3.748   1.611  11.718 -0.4381  0.1249  0.9418
   36MPD2    C4  562   3.847   1.703  11.700 -0.1982  0.2444 -0.2472
   36MPD2    C5  563   3.966   1.682  11.763 -0.4619 -0.0956 -0.8495
   36MPD2     H  564   3.680   1.454  11.831 -1.0230  1.8817  0.3426
   36MPD2    H1  565   3.836   1.784  11.629 -0.0891  0.2349 -0.2755
   36MPD2    H2  566   4.074   1.573  11.900 -0.0852  0.5727  0.4082
   36MPD2    H3  567   4.051   1.746  11.743  0.1904 -0.3069  1.2509
   36MPD2     N  568   3.626   1.616  11.654 -0.3369 -0.5663 -0.9829
   36MPD2    H5  569   3.555   1.546  11.675 -0.2312 -0.0781  0.9539
   36MPD2    N1  570   3.904   1.400  11.976  0.0601 -0.2583  0.6177
   36MPD2    H7  571   3.999   1.395  12.012 -0.0561  1.1622  1.1184
   37TMC2    C1  572   1.315   1.830  12.230 -0.6005  0.5801 -0.5250
   37TMC2    C2  573   1.348   1.853  12.102 -0.4836  0.3334 -0.5977
   37TMC2    C3  574   1.471   1.895  12.072 -0.0417  0.4213 -0.1893
   37TMC2    C4  575   1.409   1.849  12.329 -0.1635  0.6710 -0.5203
   37TMC2    C5  576   1.533   1.892  12.297  0.6886 -0.0656  0.2246
   37TMC2    C6  577   1.567   1.910  12.165 -0.0838  0.1440  0.2738
   37TMC2     C  578   1.174   1.823  12.266 -0.4113  0.2021 -0.4564
   37TMC2     O  579   1.100   1.830  12.171 -0.2054 -0.2687  0.7702
   37TMC2     H  580   1.281   1.851  12.017 -1.7772 -0.6205  0.4589
   37TMC2    H1  581   1.384   1.842  12.435  2.1599  2.0769  0.1185
   37TMC2    H2  582   1.653   1.963  12.124 -1.7924  1.6103 -1.4235
   37TMC2    C7  583   1.638   1.891  12.392  0.2992 -0.3867 -0.8007
   37TMC2    C8  584   1.507   1.932  11.942  0.2640  0.1210  0.0188
   37TMC2    O1  585   1.610   1.905  12.512 -0.1229  0.6653  0.1298
   37TMC2    O2  586   1.418   1.938  11.857 -0.0669  0.0854  0.3523
   37TMC2    O5  587   1.614   1.859  11.913  0.2252  0.4594 -0.3065
   37TMC2    H5  588   1.674   1.834  11.986  1.1386 -0.5722 -1.4077
   38MPD2     C  589   0.777   1.719  12.586  0.1800  0.3387 -0.0183
   38MPD2    C1  590   0.895   1.703  12.652  0.3587 -0.3157  0.6391
   38MPD2    C2  591   1.015   1.735  12.593 -0.7041  0.0043 -0.2909
   38MPD2    C3  592   1.016   1.770  12.456 -0.5096  1.2543  0.8018
   38MPD2    C4  593   0.899   1.770  12.383 -0.0412  0.1284 -0.2972
   38MPD2    C5  594   0.779   1.753  12.450  0.2412  0.4736 -0.8293
   38MPD2     H  595   1.104   1.739  12.653 -0.0773 -1.9193 -1.1022
   38MPD2    H1  596   0.904   1.794  12.277  1.8267  0.4442 -0.1340
   38MPD2    H2  597   0.683   1.710  12.640 -0.0576 -1.1827 -0.6863
   38MPD2    H3  598   0.687   1.777  12.399 -0.7582 -2.6630 -0.5294
   38MPD2     N  599   1.141   1.800  12.397  0.5958 -0.4430  0.1026
   38MPD2    H5  600   1.217   1.794  12.464  0.1332 -1.3458  0.5591
   38MPD2    N1  601   0.895   1.683  12.789 -0.0725 -0.0497  1.0442
   38MPD2    H7  602   0.985   1.687  12.836  0.7837  2.0445 -0.8267
   39TMC2    C1  603   4.320   3.931   1.884 -0.0772 -0.1385 -0.4058
   39TMC2    C2  604   4.233   4.035   1.909  0.1571  0.6224 -0.2603
   39TMC2    C3  605   4.271   4.133   2.002 -0.1462 -0.3408 -0.0241
   39TMC2    C4  606   4.437   3.923   1.960 -1.5150 -1.0113  0.0587
   39TMC2    C5  607   4.477   4.026   2.043  0.5278  0.4041 -0.2318
   39TMC2    C6  608   4.388   4.128   2.073 -0.2415 -0.0073  0.8335
   39TMC2     C  609   4.274   3.831   1.796  0.7417 -0.1025  0.2710
   39TMC2     O  610   4.158   3.816   1.778 -0.1786 -0.7298  0.1031
   39TMC2     H  611   4.145   4.049   1.848 -0.9422  1.4146  1.5233
   39TMC2    H1  612   4.507   3.844   1.937  0.2237  0.4763  0.2072
   39TMC2    H2  613   4.409   4.209   2.142 -0.8311  0.4771  0.4460
   39TMC2    C7  614   4.618   4.038   2.065 -0.5284  0.5273 -0.1246
   39TMC2    C8  615   4.181   4.241   2.034 -0.2976 -0.2884 -0.0839
   39TMC2    O1  616   4.670   3.928   2.058 -0.1451 -0.5842 -0.1499
   39TMC2    O2  617   4.235   4.348   2.054  0.2225  0.2305  0.2303
   39TMC2    O5  618   4.068   4.222   1.965  0.1893  0.6292  0.2810
   39TMC2    H5  619   4.032   4.131   1.955 -2.4939  1.7157 -0.0526
   40MPD2     C  620   4.493   3.549   1.679 -0.5529 -0.4260 -0.5133
   40MPD2    C1  621   4.375   3.622   1.693 -0.3113  0.2879 -0.5823
   40MPD2    C2  622   4.259   3.568   1.639  0.5582 -0.1712  0.0019
   40MPD2    C3  623   4.256   3.439   1.573 -0.5766  0.1421  0.1771
   40MPD2    C4  624   4.374   3.376   1.574  0.2203  0.6357 -0.1185
   40MPD2    C5  625   4.489   3.425   1.622 -0.4949 -0.3329  0.5239
   40MPD2     H  626   4.170   3.627   1.658 -0.1104 -1.4733  0.8851
   40MPD2    H1  627   4.373   3.279   1.526 -0.9120  0.9356 -0.6873
   40MPD2    H2  628   4.582   3.588   1.726 -1.7805 -0.4424  1.8159
   40MPD2    H3  629   4.579   3.367   1.612 -0.3504 -0.0647  0.2615
   40MPD2     N  630   4.132   3.379   1.515 -0.0508 -0.6852 -0.3604
   40MPD2    H5  631   4.141   3.292   1.463 -1.9028 -2.5356  2.4628
   40MPD2    N1  632   4.378   3.748   1.760  0.5103 -0.2916 -0.3004
   40MPD2    H7  633   4.472   3.781   1.782  0.1224  0.6409 -0.0322
   41TMC2    C1  634   3.444   1.748  14.057 -0.1862 -0.3506 -0.1931
   41TMC2    C2  635   3.523   1.665  14.132 -1.2536 -0.7997 -0.1646
   41TMC2    C3  636   3.642   1.633  14.092 -0.3707  0.1901  0.5364
   41TMC2    C4  637   3.485   1.788  13.932  0.0499  0.7036  0.7396
   41TMC2    C5  638   3.605   1.742  13.890  0.0829  0.6576  1.1721
   41TMC2    C6  639   3.692   1.671  13.970 -0.1701 -0.2624  0.3407
   41TMC2     C  640   3.318   1.800  14.106  0.1780 -0.2436  0.1099
   41TMC2     O  641   3.279   1.730  14.196  0.7513 -0.1213  0.4406
   41TMC2     H  642   3.481   1.632  14.227 -2.4978 -1.3139 -0.8966
   41TMC2    H1  643   3.422   1.858  13.877 -0.1218  0.2359  0.3405
   41TMC2    H2  644   3.796   1.659  13.942 -0.6098 -0.6058 -1.1217
   41TMC2    C7  645   3.671   1.817  13.784 -0.3060  0.2499  0.5350
   41TMC2    C8  646   3.735   1.606  14.200 -0.1504 -0.4037 -0.5361
   41TMC2    O1  647   3.780   1.866  13.810 -0.5269  0.3075  0.2437
   41TMC2    O2  648   3.698   1.631  14.314  0.9783 -0.5117 -0.3680
   41TMC2    O5  649   3.791   1.491  14.171 -0.7667 -0.0949  0.0621
   41TMC2    H5  650   3.793   1.462  14.077  0.8171  0.9066 -0.2152
   42MPD2     C  651   3.117   1.955  14.237  0.4119  0.2289  0.0520
   42MPD2    C1  652   3.179   1.998  14.124 -0.3674 -0.2234  0.5628
   42MPD2    C2  653   3.148   2.120  14.077 -0.1270  0.1464  0.7037
   42MPD2    C3  654   3.062   2.208  14.147  0.0303 -0.1804  0.0397
   42MPD2    C4  655   2.998   2.156  14.259 -0.3846 -0.0446  0.3521
   42MPD2    C5  656   3.033   2.033  14.302 -0.7315 -1.0888  0.3547
   42MPD2     H  657   3.185   2.147  13.978  2.6070  1.6140  2.1367
   42MPD2    H1  658   2.939   2.215  14.329  0.7370  3.6390 -1.7732
   42MPD2    H2  659   3.135   1.861  14.289 -0.6913 -0.4725 -0.8362
   42MPD2    H3  660   2.996   2.003  14.400  1.1616 -1.0525  1.0841
   42MPD2     N  661   3.060   2.347  14.117 -0.1253 -0.2858 -0.0540
   42MPD2    H5  662   2.993   2.400  14.173 -0.6073  0.2814 -1.1680
   42MPD2    N1  663   3.271   1.920  14.055 -0.5642  0.4720  0.3373
   42MPD2    H7  664   3.326   1.964  13.982  0.1915  1.3650  1.4637
   43TMC2    C1  665   0.235   4.525   0.838  0.5820 -0.4439  0.0174
   43TMC2    C2  666   0.143   4.616   0.803  0.1280  0.7914  0.8462
   43TMC2    C3  667   0.151   0.006   0.857  0.1214 -0.6366  0.1442
   43TMC2    C4  668   0.336   4.560   0.927 -0.0054 -0.1518 -0.4888
   43TMC2    C5  669   0.342   4.679   0.981 -0.2483  0.9573 -0.4378
   43TMC2    C6  670   0.249   0.039   0.946 -0.2252 -0.7058  0.1364
   43TMC2     C  671   0.250   4.395   0.774 -0.2297  0.1323 -0.3152
   43TMC2     O  672   0.364   4.352   0.769  0.2797 -0.5872  0.6699
   43TMC2     H  673   0.058   4.591   0.741  1.3423 -1.2788 -0.0056
   43TMC2    H1  674   0.402   4.478   0.955  1.2949  0.9905 -0.1964
   43TMC2    H2  675   0.247   0.139   0.986  0.3374 -2.2945  4.1398
   43TMC2    C7  676   0.394   4.691   1.118 -0.6497  0.2051 -0.4113
   43TMC2    C8  677   0.029   0.085   0.854 -0.3886 -0.1326  1.2405
   43TMC2    O1  678   0.384   0.066   1.167  0.6468 -0.3350  0.4749
   43TMC2    O2  679   4.667   0.036   0.799  0.7587 -0.8846 -0.3697
   43TMC2    O5  680   0.070   0.210   0.837 -0.0205  0.0731  0.5779
   43TMC2    H5  681   0.151   0.237   0.885 -0.0666 -0.4829  0.9582
   44MPD2     C  682   0.124   4.096   0.370  0.8705  0.2421 -0.3329
   44MPD2    C1  683   0.247   4.104   0.434 -0.1286 -0.0415  0.1838
   44MPD2    C2  684   0.258   4.185   0.545  0.2274  0.7081  0.5387
   44MPD2    C3  685   0.141   4.248   0.598 -0.1548  0.0983 -0.4755
   44MPD2    C4  686   0.020   4.235   0.537 -0.0998 -0.8090 -0.1858
   44MPD2    C5  687   0.015   4.165   0.420  0.5279 -0.3174 -0.1162
   44MPD2     H  688   0.347   4.206   0.603  1.6225 -0.9964 -1.0152
   44MPD2    H1  689   4.667   4.277   0.579  0.3174  1.0371 -1.1730
   44MPD2    H2  690   0.114   4.036   0.280 -2.3714 -1.2815  1.0399
   44MPD2    H3  691   4.655   4.150   0.375 -0.0911  2.3138  0.3779
   44MPD2     N  692   0.140   4.347   0.702 -0.3361 -0.7425  0.3860
   44MPD2    H5  693   0.048   4.379   0.731 -0.7615 -1.4620 -0.1507
   44MPD2    N1  694   0.359   4.023   0.394  0.4315  0.0718  0.1893
   44MPD2    H7  695   0.439   4.000   0.452  0.9967 -0.4682 -0.8057
   45TMC2    C1  696   0.760   1.947   9.867 -0.0078 -0.0818  0.4734
   45TMC2    C2  697   0.805   1.911   9.744  0.1537 -0.0999  0.1028
   45TMC2    C3  698   0.901   1.991   9.683  0.2522 -0.6043  0.0940
   45TMC2    C4  699   0.828   2.041   9.941 -0.7052 -0.9454  0.2772
   45TMC2    C5  700   0.928   2.114   9.885 -0.0821 -0.1520  0.2411
   45TMC2    C6  701   0.969   2.088   9.755  0.4552  1.0555  0.1769
   45TMC2     C  702   0.678   1.857   9.944 -0.7190 -0.1370  0.1072
   45TMC2     O  703   0.683   1.855  10.066  0.2167 -0.2978  0.8384
   45TMC2     H  704   0.757   1.828   9.693 -2.7501  1.4786  0.2777
   45TMC2    H1  705   0.785   2.072  10.036  0.2064  0.7015  0.1524
   45TMC2    H2  706   1.045   2.144   9.702 -0.1833  1.4099 -0.3652
   45TMC2    C7  707   1.016   2.164   9.988 -0.0824 -0.3884 -0.4878
   45TMC2    C8  708   0.987   1.941   9.574 -0.0662 -0.0714 -0.4246
   45TMC2    O1  709   0.980   2.127  10.100 -0.3586  0.4346  0.1643
   45TMC2    O2  710   1.107   1.968   9.572  0.4369 -0.0867  0.0886
   45TMC2    O5  711   0.913   1.844   9.521 -0.8012  0.3312 -0.2008
   45TMC2    H5  712   0.949   1.798   9.442 -2.1917  0.5184 -0.9348
   46MPD2     C  713   0.534   1.603  10.035  0.2537  0.2681  0.1474
   46MPD2    C1  714   0.528   1.658   9.908 -0.3004  0.0868 -0.0134
   46MPD2    C2  715   0.448   1.590   9.813 -0.5937 -0.2162 -0.9103
   46MPD2    C3  716   0.362   1.487   9.851  0.1270 -0.0637  0.0957
   46MPD2    C4  717   0.369   1.446   9.981  0.3850  0.9093  0.3456
   46MPD2    C5  718   0.459   1.499  10.068  0.3062 -0.2758 -0.0119
   46MPD2     H  719   0.434   1.624   9.711 -2.1985  0.3791 -0.4792
   46MPD2    H1  720   0.298   1.376  10.024  2.5353 -1.3540  0.1937
   46MPD2    H2  721   0.591   1.655  10.111  1.4828 -2.4859  1.1022
   46MPD2    H3  722   0.462   1.477  10.174 -1.1902 -2.3389 -0.3915
   46MPD2     N  723   0.276   1.424   9.755  0.0316  0.5013 -0.2037
   46MPD2    H5  724   0.264   1.469   9.665  1.8551 -2.2288 -1.8430
   46MPD2    N1  725   0.601   1.775   9.861  0.1314  0.0725 -0.4680
   46MPD2    H7  726   0.605   1.792   9.761 -0.7530  0.0324 -0.5161
   47TMC2    C1  727   2.690   2.987   9.225 -0.5559 -0.2397  0.0967
   47TMC2    C2  728   2.633   3.109   9.180 -0.7829  0.0259 -0.3207
   47TMC2    C3  729   2.599   3.114   9.048  0.5662 -0.1971  0.1687
   47TMC2    C4  730   2.720   2.882   9.140 -0.2233  0.0101 -0.4071
   47TMC2    C5  731   2.696   2.898   9.006 -0.3103 -0.1356 -0.4324
   47TMC2    C6  732   2.645   3.016   8.961  0.3124 -0.1958  0.0876
   47TMC2     C  733   2.686   2.968   9.365  0.1164  0.1107  0.3452
   47TMC2     O  734   2.645   3.065   9.431 -0.4304 -0.5163  0.1846
   47TMC2     H  735   2.604   3.187   9.250  0.1634 -0.5214  0.6899
   47TMC2    H1  736   2.746   2.785   9.180  0.4162  0.9012  1.3611
   47TMC2    H2  737   2.634   3.033   8.855 -0.3412  1.5463  0.4317
   47TMC2    C7  738   2.710   2.780   8.923 -0.1582 -0.1004 -0.0107
   47TMC2    C8  739   2.576   3.248   8.995 -0.4726  0.3578 -0.1639
   47TMC2    O1  740   2.712   2.679   8.982  0.0349  0.0976  0.3047
   47TMC2    O2  741   2.609   3.354   9.052  0.6786 -0.2359 -0.0536
   47TMC2    O5  742   2.489   3.233   8.894  0.1950  0.3745 -0.1993
   47TMC2    H5  743   2.483   3.139   8.869 -2.8778  0.2862  0.8364
   48MPD2     C  744   2.771   2.909   9.635 -0.1021  0.8931  0.1857
   48MPD2    C1  745   2.821   2.842   9.527  0.1520 -0.1344  0.5891
   48MPD2    C2  746   2.922   2.754   9.553 -0.5153 -0.2306 -0.6657
   48MPD2    C3  747   2.973   2.733   9.684  0.5608 -0.1160 -0.1717
   48MPD2    C4  748   2.910   2.796   9.793  0.3871 -0.1804 -0.2135
   48MPD2    C5  749   2.814   2.882   9.761 -0.4475  0.0727  0.6067
   48MPD2     H  750   2.972   2.695   9.476  0.4192 -2.5749  1.7585
   48MPD2    H1  751   2.934   2.766   9.894  0.9757  2.7534  0.5401
   48MPD2    H2  752   2.692   2.983   9.635 -0.1361  0.8506 -0.4496
   48MPD2    H3  753   2.768   2.940   9.840 -2.0660 -0.0292 -0.2637
   48MPD2     N  754   3.090   2.656   9.700  0.6138 -0.2426  0.0928
   48MPD2    H5  755   3.121   2.613   9.613 -0.7680  0.6580 -0.8463
   48MPD2    N1  756   2.777   2.873   9.401 -0.2891  0.0304  0.3274
   48MPD2    H7  757   2.808   2.827   9.316  1.4047  0.5295  0.6617
   49TMC2    C1  758   2.261   0.629  10.379  0.1467  0.1604  0.1065
   49TMC2    C2  759   2.339   0.684  10.475  0.1735 -0.1825  0.0375
   49TMC2    C3  760   2.459   0.727  10.436  0.0627  0.1314  0.4181
   49TMC2    C4  761   2.291   0.634  10.248  0.3947  0.0720 -0.2687
   49TMC2    C5  762   2.416   0.687  10.207  0.4923  0.3697 -0.1758
   49TMC2    C6  763   2.504   0.725  10.307 -0.0526  0.7921 -0.5533
   49TMC2     C  764   2.124   0.592  10.422  0.2801  0.4497  0.4899
   49TMC2     O  765   2.037   0.582  10.338 -0.1981 -0.4661  0.3243
   49TMC2     H  766   2.311   0.690  10.580  3.2295 -0.8657  0.8982
   49TMC2    H1  767   2.225   0.598  10.170  1.2378  0.4245 -1.1405
   49TMC2    H2  768   2.601   0.758  10.273  1.4825 -0.6294  2.5363
   49TMC2    C7  769   2.477   0.650  10.081  0.2923  0.6078  1.0358
   49TMC2    C8  770   2.549   0.754  10.543 -0.2249  0.8041  0.3018
   49TMC2    O1  771   2.594   0.617  10.091 -0.5928 -0.6816 -0.2484
   49TMC2    O2  772   2.658   0.703  10.551  0.2634  0.1318 -0.1941
   49TMC2    O5  773   2.502   0.849  10.616  0.2372 -0.0312 -0.5675
   49TMC2    H5  774   2.419   0.899  10.602 -0.9228 -1.1289  2.3143
   50MPD2     C  775   1.875   0.508  10.579 -0.9273  0.5713  0.4703
   50MPD2    C1  776   2.000   0.552  10.634 -0.4547  0.1453 -0.4213
   50MPD2    C2  777   2.014   0.553  10.774 -0.0355 -0.1637  0.2463
   50MPD2    C3  778   1.911   0.509  10.861  0.2685 -0.1344  0.3951
   50MPD2    C4  779   1.792   0.468  10.802  0.4700 -0.1510 -0.0802
   50MPD2    C5  780   1.779   0.457  10.664  0.7166  0.1925  0.5761
   50MPD2     H  781   2.109   0.591  10.809 -0.6181  1.0089  0.5637
   50MPD2    H1  782   1.711   0.434  10.866  1.7908 -0.6485  1.3405
   50MPD2    H2  783   1.860   0.502  10.471  2.3223  1.2265 -0.0370
   50MPD2    H3  784   1.687   0.412  10.628  1.8435 -0.5957 -1.3467
   50MPD2     N  785   1.909   0.513  11.000 -0.9297 -0.5144  0.7317
   50MPD2    H5  786   1.824   0.502  11.055 -0.9653  3.1668  1.4539
   50MPD2    N1  787   2.118   0.583  10.559 -0.1440  0.0450 -0.0511
   50MPD2    H7  788   2.202   0.553  10.606  0.4325 -0.0415 -1.1607
   51TMC2    C1  789   1.520   2.098   1.234  0.4241 -0.3549 -0.0323
   51TMC2    C2  790   1.386   2.080   1.215 -1.2188  0.0358 -0.7185
   51TMC2    C3  791   1.327   2.131   1.100 -0.7183 -0.7453  0.5756
   51TMC2    C4  792   1.595   2.186   1.161  0.1994 -0.2148  0.5795
   51TMC2    C5  793   1.533   2.236   1.048  0.0368  0.0004  0.6219
   51TMC2    C6  794   1.400   2.205   1.015 -0.2263 -0.0876 -0.3252
   51TMC2     C  795   1.593   2.035   1.341 -0.5333  0.4498  0.4087
   51TMC2     O  796   1.715   2.051   1.348 -0.3612  0.3069 -0.7234
   51TMC2     H  797   1.330   2.012   1.278 -1.8443 -0.1046 -1.4234
   51TMC2    H1  798   1.698   2.214   1.181  0.6823 -1.7935  0.2532
   51TMC2    H2  799   1.350   2.242   0.926  1.0149  1.5711 -0.3248
   51TMC2    C7  800   1.598   2.344   0.973 -0.1251  0.3611  1.1338
   51TMC2    C8  801   1.200   2.085   1.047 -0.0650 -0.1184  0.1067
   51TMC2    O1  802   1.694   2.400   1.023  0.1368  0.3277  0.2006
   51TMC2    O2  803   1.148   2.130   0.943 -0.3367 -0.1831  0.0655
   51TMC2    O5  804   1.130   2.081   1.160 -0.2452 -0.1186  0.1555
   51TMC2    H5  805   1.179   2.070   1.244 -0.3980  1.3888  0.4507
   52MPD2     C  806   1.670   1.703   1.732  0.8589  0.2757  0.9519
   52MPD2    C1  807   1.752   1.766   1.639 -0.1020 -0.1840 -0.1815
   52MPD2    C2  808   1.706   1.850   1.538 -0.0679 -0.1796 -0.1136
   52MPD2    C3  809   1.576   1.873   1.521 -0.4550  0.3567 -0.2424
   52MPD2    C4  810   1.489   1.802   1.597  0.2515  0.1941  0.0496
   52MPD2    C5  811   1.533   1.719   1.699  0.4312 -0.4563  0.3184
   52MPD2     H  812   1.787   1.890   1.479  1.0337 -0.3361  1.2735
   52MPD2    H1  813   1.381   1.799   1.585  0.1074 -0.2569  1.4183
   52MPD2    H2  814   1.699   1.632   1.808 -0.7484 -0.9351  0.4276
   52MPD2    H3  815   1.457   1.658   1.748 -3.1807  3.2797 -0.6618
   52MPD2     N  816   1.522   1.947   1.415  0.5958 -0.1116 -0.0351
   52MPD2    H5  817   1.421   1.951   1.408  0.5495  0.2187  0.8434
   52MPD2    N1  818   1.894   1.751   1.640  0.3535 -0.3262  0.5576
   52MPD2    H7  819   1.939   1.816   1.576  0.1094 -0.2223  0.4925
   53TMC2    C1  820   2.114   2.010  12.932  0.4758  0.1366  0.2342
   53TMC2    C2  821   2.154   1.912  13.015  0.5778 -0.0802 -0.2537
   53TMC2    C3  822   2.064   1.873  13.116  0.4705  0.7747 -0.4883
   53TMC2    C4  823   1.988   2.067  12.940 -0.5489 -0.2166 -0.5894
   53TMC2    C5  824   1.908   2.019  13.037  0.1807 -0.2466 -0.1354
   53TMC2    C6  825   1.936   1.923  13.130 -0.2500 -0.1913 -0.6943
   53TMC2     C  826   2.155   1.985  12.795  0.2431  0.5321 -0.2658
   53TMC2     O  827   2.263   1.934  12.766  0.3678 -0.5542 -0.0260
   53TMC2     H  828   2.249   1.865  12.993  0.8532  0.4463 -0.1660
   53TMC2    H1  829   1.954   2.156  12.888 -0.3499 -0.2011 -0.6932
   53TMC2    H2  830   1.875   1.889  13.213  0.2291  0.5232 -0.0610
   53TMC2    C7  831   1.767   2.051  13.009 -0.3934 -0.1358  0.1984
   53TMC2    C8  832   2.097   1.764  13.207 -0.5902 -0.1033 -0.2493
   53TMC2    O1  833   1.747   2.085  12.898 -0.2068  0.1140  0.0416
   53TMC2    O2  834   2.051   1.757  13.320  0.2357  0.4918 -0.4063
   53TMC2    O5  835   2.177   1.669  13.147  0.1438 -0.8984  0.3245
   53TMC2    H5  836   2.166   1.660  13.050  1.1634 -0.2100  0.1389
   54MPD2     C  837   2.138   1.951  12.503  0.1378 -0.4251  0.1286
   54MPD2    C1  838   2.030   1.953  12.589 -0.2225  0.5331  0.1402
   54MPD2    C2  839   1.904   1.932  12.534  0.5076  0.4708  0.8228
   54MPD2    C3  840   1.890   1.903  12.397 -0.7469 -0.4514  0.1999
   54MPD2    C4  841   2.004   1.894  12.317 -0.5497  0.2502  0.2792
   54MPD2    C5  842   2.126   1.919  12.371 -0.2360  0.1800 -0.0973
   54MPD2     H  843   1.820   1.946  12.601 -1.0770 -0.2127 -1.0297
   54MPD2    H1  844   1.987   1.864  12.214 -1.5249 -0.4966  0.6601
   54MPD2    H2  845   2.242   1.969  12.529 -0.4462  1.2062  1.3281
   54MPD2    H3  846   2.208   1.924  12.300 -0.7498  0.0429 -0.7045
   54MPD2     N  847   1.765   1.893  12.335 -0.1767 -0.0100 -0.2736
   54MPD2    H5  848   1.768   1.894  12.233  2.2830 -0.7063 -0.2046
   54MPD2    N1  849   2.040   1.977  12.725 -0.1659 -0.2323 -0.0042
   54MPD2    H7  850   1.952   1.992  12.775 -1.2659 -1.2364 -1.6484
   55TMC2    C1  851   2.943   4.525   0.167  0.3662 -0.6063 -0.0711
   55TMC2    C2  852   3.034   4.594   0.084 -0.0747  0.2628 -0.4005
   55TMC2    C3  853   3.125   4.522   0.020  0.4907  0.0963  0.0682
   55TMC2    C4  854   2.945   4.389   0.179 -0.6631  0.4629  0.4795
   55TMC2    C5  855   3.038   4.318   0.097  0.3145 -0.1471 -0.4089
   55TMC2    C6  856   3.123   4.383   0.011  0.1081 -0.1153  0.2406
   55TMC2     C  857   2.854   4.605   0.258 -0.4527  0.0040 -0.5272
   55TMC2     O  858   2.801   4.535   0.344  0.0543 -0.4966 -0.1686
   55TMC2     H  859   3.068   4.695   0.100  0.5907 -0.1796  0.9065
   55TMC2    H1  860   2.872   4.329   0.231 -0.9479 -0.7509 -1.3236
   55TMC2    H2  861   3.206   4.326  17.717 -0.6308 -0.4576 -0.7958
   55TMC2    C7  862   3.053   4.176   0.110  0.3605  0.2336  0.4953
   55TMC2    C8  863   3.216   4.599  17.688 -0.3193  0.7190 -0.2027
   55TMC2    O1  864   3.122   4.132   0.020 -0.2808  0.9538  0.1343
   55TMC2    O2  865   3.191   4.714  17.654 -0.4251  0.2648 -0.2684
   55TMC2    O5  866   3.340   4.541  17.694  0.0637  0.3748  0.1797
   55TMC2    H5  867   3.352   4.452  17.733 -2.2334  0.6617  1.5453
   56MPD2     C  868   2.769   0.229   0.261 -0.3676  0.6082 -0.0431
   56MPD2    C1  869   2.772   0.099   0.306 -0.1324  0.1864  0.6567
   56MPD2    C2  870   2.696   0.071   0.417  0.1666 -0.1123  0.2862
   56MPD2    C3  871   2.589   0.155   0.446  0.6842  0.4246 -0.3303
   56MPD2    C4  872   2.577   0.285   0.397 -0.1338  0.3093  0.1413
   56MPD2    C5  873   2.670   0.321   0.303  0.5709  0.2616 -0.1326
   56MPD2     H  874   2.699   4.710   0.465 -0.5512  0.0785  0.7241
   56MPD2    H1  875   2.491   0.348   0.413 -0.1108  0.0364  1.3428
   56MPD2    H2  876   2.842   0.246   0.182  0.4221 -1.1040  0.3218
   56MPD2    H3  877   2.669   0.416   0.252  0.9445  0.0966 -0.4457
   56MPD2     N  878   2.487   0.098   0.527  0.4019  0.5830  0.5151
   56MPD2    H5  879   2.500   0.002   0.557  0.6301  0.1417 -1.0013
   56MPD2    N1  880   2.855   0.008   0.240  0.0661  0.1428  0.5372
   56MPD2    H7  881   2.899   0.043   0.156  0.1843 -1.0930  0.0842
   57TMC2    C1  882   1.507   0.585  13.791 -0.1885  0.2540  0.1188
   57TMC2    C2  883   1.494   0.450  13.787 -0.1312  1.0312 -0.3836
   57TMC2    C3  884   1.562   0.386  13.690 -0.1475 -0.1636 -0.5760
   57TMC2    C4  885   1.582   0.649  13.702  0.5894 -0.0704 -0.0796
   57TMC2    C5  886   1.635   0.583  13.600  0.1084 -0.5389  0.1008
   57TMC2    C6  887   1.624   0.446  13.586 -0.2272  0.1368  0.2259
   57TMC2     C  888   1.459   0.668  13.900 -0.6753  0.5935  0.5159
   57TMC2     O  889   1.445   0.782  13.867 -0.6552  0.0040 -0.2813
   57TMC2     H  890   1.428   0.401  13.857 -0.4904  2.0487 -0.0077
   57TMC2    H1  891   1.603   0.755  13.709  1.1373 -0.3653  2.8696
   57TMC2    H2  892   1.665   0.401  13.496  2.2676  0.7724  1.0351
   57TMC2    C7  893   1.747   0.636  13.540 -0.2962  0.0513  0.0096
   57TMC2    C8  894   1.549   0.239  13.692  0.1698 -0.0476 -0.5543
   57TMC2    O1  895   1.761   0.754  13.530  0.0202 -0.3687 -0.2077
   57TMC2    O2  896   1.574   0.170  13.792 -0.2994  0.6590  0.1443
   57TMC2    O5  897   1.443   0.212  13.616  0.1879  0.2509 -0.0331
   57TMC2    H5  898   1.435   0.270  13.537 -0.0915 -0.2320 -0.3618
   58MPD2     C  899   1.336   0.820  14.367  0.4398  0.1588 -0.1241
   58MPD2    C1  900   1.316   0.886  14.248 -0.4323 -0.1114  0.2206
   58MPD2    C2  901   1.348   0.812  14.132 -0.0980 -0.3280 -0.0098
   58MPD2    C3  902   1.399   0.679  14.136  0.4105  0.7220 -0.4768
   58MPD2    C4  903   1.419   0.617  14.259 -0.7635 -0.8362  0.0081
   58MPD2    C5  904   1.385   0.688  14.371  0.0167 -0.8269  0.3197
   58MPD2     H  905   1.313   0.852  14.037 -2.9566 -1.8083  0.4204
   58MPD2    H1  906   1.461   0.518  14.271  0.7932 -0.5408 -3.0698
   58MPD2    H2  907   1.326   0.862  14.466  1.1934 -0.2983  0.1502
   58MPD2    H3  908   1.391   0.633  14.464  1.4424 -0.6120  0.3537
   58MPD2     N  909   1.433   0.609  14.020  0.0425 -0.0985 -0.0137
   58MPD2    H5  910   1.460   0.514  14.041  0.8642 -0.7008 -3.7014
   58MPD2    N1  911   1.267   1.014  14.230  0.2974  0.5257  0.1004
   58MPD2    H7  912   1.270   1.051  14.136  0.2840 -0.0976 -0.1453
   59TMC2    C1  913   3.947   0.801  13.232 -0.4949  0.1122  0.5005
   59TMC2    C2  914   3.825   0.761  13.183  0.0268  0.0919 -0.4382
   59TMC2    C3  915   3.813   0.772  13.047 -0.0146  0.3694 -0.8372
   59TMC2    C4  916   4.053   0.845  13.152  0.3930 -0.0781  0.4641
   59TMC2    C5  917   4.024   0.857  13.020 -0.1813 -0.7184 -0.3001
   59TMC2    C6  918   3.906   0.816  12.964 -0.3112  0.4816 -0.1957
   59TMC2     C  919   3.939   0.845  13.375 -0.3313  0.0933 -0.5813
   59TMC2     O  920   3.831   0.837  13.433  0.1097 -0.5673  0.2497
   59TMC2     H  921   3.744   0.728  13.247  0.9445  2.4855  1.9692
   59TMC2    H1  922   4.150   0.875  13.191  0.1541  2.6911 -1.0181
   59TMC2    H2  923   3.900   0.807  12.856  0.6186  0.1908 -0.2253
   59TMC2    C7  924   4.142   0.870  12.938  0.4363  0.0003 -0.1253
   59TMC2    C8  925   3.691   0.723  12.988 -0.4590  0.2986  0.2642
   59TMC2    O1  926   4.249   0.863  12.994  0.0577 -0.3892 -0.6229
   59TMC2    O2  927   3.591   0.706  13.051  0.0080  0.5535  0.1916
   59TMC2    O5  928   3.740   0.632  12.906 -0.4364 -0.4427 -0.3198
   59TMC2    H5  929   3.838   0.637  12.895 -0.4363  1.4915  0.6180
   60MPD2     C  930   3.985   1.013  13.596 -0.5440  0.2086 -1.0134
   60MPD2    C1  931   4.083   0.952  13.536 -0.1898  0.2970  0.7665
   60MPD2    C2  932   4.218   0.964  13.577  0.2497 -0.5156  0.3793
   60MPD2    C3  933   4.242   1.042  13.693 -0.3462 -0.1171 -0.5246
   60MPD2    C4  934   4.131   1.084  13.759  0.1831  0.1166  0.1505
   60MPD2    C5  935   4.001   1.079  13.712 -0.4286 -1.3573 -0.2303
   60MPD2     H  936   4.301   0.926  13.519 -1.7742 -2.1423 -1.4350
   60MPD2    H1  937   4.144   1.145  13.847 -0.9284  1.9001 -0.9214
   60MPD2    H2  938   3.883   1.013  13.558 -1.0502 -0.2776  0.3309
   60MPD2    H3  939   3.918   1.124  13.766 -0.1343 -1.0938 -0.0011
   60MPD2     N  940   4.372   1.077  13.744  0.3120  0.2352  0.5813
   60MPD2    H5  941   4.371   1.125  13.833  0.2362 -1.0575  1.2690
   60MPD2    N1  942   4.065   0.880  13.418 -0.0251  0.4026 -0.9093
   60MPD2    H7  943   4.149   0.847  13.372  1.9416  0.4181  2.6729
   61TMC2    C1  944   3.666   2.520  15.246 -0.4603 -0.5894  0.5206
   61TMC2    C2  945   3.562   2.447  15.290 -0.5711 -0.0950  0.0235
   61TMC2    C3  946   3.458   2.513  15.353 -0.2673 -1.0545  0.5285
   61TMC2    C4  947   3.678   2.656  15.266  0.0693  0.3828  0.8502
   61TMC2    C5  948   3.571   2.723  15.330  0.8620  0.2682  0.1317
   61TMC2    C6  949   3.457   2.650  15.377 -0.5958 -1.0335  0.1403
   61TMC2     C  950   3.722   2.462  15.123  0.0629  0.1301 -0.1630
   61TMC2     O  951   3.741   2.341  15.112  0.1198 -0.6479 -0.2301
   61TMC2     H  952   3.569   2.339  15.280  1.0843 -0.0137  0.1535
   61TMC2    H1  953   3.757   2.721  15.231  0.0964  0.2888  0.7382
   61TMC2    H2  954   3.372   2.694  15.429  0.5126  0.6322  0.5279
   61TMC2    C7  955   3.574   2.869  15.324  0.2939  0.6422 -1.1792
   61TMC2    C8  956   3.384   2.451  15.463  0.1532  0.5161 -0.2766
   61TMC2    O1  957   3.677   2.929  15.289 -0.4077 -0.5772 -0.3470
   61TMC2    O2  958   3.388   2.516  15.565  0.5948  0.1016 -0.1582
   61TMC2    O5  959   3.432   2.326  15.454  0.0862 -0.1368 -0.0455
   61TMC2    H5  960   3.421   2.303  15.360 -2.6302  0.4118  0.1420
   62MPD2     C  961   3.834   2.435  14.847 -0.3106  0.3340 -0.0807
   62MPD2    C1  962   3.807   2.553  14.910 -0.1522  0.1592  0.1792
   62MPD2    C2  963   3.829   2.674  14.845  0.4282  0.5035  0.6577
   62MPD2    C3  964   3.870   2.672  14.712  0.9086 -0.1059 -0.1523
   62MPD2    C4  965   3.886   2.550  14.645  0.3690  0.5599  0.3256
   62MPD2    C5  966   3.860   2.430  14.704 -0.1987  0.5081 -0.7740
   62MPD2     H  967   3.807   2.769  14.890 -1.2407  0.5722 -0.3150
   62MPD2    H1  968   3.908   2.553  14.539  4.0315  0.5898  1.0961
   62MPD2    H2  969   3.815   2.340  14.894 -0.7730  0.4272 -0.0804
   62MPD2    H3  970   3.869   2.346  14.636  1.7058  0.3558 -0.3417
   62MPD2     N  971   3.898   2.790  14.640 -0.1562  0.4169 -0.2368
   62MPD2    H5  972   3.916   2.782  14.541 -0.6251 -1.2534 -0.1890
   62MPD2    N1  973   3.753   2.561  15.038 -0.8225  0.1613 -0.0936
   62MPD2    H7  974   3.731   2.654  15.072 -0.5497 -0.4731  1.8603
   63TMC2    C1  975   3.481   2.336  10.900 -0.0545 -0.1817 -0.1297
   63TMC2    C2  976   3.567   2.332  11.014  0.6095  0.0422  0.0182
   63TMC2    C3  977   3.635   2.444  11.045  0.7270  0.4854 -0.4160
   63TMC2    C4  978   3.488   2.446  10.816  0.3761  0.4788 -0.1959
   63TMC2    C5  979   3.559   2.553  10.854 -0.6507 -0.7762  0.2834
   63TMC2    C6  980   3.632   2.555  10.973 -0.6756 -0.6465  0.3598
   63TMC2     C  981   3.389   2.227  10.870  0.3450 -0.8734  0.0392
   63TMC2     O  982   3.413   2.123  10.933  0.0338  0.0815 -0.5897
   63TMC2     H  983   3.553   2.257  11.090 -3.4209  2.0261  1.2722
   63TMC2    H1  984   3.430   2.445  10.724 -0.7572 -0.7037  0.5305
   63TMC2    H2  985   3.671   2.647  11.015 -0.2904 -0.8863  0.5325
   63TMC2    C7  986   3.510   2.677  10.800 -0.5111 -0.2997 -0.2750
   63TMC2    C8  987   3.687   2.468  11.182 -0.2956  0.2385 -0.2557
   63TMC2    O1  988   3.405   2.662  10.743 -0.2617  0.7238  0.5513
   63TMC2    O2  989   3.703   2.575  11.235 -0.6051  0.4524  0.6836
   63TMC2    O5  990   3.730   2.354  11.234  0.4915  0.1756  0.0911
   63TMC2    H5  991   3.736   2.267  11.189  0.8737  1.8553 -3.1108
   64MPD2     C  992   2.958   2.037  10.674  0.1925 -0.8460  1.7349
   64MPD2    C1  993   3.047   1.987  10.764 -0.0492 -0.4715 -0.3009
   64MPD2    C2  994   3.156   2.060  10.799  0.0953  0.6079  0.4158
   64MPD2    C3  995   3.187   2.184  10.742 -0.0331  0.1164  0.8009
   64MPD2    C4  996   3.091   2.233  10.658 -0.3316  0.0353  0.3251
   64MPD2    C5  997   2.986   2.160  10.623  0.7741  0.2581  0.0791
   64MPD2     H  998   3.221   2.011  10.871  2.7636  1.5236 -1.3705
   64MPD2    H1  999   3.102   2.330  10.611 -0.2060  0.9041  2.1792
   64MPD2    H2 1000   2.876   1.983  10.628  0.4090 -0.3661  0.7885
   64MPD2    H3 1001   2.906   2.208  10.567  0.2124  0.1613  0.7987
   64MPD2     N 1002   3.294   2.263  10.779 -0.0170 -0.2477  0.7392
   64MPD2    H5 1003   3.286   2.362  10.758  1.5223 -0.5035 -1.0166
   64MPD2    N1 1004   3.044   1.850  10.794  0.3647 -0.0356 -0.6576
   64MPD2    H7 1005   3.127   1.795  10.773  0.1014 -0.7364  0.1339
   65TMC2    C1 1006   4.612   2.004  15.290  0.4674 -0.4415  0.2108
   65TMC2    C2 1007   4.539   1.939  15.190 -0.6860  0.5990 -0.3326
   65TMC2    C3 1008   4.449   2.013  15.118  0.2896  0.2828 -0.6880
   65TMC2    C4 1009   4.593   2.141  15.312 -0.3614 -0.1309  0.6316
   65TMC2    C5 1010   4.509   2.210  15.226  0.4889  0.2978 -0.6913
   65TMC2    C6 1011   4.424   2.152  15.135  0.7161  0.2504 -0.0990
   65TMC2     C 1012   4.676   1.932  15.399  0.0164 -0.2155 -0.2282
   65TMC2     O 1013   4.695   1.990  15.506 -0.1630 -0.3130 -0.3641
   65TMC2     H 1014   4.552   1.834  15.168  1.5518  0.8431 -0.1955
   65TMC2    H1 1015   4.649   2.194  15.388  1.8027 -2.3086  0.5650
   65TMC2    H2 1016   4.356   2.206  15.070  0.1431 -1.1245 -0.6358
   65TMC2    C7 1017   4.491   2.348  15.255  0.0696  0.1861  0.4955
   65TMC2    C8 1018   4.390   1.936  15.012 -0.3729 -0.5108  0.0926
   65TMC2    O1 1019   4.473   2.421  15.159 -0.1440  0.2932 -0.2405
   65TMC2    O2 1020   4.438   1.826  14.977 -0.1456  0.4041 -0.4870
   65TMC2    O5 1021   4.266   1.978  14.997 -0.0751  0.1089  0.3685
   65TMC2    H5 1022   4.231   2.040  15.064  0.2975 -0.5464  1.1708
   66MPD2     C 1023   0.009   1.710  15.593  0.4423  0.2799  0.8309
   66MPD2    C1 1024   4.718   1.696  15.454  0.6160 -0.4476 -0.3015
   66MPD2    C2 1025   4.710   1.565  15.409  0.1565 -1.0977  0.2958
   66MPD2    C3 1026   4.718   1.454  15.491 -1.0389  0.9065  0.0597
   66MPD2    C4 1027   4.737   1.475  15.627 -0.1728 -0.5798 -0.1687
   66MPD2    C5 1028   0.020   1.605  15.677  0.7472  0.8936 -0.4648
   66MPD2     H 1029   4.684   1.549  15.305 -1.9836  1.9952  0.3394
   66MPD2    H1 1030   0.013   1.392  15.695  1.9994 -0.9509 -1.0377
   66MPD2    H2 1031   0.031   1.810  15.628  1.2152  0.2744  0.3561
   66MPD2    H3 1032   0.048   1.625  15.780  1.4698  2.2391 -0.9210
   66MPD2     N 1033   4.697   1.322  15.451 -0.3205 -0.0994  0.0318
   66MPD2    H5 1034   4.697   1.250  15.523  0.6935 -0.4673 -0.3398
   66MPD2    N1 1035   4.692   1.801  15.362  0.3334  0.2124 -0.1662
   66MPD2    H7 1036   4.692   1.782  15.263 -0.4510  0.0775 -0.1422
   67TMC2    C1 1037   4.433   1.177  14.282  0.6975  0.1619  0.3571
   67TMC2    C2 1038   4.388   1.297  14.321 -0.1332 -0.4575  0.2732
   67TMC2    C3 1039   4.458   1.342  14.435 -0.5673 -0.9515 -0.4043
   67TMC2    C4 1040   4.531   1.097  14.338  0.3042  0.0057 -0.1669
   67TMC2    C5 1041   4.604   1.156  14.442  0.6073  0.0062  0.0423
   67TMC2    C6 1042   4.565   1.276  14.496  1.0397  0.4426 -0.0957
   67TMC2     C 1043   4.336   1.104  14.201  0.1166  0.4564  0.1940
   67TMC2     O 1044   4.392   1.015  14.125  0.1671 -0.3491  0.3427
   67TMC2     H 1045   4.321   1.360  14.264  4.0746  1.2450 -2.7912
   67TMC2    H1 1046   4.555   0.999  14.299  0.4528  0.0329 -0.1449
   67TMC2    H2 1047   4.616   1.329  14.575 -1.0306  1.5458  0.4917
   67TMC2    C7 1048   4.673   1.061  14.532 -0.3513 -0.0203  0.4239
   67TMC2    C8 1049   4.433   1.476  14.478  0.3051  0.5231 -0.5534
   67TMC2    O1 1050   4.655   0.943  14.509  0.5974 -0.1445  0.3757
   67TMC2    O2 1051   4.367   1.551  14.410 -0.2998 -0.0645 -0.1397
   67TMC2    O5 1052   4.453   1.487  14.610  0.3196 -0.4975 -0.6271
   67TMC2    H5 1053   4.451   1.404  14.662 -1.3126 -0.5069 -0.7105
   68MPD2     C 1054   4.116   0.974  14.062  0.8542 -0.1626 -0.0103
   68MPD2    C1 1055   4.104   1.084  14.142  0.1649 -0.3691  0.9456
   68MPD2    C2 1056   3.975   1.121  14.173  0.0128  1.0327  0.0291
   68MPD2    C3 1057   3.860   1.064  14.108  0.5449  0.6188 -0.3079
   68MPD2    C4 1058   3.880   0.963  14.017 -1.4884  0.5661  0.3271
   68MPD2    C5 1059   4.005   0.913  14.002 -0.5828  0.6437  0.3949
   68MPD2     H 1060   3.954   1.201  14.243  1.0347  1.4476 -0.1268
   68MPD2    H1 1061   3.799   0.924  13.956 -0.5625  0.0333 -0.5694
   68MPD2    H2 1062   4.211   0.924  14.044  0.5689 -1.6295  2.5370
   68MPD2    H3 1063   4.030   0.837  13.928 -0.8222 -1.2954  2.3112
   68MPD2     N 1064   3.732   1.127  14.114  0.0155 -0.2256  0.2203
   68MPD2    H5 1065   3.668   1.109  14.038  2.3392 -2.4274 -1.2063
   68MPD2    N1 1066   4.207   1.142  14.207 -0.0398 -0.3959  0.1735
   68MPD2    H7 1067   4.184   1.223  14.264 -3.8045 -2.0865  1.0445
   69TMC2    C1 1068   2.220   2.473  13.003  0.0401  0.2502  0.4105
   69TMC2    C2 1069   2.247   2.607  13.017 -0.2721 -0.0949 -0.4398
   69TMC2    C3 1070   2.342   2.669  12.946  0.5157  0.0995 -0.3237
   69TMC2    C4 1071   2.270   2.406  12.899 -0.5107 -0.2947  0.4247
   69TMC2    C5 1072   2.346   2.485  12.812  0.2052 -0.4274 -0.5113
   69TMC2    C6 1073   2.390   2.607  12.839 -0.0702 -0.3457  0.0584
   69TMC2     C 1074   2.186   2.387  13.123  0.2039 -0.2931 -0.4810
   69TMC2     O 1075   2.098   2.425  13.201 -0.4750 -0.0418 -0.1649
   69TMC2     H 1076   2.207   2.659  13.104 -1.8608 -2.8311  0.4686
   69TMC2    H1 1077   2.251   2.301  12.877 -0.9399 -0.0097 -0.5503
   69TMC2    H2 1078   2.463   2.655  12.775  1.1088 -2.6367 -0.3009
   69TMC2    C7 1079   2.350   2.438  12.673  0.6432 -0.5238 -0.5282
   69TMC2    C8 1080   2.331   2.817  12.930  0.0389 -0.1963 -0.9215
   69TMC2    O1 1081   2.435   2.498  12.604 -0.0232 -0.3713  0.4978
   69TMC2    O2 1082   2.417   2.897  12.970  0.7411  0.7849  0.2131
   69TMC2    O5 1083   2.207   2.837  12.899  0.2397 -0.3744  0.5233
   69TMC2    H5 1084   2.169   2.761  12.850 -0.4356  1.1071 -1.2693
   70MPD2     C 1085   2.372   2.087  13.207 -0.0666  0.2912  0.3617
   70MPD2    C1 1086   2.261   2.170  13.213  0.1434 -0.0199 -0.0454
   70MPD2    C2 1087   2.157   2.146  13.295 -0.1679  0.1291  0.0025
   70MPD2    C3 1088   2.162   2.036  13.381 -0.1187  0.0140 -0.2608
   70MPD2    C4 1089   2.284   1.973  13.394  0.0115 -0.2587  0.1069
   70MPD2    C5 1090   2.384   1.993  13.308  0.2578  0.2017  0.3945
   70MPD2     H 1091   2.076   2.216  13.280 -0.1602 -0.2484 -1.9096
   70MPD2    H1 1092   2.300   1.901  13.473 -2.4371 -0.4430  0.4213
   70MPD2    H2 1093   2.450   2.113  13.136 -1.2900  1.6017 -0.5171
   70MPD2    H3 1094   2.472   1.930  13.317  0.3966 -0.0304 -2.6093
   70MPD2     N 1095   2.059   2.001  13.465  0.0183 -0.2294  0.2195
   70MPD2    H5 1096   2.068   1.914  13.517  1.3235  0.0927  0.5395
   70MPD2    N1 1097   2.266   2.279  13.122 -0.4128 -0.5568  0.3844
   70MPD2    H7 1098   2.339   2.275  13.051  0.0458  0.3538  0.8080
   71TMC2    C1 1099   4.015   2.861   2.019 -0.6517 -0.0389  0.5870
   71TMC2    C2 1100   4.093   2.953   2.085  0.4605 -0.4793  0.6463
   71TMC2    C3 1101   4.034   3.040   2.174  0.1449  0.2479 -0.4020
   71TMC2    C4 1102   3.881   2.868   2.024  0.2629  1.0459 -0.1867
   71TMC2    C5 1103   3.826   2.961   2.112  0.1314  0.2729 -0.7162
   71TMC2    C6 1104   3.902   3.047   2.191 -0.4032  0.0339  0.7892
   71TMC2     C 1105   4.076   2.764   1.927  0.1455  0.5381  0.2404
   71TMC2     O 1106   4.183   2.790   1.869 -0.6568 -0.3660  0.0420
   71TMC2     H 1107   4.200   2.944   2.071  0.6852 -0.4801  2.4175
   71TMC2    H1 1108   3.822   2.797   1.968  1.5027 -0.4514  0.4105
   71TMC2    H2 1109   3.864   3.115   2.266  3.0198  2.4206  0.3718
   71TMC2    C7 1110   3.684   2.954   2.134  0.2584  0.5885  0.1874
   71TMC2    C8 1111   4.116   3.114   2.270 -0.6693  0.2903  0.1460
   71TMC2    O1 1112   3.636   3.038   2.210 -0.1297  0.0792 -0.4598
   71TMC2    O2 1113   4.216   3.064   2.316  0.3434  0.0500  0.4568
   71TMC2    O5 1114   4.122   3.246   2.237  0.2650  0.5954 -0.3626
   71TMC2    H5 1115   4.035   3.279   2.208  0.3240 -0.2261 -1.4504
   72MPD2     C 1116   4.072   2.355   1.634  0.0439  0.2766 -0.0468
   72MPD2    C1 1117   4.114   2.487   1.602  0.0049 -0.7791 -0.9237
   72MPD2    C2 1118   4.099   2.589   1.697 -0.2630 -0.3364 -0.1051
   72MPD2    C3 1119   4.038   2.558   1.822 -0.0618 -1.1496  0.4889
   72MPD2    C4 1120   3.976   2.438   1.836 -0.2313 -0.6764 -0.3636
   72MPD2    C5 1121   3.996   2.336   1.745  0.1065  0.5683 -0.3543
   72MPD2     H 1122   4.120   2.691   1.667  0.2636  0.3662  2.6238
   72MPD2    H1 1123   3.913   2.414   1.921  1.1578  0.7356  1.0614
   72MPD2    H2 1124   4.083   2.265   1.575  0.0154 -0.0643  0.4656
   72MPD2    H3 1125   3.956   2.239   1.771 -0.7300  1.2067  0.7505
   72MPD2     N 1126   4.001   2.652   1.914  0.7700 -0.6142 -0.0061
   72MPD2    H5 1127   3.926   2.631   1.978  0.3960  2.0371  0.4537
   72MPD2    N1 1128   4.167   2.515   1.468 -0.2899 -0.0026 -0.2920
   72MPD2    H7 1129   4.180   2.613   1.446 -2.9744  0.3864 -0.0861
   73TMC2    C1 1130   3.956   4.613  14.430  1.1544 -0.7445  0.4975
   73TMC2    C2 1131   3.852   4.649  14.513  0.3913 -0.1884 -0.1136
   73TMC2    C3 1132   3.885   4.723  14.619 -0.0998  0.5981  0.2409
   73TMC2    C4 1133   4.088   4.645  14.468  0.1761  0.1022 -0.3655
   73TMC2    C5 1134   4.111   4.732  14.570 -0.2764 -0.0101 -0.4026
   73TMC2    C6 1135   4.009   0.042  14.650  0.3021  0.1300 -0.5902
   73TMC2     C 1136   3.926   4.650  14.292 -0.1948  0.1026  0.1014
   73TMC2     O 1137   4.012   4.716  14.234 -0.1029  0.1659  0.4218
   73TMC2     H 1138   3.749   4.633  14.483 -0.1639  1.5600  0.9267
   73TMC2    H1 1139   4.162   4.632  14.390  0.4121 -1.3724  0.1004
   73TMC2    H2 1140   4.027   0.104  14.737 -2.3696  1.5778 -1.0763
   73TMC2    C7 1141   4.217   0.091  14.540  0.7808 -0.7017 -0.2193
   73TMC2    C8 1142   3.782   4.734  14.727 -0.6178 -0.5423 -0.6044
   73TMC2    O1 1143   4.282   0.139  14.631 -0.2226 -0.6464  0.4211
   73TMC2    O2 1144   3.704   4.650  14.763 -0.6492  0.0286  0.3396
   73TMC2    O5 1145   3.792   0.120  14.778 -0.5716 -0.1254 -0.0788
   73TMC2    H5 1146   3.829   0.191  14.722 -0.4270 -0.9957 -1.0857
   74MPD2     C 1147   3.621   0.033  13.903  0.0599 -1.1676 -0.1432
   74MPD2    C1 1148   3.733   0.101  13.949 -1.2038 -0.5311 -0.0267
   74MPD2    C2 1149   3.791   0.045  14.062 -0.0994  0.3856  0.1117
   74MPD2    C3 1150   3.742   4.675  14.129  0.1645  0.0752 -0.2260
   74MPD2    C4 1151   3.630   4.617  14.087  0.3293 -0.4883 -0.0022
   74MPD2    C5 1152   3.569   4.665  13.973 -1.0644 -0.2569 -0.2488
   74MPD2     H 1153   3.876   0.102  14.100  0.5240 -1.1987  1.0868
   74MPD2    H1 1154   3.575   4.540  14.140  0.5821  0.7866  2.1071
   74MPD2    H2 1155   3.566   0.066  13.815  1.3697 -0.4317 -0.6794
   74MPD2    H3 1156   3.473   4.621  13.952  0.0532 -2.1247 -1.5059
   74MPD2     N 1157   3.797   4.628  14.246 -0.0964 -0.4655  0.5555
   74MPD2    H5 1158   3.739   4.574  14.309 -1.8600  1.0741  0.2560
   74MPD2    N1 1159   3.781   0.218  13.875 -0.0497  0.4884 -0.5199
   74MPD2    H7 1160   3.742   0.234  13.783  2.1621 -0.9788 -1.6920
   75TMC2    C1 1161   3.536   1.235  14.194  0.4984  0.0867  0.5167
   75TMC2    C2 1162   3.478   1.283  14.304 -0.2701 -0.0713 -0.6291
   75TMC2    C3 1163   3.372   1.362  14.288 -0.1240  0.0293 -0.3930
   75TMC2    C4 1164   3.490   1.253  14.069  0.3469 -0.1277  0.4318
   75TMC2    C5 1165   3.372   1.322  14.057  0.7621  0.3882  0.3564
   75TMC2    C6 1166   3.305   1.375  14.170  0.6477 -0.5837 -0.9489
   75TMC2     C 1167   3.682   1.202  14.217  0.0509 -0.3321  0.2416
   75TMC2     O 1168   3.730   1.208  14.330  0.6439 -0.6088 -0.3336
   75TMC2     H 1169   3.525   1.275  14.401 -0.9552 -1.9587 -0.4627
   75TMC2    H1 1170   3.545   1.229  13.979 -0.6077  0.0066 -0.1924
   75TMC2    H2 1171   3.219   1.440  14.165  0.8585 -0.1382  1.5639
   75TMC2    C7 1172   3.327   1.356  13.928 -0.5242  0.0599  0.0869
   75TMC2    C8 1173   3.304   1.398  14.411 -0.4022 -0.3148  0.3003
   75TMC2    O1 1174   3.405   1.381  13.838 -0.6080  0.0091  0.2647
   75TMC2    O2 1175   3.244   1.507  14.423 -0.0388  0.1239  0.3177
   75TMC2    O5 1176   3.250   1.276  14.452  0.1108 -0.7366  0.7268
   75TMC2    H5 1177   3.294   1.203  14.404 -1.3813 -1.6868  0.8246
   76TMC2    C1 1178   2.582   1.525  12.219 -0.8718 -0.0916  0.0474
   76TMC2    C2 1179   2.464   1.455  12.236 -0.8425 -0.6669  0.7336
   76TMC2    C3 1180   2.467   1.338  12.300  0.1429  0.0673  0.1991
   76TMC2    C4 1181   2.699   1.486  12.270  0.7099  0.7264  0.2144
   76TMC2    C5 1182   2.694   1.371  12.345 -0.2162 -0.4339  0.2670
   76TMC2    C6 1183   2.583   1.294  12.357  0.7501 -0.1559 -0.3936
   76TMC2     C 1184   2.588   1.628  12.122 -0.2459 -0.0519 -0.0081
   76TMC2     O 1185   2.488   1.692  12.099  0.8322  0.3506  0.0728
   76TMC2     H 1186   2.369   1.500  12.213  0.5730  2.7012  1.5524
   76TMC2    H1 1187   2.785   1.552  12.262  0.0046  1.8459  1.9305
   76TMC2    H2 1188   2.586   1.205  12.419  0.1521 -0.9148 -1.4554
   76TMC2    C7 1189   2.808   1.299  12.394  0.3378  0.2308 -0.1942
   76TMC2    C8 1190   2.346   1.255  12.308  0.0931  0.4352  0.1277
   76TMC2    O1 1191   2.818   1.186  12.355  0.4965  0.7539  0.3838
   76TMC2    O2 1192   2.322   1.182  12.402 -0.3513  0.1871 -0.3449
   76TMC2    O5 1193   2.306   1.236  12.183  0.5385 -0.0958 -0.8244
   76TMC2    H5 1194   2.345   1.295  12.115  0.1213 -2.1776 -2.8885
   77MPD2     C 1195   2.840   1.907  11.785 -0.3349  0.3374 -0.8040
   77MPD2    C1 1196   2.736   1.940  11.871  0.1828 -0.4324 -0.6173
   77MPD2    C2 1197   2.681   1.837  11.945 -0.9565  0.5992  0.0502
   77MPD2    C3 1198   2.733   1.709  11.943 -0.2780 -0.2038  0.1960
   77MPD2    C4 1199   2.831   1.675  11.852 -0.3876 -0.0556  0.1232
   77MPD2    C5 1200   2.884   1.774  11.776 -0.4083  0.5461  0.0783
   77MPD2     H 1201   2.607   1.861  12.021  0.8858 -0.3832  2.1774
   77MPD2    H1 1202   2.888   1.583  11.851 -1.8973 -0.9775  0.0399
   77MPD2    H2 1203   2.899   1.976  11.726  0.2850  1.2465  0.9027
   77MPD2    H3 1204   2.975   1.748  11.723 -0.9006  1.5508 -1.2456
   77MPD2     N 1205   2.701   1.617  12.043 -0.2988  0.3701  0.4622
   77MPD2    H5 1206   2.762   1.537  12.059  1.7836  1.8206 -0.2300
   77MPD2    N1 1207   2.696   2.069  11.892 -0.0890  0.0146 -0.1347
   77MPD2    H7 1208   2.625   2.081  11.963 -0.2526 -1.1945 -0.0922
   78TMC2    C1 1209   3.385   2.466   2.083 -0.2873 -0.4177  0.0631
   78TMC2    C2 1210   3.314   2.500   2.195  0.7570 -0.2851  0.8567
   78TMC2    C3 1211   3.375   2.570   2.301  0.5093  0.5614  0.3460
   78TMC2    C4 1212   3.512   2.505   2.069 -0.0310 -0.2742  0.7155
   78TMC2    C5 1213   3.575   2.570   2.177 -0.8610  0.8362 -0.9551
   78TMC2    C6 1214   3.508   2.599   2.291  0.2241  0.4487  0.3954
   78TMC2     C 1215   3.312   2.396   1.979 -0.2542 -0.1030 -0.2202
   78TMC2     O 1216   3.198   2.365   2.004 -0.5236  1.2113 -0.3529
   78TMC2     H 1217   3.209   2.473   2.205  0.1797  1.0871 -1.7775
   78TMC2    H1 1218   3.573   2.475   1.985 -1.4423  2.2938 -1.2124
   78TMC2    H2 1219   3.558   2.643   2.377  0.2848  0.5772  0.2955
   78TMC2    C7 1220   3.718   2.569   2.180  0.0750 -0.2331 -0.2772
   78TMC2    C8 1221   3.313   2.549   2.428 -0.8920  0.7874  0.3673
   78TMC2    O1 1222   3.766   2.551   2.072 -0.5675 -0.5980  0.0280
   78TMC2    O2 1223   3.378   2.549   2.533  0.1538 -0.6296  0.2511
   78TMC2    O5 1224   3.183   2.587   2.425  0.2938 -0.3243  0.0152
   78TMC2    H5 1225   3.127   2.604   2.346  0.1678 -1.5766 -0.1603
   79MPD1     C 1226   3.272   2.175   1.520  0.0693  0.1161  0.2018
   79MPD1    C1 1227   3.189   2.172   1.624  0.1180  1.1236 -0.0692
   79MPD1    C2 1228   3.222   2.254   1.731 -0.0035 -0.0080 -0.4571
   79MPD1    C3 1229   3.343   2.314   1.745  0.0447  0.0565 -0.2325
   79MPD1    C4 1230   3.434   2.291   1.645 -0.6639 -0.0977  0.4737
   79MPD1    C5 1231   3.393   2.235   1.529  0.1652 -0.6260  0.4844
   79MPD1     H 1232   3.146   2.280   1.805  1.4253  0.3009  0.9020
   79MPD1    H1 1233   3.536   2.327   1.650 -0.4436 -0.9731  2.2944
   79MPD1    H2 1234   3.244   2.122   1.430  1.7625  0.1546 -0.3638
   79MPD1    H3 1235   3.460   2.231   1.444 -1.5226 -1.2504 -0.7982
   79MPD1     N 1236   3.385   2.381   1.867  0.1962 -0.4621  0.9646
   79MPD1    H5 1237   3.482   2.411   1.875  0.3314 -0.7398  0.4113
   79MPD1    N1 1238   3.050   2.131   1.611 -0.5757 -0.0664 -0.1540
   79MPD1    H6 1239   3.035   2.056   1.544 -0.8056 -0.2574  0.1094
   79MPD1    H7 1240   3.023   2.090   1.701  0.4170  3.3135  1.6974
   80TMC2    C1 1241   1.768   1.568  12.630  0.1837  0.8057  0.5175
   80TMC2    C2 1242   1.874   1.589  12.545  0.7681  0.8506 -0.7734
   80TMC2    C3 1243   1.876   1.527  12.420 -0.5599  0.4515 -0.4299
   80TMC2    C4 1244   1.668   1.491  12.591 -0.1538 -0.3080 -0.1359
   80TMC2    C5 1245   1.664   1.449  12.458 -0.8067 -0.7918  0.2259
   80TMC2    C6 1246   1.764   1.470  12.371 -0.3445  0.1298 -0.2812
   80TMC2     C 1247   1.757   1.645  12.750  0.9681 -0.0418 -0.1712
   80TMC2     O 1248   1.863   1.672  12.803  0.1202 -0.2173  0.5538
   80TMC2     H 1249   1.960   1.644  12.581  0.5182  0.2892  0.6962
   80TMC2    H1 1250   1.583   1.469  12.655 -1.2128  2.9681 -0.4211
   80TMC2    H2 1251   1.783   1.414  12.280  0.3377  0.7488 -0.5194
   80TMC2    C7 1252   1.542   1.380  12.409  0.4123 -0.1179 -0.7082
   80TMC2    C8 1253   1.982   1.545  12.329  0.3685  0.8272  0.8497
   80TMC2    O1 1254   1.515   1.381  12.287  0.3044  0.3171 -0.2808
   80TMC2    O2 1255   1.966   1.572  12.211 -0.5245 -0.1495 -0.0193
   80TMC2    O5 1256   2.074   1.460  12.374 -0.2776  0.0683 -0.1280
   80TMC2    H5 1257   2.044   1.423  12.460  0.1236  0.8737  0.3524
   81MPD2     C 1258   1.681   1.713  13.028  0.2436  0.5856  0.3763
   81MPD2    C1 1259   1.591   1.694  12.927  0.0366  0.2123  0.8197
   81MPD2    C2 1260   1.459   1.709  12.961 -0.1537 -0.2018  0.3555
   81MPD2    C3 1261   1.418   1.734  13.093  0.3154  0.2353  0.2341
   81MPD2    C4 1262   1.517   1.746  13.192 -0.7729 -0.4137  0.2525
   81MPD2    C5 1263   1.644   1.735  13.157 -0.0319 -0.5214  0.1167
   81MPD2     H 1264   1.394   1.696  12.875  2.8342  1.3872 -2.1679
   81MPD2    H1 1265   1.488   1.772  13.293 -2.9130 -1.0405 -0.2014
   81MPD2    H2 1266   1.789   1.705  13.023  0.2092  1.8058 -1.9479
   81MPD2    H3 1267   1.720   1.730  13.234 -1.9587 -1.8793  1.9469
   81MPD2     N 1268   1.280   1.733  13.124 -0.2604  0.0110  0.6852
   81MPD2    H5 1269   1.254   1.748  13.221 -1.3438  1.4230  0.1776
   81MPD2    N1 1270   1.627   1.656  12.797 -0.1589  0.7392 -0.4127
   81MPD2    H7 1271   1.554   1.607  12.747 -1.6367  1.0138  1.5078
   82TMC2    C1 1272   0.162   0.233  11.433  0.7202  0.0323  0.4169
   82TMC2    C2 1273   0.275   0.223  11.350 -0.9358 -0.2695  0.1176
   82TMC2    C3 1274   0.339   0.104  11.362 -0.0828  0.6425  0.7182
   82TMC2    C4 1275   0.102   0.120  11.480  0.0337 -0.0921 -0.4780
   82TMC2    C5 1276   0.167   0.002  11.485 -0.7924  0.3236  0.5242
   82TMC2    C6 1277   0.292   4.732  11.432  0.7914 -0.3994  0.8534
   82TMC2     C 1278   0.071   0.342  11.404  0.0451 -0.1005  0.2396
   82TMC2     O 1279   4.698   0.306  11.364  0.0899 -0.1212 -0.0464
   82TMC2     H 1280   0.307   0.305  11.287  2.2163 -1.0130  0.7433
   82TMC2    H1 1281   4.736   0.122  11.514  0.1138  0.7162 -0.2965
   82TMC2    H2 1282   0.358   4.647  11.444  0.7048 -0.8281 -1.7992
   82TMC2    C7 1283   0.100   4.646  11.579 -0.2157 -0.3480  0.1265
   82TMC2    C8 1284   0.478   0.098  11.300 -0.4097  0.4848 -0.0999
   82TMC2    O1 1285   4.715   4.638  11.577  0.5484  0.2364  0.1796
   82TMC2    O2 1286   0.530   0.194  11.245 -0.0530 -0.1251  0.2436
   82TMC2    O5 1287   0.537   4.714  11.315 -0.0130  0.1478  0.5539
   82TMC2    H5 1288   0.630   4.717  11.284 -0.1623  1.8368  0.2874
   83MPD2     C 1289   4.715   0.828  11.281  0.1108 -0.2272  0.1318
   83MPD2    C1 1290   4.627   0.725  11.304 -0.2275  0.1725  0.0025
   83MPD2    C2 1291   4.686   0.605  11.337 -0.1968 -0.1918  0.3014
   83MPD2    C3 1292   0.085   0.592  11.360  0.2852  0.5691  0.2477
   83MPD2    C4 1293   0.165   0.697  11.339  0.0342  0.1858 -0.5516
   83MPD2    C5 1294   0.110   0.810  11.294  0.3652 -0.1585 -0.4770
   83MPD2     H 1295   4.621   0.521  11.356  0.6624 -0.8437  0.3498
   83MPD2    H1 1296   0.271   0.696  11.360 -0.4722  0.5037  2.0346
   83MPD2    H2 1297   4.682   0.925  11.246  1.8079 -0.1108 -1.1618
   83MPD2    H3 1298   0.167   0.899  11.269  1.3860 -0.1043  2.0246
   83MPD2     N 1299   0.137   0.463  11.403  0.0298 -0.0659 -0.6270
   83MPD2    H5 1300   0.237   0.460  11.418 -0.5756 -2.0733  3.0945
   83MPD2    N1 1301   4.490   0.758  11.279 -0.4387  0.4093  0.1912
   83MPD2    H7 1302   4.469   0.853  11.252  0.1083  0.7566  0.9970
   84TMC2    C1 1303   1.868   0.659  11.390 -0.1468 -0.4816 -0.1747
   84TMC2    C2 1304   1.976   0.668  11.474 -0.2244 -0.1173 -0.3820
   84TMC2    C3 1305   2.097   0.625  11.415 -0.2389  0.2839  0.3662
   84TMC2    C4 1306   1.879   0.619  11.255  0.7568 -0.1590 -0.5592
   84TMC2    C5 1307   2.005   0.581  11.210 -0.2349 -0.1630  0.0323
   84TMC2    C6 1308   2.114   0.590  11.286 -0.2761  0.0856 -0.5814
   84TMC2     C 1309   1.748   0.675  11.462 -0.0153 -0.5709 -0.6865
   84TMC2     O 1310   1.737   0.726  11.570 -0.0266 -0.9295  0.1165
   84TMC2     H 1311   1.965   0.678  11.582 -0.3678  1.3860 -0.5459
   84TMC2    H1 1312   1.803   0.652  11.185 -0.0901 -3.1793 -1.0599
   84TMC2    H2 1313   2.212   0.566  11.247 -0.5180 -0.0547 -1.1038
   84TMC2    C7 1314   2.027   0.535  11.074  0.1655 -0.0586  0.7778
   84TMC2    C8 1315   2.207   0.587  11.503 -0.6288  0.2198  0.0108
   84TMC2    O1 1316   2.142   0.517  11.035  0.1594 -0.6486  0.1055
   84TMC2    O2 1317   2.266   0.484  11.477  0.4277 -0.1390  0.7392
   84TMC2    O5 1318   2.199   0.634  11.627 -0.2878 -0.0370 -0.7828
   84TMC2    H5 1319   2.149   0.717  11.640  1.4687  1.1133 -1.5072
   85TMC2    C1 1320   1.986   3.265  16.100 -0.1443 -0.4727  0.4910
   85TMC2    C2 1321   1.852   3.259  16.063  0.0805  0.4037  0.2654
   85TMC2    C3 1322   1.807   3.340  15.961 -0.7444 -0.6165 -0.1312
   85TMC2    C4 1323   2.070   3.344  16.026  0.0356  0.3723  0.1130
   85TMC2    C5 1324   2.030   3.407  15.917 -0.9057 -0.0312  0.2635
   85TMC2    C6 1325   1.898   3.408  15.884  0.1189  0.2670 -0.0614
   85TMC2     C 1326   2.037   3.156  16.178 -0.4795  0.0800 -0.3120
   85TMC2     O 1327   2.146   3.173  16.228  0.0432  0.1156  0.1696
   85TMC2     H 1328   1.779   3.207  16.124  1.8837 -1.2500  1.0076
   85TMC2    H1 1329   2.175   3.361  16.048 -0.1603  0.7458  0.7618
   85TMC2    H2 1330   1.861   3.473  15.806  0.2661 -0.1053 -0.4409
   85TMC2    C7 1331   2.113   3.373  15.804  0.0608  0.2647 -0.6150
   85TMC2    C8 1332   1.667   3.352  15.935 -0.3569  0.3899 -0.3966
   85TMC2    O1 1333   2.211   3.298  15.829 -0.2757  0.0605  0.7921
   85TMC2    O2 1334   1.622   3.376  15.825 -0.2261  0.0591 -0.0300
   85TMC2    O5 1335   1.605   3.380  16.057  1.0362 -0.0120 -0.5440
   85TMC2    H5 1336   1.669   3.366  16.130 -1.3903 -0.7398  1.4631
   86MPD2     C 1337   1.996   2.683  16.364  0.7015 -0.3849  0.1242
   86MPD2    C1 1338   1.898   2.703  16.265 -0.2883 -0.3350  0.0407
   86MPD2    C2 1339   1.898   2.819  16.196  0.6791  0.6771  0.0171
   86MPD2    C3 1340   1.983   2.924  16.232 -0.1301 -0.3242 -0.3099
   86MPD2    C4 1341   2.082   2.906  16.329  0.0724  0.4580  0.2047
   86MPD2    C5 1342   2.081   2.787  16.396 -0.5912  0.1715 -0.4733
   86MPD2     H 1343   1.823   2.832  16.119  0.7081  0.9308  0.0316
   86MPD2    H1 1344   2.152   2.981  16.363  0.8906 -0.0602 -0.3581
   86MPD2    H2 1345   2.005   2.584  16.409  1.8543 -0.1301  0.4329
   86MPD2    H3 1346   2.150   2.769  16.478  1.2500  1.3873 -1.7393
   86MPD2     N 1347   1.962   3.045  16.163  0.0446  0.1171 -0.2226
   86MPD2    H5 1348   1.880   3.053  16.103  1.1468 -0.8895 -1.8762
   86MPD2    N1 1349   1.800   2.606  16.232  0.3949 -0.0814  0.1819
   86MPD2    H7 1350   1.747   2.624  16.147  0.1353  2.0300  0.7657
   87TMC2    C1 1351   4.403   0.833   1.361 -0.0011  0.2953 -0.4115
   87TMC2    C2 1352   4.500   0.805   1.452 -0.3566  0.3876  0.3529
   87TMC2    C3 1353   4.521   0.898   1.550  0.5060 -0.9675  0.5224
   87TMC2    C4 1354   4.329   0.948   1.368  0.2193  0.0710 -0.4285
   87TMC2    C5 1355   4.368   1.045   1.459 -0.3006  0.7574  0.4945
   87TMC2    C6 1356   4.460   1.021   1.558 -0.3799  0.1619 -0.7153
   87TMC2     C 1357   4.412   0.785   1.224  0.0978 -0.8135  0.7891
   87TMC2     O 1358   4.404   0.871   1.136  0.1588 -0.5240  0.5075
   87TMC2     H 1359   4.567   0.722   1.432 -0.5103  0.3218  0.1063
   87TMC2    H1 1360   4.265   0.977   1.285 -0.2308 -0.5347 -0.2925
   87TMC2    H2 1361   4.478   1.093   1.637  2.3264  0.3577 -1.5124
   87TMC2    C7 1362   4.318   1.185   1.440  0.2538  0.4601 -0.2427
   87TMC2    C8 1363   4.607   0.868   1.662  0.1185 -0.4644 -0.1966
   87TMC2    O1 1364   4.203   1.193   1.393 -0.4415  0.1640 -0.5094
   87TMC2    O2 1365   4.608   0.762   1.718 -0.0047 -0.3624 -0.2365
   87TMC2    O5 1366   4.644   0.987   1.709 -0.2523 -0.0056 -0.1300
   87TMC2    H5 1367   4.648   1.063   1.647 -0.4257 -0.6261 -0.8956
   88MPD2     C 1368   4.461   1.482   1.599  0.5219 -0.4630  0.5262
   88MPD2    C1 1369   4.372   1.415   1.513  0.0174  0.1348  0.1909
   88MPD2    C2 1370   4.281   1.488   1.431 -0.0602 -0.0637 -0.1489
   88MPD2    C3 1371   4.286   1.628   1.419  0.1871  0.1486  0.4241
   88MPD2    C4 1372   4.386   1.687   1.495  0.7227  0.3731  0.0687
   88MPD2    C5 1373   4.461   1.615   1.591 -0.2623  0.1617 -1.0290
   88MPD2     H 1374   4.212   1.431   1.369  1.6998 -0.6274 -1.5918
   88MPD2    H1 1375   4.401   1.794   1.493  1.1838  0.3454  1.6847
   88MPD2    H2 1376   4.524   1.436   1.674  0.2636 -0.5723  0.6773
   88MPD2    H3 1377   4.524   1.668   1.662 -1.1788 -0.5544  0.3445
   88MPD2     N 1378   4.215   1.711   1.330  0.1619 -0.1604  0.9301
   88MPD2    H5 1379   4.233   1.810   1.323 -1.2587  0.0866  0.7088
   88MPD2    N1 1380   4.385   1.277   1.517  0.0307  0.0268 -0.4910
   88MPD2    H7 1381   4.472   1.246   1.560 -0.4611 -3.2781 -1.8260
   89TMC2    C1 1382   0.413   4.692   2.183 -0.3123 -0.1656  0.7340
   89TMC2    C2 1383   0.294   0.028   2.189 -0.2641 -0.3835 -0.4778
   89TMC2    C3 1384   0.298   0.163   2.173  0.3346  0.1158  0.2598
   89TMC2    C4 1385   0.532   0.014   2.154  0.3888  0.4219 -0.2979
   89TMC2    C5 1386   0.532   0.153   2.163  0.1705 -0.2406 -0.2355
   89TMC2    C6 1387   0.418   0.231   2.168  0.3618 -1.0280  0.1291
   89TMC2     C 1388   0.407   4.541   2.179 -0.2247  0.2898  0.2866
   89TMC2     O 1389   0.512   4.482   2.193  0.3648  0.6454 -0.6325
   89TMC2     H 1390   0.206   4.716   2.228  0.6239  0.2720  2.3783
   89TMC2    H1 1391   0.625   4.698   2.173 -1.6029 -2.1202  2.3918
   89TMC2    H2 1392   0.414   0.338   2.157 -0.1330 -1.0175  0.4093
   89TMC2    C7 1393   0.658   0.222   2.156 -0.0646  0.3950 -0.5176
   89TMC2    C8 1394   0.191   0.245   2.222  0.2671 -0.0071  0.3185
   89TMC2    O1 1395   0.658   0.335   2.198 -0.6151  0.8141  0.0541
   89TMC2    O2 1396   0.207   0.360   2.263 -0.1336  0.5475  0.6350
   89TMC2    O5 1397   0.075   0.194   2.189 -0.4339  0.0731  0.7402
   89TMC2    H5 1398   0.081   0.122   2.124 -1.6449  0.0647  0.6431
   90MPD2     C 1399   0.163   4.098   2.116 -0.1864  0.3724 -0.0236
   90MPD2    C1 1400   0.063   4.193   2.126 -0.9442 -0.2080  0.3592
   90MPD2    C2 1401   0.106   4.325   2.130  0.5700 -0.5719 -0.6931
   90MPD2    C3 1402   0.244   4.357   2.150  0.0878  0.3588  0.0637
   90MPD2    C4 1403   0.339   4.257   2.163 -0.0941 -0.0114 -0.4779
   90MPD2    C5 1404   0.294   4.131   2.137  0.3058  0.6372 -0.1991
   90MPD2     H 1405   0.034   4.407   2.123 -0.1760 -0.9962  1.7874
   90MPD2    H1 1406   0.447   4.257   2.167 -0.0868  0.5329 -0.6820
   90MPD2    H2 1407   0.137   3.997   2.089 -3.1180  0.8701  0.8914
   90MPD2    H3 1408   0.372   4.063   2.103 -0.3591  0.1790 -0.8089
   90MPD2     N 1409   0.285   4.493   2.148  0.3004  0.1874  0.5802
   90MPD2    H5 1410   0.206   4.553   2.129  0.4637  0.7459  1.6403
   90MPD2    N1 1411   4.664   4.163   2.100  0.1766  0.4854 -0.5180
   90MPD2    H7 1412   4.597   4.238   2.087  0.3900  1.3136  3.2291
   91TMC2    C1 1413   1.721   3.276  16.516  0.0290  0.6136 -0.3925
   91TMC2    C2 1414   1.791   3.276  16.629  0.4913 -0.8202  0.1362
   91TMC2    C3 1415   1.723   3.233  16.743  0.0772 -0.0201 -0.1629
   91TMC2    C4 1416   1.590   3.244  16.497  0.8470  0.2955 -0.4405
   91TMC2    C5 1417   1.524   3.199  16.609 -0.1112  0.1694  0.0742
   91TMC2    C6 1418   1.592   3.195  16.725 -0.2939  0.1881  0.3116
   91TMC2     C 1419   1.774   3.344  16.391 -0.4158 -0.4063  0.2000
   91TMC2     O 1420   1.699   3.362  16.296  0.0838  0.0287  0.3706
   91TMC2     H 1421   1.888   3.323  16.645  0.5676 -0.7385 -0.5836
   91TMC2    H1 1422   1.542   3.228  16.401 -0.4079  0.4951  0.1511
   91TMC2    H2 1423   1.530   3.156  16.806 -0.8660 -2.0303 -1.1963
   91TMC2    C7 1424   1.393   3.142  16.596  1.0278  0.3211 -0.0849
   91TMC2    C8 1425   1.803   3.196  16.857  0.1990  0.2147 -0.0180
   91TMC2    O1 1426   1.353   3.047  16.665 -0.5710  0.2693  0.5264
   91TMC2    O2 1427   1.765   3.099  16.921 -0.7034  0.5356 -0.2794
   91TMC2    O5 1428   1.907   3.283  16.880 -0.2018  0.0785  0.5758
   91TMC2    H5 1429   1.886   3.375  16.852 -0.0791  0.0406  0.3571
   92MPD2     C 1430   1.913   3.566  16.251 -0.2094 -0.0751  0.7005
   92MPD2    C1 1431   1.979   3.475  16.334  0.4759 -0.2620  0.4811
   92MPD2    C2 1432   2.113   3.488  16.362 -0.3080  0.0943  0.6003
   92MPD2    C3 1433   2.190   3.590  16.305 -0.3899  0.5413 -0.1484
   92MPD2    C4 1434   2.134   3.667  16.200 -0.0946  0.2372 -0.4872
   92MPD2    C5 1435   1.995   3.659  16.180  0.2519 -0.1282 -0.1476
   92MPD2     H 1436   2.167   3.421  16.428  0.7793 -0.4306 -0.8280
   92MPD2    H1 1437   2.192   3.747  16.155 -1.6109  0.2850 -2.3506
   92MPD2    H2 1438   1.806   3.562  16.235  0.1758 -1.7583 -1.4776
   92MPD2    H3 1439   1.949   3.730  16.113  2.8865 -0.1837 -2.0112
   92MPD2     N 1440   2.329   3.596  16.337 -0.3152 -0.0334  0.0645
   92MPD2    H5 1441   2.362   3.512  16.383 -1.2547 -0.7160 -0.5054
   92MPD2    N1 1442   1.903   3.380  16.411 -0.5828 -0.3875 -0.1112
   92MPD2    H7 1443   1.954   3.323  16.478 -0.2074 -0.9074 -0.8299
   93TMC2    C1 1444   3.801   3.891  13.641 -0.2326 -0.4150 -0.0693
   93TMC2    C2 1445   3.714   3.978  13.697 -0.3771  0.7621 -0.3320
   93TMC2    C3 1446   3.773   4.097  13.731  0.0449  0.0919  0.1556
   93TMC2    C4 1447   3.933   3.918  13.617  0.4426 -0.5474 -0.5228
   93TMC2    C5 1448   3.981   4.035  13.664  0.6052  1.2047 -0.0865
   93TMC2    C6 1449   3.905   4.127  13.726 -0.7291  0.2949 -0.0867
   93TMC2     C 1450   3.756   3.758  13.602 -0.1002  0.3531 -0.3831
   93TMC2     O 1451   3.833   3.693  13.531  0.9104  0.0701 -0.6042
   93TMC2     H 1452   3.607   3.964  13.706 -0.5143  2.5234  0.8751
   93TMC2    H1 1453   3.991   3.838  13.571  0.6830  0.2002 -1.5118
   93TMC2    H2 1454   3.929   4.231  13.746  0.9934 -0.2444  0.6927
   93TMC2    C7 1455   4.110   4.076  13.613 -0.5750  0.3708 -0.8201
   93TMC2    C8 1456   3.694   4.190  13.802 -0.0044 -0.1652  0.3767
   93TMC2    O1 1457   4.170   3.979  13.564 -0.1420  0.0341  0.3370
   93TMC2    O2 1458   3.741   4.253  13.896  0.1167  0.1144  0.0774
   93TMC2    O5 1459   3.573   4.194  13.750  0.2816  0.0632  0.2493
   93TMC2    H5 1460   3.572   4.155  13.660 -0.1265 -0.4204  0.4633
   94MPD2     C 1461   3.610   3.509  13.561 -0.0030  0.4565 -0.1487
   94MPD2    C1 1462   3.582   3.597  13.660  0.5352  0.8639 -0.2846
   94MPD2    C2 1463   3.478   3.570  13.744 -0.4586 -0.0778 -0.0609
   94MPD2    C3 1464   3.397   3.459  13.731 -1.0425 -0.6500  0.3786
   94MPD2    C4 1465   3.428   3.369  13.634  0.0199  0.2734  0.2950
   94MPD2    C5 1466   3.536   3.393  13.557  0.3043 -0.3605  0.1176
   94MPD2     H 1467   3.452   3.643  13.820 -0.1985 -1.1052  1.0155
   94MPD2    H1 1468   3.369   3.281  13.613  1.6124 -0.3342 -1.4986
   94MPD2    H2 1469   3.665   3.532  13.470  0.0473 -0.9984 -0.4748
   94MPD2    H3 1470   3.559   3.334  13.470  1.3632 -0.2175  0.3098
   94MPD2     N 1471   3.280   3.434  13.806  0.1117 -0.4333 -0.0605
   94MPD2    H5 1472   3.234   3.344  13.794  0.6303 -0.7233  0.1006
   94MPD2    N1 1473   3.638   3.723  13.670  0.6719  0.0424  0.1285
   94MPD2    H7 1474   3.603   3.795  13.733  2.8522  0.6528  0.6455
   95TMC2    C1 1475   3.987   1.238  15.999  0.9403  0.4152  0.4975
   95TMC2    C2 1476   4.003   1.200  16.126 -0.3825 -0.2226 -0.9536
   95TMC2    C3 1477   3.942   1.282  16.219  0.5582  0.6971 -0.5294
   95TMC2    C4 1478   3.949   1.365  15.964 -0.5672 -0.3868 -0.3424
   95TMC2    C5 1479   3.919   1.448  16.064 -0.9634  0.3536 -0.5027
   95TMC2    C6 1480   3.901   1.411  16.198 -0.2550  0.1543  0.4755
   95TMC2     C 1481   4.052   1.154  15.891  0.0159 -0.4427  0.1749
   95TMC2     O 1482   4.094   1.221  15.800 -0.5730 -0.4264  0.7421
   95TMC2     H 1483   4.034   1.100  16.157 -2.0365 -0.0436  1.2993
   95TMC2    H1 1484   3.953   1.399  15.861  1.5283 -0.4379 -0.2829
   95TMC2    H2 1485   3.874   1.486  16.272  0.3962  0.1711  0.6996
   95TMC2    C7 1486   3.884   1.583  16.040 -0.1044 -0.3230  0.7685
   95TMC2    C8 1487   3.974   1.265  16.364 -0.1703 -0.1115  0.5416
   95TMC2    O1 1488   3.884   1.660  16.135 -0.1223 -0.1364  0.1975
   95TMC2    O2 1489   4.059   1.184  16.397 -0.3429 -0.4450 -0.0058
   95TMC2    O5 1490   3.869   1.290  16.446 -0.4871  0.3644  0.3817
   95TMC2    H5 1491   3.791   1.326  16.397 -0.3993 -2.8154 -2.0521
   96MPD2     C 1492   4.163   0.738  15.612  0.2171 -0.4816  0.5340
   96MPD2    C1 1493   4.215   0.868  15.610  0.6552 -0.9129 -0.5492
   96MPD2    C2 1494   4.171   0.964  15.705 -0.4584 -0.6314  0.4069
   96MPD2    C3 1495   4.068   0.928  15.798 -0.0150  0.0904  0.8606
   96MPD2    C4 1496   4.019   0.802  15.790  0.0523  0.4155 -0.2005
   96MPD2    C5 1497   4.066   0.710  15.703 -0.3076 -0.8997  0.5665
   96MPD2     H 1498   4.216   1.062  15.695  0.2061 -1.1944 -2.1868
   96MPD2    H1 1499   3.953   0.778  15.873  0.9194 -2.0069 -0.2192
   96MPD2    H2 1500   4.205   0.660  15.550  1.2201  1.4058 -1.1705
   96MPD2    H3 1501   4.019   0.612  15.709  1.1074 -1.5586  0.7158
   96MPD2     N 1502   4.020   1.019  15.891 -0.4216 -0.2459  0.1647
   96MPD2    H5 1503   3.963   0.985  15.968  1.0512  1.1278  1.8684
   96MPD2    N1 1504   4.315   0.897  15.514 -0.3840  0.2739 -0.2239
   96MPD2    H7 1505   4.343   0.816  15.459 -3.6583 -1.7993  1.1978
   97TMC2    C1 1506   1.281   2.769   0.313 -0.0857  0.5748  0.4513
   97TMC2    C2 1507   1.394   2.728   0.245  0.4278  0.4881  0.1980
   97TMC2    C3 1508   1.477   2.814   0.190 -0.0191  0.2025 -0.4008
   97TMC2    C4 1509   1.266   2.907   0.338  0.1773 -0.2822  0.1314
   97TMC2    C5 1510   1.357   2.992   0.289 -0.0259 -0.3183 -0.0177
   97TMC2    C6 1511   1.460   2.947   0.207  0.1304 -0.1351  0.2711
   97TMC2     C 1512   1.227   2.687   0.419 -0.2003 -0.1710  0.3426
   97TMC2     O 1513   1.196   2.743   0.521 -0.3152  0.1933  0.0611
   97TMC2     H 1514   1.422   2.623   0.236  1.0612  0.8432 -1.8874
   97TMC2    H1 1515   1.194   2.935   0.415 -0.2737 -0.9356 -0.0491
   97TMC2    H2 1516   1.521   3.021   0.156  1.3464 -0.3417  1.4282
   97TMC2    C7 1517   1.308   3.125   0.274  0.0474  0.3528 -0.2438
   97TMC2    C8 1518   1.603   2.773   0.159  0.4829  0.0769  0.6776
   97TMC2    O1 1519   1.188   3.139   0.265 -0.0687  0.9126 -0.5125
   97TMC2    O2 1520   1.631   2.657   0.138  0.2375  0.1401 -0.1770
   97TMC2    O5 1521   1.675   2.858   0.239  0.1982 -0.2777  0.5378
   97TMC2    H5 1522   1.629   2.935   0.278  0.4781  0.1727 -0.0118
   98MPD2     C 1523   1.138   2.237   0.649 -0.0898  0.5043 -0.0552
   98MPD2    C1 1524   1.142   2.365   0.705 -0.2017  0.1066  0.6894
   98MPD2    C2 1525   1.161   2.471   0.618 -0.2880  0.0604 -0.1347
   98MPD2    C3 1526   1.182   2.452   0.478 -0.0536 -0.1139 -0.1717
   98MPD2    C4 1527   1.189   2.323   0.423  0.1715 -0.5988 -0.3042
   98MPD2    C5 1528   1.163   2.222   0.514 -0.2850 -0.4113 -0.2238
   98MPD2     H 1529   1.164   2.574   0.650 -0.4128  0.3756 -1.1267
   98MPD2    H1 1530   1.214   2.300   0.320 -0.6812 -0.9052 -0.4395
   98MPD2    H2 1531   1.134   2.147   0.709 -3.1181  0.0869 -0.8926
   98MPD2    H3 1532   1.196   2.124   0.481 -2.0910 -0.8636 -0.7016
   98MPD2     N 1533   1.231   2.552   0.389 -0.6519  0.0314  0.0965
   98MPD2    H5 1534   1.251   2.516   0.296 -2.4703  1.6056 -0.9285
   98MPD2    N1 1535   1.127   2.388   0.843 -0.1426  0.3932 -0.3013
   98MPD2    H7 1536   1.117   2.304   0.899 -0.6834 -1.0201 -2.5277
   99TMC2    C1 1537   0.771   0.170   1.691  0.2819  0.7039  0.4184
   99TMC2    C2 1538   0.886   0.236   1.673 -0.3631 -0.4150  0.1091
   99TMC2    C3 1539   0.889   0.363   1.731 -0.4026 -0.4332  0.1817
   99TMC2    C4 1540   0.657   0.224   1.740  0.7874  0.4813  0.6070
   99TMC2    C5 1541   0.670   0.353   1.792 -0.2850 -0.1836  0.8795
   99TMC2    C6 1542   0.788   0.427   1.788 -0.6382  0.2958 -0.6539
   99TMC2     C 1543   0.767   0.038   1.638  0.0471  0.1781  0.3946
   99TMC2     O 1544   0.865   4.698   1.638  0.2110 -0.0031  0.6663
   99TMC2     H 1545   0.973   0.199   1.620  0.9201  2.3191  0.3090
   99TMC2    H1 1546   0.573   0.161   1.769  1.2242  0.2379  1.3405
   99TMC2    H2 1547   0.802   0.521   1.839 -2.1049 -0.3557  0.9831
   99TMC2    C7 1548   0.544   0.421   1.836 -0.1610 -0.3537  0.6755
   99TMC2    C8 1549   1.002   0.438   1.679  0.5725  0.4559  0.3198
   99TMC2    O1 1550   0.559   0.535   1.868 -0.2469 -0.1906  0.0924
   99TMC2    O2 1551   1.105   0.378   1.638  0.0682 -0.3133 -0.0837
   99TMC2    O5 1552   0.989   0.574   1.680  0.0765  0.0431  0.0978
   99TMC2    H5 1553   0.906   0.609   1.719  0.5975 -2.6969  3.6862
  100MPD2     C 1554   0.663   4.528   1.518 -0.1526  0.4897 -0.1989
  100MPD2    C1 1555   0.607   4.648   1.496 -0.5827  0.1646 -0.4842
  100MPD2    C2 1556   0.526   4.676   1.389 -0.3842 -0.2275  0.6214
  100MPD2    C3 1557   0.515   4.570   1.301 -0.3893  0.0333 -0.5231
  100MPD2    C4 1558   0.569   4.448   1.327  0.0671 -0.2998  0.3324
  100MPD2    C5 1559   0.636   4.423   1.441 -0.3340 -0.3281 -0.1817
  100MPD2     H 1560   0.482   0.036   1.369 -1.1491 -0.4438  1.2501
  100MPD2    H1 1561   0.554   4.362   1.263  1.2543 -0.3294  0.0938
  100MPD2    H2 1562   0.722   4.509   1.607  0.6691  0.2575 -0.7898
  100MPD2    H3 1563   0.672   4.323   1.463 -3.3008 -1.3883 -0.1657
  100MPD2     N 1564   0.454   4.572   1.171  0.3877  0.8249 -0.3863
  100MPD2    H5 1565   0.446   4.488   1.115 -0.6413  0.0896  0.8473
  100MPD2    N1 1566   0.648   0.025   1.568 -0.0172 -0.2018 -0.5487
  100MPD2    H7 1567   0.600   0.111   1.545 -0.3563 -1.3166 -4.0902
  101TMC2    C1 1568   0.014   1.762  12.976 -0.4141 -0.1573  0.9641
  101TMC2    C2 1569   4.626   1.791  12.930 -0.7971 -0.1701  0.2070
  101TMC2    C3 1570   4.617   1.871  12.817  0.0160 -0.7386 -0.2775
  101TMC2    C4 1571   0.126   1.819  12.926 -0.1996  0.4615 -0.1767
  101TMC2    C5 1572   0.114   1.896  12.811 -0.3196  0.2971  0.1969
  101TMC2    C6 1573   4.726   1.922  12.758 -0.1217 -0.1051 -0.0938
  101TMC2     C 1574   0.032   1.655  13.073  0.1297  0.3188  0.2191
  101TMC2     O 1575   4.671   1.618  13.130  0.3033 -0.5261  0.4698
  101TMC2     H 1576   4.537   1.762  12.984 -0.1743  2.5032  2.6418
  101TMC2    H1 1577   0.228   1.807  12.961  0.1246  3.4534 -0.0360
  101TMC2    H2 1578   4.715   1.983  12.669  0.7334 -0.0949 -0.1961
  101TMC2    C7 1579   0.236   1.952  12.748 -0.2831 -0.1099 -0.4319
  101TMC2    C8 1580   4.484   1.900  12.772  0.7663 -0.1488  0.9116
  101TMC2    O1 1581   0.333   1.943  12.822  0.7637  0.1761  0.3472
  101TMC2    O2 1582   4.387   1.919  12.849  1.0472 -0.5520 -0.8816
  101TMC2    O5 1583   4.477   1.926  12.644  0.6954  0.0073  0.5266
  101TMC2    H5 1584   4.566   1.922  12.603  0.9631  1.2198  0.9858
  102MPD2     C 1585   0.335   1.438  13.108 -0.8347  0.4804  0.9217
  102MPD2    C1 1586   0.210   1.492  13.139 -0.0016  0.3004  0.0705
  102MPD2    C2 1587   0.142   1.449  13.254 -0.6338  0.5438  0.0102
  102MPD2    C3 1588   0.207   1.370  13.349  0.5197  0.0370  0.5914
  102MPD2    C4 1589   0.336   1.320  13.317  0.5518  1.0029  0.4360
  102MPD2    C5 1590   0.394   1.352  13.196 -0.4269 -0.0008  0.0703
  102MPD2     H 1591   0.044   1.487  13.282 -0.6988  0.6644 -0.3815
  102MPD2    H1 1592   0.400   1.261  13.381  0.5932  1.1867  0.5633
  102MPD2    H2 1593   0.397   1.482  13.030 -1.7032  0.2159  0.0852
  102MPD2    H3 1594   0.490   1.304  13.181 -0.6480 -0.4051 -0.0582
  102MPD2     N 1595   0.128   1.341  13.461 -0.2342 -0.4314 -0.3607
  102MPD2    H5 1596   0.041   1.392  13.476 -0.9653 -2.1698  1.2109
  102MPD2    N1 1597   0.156   1.597  13.056 -0.2476  0.1016 -0.4399
  102MPD2    H7 1598   0.219   1.637  12.987 -0.0093 -1.1859 -0.9741
  103TMC2    C1 1599   3.430   1.623  12.807  0.3157  0.6210 -0.4656
  103TMC2    C2 1600   3.553   1.606  12.753 -0.0678  0.4079 -0.5032
  103TMC2    C3 1601   3.667   1.613  12.837 -0.2049 -0.4848 -0.8664
  103TMC2    C4 1602   3.411   1.667  12.933  0.1216  0.3058 -0.3763
  103TMC2    C5 1603   3.527   1.674  13.009  0.0784  0.5395 -0.7202
  103TMC2    C6 1604   3.658   1.656  12.969  1.0281  0.2239  0.6997
  103TMC2     C 1605   3.317   1.590  12.730  0.1544 -0.0894 -0.8686
  103TMC2     O 1606   3.218   1.661  12.744 -0.5612 -0.3432 -0.0996
  103TMC2     H 1607   3.574   1.586  12.648 -1.4533  1.6856 -1.0073
  103TMC2    H1 1608   3.315   1.675  12.984 -0.7775 -0.4472 -1.9587
  103TMC2    H2 1609   3.747   1.658  13.030  0.4052  3.0700  1.5463
  103TMC2    C7 1610   3.510   1.724  13.140  0.4847 -0.4791  0.0206
  103TMC2    C8 1611   3.795   1.576  12.781  0.3771 -0.1446  0.3274
  103TMC2    O1 1612   3.410   1.693  13.207 -0.2735  0.3408  0.4405
  103TMC2    O2 1613   3.814   1.533  12.665  0.4091 -0.3198 -0.1358
  103TMC2    O5 1614   3.895   1.642  12.853  0.1180 -0.3563 -0.4433
  103TMC2    H5 1615   3.872   1.726  12.898 -0.9784  0.4052 -2.4369
  104MPD2     C 1616   3.269   1.260  12.608 -1.1613  0.7303 -0.6457
  104MPD2    C1 1617   3.235   1.394  12.609 -0.2790  0.2027 -0.1401
  104MPD2    C2 1618   3.112   1.441  12.559  0.3869 -0.7393  0.1700
  104MPD2    C3 1619   3.022   1.350  12.502  0.3605  0.4568 -0.0834
  104MPD2    C4 1620   3.056   1.218  12.521  0.0687  0.1589  0.3319
  104MPD2    C5 1621   3.171   1.169  12.574  0.3417  0.3593 -0.4572
  104MPD2     H 1622   3.089   1.547  12.556 -3.3741 -1.5696  0.1842
  104MPD2    H1 1623   2.990   1.137  12.494  2.0881 -0.9861 -1.2276
  104MPD2    H2 1624   3.361   1.225  12.652 -1.7981  0.0300  0.1420
  104MPD2    H3 1625   3.188   1.064  12.595  0.3454  0.7856  1.5970
  104MPD2     N 1626   2.897   1.388  12.449  0.1257  0.1735  0.1137
  104MPD2    H5 1627   2.866   1.483  12.462 -0.4297  0.1076 -0.6774
  104MPD2    N1 1628   3.339   1.473  12.666 -0.0302  0.1023  0.0540
  104MPD2    H7 1629   3.433   1.434  12.670 -0.4421 -1.0862 -1.5969
  105TMC2    C1 1630   4.601   0.759   0.325  0.3278 -0.0082  0.3713
  105TMC2    C2 1631   4.571   0.887   0.360 -0.4463  0.7540 -0.2329
  105TMC2    C3 1632   4.470   0.897   0.459  0.3550  0.2826 -0.0795
  105TMC2    C4 1633   4.550   0.652   0.397 -0.4376  0.3531  0.1372
  105TMC2    C5 1634   4.470   0.674   0.503 -0.4240 -0.1915 -0.8539
  105TMC2    C6 1635   4.418   0.799   0.531  0.4692 -0.1227 -0.9100
  105TMC2     C 1636   4.712   0.723   0.242  1.0467  0.8330  0.0687
  105TMC2     O 1637   0.011   0.603   0.241  0.0147 -0.0193 -0.1704
  105TMC2     H 1638   4.617   0.973   0.312  1.3530 -0.6589 -1.0462
  105TMC2    H1 1639   4.566   0.551   0.361  1.1946  0.8070 -0.3822
  105TMC2    H2 1640   4.363   0.831   0.619 -0.3473 -1.9160 -0.7821
  105TMC2    C7 1641   4.472   0.580   0.611 -0.6610 -0.3728 -0.1535
  105TMC2    C8 1642   4.409   1.032   0.461 -1.0807 -0.8973 -0.0619
  105TMC2    O1 1643   4.475   0.462   0.582  0.4055  0.2310  0.0358
  105TMC2    O2 1644   4.390   1.091   0.357  0.1016  0.0847 -0.2904
  105TMC2    O5 1645   4.342   1.052   0.577  0.0699  0.6653  0.2687
  105TMC2    H5 1646   4.401   1.003   0.638  0.7478 -0.2997 -1.1573
  106MPD2     C 1647   0.389   0.812  17.704 -0.1964  0.5592  1.1751
  106MPD2    C1 1648   0.296   0.909  17.667 -0.0566 -0.6697 -0.2522
  106MPD2    C2 1649   0.176   0.911  17.743 -0.4045  0.1649  0.1341
  106MPD2    C3 1650   0.152   0.816   0.098  0.5489 -0.4660 -0.5673
  106MPD2    C4 1651   0.243   0.718   0.127  0.5054  0.3514 -0.0720
  106MPD2    C5 1652   0.365   0.737   0.067 -0.5531  0.7951 -0.8643
  106MPD2     H 1653   0.103   0.988  17.721  1.1094  1.2115 -1.2839
  106MPD2    H1 1654   0.241   0.659   0.217 -2.6691 -1.7557 -1.5576
  106MPD2    H2 1655   0.490   0.809  17.665  0.0711  1.8889  1.7709
  106MPD2    H3 1656   0.442   0.668   0.099 -0.2144  1.6729  0.2259
  106MPD2     N 1657   0.028   0.829   0.168 -0.4243  0.3110 -0.5994
  106MPD2    H5 1658   4.709   0.912   0.153 -0.4352  0.2464 -0.9068
  106MPD2    N1 1659   0.318   0.994  17.560 -0.9578 -0.1609  0.2721
  106MPD2    H7 1660   0.253   1.070  17.545 -1.2021 -0.4233  0.0062
  107TMC2    C1 1661   0.911   1.004  11.774  0.6133 -0.4653 -0.7221
  107TMC2    C2 1662   0.948   1.109  11.692 -0.0972 -0.5663  0.3614
  107TMC2    C3 1663   1.047   1.086  11.605 -0.0936 -0.0881  0.3472
  107TMC2    C4 1664   0.982   0.882  11.775  0.1658  0.0644  0.3438
  107TMC2    C5 1665   1.075   0.865  11.676  0.0753 -0.6436 -0.4558
  107TMC2    C6 1666   1.111   0.961  11.590  0.2768  0.3564 -0.0252
  107TMC2     C 1667   0.777   0.996  11.826 -0.0273 -0.0575  0.1827
  107TMC2     O 1668   0.763   0.895  11.897  0.4021  0.5016 -0.4343
  107TMC2     H 1669   0.913   1.209  11.714 -2.2347 -1.9620  3.2529
  107TMC2    H1 1670   0.957   0.799  11.840 -0.5469 -0.3014 -0.3942
  107TMC2    H2 1671   1.159   0.934  11.497 -1.4916  1.6769 -1.3241
  107TMC2    C7 1672   1.117   0.729  11.647  0.3197 -0.2600 -0.5920
  107TMC2    C8 1673   1.090   1.195  11.520  0.3366 -0.9882  0.4634
  107TMC2    O1 1674   1.047   0.634  11.674 -0.3070  0.0692  0.2057
  107TMC2    O2 1675   1.028   1.301  11.510  0.2304  0.3714  0.2366
  107TMC2    O5 1676   1.205   1.161  11.461  0.3544  0.6146  0.4047
  107TMC2    H5 1677   1.248   1.088  11.511  1.4095  1.0017  0.0573
  108MPD2     C 1678   0.466   1.177  11.770 -0.0186  0.0585 -0.5206
  108MPD2    C1 1679   0.555   1.107  11.835  0.0138  0.9268 -0.4653
  108MPD2    C2 1680   0.510   1.047  11.952 -0.4405  0.4389  0.1373
  108MPD2    C3 1681   0.380   1.060  12.001  0.9142 -0.0653 -1.0487
  108MPD2    C4 1682   0.296   1.148  11.932 -1.0591 -0.3739 -0.0377
  108MPD2    C5 1683   0.336   1.201  11.813  0.0636 -0.1632 -1.0966
  108MPD2     H 1684   0.579   0.982  12.005  0.3111 -0.3086 -1.7579
  108MPD2    H1 1685   0.196   1.167  11.969 -1.1197  1.2353 -1.0520
  108MPD2    H2 1686   0.492   1.215  11.672  1.7229  0.1098 -0.0265
  108MPD2    H3 1687   0.261   1.266  11.768 -0.9009  0.5564  1.5208
  108MPD2     N 1688   0.341   1.001  12.119  0.0257 -0.2428 -0.4974
  108MPD2    H5 1689   0.247   1.022  12.152  0.6332  1.7574  0.0089
  108MPD2    N1 1690   0.687   1.086  11.781 -0.1123 -1.1776 -0.2129
  108MPD2    H7 1691   0.712   1.136  11.696 -0.4212  0.3488  0.6034
  109TMC2    C1 1692   0.136   3.004   1.269 -0.0344 -0.5508  0.0602
  109TMC2    C2 1693   0.146   3.103   1.175 -0.1695  0.3465  0.4513
  109TMC2    C3 1694   0.258   3.101   1.097  0.1327 -0.3297  0.2409
  109TMC2    C4 1695   0.234   2.916   1.304 -0.0465 -0.0975 -0.1049
  109TMC2    C5 1696   0.343   2.916   1.217  0.7823  0.3088  0.2646
  109TMC2    C6 1697   0.350   3.003   1.108 -0.3812  0.6944 -0.5614
  109TMC2     C 1698   0.037   3.041   1.367 -0.3461 -0.3096  0.6288
  109TMC2     O 1699   0.013   3.159   1.374  0.1292  0.4967  0.2463
  109TMC2     H 1700   0.071   3.179   1.154 -0.0192  0.3467 -0.0754
  109TMC2    H1 1701   0.222   2.844   1.384  4.2449  2.2407  2.6877
  109TMC2    H2 1702   0.446   3.014   1.058  0.2819  2.6280  1.1032
  109TMC2    C7 1703   0.461   2.836   1.253 -0.1016  1.0157 -0.3700
  109TMC2    C8 1704   0.252   3.181   0.971 -0.1037  0.3869  0.8210
  109TMC2    O1 1705   0.543   2.818   1.167 -0.1077 -0.5778 -0.9342
  109TMC2    O2 1706   0.202   3.291   0.968 -0.1060 -0.3517 -0.4999
  109TMC2    O5 1707   0.310   3.121   0.864 -0.4981  0.1411 -0.4793
  109TMC2    H5 1708   0.329   3.026   0.881  1.3151  0.4246 -0.9445
  110MPD2     C 1709   4.423   2.917   1.707  0.6891 -0.1082  0.3836
  110MPD2    C1 1710   4.491   2.800   1.683 -0.6013  0.4425 -0.0581
  110MPD2    C2 1711   4.587   2.806   1.581  0.0643  0.0421  0.3626
  110MPD2    C3 1712   4.615   2.926   1.517  0.2775  0.5215 -0.2916
  110MPD2    C4 1713   4.563   3.046   1.567  0.3923  0.4339 -0.5034
  110MPD2    C5 1714   4.453   3.042   1.653 -0.7683  0.5433 -0.1585
  110MPD2     H 1715   4.651   2.721   1.557 -0.7295 -0.8996  1.5923
  110MPD2    H1 1716   4.584   3.143   1.524  2.5500  0.9463  1.7169
  110MPD2    H2 1717   4.347   2.921   1.784 -0.3542  1.0415 -0.6824
  110MPD2    H3 1718   4.409   3.134   1.691  0.4559  0.8431  0.5131
  110MPD2     N 1719   4.722   2.927   1.427  0.3429 -0.5881  0.2225
  110MPD2    H5 1720   0.015   2.838   1.388 -1.8973 -0.7146 -1.1967
  110MPD2    N1 1721   4.444   2.681   1.749  0.3912  0.4471  0.1005
  110MPD2    H7 1722   4.374   2.702   1.819  1.0540  1.8739  0.3458
  111TMC2    C1 1723   1.208   2.361  11.617  0.3051  0.0854 -0.1506
  111TMC2    C2 1724   1.299   2.301  11.534  0.0240 -0.3464  0.6042
  111TMC2    C3 1725   1.413   2.247  11.593  0.3325 -0.0575 -0.3749
  111TMC2    C4 1726   1.226   2.374  11.752  0.4627 -0.7391  0.5039
  111TMC2    C5 1727   1.341   2.310  11.803 -0.6050 -0.1508  0.1708
  111TMC2    C6 1728   1.436   2.244  11.726 -0.4060  0.6039 -1.1611
  111TMC2     C 1729   1.098   2.426  11.551 -0.3687 -0.3337  0.5487
  111TMC2     O 1730   1.087   2.403  11.428 -0.6763 -0.4161 -0.1883
  111TMC2     H 1731   1.286   2.308  11.427 -1.3070  2.5614  0.9450
  111TMC2    H1 1732   1.156   2.422  11.820  1.6968  1.6276  0.1156
  111TMC2    H2 1733   1.538   2.239  11.763 -0.2186 -1.3827 -1.9688
  111TMC2    C7 1734   1.336   2.260  11.944 -0.5026  0.2764 -0.0550
  111TMC2    C8 1735   1.528   2.223  11.500  0.0375 -0.6214  0.4104
  111TMC2    O1 1736   1.227   2.260  12.001  0.3738  0.1618  0.5364
  111TMC2    O2 1737   1.644   2.252  11.525 -0.3846 -0.1695  0.2469
  111TMC2    O5 1738   1.481   2.153  11.392 -0.1196  0.3848  0.1692
  111TMC2    H5 1739   1.386   2.129  11.391  0.0112 -0.1751  0.9865
  112MPD2     C 1740   0.690   2.721  11.487  0.1555 -0.5071 -0.0914
  112MPD2    C1 1741   0.708   2.591  11.445  0.0274 -0.7260 -0.0052
  112MPD2    C2 1742   0.825   2.522  11.489 -0.2034 -0.2575 -0.3914
  112MPD2    C3 1743   0.912   2.580  11.581 -0.4498 -0.0834  0.6441
  112MPD2    C4 1744   0.884   2.705  11.640  0.4716 -0.8316 -0.2198
  112MPD2    C5 1745   0.778   2.774  11.580  0.1930 -0.3879 -0.1908
  112MPD2     H 1746   0.851   2.423  11.451 -1.6990 -0.1455 -1.6713
  112MPD2    H1 1747   0.935   2.748  11.725 -0.1071 -0.0704 -0.2615
  112MPD2    H2 1748   0.616   2.783  11.438  0.7173 -0.1264 -0.4644
  112MPD2    H3 1749   0.744   2.867  11.624 -1.1312 -0.5527 -0.8741
  112MPD2     N 1750   1.025   2.512  11.626  0.3421  0.0161  0.2964
  112MPD2    H5 1751   1.064   2.554  11.710  2.1656  1.1841 -1.1141
  112MPD2    N1 1752   0.618   2.525  11.360  0.6283  0.4973  0.0108
  112MPD2    H7 1753   0.659   2.446  11.311  1.6193  0.9250  0.1367
  113TMC2    C1 1754   3.371   4.349   1.111  0.1082  0.6432  0.1901
  113TMC2    C2 1755   3.312   4.367   1.232 -0.7314 -0.2633  0.1547
  113TMC2    C3 1756   3.249   4.262   1.284 -1.0823  0.1715 -0.5072
  113TMC2    C4 1757   3.349   4.235   1.036  0.5371 -0.2515 -0.4928
  113TMC2    C5 1758   3.270   4.136   1.091  0.5679 -0.2088 -0.5482
  113TMC2    C6 1759   3.224   4.150   1.218 -0.8488 -0.1256  0.5279
  113TMC2     C 1760   3.467   4.442   1.065 -0.6184  0.7012  0.1197
  113TMC2     O 1761   3.514   4.526   1.144 -0.2983  0.6608  0.6802
  113TMC2     H 1762   3.326   4.458   1.289  1.5006  0.4538 -1.5432
  113TMC2    H1 1763   3.404   4.215   0.946 -2.4662 -2.2278 -1.8713
  113TMC2    H2 1764   3.192   4.058   1.266  0.7680 -0.8456  0.2239
  113TMC2    C7 1765   3.278   4.002   1.029  0.4687  0.3519  0.2693
  113TMC2    C8 1766   3.168   4.272   1.404 -0.6531  0.0821 -0.0575
  113TMC2    O1 1767   3.376   3.971   0.959 -0.7137 -0.2426 -0.1427
  113TMC2    O2 1768   3.167   4.185   1.492 -0.6740 -0.2174 -0.3384
  113TMC2    O5 1769   3.156   4.402   1.446 -0.7439  0.5236  0.4264
  113TMC2    H5 1770   3.164   4.463   1.370  0.5649 -0.9696 -0.6478
  114MPD2     C 1771   3.698   4.659   0.658  0.2372  0.2747  0.7726
  114MPD2    C1 1772   3.739   4.653   0.793  0.6344 -0.0319  0.6819
  114MPD2    C2 1773   3.660   4.573   0.884  0.0514  0.6151  0.4275
  114MPD2    C3 1774   3.544   4.522   0.835  0.2264  0.4887 -0.4112
  114MPD2    C4 1775   3.505   4.528   0.708 -0.8299  0.2580  0.3432
  114MPD2    C5 1776   3.577   4.602   0.621  0.3512 -0.3423  0.3820
  114MPD2     H 1777   3.684   4.570   0.990  0.1923 -1.0698  0.3496
  114MPD2    H1 1778   3.410   4.488   0.676 -0.0262 -3.1813  2.2540
  114MPD2    H2 1779   3.745   4.722   0.584  1.9131 -0.5014  1.1816
  114MPD2    H3 1780   3.538   4.611   0.520  1.8627  3.2241  0.1110
  114MPD2     N 1781   3.460   4.453   0.927 -0.4501  0.5009  0.3637
  114MPD2    H5 1782   3.379   4.413   0.882 -0.6961 -0.2352  1.4627
  114MPD2    N1 1783   3.852   4.724   0.842 -0.2862 -0.0608  0.2646
  114MPD2    H7 1784   3.874   4.715   0.941 -0.3657 -0.6239  0.2304
  115TMC2    C1 1785   4.569   3.001   0.180  0.2774 -0.1371 -0.2192
  115TMC2    C2 1786   4.703   3.003   0.190  0.0269 -0.1789  0.3308
  115TMC2    C3 1787   0.032   3.122   0.161 -0.3037 -0.2516  0.6649
  115TMC2    C4 1788   4.503   3.109   0.136  0.5397 -0.7530 -0.3970
  115TMC2    C5 1789   4.569   3.229   0.106  0.3741 -0.4781  0.0083
  115TMC2    C6 1790   4.702   3.234   0.126 -0.4248  0.6351  0.1123
  115TMC2     C 1791   4.510   2.874   0.147 -0.5551  0.5972 -0.3959
  115TMC2     O 1792   4.577   2.779   0.109  0.0872  0.7048 -0.2962
  115TMC2     H 1793   0.010   2.908   0.219  3.4258  0.2829 -3.3879
  115TMC2    H1 1794   4.398   3.115   0.108  0.0098 -1.2798  1.4022
  115TMC2    H2 1795   0.022   3.326   0.117 -0.4269  0.7193  0.9590
  115TMC2    C7 1796   4.498   3.354   0.080  0.4004 -0.8276 -0.1574
  115TMC2    C8 1797   0.172   3.131   0.164  0.8659  0.2056  0.2101
  115TMC2    O1 1798   4.379   3.348   0.117 -0.2212 -0.2119 -0.4509
  115TMC2    O2 1799   0.222   3.239   0.153  0.3878 -0.4221 -0.2842
  115TMC2    O5 1800   0.219   3.006   0.150 -0.2737  0.4844 -0.6696
  115TMC2    H5 1801   0.162   2.928   0.133  0.9769 -0.5602 -0.1087
  116MPD2     C 1802   4.078   2.706  17.695  0.2629  0.2732 -0.8181
  116MPD2    C1 1803   4.208   2.665  17.672 -0.3303 -0.4320  0.1193
  116MPD2    C2 1804   4.310   2.711   0.008 -0.9835 -0.5801  0.2718
  116MPD2    C3 1805   4.275   2.812   0.098  0.0217 -0.2260  0.4213
  116MPD2    C4 1806   4.144   2.841   0.134 -0.3276 -0.6249  0.7128
  116MPD2    C5 1807   4.047   2.790   0.058  0.3217  1.3951 -0.1210
  116MPD2     H 1808   4.413   2.689  17.732 -0.7739 -0.6256  1.2386
  116MPD2    H1 1809   4.112   2.921   0.199 -2.4432 -0.0844 -1.0064
  116MPD2    H2 1810   3.997   2.654  17.644  0.9486 -1.2028 -0.3891
  116MPD2    H3 1811   3.943   2.816   0.069  0.4323  0.8239  2.2218
  116MPD2     N 1812   4.376   2.893   0.161 -0.3407  0.7272 -0.8003
  116MPD2    H5 1813   4.333   2.955   0.230 -1.8754 -0.1419 -0.9635
  116MPD2    N1 1814   4.238   2.570  17.578  0.2745 -0.0046  0.4735
  116MPD2    H7 1815   4.154   2.537  17.531  0.5879 -0.6627  0.3790
  117TMC2    C1 1816   3.711   4.065  14.192  0.4152 -0.3118  0.7771
  117TMC2    C2 1817   3.842   4.093  14.180 -0.5819 -0.0911 -0.0807
  117TMC2    C3 1818   3.896   4.187  14.265 -0.3846  0.2848 -0.1490
  117TMC2    C4 1819   3.633   4.115  14.293  0.7126 -0.0028  0.6665
  117TMC2    C5 1820   3.693   4.205  14.373  0.4050 -0.5904 -0.7033
  117TMC2    C6 1821   3.824   4.244  14.365  0.9113  0.1076  0.4283
  117TMC2     C 1822   3.647   3.998  14.085 -0.4874  0.2769  0.6418
  117TMC2     O 1823   3.706   3.910  14.034 -0.0635  0.5929 -0.4610
  117TMC2     H 1824   3.899   4.035  14.107 -1.3238  0.5313 -1.1510
  117TMC2    H1 1825   3.542   4.071  14.334 -0.0017  1.1490  0.3265
  117TMC2    H2 1826   3.871   4.323  14.423  0.5087  1.0673 -0.5463
  117TMC2    C7 1827   3.608   4.318  14.408 -0.2786  0.2037 -0.5279
  117TMC2    C8 1828   4.015   4.254  14.217 -0.4898  0.7833  0.1361
  117TMC2    O1 1829   3.663   4.423  14.425  0.4146  0.1314  0.0556
  117TMC2    O2 1830   4.019   4.304  14.105  0.2780  0.2682 -0.4556
  117TMC2    O5 1831   4.102   4.272  14.319  0.4596  0.1799 -0.5727
  117TMC2    H5 1832   4.076   4.210  14.390 -1.1320  1.6340  0.1120
  118MPD2     C 1833   3.246   4.344  14.433 -0.4817  0.4922  0.2933
  118MPD2    C1 1834   3.377   4.383  14.404 -0.2432 -0.5450  0.3876
  118MPD2    C2 1835   3.397   4.510  14.346  0.0923  0.4086 -0.1100
  118MPD2    C3 1836   3.292   4.599  14.322 -0.6880 -0.5541  0.0804
  118MPD2    C4 1837   3.173   4.547  14.343 -0.4142  0.2823  0.3420
  118MPD2    C5 1838   3.138   4.421  14.393 -0.1946  0.4058  0.4350
  118MPD2     H 1839   3.496   4.542  14.317  0.2860  0.8840  1.0826
  118MPD2    H1 1840   3.097   4.616  14.307  0.4289  1.7853  1.4201
  118MPD2    H2 1841   3.227   4.246  14.475  0.0336 -0.1334 -0.9135
  118MPD2    H3 1842   3.040   4.374  14.399 -0.3941  0.3667 -3.3138
  118MPD2     N 1843   3.304   4.727  14.260  0.5568 -0.4039 -0.0873
  118MPD2    H5 1844   3.218   0.037  14.233 -0.0044 -1.3230  0.0967
  118MPD2    N1 1845   3.476   4.286  14.418 -0.2890  0.4281 -0.1850
  118MPD2    H7 1846   3.447   4.190  14.434 -0.0340  0.1946 -1.1020
  119TMC2    C1 1847   1.114   1.014  13.427  0.2725 -0.2197 -0.2892
  119TMC2    C2 1848   1.196   0.907  13.418  0.8034  0.2299  0.3121
  119TMC2    C3 1849   1.140   0.781  13.446 -0.2677 -0.4973 -0.1416
  119TMC2    C4 1850   0.978   1.002  13.457  0.4836 -0.3422 -0.9839
  119TMC2    C5 1851   0.921   0.877  13.484 -0.0903 -0.7794  0.5687
  119TMC2    C6 1852   1.011   0.766  13.479  0.4500 -0.9456 -0.2632
  119TMC2     C 1853   1.167   1.148  13.447  0.1042 -0.4994 -0.1439
  119TMC2     O 1854   1.089   1.231  13.486 -0.1025 -0.7461  0.3138
  119TMC2     H 1855   1.295   0.919  13.375  0.0316  3.8518 -0.4156
  119TMC2    H1 1856   0.920   1.092  13.443  0.4749 -0.1971 -0.0025
  119TMC2    H2 1857   0.970   0.670  13.508 -1.4498 -0.2404 -0.6292
  119TMC2    C7 1858   0.806   0.866  13.572 -0.1148  0.0793 -0.2691
  119TMC2    C8 1859   1.212   0.658  13.418  0.8132  0.1667  0.6293
  119TMC2    O1 1860   0.771   0.747  13.600 -0.2711 -0.8085  0.3473
  119TMC2    O2 1861   1.159   0.552  13.416  0.1518 -0.5210 -0.8474
  119TMC2    O5 1862   1.338   0.677  13.461 -0.1593 -0.1920 -0.2408
  119TMC2    H5 1863   1.356   0.766  13.498 -1.5726  0.0138 -0.0499
  120MPD2     C 1864   1.540   1.333  13.730 -0.2614 -0.0186 -0.9826
  120MPD2    C1 1865   1.409   1.308  13.755 -0.1138 -0.3529 -0.3623
  120MPD2    C2 1866   1.332   1.256  13.660 -0.0657 -0.1352  0.2012
  120MPD2    C3 1867   1.381   1.213  13.537  0.2342  0.5065  0.0185
  120MPD2    C4 1868   1.524   1.218  13.516  0.0882 -0.3532 -0.1488
  120MPD2    C5 1869   1.595   1.291  13.611 -0.2553 -0.0673  0.6841
  120MPD2     H 1870   1.230   1.223  13.675  0.2849 -1.6583 -0.7547
  120MPD2    H1 1871   1.570   1.190  13.422  0.5939  2.2974 -0.7155
  120MPD2    H2 1872   1.609   1.381  13.798 -0.6310 -1.0757  0.1399
  120MPD2    H3 1873   1.698   1.316  13.587 -0.2258 -0.1257  0.7500
  120MPD2     N 1874   1.306   1.146  13.444 -0.1569 -0.1882 -0.6091
  120MPD2    H5 1875   1.353   1.082  13.379 -0.3716 -0.1646 -0.7850
  120MPD2    N1 1876   1.363   1.331  13.893  0.1525  0.8072  0.2516
  120MPD2    H7 1877   1.429   1.350  13.967 -1.4540  2.6997  1.1768
  121TMC2    C1 1878   2.322   2.155  14.333 -0.1018  0.3882 -0.2550
  121TMC2    C2 1879   2.382   2.067  14.417  0.4204 -0.7298 -0.2104
  121TMC2    C3 1880   2.301   2.007  14.511 -0.5095  0.1021 -0.5657
  121TMC2    C4 1881   2.192   2.185  14.349  0.7633  0.0959  0.1366
  121TMC2    C5 1882   2.116   2.127  14.440 -0.5522 -0.1161 -0.2204
  121TMC2    C6 1883   2.167   2.020  14.507 -0.3444 -0.1857  0.3832
  121TMC2     C 1884   2.382   2.211  14.219  0.7697  0.6105  0.1869
  121TMC2     O 1885   2.345   2.309  14.162  0.2743  0.0249 -0.2853
  121TMC2     H 1886   2.487   2.042  14.423  0.0641 -2.0180  0.6620
  121TMC2    H1 1887   2.150   2.248  14.271  2.2782  1.4473  0.4127
  121TMC2    H2 1888   2.102   1.962  14.571 -0.0809 -2.1194 -1.1242
  121TMC2    C7 1889   1.976   2.152  14.439  0.2063  0.4457 -0.1378
  121TMC2    C8 1890   2.338   1.879  14.567  0.1684  0.2498 -0.0088
  121TMC2    O1 1891   1.906   2.054  14.473  0.2150 -0.4734 -0.1706
  121TMC2    O2 1892   2.268   1.830  14.661 -0.8315 -0.1590 -0.0100
  121TMC2    O5 1893   2.390   1.810  14.467  0.0219 -0.5356 -0.3444
  121TMC2    H5 1894   2.424   1.866  14.394  0.9057 -1.0383 -0.3145
  122MPD2     C 1895   2.698   2.090  14.074  0.1862 -0.3713 -1.2185
  122MPD2    C1 1896   2.586   2.166  14.080 -0.3073 -0.1136 -0.1946
  122MPD2    C2 1897   2.570   2.266  13.989  0.6196  0.0571  0.5478
  122MPD2    C3 1898   2.662   2.288  13.889 -0.4607  0.2147  0.0650
  122MPD2    C4 1899   2.772   2.205  13.875  0.1547 -0.2484 -0.7069
  122MPD2    C5 1900   2.790   2.108  13.971 -0.1123 -0.3467 -0.0327
  122MPD2     H 1901   2.490   2.339  13.996 -0.5930 -1.2371  0.4177
  122MPD2    H1 1902   2.856   2.237  13.814 -0.3291 -0.2670 -1.3804
  122MPD2    H2 1903   2.720   2.022  14.155  0.1294 -0.2776 -1.1235
  122MPD2    H3 1904   2.883   2.058  13.994 -1.1611 -1.4307  1.9173
  122MPD2     N 1905   2.655   2.393  13.794 -0.4146  0.0029 -0.2547
  122MPD2    H5 1906   2.727   2.399  13.722  2.8174  0.8470  3.0664
  122MPD2    N1 1907   2.490   2.138  14.185 -1.0050  0.4193  0.5769
  122MPD2    H7 1908   2.506   2.057  14.243 -1.6753  1.6392  2.4629
  123TMC2    C1 1909   1.025   4.608  10.255  0.1452 -0.3442  0.5764
  123TMC2    C2 1910   1.122   4.531  10.197  0.0877  0.1315  0.4146
  123TMC2    C3 1911   1.251   4.591  10.180  0.5462  0.4175 -0.6253
  123TMC2    C4 1912   1.045   4.733  10.300  0.9759  0.8661  0.0781
  123TMC2    C5 1913   1.178   0.035  10.291  0.6338  0.0901  0.3395
  123TMC2    C6 1914   1.279   4.712  10.230  0.2293 -0.3044 -0.7476
  123TMC2     C 1915   0.927   4.527  10.322  0.2221 -0.5226  0.2399
  123TMC2     O 1916   0.958   4.413  10.356 -0.5049 -0.4104 -0.3882
  123TMC2     H 1917   1.101   4.425  10.186 -0.2873  0.2877 -0.4463
  123TMC2    H1 1918   0.974   0.052  10.359 -1.8158 -0.9017 -1.6090
  123TMC2    H2 1919   1.385   4.735  10.237  0.2250 -0.6355  0.4332
  123TMC2    C7 1920   1.214   0.156  10.367  0.3488 -0.0995 -0.1437
  123TMC2    C8 1921   1.361   4.506  10.136  0.0655 -0.1554 -0.0502
  123TMC2    O1 1922   1.125   0.188  10.445  0.7237  0.1105 -0.2587
  123TMC2    O2 1923   1.476   4.523  10.176 -0.0172  0.3348  0.0324
  123TMC2    O5 1924   1.325   4.476  10.010 -0.3638  0.0583  0.5911
  123TMC2    H5 1925   1.229   4.485   9.994 -0.4172  0.0552  0.9012
  124MPD2     C 1926   0.444   4.476  10.491  0.1459 -0.3972 -0.1455
  124MPD2    C1 1927   0.459   4.604  10.442  0.1180  0.1313 -0.0894
  124MPD2    C2 1928   0.588   4.639  10.404  0.0751 -0.8164  0.3187
  124MPD2    C3 1929   0.693   4.548  10.395  0.1887 -0.4818 -1.0978
  124MPD2    C4 1930   0.675   4.432  10.458  0.0761  0.1319  0.6342
  124MPD2    C5 1931   0.551   4.392  10.503  0.2085  0.4850  0.3108
  124MPD2     H 1932   0.604   4.736  10.357 -0.3300 -0.7968  0.2234
  124MPD2    H1 1933   0.756   4.359  10.453 -0.6465 -0.5062 -1.8495
  124MPD2    H2 1934   0.344   4.447  10.521  0.6348  1.1186  2.8818
  124MPD2    H3 1935   0.545   4.291  10.542  0.5108  0.2253 -0.3030
  124MPD2     N 1936   0.809   4.593  10.338  0.5110  0.2286 -0.3225
  124MPD2    H5 1937   0.800   4.684  10.294 -1.3199  1.0989  1.8271
  124MPD2    N1 1938   0.342   4.676  10.416  0.0384 -0.0729  0.5092
  124MPD2    H7 1939   0.255   4.626  10.429 -0.2607  0.2910 -0.0689
  125TMC2    C1 1940   2.543   1.968   8.917 -0.2096  0.5110  1.0615
  125TMC2    C2 1941   2.523   1.847   8.861 -0.6289  0.3334  0.6548
  125TMC2    C3 1942   2.532   1.850   8.721 -0.1667  0.3480  0.0561
  125TMC2    C4 1943   2.567   2.084   8.847 -0.1670 -0.0359 -0.2088
  125TMC2    C5 1944   2.575   2.079   8.711  0.4139 -0.3571 -0.4675
  125TMC2    C6 1945   2.556   1.967   8.647 -0.8744  0.0932 -0.5730
  125TMC2     C 1946   2.547   1.974   9.061  0.7141 -0.0555  0.2542
  125TMC2     O 1947   2.541   1.870   9.126  0.8480 -0.8319 -0.2768
  125TMC2     H 1948   2.487   1.758   8.911 -0.1554  0.4752  1.2373
  125TMC2    H1 1949   2.604   2.172   8.899 -0.2964 -0.2681  0.2788
  125TMC2    H2 1950   2.553   1.970   8.539 -1.6858 -0.5262 -0.5678
  125TMC2    C7 1951   2.591   2.200   8.636 -0.2709 -0.2423 -0.7860
  125TMC2    C8 1952   2.497   1.741   8.641 -0.9262 -0.3767  0.3342
  125TMC2    O1 1953   2.638   2.200   8.525 -0.3653 -0.0484 -0.5092
  125TMC2    O2 1954   2.466   1.755   8.522 -0.3204 -0.8120  0.3156
  125TMC2    O5 1955   2.492   1.623   8.717 -0.4154 -0.6195  0.6547
  125TMC2    H5 1956   2.535   1.625   8.806 -1.0689  0.9159  0.9394
  126MPD1     C 1957   2.553   2.209   9.498 -0.8029 -0.1639  1.0288
  126MPD1    C1 1958   2.466   2.281   9.423  0.3144  0.4395  0.5154
  126MPD1    C2 1959   2.451   2.240   9.294 -0.3115 -0.6375 -0.9366
  126MPD1    C3 1960   2.511   2.128   9.238 -0.1521 -0.1113 -1.7693
  126MPD1    C4 1961   2.608   2.068   9.315 -0.2293  0.7918  0.9989
  126MPD1    C5 1962   2.623   2.102   9.445 -0.9111 -0.0235  0.5259
  126MPD1     H 1963   2.386   2.297   9.229  1.0802  0.8359 -1.0351
  126MPD1    H1 1964   2.670   1.988   9.276 -0.8200  1.0185 -0.4167
  126MPD1    H2 1965   2.563   2.232   9.603  0.1741  1.1921  0.6439
  126MPD1    H3 1966   2.683   2.057   9.523  1.8523 -0.5932 -1.9601
  126MPD1     N 1967   2.492   2.093   9.110 -0.3081 -0.6797  0.3752
  126MPD1    H5 1968   2.446   2.160   9.049  1.1687  1.0780  1.1999
  126MPD1    N1 1969   2.421   2.408   9.470 -0.2763  0.0109  0.3863
  126MPD1    H6 1970   2.334   2.434   9.423 -0.6899  0.2749  1.3083
  126MPD1    H7 1971   2.402   2.417   9.569  1.9646  1.4379  0.6923
  127TMC2    C1 1972   3.334   1.462   9.846 -0.3088  0.0486 -0.1368
  127TMC2    C2 1973   3.398   1.436   9.962  0.8777  0.8041 -0.6709
  127TMC2    C3 1974   3.372   1.317  10.018  0.1923 -1.0261  0.6190
  127TMC2    C4 1975   3.243   1.370   9.794  0.1545  0.2872  0.3413
  127TMC2    C5 1976   3.219   1.255   9.868  0.2577 -0.9306  0.1740
  127TMC2    C6 1977   3.290   1.216   9.981 -0.1944 -0.7818 -0.3709
  127TMC2     C 1978   3.353   1.595   9.801 -0.6571 -0.1743  0.0564
  127TMC2     O 1979   3.380   1.667   9.892  0.6986  0.4509  1.0870
  127TMC2     H 1980   3.479   1.493  10.005  0.6019  1.4873 -1.0584
  127TMC2    H1 1981   3.176   1.401   9.716 -1.7387 -1.2037  1.3669
  127TMC2    H2 1982   3.289   1.126  10.042 -1.3395 -0.6987 -0.2662
  127TMC2    C7 1983   3.125   1.160   9.808  0.1377  0.6997  0.8147
  127TMC2    C8 1984   3.476   1.278  10.106 -0.7127  0.0698  0.5362
  127TMC2    O1 1985   3.109   1.176   9.688 -0.1740 -0.3570 -0.4558
  127TMC2    O2 1986   3.462   1.245  10.222  0.5287 -0.2294  0.0667
  127TMC2    O5 1987   3.596   1.297  10.041  0.3504  0.4984 -0.0446
  127TMC2    H5 1988   3.594   1.297   9.943 -0.2225 -1.0367 -0.0388
  128MPD2     C 1989   3.301   1.726   9.463  0.3803  0.2087  0.5287
  128MPD2    C1 1990   3.316   1.733   9.604  0.5076  0.1564 -0.0796
  128MPD2    C2 1991   3.328   1.856   9.659 -0.2348  0.0148  0.4349
  128MPD2    C3 1992   3.330   1.978   9.588 -0.0800 -0.0165  0.2739
  128MPD2    C4 1993   3.332   1.968   9.452  0.0268 -0.2685 -0.9343
  128MPD2    C5 1994   3.312   1.844   9.393  0.5522 -0.3167  0.4314
  128MPD2     H 1995   3.328   1.865   9.767  0.5350  0.4364  0.3953
  128MPD2    H1 1996   3.320   2.052   9.385 -2.1779  1.1916  1.3023
  128MPD2    H2 1997   3.281   1.628   9.420 -0.4518  0.3373  0.6230
  128MPD2    H3 1998   3.293   1.833   9.287 -2.3619 -0.3860  0.9637
  128MPD2     N 1999   3.339   2.099   9.657 -0.0768 -1.0766  0.6787
  128MPD2    H5 2000   3.344   2.106   9.758 -0.5104  0.2420  0.6155
  128MPD2    N1 2001   3.319   1.612   9.673 -0.0296  0.2232 -0.5000
  128MPD2    H7 2002   3.310   1.532   9.611 -1.3183 -0.0476  0.0238
  129TMC2    C1 2003   2.164   0.776   1.773 -0.9468  0.4722  0.2890
  129TMC2    C2 2004   2.218   0.684   1.695 -0.2016  0.7123  0.1787
  129TMC2    C3 2005   2.143   0.615   1.605 -0.1788 -0.1274  0.0017
  129TMC2    C4 2006   2.025   0.794   1.771 -0.2366  0.0252  0.1927
  129TMC2    C5 2007   1.954   0.714   1.696 -0.0334 -0.8130  0.2587
  129TMC2    C6 2008   2.007   0.623   1.610 -0.3224 -0.2495 -0.1763
  129TMC2     C 2009   2.206   0.913   1.758 -1.0236  0.1953  0.1397
  129TMC2     O 2010   2.124   0.997   1.729 -0.0970 -0.6863 -0.3239
  129TMC2     H 2011   2.326   0.680   1.687 -0.1819 -0.0741  0.8631
  129TMC2    H1 2012   1.979   0.850   1.852  2.6744  0.1924  1.7705
  129TMC2    H2 2013   1.933   0.574   1.548 -0.1467 -1.9265  0.9237
  129TMC2    C7 2014   1.839   0.790   1.649 -0.3691  0.3415 -0.3079
  129TMC2    C8 2015   2.195   0.503   1.522  0.2446  0.3286  0.6508
  129TMC2    O1 2016   1.748   0.730   1.597 -0.4237  0.1115  0.2776
  129TMC2    O2 2017   2.131   0.405   1.489  0.5381  0.1572 -0.6136
  129TMC2    O5 2018   2.329   0.497   1.548 -0.1104 -0.2871  0.0339
  129TMC2    H5 2019   2.379   0.580   1.535 -0.7265  0.2178  0.8710
  130MPD2     C 2020   2.544   1.040   1.733 -0.1399 -0.0827  0.9275
  130MPD2    C1 2021   2.411   1.042   1.733 -0.0135  0.5952  0.6743
  130MPD2    C2 2022   2.348   1.163   1.709  0.2975 -0.6630 -0.0588
  130MPD2    C3 2023   2.421   1.287   1.703 -0.3959 -0.4979  0.1748
  130MPD2    C4 2024   2.557   1.283   1.720  0.0422  0.1293  0.7825
  130MPD2    C5 2025   2.621   1.158   1.728  0.2304  0.8809 -0.6281
  130MPD2     H 2026   2.240   1.174   1.701  0.0660 -2.9698 -0.1754
  130MPD2    H1 2027   2.619   1.371   1.707  1.5463 -0.9738  0.3597
  130MPD2    H2 2028   2.614   0.959   1.749  1.1864  0.9087  0.2039
  130MPD2    H3 2029   2.728   1.141   1.729  0.1926  0.6452 -0.3979
  130MPD2     N 2030   2.350   1.406   1.676 -0.7385 -0.0930  0.5458
  130MPD2    H5 2031   2.256   1.387   1.644 -0.1128  1.5107 -2.3306
  130MPD2    N1 2032   2.339   0.927   1.753  0.8617 -0.3610  0.1176
  130MPD2    H7 2033   2.395   0.849   1.786  2.5983  0.5780 -0.6356
  131TMC2    C1 2034   0.579   0.986  10.142 -0.5424 -0.6257 -0.1280
  131TMC2    C2 2035   0.667   0.983  10.246 -0.4125 -0.3680  0.1241
  131TMC2    C3 2036   0.746   1.098  10.260  0.1033  0.4024 -0.2661
  131TMC2    C4 2037   0.569   1.093  10.056  0.2470 -0.1094 -0.3057
  131TMC2    C5 2038   0.655   1.197  10.074 -0.1789 -0.4189 -0.5794
  131TMC2    C6 2039   0.740   1.201  10.174  0.2471  0.0433  0.1674
  131TMC2     C 2040   0.483   0.879  10.140 -1.0328 -0.1042  0.1895
  131TMC2     O 2041   0.506   0.791  10.215  0.4476 -0.2385  0.3825
  131TMC2     H 2042   0.684   0.899  10.313  0.1082  1.1863  1.9539
  131TMC2    H1 2043   0.508   1.098   9.966 -0.0654  0.8892 -0.0383
  131TMC2    H2 2044   0.817   1.277  10.183 -1.0122  1.1853  1.3538
  131TMC2    C7 2045   0.686   1.287   9.956 -0.8690 -0.0205  0.2852
  131TMC2    C8 2046   0.886   1.071  10.293  0.2150  0.6009 -0.4879
  131TMC2    O1 2047   0.665   1.236   9.846 -0.5618 -0.3844 -0.3987
  131TMC2    O2 2048   0.963   1.157  10.330  0.1623 -0.1395 -0.9042
  131TMC2    O5 2049   0.910   0.951  10.234  0.2220  0.1946  0.3842
  131TMC2    H5 2050   0.839   0.901  10.188  0.2794 -0.5172  1.0695
  132MPD2     C 2051   0.145   0.843  10.000 -0.1847 -0.0152  0.7805
  132MPD2    C1 2052   0.257   0.802  10.066 -2.0789  0.3258  0.3849
  132MPD2    C2 2053   0.247   0.683  10.141  0.8616 -0.7919 -0.1277
  132MPD2    C3 2054   0.135   0.605  10.141 -0.4653 -0.4935 -0.4195
  132MPD2    C4 2055   0.016   0.670  10.094 -0.2678  0.2857 -0.2676
  132MPD2    C5 2056   0.026   0.788  10.021  0.8487 -0.1075  0.2694
  132MPD2     H 2057   0.337   0.650  10.190  1.1903  0.2430 -0.0401
  132MPD2    H1 2058   4.660   0.619  10.072 -0.9711  2.4649 -2.3144
  132MPD2    H2 2059   0.151   0.926   9.930  1.0549  0.2740  1.2390
  132MPD2    H3 2060   4.675   0.818   9.966  1.0577  1.1943  0.6553
  132MPD2     N 2061   0.137   0.477  10.213  0.4609 -0.0920 -0.0263
  132MPD2    H5 2062   0.228   0.453  10.251  0.5689  1.4832  0.6737
  132MPD2    N1 2063   0.367   0.894  10.068 -0.0522  0.4302  0.0997
  132MPD2    H7 2064   0.351   0.979  10.015 -0.7568 -0.2218 -0.7387
  133TMC2    C1 2065   4.504   0.355   9.900  0.1563  0.6792  0.6023
  133TMC2    C2 2066   4.407   0.270   9.855 -1.3112 -0.9211 -0.7415
  133TMC2    C3 2067   4.437   0.139   9.840 -1.1275  1.2279 -0.5683
  133TMC2    C4 2068   4.637   0.307   9.912  0.0302  0.6888 -0.0393
  133TMC2    C5 2069   4.660   0.172   9.896 -0.8528  0.1608 -0.4923
  133TMC2    C6 2070   4.560   0.086   9.875  0.1927 -0.6849  0.1422
  133TMC2     C 2071   4.502   0.495   9.864  0.1147  0.1160 -0.7496
  133TMC2     O 2072   4.608   0.552   9.852 -0.4335  0.1813  0.6872
  133TMC2     H 2073   4.308   0.309   9.835 -0.4568  0.4938 -2.1357
  133TMC2    H1 2074   4.722   0.371   9.934 -0.6002  1.2174  0.8382
  133TMC2    H2 2075   4.576   4.719   9.846 -2.2556 -0.4611 -1.9766
  133TMC2    C7 2076   0.053   0.121   9.920 -0.1837  0.3776  0.3877
  133TMC2    C8 2077   4.329   0.044   9.813  0.0929 -0.1859  0.3297
  133TMC2    O1 2078   0.140   0.207   9.917 -0.0252  0.1823  0.4437
  133TMC2    O2 2079   4.318   4.675   9.873 -0.6313 -0.1001 -0.6769
  133TMC2    O5 2080   4.229   0.106   9.746 -0.3435  0.1364 -0.0755
  133TMC2    H5 2081   4.252   0.193   9.708 -0.9370  1.1590  1.8713
  134MPD2     C 2082   4.207   0.723   9.892 -0.5964 -0.2724 -0.4664
  134MPD2    C1 2083   4.340   0.688   9.865 -0.0959  0.2676  0.0779
  134MPD2    C2 2084   4.424   0.782   9.804 -0.2912  0.0908  0.0690
  134MPD2    C3 2085   4.377   0.907   9.781  0.5815  1.1930  0.4716
  134MPD2    C4 2086   4.255   0.943   9.832  0.0947 -0.5320  0.2626
  134MPD2    C5 2087   4.171   0.854   9.886  0.8936 -0.5960  0.6658
  134MPD2     H 2088   4.526   0.757   9.780 -0.3087  0.4833 -0.4225
  134MPD2    H1 2089   4.222   1.047   9.829 -0.1329 -0.5724  1.1070
  134MPD2    H2 2090   4.127   0.654   9.915  0.6658 -1.5741 -0.0056
  134MPD2    H3 2091   4.074   0.889   9.919 -0.1029 -1.2021 -1.6069
  134MPD2     N 2092   4.449   1.008   9.716 -0.3023 -0.2021 -0.6429
  134MPD2    H5 2093   4.402   1.098   9.727  0.8868  0.4808 -1.1157
  134MPD2    N1 2094   4.377   0.552   9.881 -0.4438 -0.2083 -0.3196
  134MPD2    H7 2095   4.307   0.489   9.917 -0.3485  1.3763  2.6475
  135TMC2    C1 2096   2.586   3.433  10.268 -0.7156  0.1457 -0.6897
  135TMC2    C2 2097   2.696   3.365  10.309  0.4226  0.2998  0.3503
  135TMC2    C3 2098   2.678   3.278  10.410  0.0368 -0.4691 -0.5043
  135TMC2    C4 2099   2.469   3.427  10.339 -0.2194  0.6240 -0.6300
  135TMC2    C5 2100   2.464   3.340  10.443 -0.2799  0.6349 -0.5809
  135TMC2    C6 2101   2.563   3.261  10.483  0.7681  0.5166  0.7075
  135TMC2     C 2102   2.563   3.450  10.130 -0.0388  0.4303  0.0859
  135TMC2     O 2103   2.465   3.505  10.092 -0.4582  0.1158  0.0673
  135TMC2     H 2104   2.793   3.371  10.260 -0.9809  2.1788 -2.1855
  135TMC2    H1 2105   2.383   3.486  10.310  0.8595  2.4297 -0.2053
  135TMC2    H2 2106   2.565   3.206  10.577 -1.2487 -0.6609  0.0754
  135TMC2    C7 2107   2.328   3.303  10.474  0.2735 -0.0743  0.5383
  135TMC2    C8 2108   2.796   3.223  10.464  0.2137 -0.2388  0.8638
  135TMC2    O1 2109   2.242   3.384  10.451  0.7030 -0.4288 -0.5107
  135TMC2    O2 2110   2.899   3.290  10.462  0.3559  0.1702 -0.3732
  135TMC2    O5 2111   2.783   3.094  10.473  0.3739 -0.1992  0.1792
  135TMC2    H5 2112   2.688   3.073  10.461 -0.2451  2.4106  0.4254
  136MPD2     C 2113   2.614   3.491   9.843  0.3441 -0.5765 -0.4761
  136MPD2    C1 2114   2.688   3.398   9.921  0.1822  0.2423  0.7928
  136MPD2    C2 2115   2.775   3.318   9.855  0.6060 -0.2163 -0.1010
  136MPD2    C3 2116   2.795   3.317   9.720 -0.0717 -0.6069 -0.5722
  136MPD2    C4 2117   2.723   3.396   9.641 -0.2962  0.3898 -0.6100
  136MPD2    C5 2118   2.634   3.478   9.706  0.2634  0.1835  0.6071
  136MPD2     H 2119   2.825   3.251   9.924 -0.6095 -1.9240 -0.8889
  136MPD2    H1 2120   2.736   3.412   9.534  2.4274  1.1509 -0.1699
  136MPD2    H2 2121   2.532   3.555   9.874  0.6926 -0.7273  0.7938
  136MPD2    H3 2122   2.567   3.534   9.642  2.1328  0.8285 -0.7721
  136MPD2     N 2123   2.901   3.245   9.651  0.0838  0.1230  0.2939
  136MPD2    H5 2124   2.902   3.245   9.550  0.4691 -3.8062  0.3011
  136MPD2    N1 2125   2.667   3.385  10.059  0.1170 -0.0926 -0.4240
  136MPD2    H7 2126   2.721   3.311  10.103 -0.5950 -0.2143  0.2504
  137TMC2    C1 2127   2.170   1.875   9.287  0.5756 -0.4755  0.3254
  137TMC2    C2 2128   2.221   1.823   9.172  0.2199  0.0048  0.0466
  137TMC2    C3 2129   2.145   1.838   9.059 -0.1835  0.5920 -0.5678
  137TMC2    C4 2130   2.039   1.918   9.305  0.0285  0.0932 -0.2374
  137TMC2    C5 2131   1.967   1.926   9.183 -0.1496 -0.1834 -0.1849
  137TMC2    C6 2132   2.017   1.877   9.064  0.1030 -0.2005  0.6887
  137TMC2     C 2133   2.249   1.870   9.413 -0.5372 -0.4567 -0.4075
  137TMC2     O 2134   2.238   1.967   9.484  0.3821 -0.3054 -0.2654
  137TMC2     H 2135   2.325   1.795   9.158  0.7404  1.0466  1.7784
  137TMC2    H1 2136   2.007   1.951   9.404  0.8394  1.4157 -0.4113
  137TMC2    H2 2137   1.973   1.899   8.968  1.4676  2.8833  0.7766
  137TMC2    C7 2138   1.829   1.972   9.174  0.3933 -0.2000 -0.3314
  137TMC2    C8 2139   2.189   1.799   8.932  0.0082  0.4328 -0.0203
  137TMC2    O1 2140   1.782   1.983   9.060  0.3629  0.1102 -0.3196
  137TMC2    O2 2141   2.134   1.834   8.829  0.3095  0.1982 -0.0036
  137TMC2    O5 2142   2.249   1.679   8.943 -0.3074  0.1140 -0.2799
  137TMC2    H5 2143   2.261   1.649   9.036 -0.9852  1.4724  0.2413
  138MPD2     C 2144   2.494   1.607   9.500 -0.0325 -0.0753  0.9819
  138MPD2    C1 2145   2.423   1.722   9.517 -0.1829  0.6386 -0.8336
  138MPD2    C2 2146   2.460   1.808   9.613  0.2750 -0.3161  0.0662
  138MPD2    C3 2147   2.563   1.784   9.703  0.1832 -1.0959 -0.0608
  138MPD2    C4 2148   2.630   1.665   9.688  0.4655 -0.5021 -0.3426
  138MPD2    C5 2149   2.599   1.587   9.578 -0.1324 -0.2915  0.3515
  138MPD2     H 2150   2.410   1.903   9.628  1.8013  0.5693 -0.3943
  138MPD2    H1 2151   2.706   1.631   9.757  1.6203  2.0450 -0.3602
  138MPD2    H2 2152   2.474   1.546   9.413 -1.1724  0.4091  0.9029
  138MPD2    H3 2153   2.654   1.494   9.565  0.9584  0.1452  1.8314
  138MPD2     N 2154   2.585   1.876   9.812  0.1203  0.1292  0.0110
  138MPD2    H5 2155   2.522   1.955   9.819  1.5317  1.2200  0.3056
  138MPD2    N1 2156   2.324   1.756   9.420 -0.2244  1.2192 -0.3182
  138MPD2    H7 2157   2.319   1.683   9.350 -1.8810  0.7549  0.2692
  139TMC2    C1 2158   2.576   0.448  13.724 -0.0954  0.4290  0.2311
  139TMC2    C2 2159   2.635   0.554  13.666 -0.2521  0.5020 -0.2708
  139TMC2    C3 2160   2.586   0.673  13.681  0.9172  0.3840  0.3182
  139TMC2    C4 2161   2.447   0.462  13.776  0.4294 -0.4210  0.0103
  139TMC2    C5 2162   2.395   0.591  13.772 -0.4179  0.2097 -0.1982
  139TMC2    C6 2163   2.465   0.694  13.725  0.2401 -0.4911 -0.3822
  139TMC2     C 2164   2.637   0.314  13.711 -0.7499  0.8849  0.0580
  139TMC2     O 2165   2.752   0.311  13.669 -0.0418  0.6660  0.4824
  139TMC2     H 2166   2.735   0.543  13.626 -0.7799 -2.0785 -0.8909
  139TMC2    H1 2167   2.410   0.388  13.846  1.0003  0.0584  0.8148
  139TMC2    H2 2168   2.413   0.790  13.719 -0.8344 -1.0668 -0.3303
  139TMC2    C7 2169   2.266   0.614  13.836 -0.0573  0.2441 -0.1066
  139TMC2    C8 2170   2.622   0.774  13.580  0.0012 -0.0825 -0.3078
  139TMC2    O1 2171   2.253   0.729  13.876  0.2623  0.1606 -0.1043
  139TMC2    O2 2172   2.596   0.763  13.460 -0.1857 -0.3752  0.0173
  139TMC2    O5 2173   2.748   0.805  13.612  0.2358  0.2104  0.3092
  139TMC2    H5 2174   2.771   0.806  13.707  0.1165  0.2337  0.3375
  140MPD2     C 2175   2.473   4.718  13.720  0.1271 -1.2551 -0.3382
  140MPD2    C1 2176   2.575   0.072  13.712  0.0698  0.7219  0.0156
  140MPD2    C2 2177   2.701   0.020  13.690  0.3437  0.0248  0.4245
  140MPD2    C3 2178   2.727   4.623  13.669  0.2235 -0.1334 -0.3239
  140MPD2    C4 2179   2.623   4.539  13.670  0.5228  0.8963  0.0711
  140MPD2    C5 2180   2.494   4.578  13.687 -0.4118 -0.6462  0.9496
  140MPD2     H 2181   2.791   0.079  13.702  0.5112 -0.2784  0.6788
  140MPD2    H1 2182   2.639   4.432  13.670 -0.5868  0.7358 -0.8731
  140MPD2    H2 2183   2.374   0.006  13.755 -0.9802 -2.9172 -2.3200
  140MPD2    H3 2184   2.405   4.515  13.686  1.0500 -2.6898 -0.6082
  140MPD2     N 2185   2.858   4.579  13.662  0.2997 -0.0822  0.1304
  140MPD2    H5 2186   2.932   4.649  13.667 -1.0394  1.3958 -0.7311
  140MPD2    N1 2187   2.545   0.212  13.730 -0.0654  0.4152  0.2228
  140MPD2    H7 2188   2.446   0.231  13.745  0.5393  1.2411  3.0758
  141TMC2    C1 2189   3.095   2.544  14.023 -0.2304  0.3263  0.3429
  141TMC2    C2 2190   2.962   2.575  14.019 -0.8388  0.3777 -0.1380
  141TMC2    C3 2191   2.919   2.705  14.012  0.2796 -0.0486 -0.7758
  141TMC2    C4 2192   3.190   2.643  14.013  0.2725 -0.3493 -0.1884
  141TMC2    C5 2193   3.142   2.770  13.979 -0.1643 -0.0111  0.3472
  141TMC2    C6 2194   3.014   2.799  13.991  1.0940 -0.4432  0.2333
  141TMC2     C 2195   3.130   2.407  14.020 -0.2279 -0.0274 -0.2555
  141TMC2     O 2196   3.237   2.372  13.974  0.0544  0.3516  0.4770
  141TMC2     H 2197   2.893   2.493  14.006 -0.2483  0.0569 -1.2275
  141TMC2    H1 2198   3.295   2.616  14.005  0.4514  1.0149 -2.5767
  141TMC2    H2 2199   2.981   2.898  13.963  1.8766 -0.0002  0.8594
  141TMC2    C7 2200   3.242   2.877  13.963 -0.2752  0.2917  0.0188
  141TMC2    C8 2201   2.781   2.741  14.014  0.0375  0.9666 -0.1763
  141TMC2    O1 2202   3.213   2.967  13.888  0.3835 -0.6625  0.1528
  141TMC2    O2 2203   2.733   2.844  13.962  0.3307  0.0883  0.2927
  141TMC2    O5 2204   2.719   2.642  14.082 -0.2202 -0.1707  0.0192
  141TMC2    H5 2205   2.775   2.572  14.121 -0.2069 -0.0909  0.1419
  142TMC2    C1 2206   1.190   0.613  11.068  0.6857  0.3566 -0.6529
  142TMC2    C2 2207   1.291   0.695  11.105 -0.1910  0.1836  0.3521
  142TMC2    C3 2208   1.374   0.753  11.019  0.8299  1.1871 -0.2058
  142TMC2    C4 2209   1.159   0.591  10.929  0.0790  0.1399 -0.1065
  142TMC2    C5 2210   1.259   0.629  10.846  1.2234  0.4929  0.0863
  142TMC2    C6 2211   1.358   0.710  10.887 -0.2136  0.1398  0.4461
  142TMC2     C 2212   1.095   0.570  11.162 -0.5157 -0.2791  0.4265
  142TMC2     O 2213   1.037   0.463  11.145  0.7222 -0.1770  0.2035
  142TMC2     H 2214   1.317   0.704  11.210  1.9661  0.1319 -0.1667
  142TMC2    H1 2215   1.077   0.526  10.899 -0.6701  1.0364  0.0027
  142TMC2    H2 2216   1.430   0.750  10.816  0.6086  1.1119  1.8196
  142TMC2    C7 2217   1.264   0.571  10.714 -0.5878  0.8686 -0.3506
  142TMC2    C8 2218   1.511   0.756  11.066 -0.5137  0.4133  0.3532
  142TMC2    O1 2219   1.173   0.486  10.699  0.1804  0.1771 -0.2265
  142TMC2    O2 2220   1.554   0.666  11.132 -0.2949  0.3054  0.1682
  142TMC2    O5 2221   1.577   0.839  10.985  0.1310 -0.4351 -0.5040
  142TMC2    H5 2222   1.511   0.900  10.946 -0.7772 -0.1032  1.5358
  143MPD2     C 2223   0.744   0.654  11.553  0.4781  1.1028 -0.0827
  143MPD2    C1 2224   0.796   0.538  11.503  0.7986 -0.0039 -0.0107
  143MPD2    C2 2225   0.896   0.538  11.402  0.3728 -0.0566 -0.2329
  143MPD2    C3 2226   0.937   0.661  11.336 -0.3369 -0.2549 -0.7426
  143MPD2    C4 2227   0.881   0.779  11.392  0.5911  0.2540 -0.5318
  143MPD2    C5 2228   0.791   0.770  11.490  0.0265 -0.1733 -0.9497
  143MPD2     H 2229   0.955   0.455  11.365  0.1426  0.9985 -2.9055
  143MPD2    H1 2230   0.919   0.872  11.351  3.0930 -1.9313 -3.1366
  143MPD2    H2 2231   0.678   0.660  11.639  0.1713  1.6906 -0.3617
  143MPD2    H3 2232   0.763   0.867  11.530  0.6870 -0.1096 -0.6462
  143MPD2     N 2233   1.048   0.674  11.246 -0.1126  0.2369  0.5682
  143MPD2    H5 2234   1.089   0.767  11.241  0.2431  0.1029  0.9303
  143MPD2    N1 2235   0.741   0.418  11.552 -0.6728  0.2569 -0.0407
  143MPD2    H7 2236   0.671   0.426  11.625  0.7694  0.1234  1.3644
  144TMC2    C1 2237   4.258   3.845   0.962  0.2606 -0.2085 -0.1744
  144TMC2    C2 2238   4.304   3.747   0.882  0.2250 -0.2576 -0.2977
  144TMC2    C3 2239   4.444   3.724   0.873  1.4558  0.4947 -0.2200
  144TMC2    C4 2240   4.338   3.913   1.050  0.5307 -0.1140 -0.3883
  144TMC2    C5 2241   4.469   3.883   1.056 -0.2868  0.0917 -0.9416
  144TMC2    C6 2242   4.523   3.788   0.967 -0.4147 -0.7184  0.2554
  144TMC2     C 2243   4.125   3.893   0.922 -1.3439  0.6347 -0.3587
  144TMC2     O 2244   4.056   3.811   0.865  0.2947  0.0154  0.3627
  144TMC2     H 2245   4.242   3.680   0.823 -0.8131  0.7503 -0.3481
  144TMC2    H1 2246   4.300   3.977   1.128  1.0203  1.6144 -1.5539
  144TMC2    H2 2247   4.626   3.756   0.976 -0.5461 -1.1352  0.3167
  144TMC2    C7 2248   4.560   3.954   1.145  0.1376 -0.0041  0.5869
  144TMC2    C8 2249   4.511   3.622   0.788  0.6684 -0.0451 -0.5302
  144TMC2    O1 2250   4.669   3.903   1.146  0.2473 -0.6533  0.0296
  144TMC2    O2 2251   4.489   3.503   0.814 -0.0752 -0.9627 -0.1806
  144TMC2    O5 2252   4.629   3.667   0.747  0.3177  0.7659  0.0561
  144TMC2    H5 2253   4.648   3.763   0.757  0.7210  0.8536 -1.5427
  145MPD2     C 2254   3.754   4.247   0.871 -0.3862  0.0932  0.1969
  145MPD2    C1 2255   3.753   4.113   0.840 -0.4312  1.0091 -0.3149
  145MPD2    C2 2256   3.865   4.032   0.881 -1.0073 -0.0155 -0.4245
  145MPD2    C3 2257   3.978   4.091   0.927 -0.4304 -0.2001  0.0483
  145MPD2    C4 2258   3.986   4.230   0.943 -0.4538 -0.4884  0.0167
  145MPD2    C5 2259   3.870   4.301   0.922 -0.5491 -0.9215  0.3742
  145MPD2     H 2260   3.852   3.926   0.866  0.9922 -0.7376  3.0406
  145MPD2    H1 2261   4.073   4.280   0.984 -2.1475  1.2182  1.4963
  145MPD2    H2 2262   3.672   4.315   0.849 -0.0728  1.6389  3.8653
  145MPD2    H3 2263   3.860   4.405   0.949  0.8911 -0.7074  0.0611
  145MPD2     N 2264   4.100   4.024   0.947  0.8356  0.3215  0.0099
  145MPD2    H5 2265   4.173   4.079   0.991  0.0708  0.4736  1.1134
  145MPD2    N1 2266   3.645   4.049   0.779 -0.0551 -0.0571  0.1404
  145MPD2    H7 2267   3.639   3.949   0.761 -0.6987 -0.0610  0.3564
  146TMC2    C1 2268   0.426   3.087  12.258 -0.2011 -0.3793 -0.1925
  146TMC2    C2 2269   0.472   3.137  12.141 -0.1954 -0.6189  0.0009
  146TMC2    C3 2270   0.475   3.055  12.032  0.0792 -1.1173  0.1975
  146TMC2    C4 2271   0.376   2.957  12.265 -0.2357  0.2483 -0.0241
  146TMC2    C5 2272   0.377   2.883  12.147 -0.9150  0.1675 -0.2920
  146TMC2    C6 2273   0.419   2.931  12.032 -0.3832 -0.1939  0.2323
  146TMC2     C 2274   0.436   3.170  12.370 -0.5818  0.3110 -0.2886
  146TMC2     O 2275   0.419   3.291  12.358  0.5791 -0.8014 -0.0663
  146TMC2     H 2276   0.518   3.235  12.135  0.0819 -0.6972  0.8030
  146TMC2    H1 2277   0.317   2.924  12.350 -0.7522  0.4126 -0.3161
  146TMC2    H2 2278   0.437   2.862  11.950 -0.1525 -0.0354  0.1466
  146TMC2    C7 2279   0.360   2.741  12.165  0.1563  0.3525 -0.0440
  146TMC2    C8 2280   0.525   3.101  11.906  0.2391  0.1577 -0.1436
  146TMC2    O1 2281   0.318   2.674  12.071  0.1783  0.2530  0.4328
  146TMC2    O2 2282   0.530   3.220  11.884  0.0151 -0.3679  0.4009
  146TMC2    O5 2283   0.606   3.004  11.866 -0.1390 -0.6603  0.0677
  146TMC2    H5 2284   0.611   2.915  11.907 -1.2701 -0.7518  0.0026
  147MPD2     C 2285   0.328   2.341  12.470  0.3993  0.3120 -0.6635
  147MPD2    C1 2286   0.411   2.431  12.534 -0.0615  0.2269  0.3365
  147MPD2    C2 2287   0.426   2.548  12.469  0.1810 -0.3275 -0.8126
  147MPD2    C3 2288   0.362   2.580  12.353 -0.0997 -0.0312 -0.3732
  147MPD2    C4 2289   0.274   2.489  12.298 -0.8215 -0.3879  0.0782
  147MPD2    C5 2290   0.253   2.376  12.365 -0.4433 -0.8628 -0.4678
  147MPD2     H 2291   0.479   2.634  12.508  0.3947  0.1172 -2.0846
  147MPD2    H1 2292   0.210   2.502  12.212 -0.3371 -0.0155 -0.2245
  147MPD2    H2 2293   0.292   2.258  12.530  3.2465 -0.5027 -0.0467
  147MPD2    H3 2294   0.179   2.307  12.325 -1.0790 -1.3817  1.6109
  147MPD2     N 2295   0.398   2.704  12.295  0.0084 -0.0728 -0.0212
  147MPD2    H5 2296   0.452   2.769  12.351 -0.1054 -0.7250  0.8521
  147MPD2    N1 2297   0.479   2.397  12.651 -0.6086  0.4505 -0.6731
  147MPD2    H7 2298   0.451   2.315  12.704 -2.0980  1.7334  0.4856
  148TMC2    C1 2299   0.982   1.606  10.774  0.5273 -0.5635 -0.3032
  148TMC2    C2 2300   1.080   1.689  10.815 -0.0279 -0.0977 -0.0877
  148TMC2    C3 2301   1.201   1.633  10.846 -0.4061  0.1778  0.7544
  148TMC2    C4 2302   0.994   1.470  10.769  0.3419 -0.4981  0.1874
  148TMC2    C5 2303   1.118   1.419  10.815 -0.2700 -0.0463 -0.3707
  148TMC2    C6 2304   1.219   1.506  10.845  0.2657  0.4637  1.2375
  148TMC2     C 2305   0.852   1.668  10.745  0.5624  0.3886 -0.8238
  148TMC2     O 2306   0.864   1.783  10.726 -0.4669 -0.2467  0.1615
  148TMC2     H 2307   1.061   1.794  10.838  0.7888  0.0526 -0.1138
  148TMC2    H1 2308   0.921   1.401  10.728 -0.5708  0.0799  0.8472
  148TMC2    H2 2309   1.320   1.468  10.857 -0.3104 -0.7239  2.4637
  148TMC2    C7 2310   1.150   1.276  10.808  0.0228 -0.4881 -0.7612
  148TMC2    C8 2311   1.308   1.720  10.898 -0.6429 -0.8059  0.1357
  148TMC2    O1 2312   1.232   1.238  10.895  0.2879  0.5527  0.0849
  148TMC2    O2 2313   1.372   1.690  10.997  0.2287  0.2190 -0.4809
  148TMC2    O5 2314   1.355   1.813  10.807  0.0944  0.3690 -0.7656
  148TMC2    H5 2315   1.317   1.804  10.717 -0.2555 -2.3229 -0.3472
  149MPD2     C 2316   0.571   1.730  10.669 -0.4765  0.1595  0.5277
  149MPD2    C1 2317   0.611   1.610  10.718 -0.1043  0.0858 -0.5495
  149MPD2    C2 2318   0.522   1.504  10.705  0.5085 -0.7402  0.1829
  149MPD2    C3 2319   0.382   1.521  10.681 -0.1533  0.3874  0.5366
  149MPD2    C4 2320   0.345   1.651  10.651  0.5986  0.2752  0.7696
  149MPD2    C5 2321   0.434   1.751  10.647  0.4596  0.0965 -0.3905
  149MPD2     H 2322   0.560   1.405  10.731  0.6606 -1.0820 -1.3511
  149MPD2    H1 2323   0.241   1.678  10.635  0.7163 -0.6138 -1.5256
  149MPD2    H2 2324   0.637   1.814  10.652 -0.9337  0.8244  1.9980
  149MPD2    H3 2325   0.402   1.852  10.623  2.6099  1.1522  1.2887
  149MPD2     N 2326   0.282   1.419  10.665  0.1079 -0.1303 -0.2443
  149MPD2    H5 2327   0.192   1.450  10.629 -0.3386  0.7794  1.6214
  149MPD2    N1 2328   0.747   1.586  10.757  0.3476 -0.4727  0.0917
  149MPD2    H7 2329   0.761   1.492  10.794 -0.8889 -1.0320 -0.9013
  150TMC2    C1 2330   2.474   0.893  12.317  0.2621  0.2789  0.4944
  150TMC2    C2 2331   2.486   0.945  12.191 -0.3456  0.2035 -0.3401
  150TMC2    C3 2332   2.616   0.971  12.147  0.5119 -0.7134 -0.5685
  150TMC2    C4 2333   2.580   0.867  12.397  0.3275  0.2042  0.0579
  150TMC2    C5 2334   2.709   0.895  12.350  1.3350 -0.0036  0.5851
  150TMC2    C6 2335   2.733   0.945  12.225 -0.1401  0.2276  0.9479
  150TMC2     C 2336   2.351   0.835  12.361  0.2958 -0.3566  0.3511
  150TMC2     O 2337   2.328   0.823  12.482 -0.3777  0.3482  0.2840
  150TMC2     H 2338   2.402   0.984  12.134  0.2350  0.7090 -0.8500
  150TMC2    H1 2339   2.558   0.840  12.500 -0.4870  1.7297  0.2857
  150TMC2    H2 2340   2.834   0.966  12.190 -0.9330  0.6203 -1.1245
  150TMC2    C7 2341   2.824   0.839  12.422  0.3629  1.3232 -0.2984
  150TMC2    C8 2342   2.632   1.048  12.021  0.2967  0.3469  0.2446
  150TMC2    O1 2343   2.934   0.843  12.372  0.0081  0.0881  0.0235
  150TMC2    O2 2344   2.731   1.109  11.988  0.1179  0.1487  0.4291
  150TMC2    O5 2345   2.537   1.006  11.936 -0.4588  0.0672  0.1794
  150TMC2    H5 2346   2.477   0.938  11.973  0.4956 -0.0107  1.5799
  151MPD2     C 2347   1.883   0.702  12.234  0.6486  0.7730 -0.5401
  151MPD2    C1 2348   1.963   0.658  12.134  0.0227 -0.5916 -0.7894
  151MPD2    C2 2349   2.096   0.691  12.144 -0.5034 -0.6017  0.0481
  151MPD2    C3 2350   2.139   0.755  12.255 -0.4213  0.2725 -0.1434
  151MPD2    C4 2351   2.058   0.776  12.365 -0.6804 -0.8651 -0.1390
  151MPD2    C5 2352   1.929   0.746  12.354 -0.0018 -0.2598  0.6556
  151MPD2     H 2353   2.168   0.681  12.064 -1.2667  1.3376 -0.8771
  151MPD2    H1 2354   2.090   0.827  12.455 -2.4556 -1.9079  1.0750
  151MPD2    H2 2355   1.775   0.690  12.227  0.5300  2.2958 -1.2206
  151MPD2    H3 2356   1.864   0.777  12.436 -2.2148  0.5699 -1.4005
  151MPD2     N 2357   2.274   0.794  12.255  0.3494  0.4643  0.4702
  151MPD2    H5 2358   2.322   0.797  12.166 -0.8093 -1.6616 -0.2164
  151MPD2    N1 2359   1.898   0.614  12.020  0.0316 -0.3346  0.0071
  151MPD2    H7 2360   1.796   0.620  12.024  0.1562  1.7786  0.0319
  152TMC2    C1 2361   2.252   0.639  13.058  0.1523  0.2333 -0.2472
  152TMC2    C2 2362   2.328   0.565  13.144 -0.5711  0.4391  0.3721
  152TMC2    C3 2363   2.468   0.576  13.130  0.4365  0.0435  0.9928
  152TMC2    C4 2364   2.304   0.739  12.977  0.6583 -0.3851 -0.2053
  152TMC2    C5 2365   2.437   0.746  12.973  0.3143  0.0921 -0.0205
  152TMC2    C6 2366   2.525   0.665  13.040 -0.3488  0.5964 -0.4534
  152TMC2     C 2367   2.108   0.618  13.050 -0.0942  0.5106  0.4716
  152TMC2     O 2368   2.040   0.709  13.003  0.2099  0.0331  0.3853
  152TMC2     H 2369   2.285   0.486  13.205 -0.3510  0.5741  0.7017
  152TMC2    H1 2370   2.233   0.809  12.933  1.4852  0.5741 -0.0177
  152TMC2    H2 2371   2.632   0.661  13.023 -0.1660 -0.6527  0.9617
  152TMC2    C7 2372   2.489   0.863  12.911 -1.1076  0.1445 -0.2016
  152TMC2    C8 2373   2.548   0.499  13.223 -0.8177  0.0454  0.1835
  152TMC2    O1 2374   2.421   0.910  12.820 -0.2580 -0.1427 -0.0550
  152TMC2    O2 2375   2.494   0.408  13.290 -0.1597  0.2736  0.2593
  152TMC2    O5 2376   2.669   0.551  13.235 -0.3700 -0.0272 -0.9060
  152TMC2    H5 2377   2.674   0.649  13.225  2.1386 -0.0386  0.4374
  153MPD2     C 2378   1.914   0.363  13.216  0.7898  0.2707 -0.1383
  153MPD2    C1 2379   1.928   0.468  13.128 -0.0046  1.3442 -0.0178
  153MPD2    C2 2380   1.819   0.532  13.073 -0.0543 -0.0135  0.1273
  153MPD2    C3 2381   1.689   0.492  13.117  0.8643 -0.7045 -0.3108
  153MPD2    C4 2382   1.680   0.386  13.214  0.6395 -0.0751 -0.2341
  153MPD2    C5 2383   1.793   0.318  13.253  1.0073  0.0010 -0.3840
  153MPD2     H 2384   1.830   0.625  13.017 -0.0643 -1.1664 -1.7850
  153MPD2    H1 2385   1.591   0.344  13.259  0.0984  2.1778  0.8050
  153MPD2    H2 2386   1.998   0.314  13.265  1.9224  0.7417 -1.6003
  153MPD2    H3 2387   1.777   0.242  13.328  1.3144 -0.4515 -0.7738
  153MPD2     N 2388   1.583   0.554  13.053 -0.2338  0.0376 -0.6694
  153MPD2    H5 2389   1.597   0.632  12.989  0.6757 -0.3792 -0.9814
  153MPD2    N1 2390   2.061   0.507  13.111  0.1924  0.2035  0.4467
  153MPD2    H7 2391   2.131   0.439  13.141 -0.9391 -1.5508 -0.9080
  154TMC2    C1 2392   4.699   0.369  17.704 -0.1027  0.1535 -0.0949
  154TMC2    C2 2393   4.651   0.257   0.016 -0.2410 -0.7322  0.3546
  154TMC2    C3 2394   0.008   0.153   0.017  0.8464 -0.1862  0.3063
  154TMC2    C4 2395   0.090   0.391  17.666  0.1466 -0.3037 -0.9838
  154TMC2    C5 2396   0.175   0.289  17.681  0.3042 -0.1713  0.0670
  154TMC2    C6 2397   0.144   0.169  17.731  0.0180  0.7660  0.5262
  154TMC2     C 2398   4.618   0.483  17.716  0.0831  0.3045 -0.2364
  154TMC2     O 2399   4.518   0.470   0.040 -0.8173  0.4287  0.7811
  154TMC2     H 2400   4.547   0.237   0.041 -0.4838 -0.4341 -0.4202
  154TMC2    H1 2401   0.134   0.484  17.633  2.7201 -1.5979 -1.2436
  154TMC2    H2 2402   0.219   0.091  17.728  2.3843  3.0016  0.7892
  154TMC2    C7 2403   0.315   0.334  17.692 -0.3055 -0.7675 -0.2966
  154TMC2    C8 2404   4.688   0.022   0.047  0.4017  0.6964 -0.6598
  154TMC2    O1 2405   0.356   0.420  17.610  1.0932  0.5166 -0.3624
  154TMC2    O2 2406   4.583   0.005   0.111  0.5886 -0.1581  0.0641
  154TMC2    O5 2407   0.031   4.657   0.004  0.7232  0.4044 -0.4984
  154TMC2    H5 2408   0.101   4.696  17.694  0.2101  0.6438 -0.9638
  155MPD2     C 2409   4.642   0.805  17.542  0.0729  0.8622 -0.1595
  155MPD2    C1 2410   4.590   0.718  17.635 -0.2303  0.6677 -0.0555
  155MPD2    C2 2411   4.477   0.748  17.714 -0.0958  0.3944 -0.1473
  155MPD2    C3 2412   4.402   0.860  17.687 -0.2481  0.2794 -0.5678
  155MPD2    C4 2413   4.447   0.938  17.580  0.6474 -0.0433  0.0979
  155MPD2    C5 2414   4.564   0.912  17.515  0.7255 -1.1456 -1.1117
  155MPD2     H 2415   4.453   0.685   0.052  0.7111 -1.7694 -1.5253
  155MPD2    H1 2416   4.402   1.033  17.558  0.3253  0.0577  1.1903
  155MPD2    H2 2417   4.729   0.777  17.484 -0.5763  0.9511 -1.1665
  155MPD2    H3 2418   4.603   0.984  17.444  1.1601  0.0160  0.2951
  155MPD2     N 2419   4.292   0.882   0.026 -0.0437  0.6050 -0.3676
  155MPD2    H5 2420   4.269   0.807   0.091 -0.5944  1.4274  0.3809
  155MPD2    N1 2421   4.659   0.592  17.639 -0.8225 -0.1089  0.1702
  155MPD2    H7 2422   0.001   0.574  17.578 -0.6335 -2.0012  0.9819
  156TMC2    C1 2423   1.911   3.140  11.760 -0.2210 -0.5440  0.5580
  156TMC2    C2 2424   1.801   3.074  11.714 -0.2750  0.1646 -0.1335
  156TMC2    C3 2425   1.743   3.133  11.602  0.3064  0.5215 -0.6636
  156TMC2    C4 2426   1.961   3.258  11.710 -0.1076 -0.4244  0.1004
  156TMC2    C5 2427   1.886   3.319  11.618  0.1550 -0.1810 -0.0766
  156TMC2    C6 2428   1.772   3.260  11.564 -0.4635 -0.7241 -0.2315
  156TMC2     C 2429   1.970   3.104  11.891 -0.4624 -0.6748  0.6693
  156TMC2     O 2430   2.076   3.147  11.928  0.4593  0.3310  0.1049
  156TMC2     H 2431   1.752   2.990  11.762 -0.1411  1.9502  3.1283
  156TMC2    H1 2432   2.025   3.330  11.759 -0.1736 -1.6303  1.9543
  156TMC2    H2 2433   1.718   3.308  11.483  0.8646  0.2974 -0.5015
  156TMC2    C7 2434   1.893   3.470  11.624 -0.2793 -0.0811  0.0081
  156TMC2    C8 2435   1.622   3.069  11.550 -0.3722 -0.7941 -0.6244
  156TMC2    O1 2436   1.998   3.520  11.654 -0.4523 -0.0451  0.0281
  156TMC2    O2 2437   1.516   3.130  11.535 -0.8536  0.0502 -0.5877
  156TMC2    O5 2438   1.636   2.935  11.533 -0.2641  0.5077 -0.2757
  156TMC2    H5 2439   1.727   2.901  11.545 -0.3898  1.8084  4.3784
  157MPD2     C 2440   1.770   2.971  12.162  0.0683  0.5460 -0.4834
  157MPD2    C1 2441   1.880   3.024  12.101  0.6130  0.3292 -0.1211
  157MPD2    C2 2442   1.998   3.039  12.180 -0.9204 -0.0121 -0.2572
  157MPD2    C3 2443   1.979   3.024  12.313 -0.7247  0.2814  0.7175
  157MPD2    C4 2444   1.866   2.980  12.372  0.0846  0.0268  0.0660
  157MPD2    C5 2445   1.762   2.948  12.294 -0.0989  0.1410  0.0267
  157MPD2     H 2446   2.095   3.055  12.134 -1.0210 -1.5471 -0.9953
  157MPD2    H1 2447   1.853   2.968  12.479  1.4201 -0.6158  0.1478
  157MPD2    H2 2448   1.678   2.953  12.108  1.3860 -0.2418 -2.4673
  157MPD2    H3 2449   1.671   2.894  12.318  0.0115  0.9017  2.1110
  157MPD2     N 2450   2.091   3.044  12.392  0.1222  0.0931  0.1221
  157MPD2    H5 2451   2.178   3.074  12.350  0.2058  0.0699  0.2771
  157MPD2    N1 2452   1.867   3.049  11.965  0.0718  0.2345  0.2027
  157MPD2    H7 2453   1.778   3.024  11.925 -1.1388  1.7262  1.9537
  158TMC2    C1 2454   2.528   1.826  13.828  0.5751 -0.1498  1.1157
  158TMC2    C2 2455   2.550   1.944  13.772  0.5144 -0.1993 -0.0975
  158TMC2    C3 2456   2.442   2.024  13.758  0.3175  0.0575  0.3442
  158TMC2    C4 2457   2.405   1.775  13.860 -0.2325  0.1552  0.3087
  158TMC2    C5 2458   2.295   1.842  13.815  0.3492 -0.1367  0.4125
  158TMC2    C6 2459   2.317   1.969  13.769  0.3622 -0.0117  0.4109
  158TMC2     C 2460   2.650   1.764  13.884 -0.6571 -0.4885 -0.5400
  158TMC2     O 2461   2.758   1.794  13.836  0.3198 -0.2670 -0.1565
  158TMC2     H 2462   2.649   1.979  13.745  0.7338  0.6881  1.7816
  158TMC2    H1 2463   2.394   1.671  13.890  0.0956 -0.1705 -0.7028
  158TMC2    H2 2464   2.239   2.036  13.733 -2.5180 -1.3992  4.0681
  158TMC2    C7 2465   2.158   1.834  13.872  0.0845 -0.7082 -0.2239
  158TMC2    C8 2466   2.456   2.152  13.693  0.1350  0.2632  0.1350
  158TMC2    O1 2467   2.095   1.938  13.863  0.4154 -0.3830  0.6047
  158TMC2    O2 2468   2.364   2.232  13.684 -0.0744 -0.4487  0.1743
  158TMC2    O5 2469   2.547   2.135  13.597 -0.3062 -0.1191  0.0224
  158TMC2    H5 2470   2.597   2.050  13.601  1.2802  0.8589  1.0924
  159MPD2     C 2471   2.914   1.498  14.237  0.1156 -0.3243 -0.7546
  159MPD2    C1 2472   2.779   1.468  14.239 -0.1966 -0.2417 -0.4015
  159MPD2    C2 2473   2.689   1.531  14.161  0.0394  0.6331 -0.0870
  159MPD2    C3 2474   2.730   1.632  14.072 -0.0119  0.2669  0.9545
  159MPD2    C4 2475   2.867   1.652  14.058 -1.2256 -0.0671  0.0166
  159MPD2    C5 2476   2.959   1.586  14.140 -0.6533  0.4246  0.4988
  159MPD2     H 2477   2.583   1.509  14.168 -0.1147  1.6005  0.5616
  159MPD2    H1 2478   2.901   1.723  13.983 -2.0291  0.4187  0.1103
  159MPD2    H2 2479   2.992   1.450  14.295  0.1538 -1.4650 -1.7664
  159MPD2    H3 2480   3.067   1.597  14.136 -0.8795  0.9107 -3.9307
  159MPD2     N 2481   2.622   1.684  13.994  0.2875 -0.0232 -0.0944
  159MPD2    H5 2482   2.527   1.659  14.019 -0.1284  3.1059  1.4566
  159MPD2    N1 2483   2.742   1.366  14.333  0.3320  0.5314 -0.1891
  159MPD2    H7 2484   2.810   1.331  14.400 -1.1384 -0.7674  0.6075
  160TMC2    C1 2485   2.755   0.294   0.766 -0.2742  0.5168 -0.4952
  160TMC2    C2 2486   2.750   0.431   0.764  0.7877  0.0644  0.4516
  160TMC2    C3 2487   2.858   0.498   0.720 -0.0762 -0.1487 -0.6389
  160TMC2    C4 2488   2.858   0.222   0.704 -0.6495  0.4540 -0.9330
  160TMC2    C5 2489   2.968   0.296   0.665  0.2702 -0.4168  0.7471
  160TMC2    C6 2490   2.961   0.434   0.668 -0.2776 -0.3740  0.9498
  160TMC2     C 2491   2.669   0.218   0.858  0.1161 -0.3628 -0.0999
  160TMC2     O 2492   2.680   0.097   0.843  0.0495 -0.4790 -0.2156
  160TMC2     H 2493   2.676   0.490   0.816  0.8650  0.6707 -0.1313
  160TMC2    H1 2494   2.876   0.115   0.711 -0.0894  0.5230 -1.3317
  160TMC2    H2 2495   3.028   0.499   0.613  0.2166 -2.7174 -1.2539
  160TMC2    C7 2496   3.087   0.235   0.705  0.1778 -0.2236 -0.2648
  160TMC2    C8 2497   2.842   0.639   0.690  0.0770 -0.7861 -0.2819
  160TMC2    O1 2498   3.094   0.114   0.711 -0.5591 -0.8797 -0.7485
  160TMC2    O2 2499   2.936   0.706   0.649  0.3606  0.1158  0.2140
  160TMC2    O5 2500   2.723   0.646   0.620  0.1165  0.5043  0.0421
  160TMC2    H5 2501   2.648   0.592   0.652 -1.0943  0.7137 -2.4908
  161MPD2     C 2502   2.457   0.096   1.021 -0.2611  0.4587  0.6607
  161MPD2    C1 2503   2.467   0.231   0.999  0.2295  0.2852  0.1389
  161MPD2    C2 2504   2.363   0.317   1.054 -0.2319  0.1103 -0.1828
  161MPD2    C3 2505   2.251   0.267   1.109  0.5685 -0.3129  0.3962
  161MPD2    C4 2506   2.246   0.128   1.130 -0.0035 -0.2372 -0.3485
  161MPD2    C5 2507   2.344   0.046   1.087 -0.3136 -0.1897 -0.1067
  161MPD2     H 2508   2.372   0.424   1.037  2.7120  0.4207  3.1514
  161MPD2    H1 2509   2.160   0.076   1.171  0.0073 -1.6391 -2.1166
  161MPD2    H2 2510   2.538   0.031   0.990 -0.5672 -1.2091  3.3271
  161MPD2    H3 2511   2.331   4.677   1.104 -0.4924 -0.4384 -1.8040
  161MPD2     N 2512   2.142   0.345   1.155  0.0806 -0.3617 -0.1488
  161MPD2    H5 2513   2.080   0.286   1.210  0.1483 -0.3718 -0.0831
  161MPD2    N1 2514   2.570   0.291   0.922  0.5922  0.1552 -0.1823
  161MPD2    H7 2515   2.566   0.392   0.915  3.2940  0.1188 -2.0441
  162TMC2    C1 2516   0.126   1.825   1.438  0.4848  0.0924  0.0344
  162TMC2    C2 2517   0.073   1.705   1.473 -0.7010 -0.5043 -0.0759
  162TMC2    C3 2518   0.168   1.605   1.486 -0.3895  0.3533 -0.2506
  162TMC2    C4 2519   0.262   1.844   1.430 -0.6644  0.1216 -0.3553
  162TMC2    C5 2520   0.348   1.743   1.455  0.3684 -0.1951  0.7305
  162TMC2    C6 2521   0.303   1.616   1.470 -0.9026  0.0842 -0.9341
  162TMC2     C 2522   0.060   1.880   1.318  0.0702 -0.3636 -0.1279
  162TMC2     O 2523   4.718   1.808   1.262 -0.0748  0.3512 -0.4675
  162TMC2     H 2524   4.703   1.689   1.476 -1.0206  2.0000  2.1668
  162TMC2    H1 2525   0.300   1.945   1.424 -1.9857  0.7501  1.8233
  162TMC2    H2 2526   0.372   1.540   1.507 -2.4607 -0.4429  0.8597
  162TMC2    C7 2527   0.479   1.775   1.399 -0.5045  1.1840  0.1188
  162TMC2    C8 2528   0.112   1.479   1.495 -0.6250  0.5855 -0.1957
  162TMC2    O1 2529   0.496   1.883   1.343 -0.1923 -0.8792 -0.0577
  162TMC2    O2 2530   0.034   1.464   1.590 -0.2123 -0.3070 -0.1069
  162TMC2    O5 2531   0.209   1.394   1.464 -0.4297 -0.2272 -0.8214
  162TMC2    H5 2532   0.277   1.411   1.396  0.4912 -2.9649 -0.5754
  163MPD2     C 2533   0.208   2.173   0.918  0.0363  0.1334  0.1892
  163MPD2    C1 2534   0.195   2.035   0.920 -0.4281 -0.5497 -0.4024
  163MPD2    C2 2535   0.149   1.976   1.039 -1.4140  0.0725  0.3913
  163MPD2    C3 2536   0.135   2.052   1.158 -0.9035  0.0259  0.6225
  163MPD2    C4 2537   0.161   2.184   1.154 -0.2011 -0.2205  0.9699
  163MPD2    C5 2538   0.185   2.248   1.030  0.4116  0.7183  0.4253
  163MPD2     H 2539   0.126   1.872   1.057  2.4731 -0.9020 -0.3888
  163MPD2    H1 2540   0.151   2.245   1.242 -0.8780  1.8149 -0.5161
  163MPD2    H2 2541   0.225   2.220   0.822 -0.9406  1.4172  0.6518
  163MPD2    H3 2542   0.197   2.356   1.023  0.7088  0.7038  0.7430
  163MPD2     N 2543   0.114   1.998   1.283 -0.7320 -0.0211  0.1903
  163MPD2    H5 2544   0.137   2.055   1.364  0.1904  2.5011 -1.8860
  163MPD2    N1 2545   0.238   1.965   0.811  0.0479 -0.1134  0.3246
  163MPD2    H7 2546   0.273   2.023   0.735  4.0732 -1.7669  0.8913
  164TMC2    C1 2547   1.039   1.124  11.137 -0.3774  0.1358  0.7039
  164TMC2    C2 2548   0.916   1.068  11.157 -0.0910 -0.0828 -0.0852
  164TMC2    C3 2549   0.801   1.142  11.174 -0.1397  0.0579  0.0990
  164TMC2    C4 2550   1.044   1.264  11.135  0.1671 -0.3351 -0.4087
  164TMC2    C5 2551   0.929   1.336  11.144  0.0086  0.0309  0.4601
  164TMC2    C6 2552   0.805   1.276  11.169 -0.2599  0.3399 -0.5948
  164TMC2     C 2553   1.152   1.039  11.184 -0.6220  0.1351 -0.0608
  164TMC2     O 2554   1.134   0.932  11.241  0.4015 -0.3330  0.4064
  164TMC2     H 2555   0.897   0.961  11.151  1.9157 -0.4247 -0.3533
  164TMC2    H1 2556   1.141   1.311  11.122  0.1478 -0.5313 -1.2686
  164TMC2    H2 2557   0.718   1.337  11.187 -0.3316  0.1335 -0.2496
  164TMC2    C7 2558   0.945   1.473  11.137 -0.5352  0.6764 -0.5699
  164TMC2    C8 2559   0.709   1.075  11.258  0.5955 -0.1432  0.3693
  164TMC2    O1 2560   1.052   1.527  11.164 -0.2639 -0.0452  0.1031
  164TMC2    O2 2561   0.736   1.063  11.375 -0.4331  0.5086  0.5313
  164TMC2    O5 2562   0.584   1.105  11.210 -0.0047 -0.2003  0.0197
  164TMC2    H5 2563   0.583   1.127  11.114 -0.2744  1.9461  0.5183
  165TMC2    C1 2564   1.897   2.960   0.851 -0.0298 -0.2394  1.2019
  165TMC2    C2 2565   1.860   3.049   0.752 -0.6156 -0.0685  0.0711
  165TMC2    C3 2566   1.911   3.173   0.744 -0.5052 -0.0557 -0.3577
  165TMC2    C4 2567   1.997   2.990   0.936 -0.3116 -0.4100  0.2390
  165TMC2    C5 2568   2.060   3.117   0.916 -0.0571 -0.6014 -0.1811
  165TMC2    C6 2569   2.023   3.205   0.820  0.6948 -0.0931  0.0396
  165TMC2     C 2570   1.835   2.826   0.857  0.3134 -0.8362 -0.0213
  165TMC2     O 2571   1.850   2.763   0.957 -0.0050 -0.2854  0.5476
  165TMC2     H 2572   1.782   3.025   0.681 -0.2922 -0.4855 -0.1486
  165TMC2    H1 2573   2.020   2.925   1.020 -0.8259  1.2351  1.6555
  165TMC2    H2 2574   2.069   3.303   0.823  0.3234  0.0632  0.7110
  165TMC2    C7 2575   2.140   3.176   1.028  0.3009  0.3634 -0.1970
  165TMC2    C8 2576   1.853   3.266   0.651 -0.0217  1.2371 -0.6506
  165TMC2    O1 2577   2.232   3.251   0.999 -0.1659 -0.1294  0.0476
  165TMC2    O2 2578   1.785   3.235   0.554 -0.4667  0.2626  0.3374
  165TMC2    O5 2579   1.858   3.390   0.705 -0.4802 -0.0636  0.1089
  165TMC2    H5 2580   1.878   3.402   0.801 -0.1266  0.3662 -0.0200
  166MPD2     C 2581   1.538   2.469   0.640 -0.3903  0.2012 -0.0337
  166MPD2    C1 2582   1.582   2.482   0.768  0.3063 -0.2466  0.0159
  166MPD2    C2 2583   1.650   2.593   0.813 -1.9040 -0.0234  0.3907
  166MPD2    C3 2584   1.692   2.689   0.723  0.6374 -0.4420  0.5597
  166MPD2    C4 2585   1.641   2.685   0.594  0.7430 -0.1140 -0.2019
  166MPD2    C5 2586   1.565   2.573   0.553 -0.6922 -0.2280  0.5254
  166MPD2     H 2587   1.691   2.602   0.913 -2.8269 -0.8031  0.8415
  166MPD2    H1 2588   1.642   2.771   0.527  0.5906 -0.2381 -0.3667
  166MPD2    H2 2589   1.469   2.393   0.605 -1.5828  1.0051  0.5381
  166MPD2    H3 2590   1.522   2.555   0.455 -0.8293 -0.1541  0.5709
  166MPD2     N 2591   1.767   2.804   0.742  0.3360  0.4437 -0.0749
  166MPD2    H5 2592   1.777   2.871   0.666 -1.0111 -0.0838 -0.7035
  166MPD2    N1 2593   1.538   2.377   0.851  0.2332 -0.1879  0.3814
  166MPD2    H7 2594   1.478   2.306   0.811 -0.0051  0.8323 -1.0607
  167TMC2    C1 2595   4.633   1.353  12.892  0.3714 -0.0011 -0.9534
  167TMC2    C2 2596   4.539   1.356  12.991  0.4043 -0.6050  0.0987
  167TMC2    C3 2597   4.575   1.285  13.103 -0.0222  0.2810  0.4036
  167TMC2    C4 2598   0.008   1.272  12.891 -0.7601  0.1425  0.7123
  167TMC2    C5 2599   0.033   1.196  13.004  0.3903  0.4481 -0.1307
  167TMC2    C6 2600   4.690   1.204  13.116  0.1276 -0.2941 -1.0488
  167TMC2     C 2601   4.617   1.451  12.792  0.0862 -0.6033  0.0043
  167TMC2     O 2602   4.505   1.495  12.776 -0.5993  0.4336 -0.5099
  167TMC2     H 2603   4.448   1.414  12.990 -1.0246 -2.8756 -0.1676
  167TMC2    H1 2604   0.062   1.268  12.797  0.2739 -1.9125  1.3914
  167TMC2    H2 2605   4.721   1.150  13.204  1.1073 -1.6988 -2.2552
  167TMC2    C7 2606   0.154   1.123  13.024 -0.0653  0.5006  0.8331
  167TMC2    C8 2607   4.488   1.285  13.221  0.1821  0.0110 -0.7233
  167TMC2    O1 2608   0.189   1.087  13.132 -0.5002  0.1133 -0.0254
  167TMC2    O2 2609   4.528   1.287  13.336 -0.8780 -0.6581  0.4911
  167TMC2    O5 2610   4.369   1.241  13.179 -0.1040  0.3623 -0.3544
  167TMC2    H5 2611   4.348   1.229  13.084  0.4411 -0.4717 -0.3678
  168MPD2     C 2612   4.635   1.634  12.557  0.4468  0.1892 -0.0480
  168MPD2    C1 2613   0.007   1.574  12.619 -0.0487  0.6886  0.0709
  168MPD2    C2 2614   0.132   1.603  12.564  0.3817 -0.4006  0.5125
  168MPD2    C3 2615   0.153   1.677  12.451  0.1003  0.1357  0.0915
  168MPD2    C4 2616   0.038   1.731  12.393 -0.6149  0.2511  0.3415
  168MPD2    C5 2617   4.650   1.718  12.445  0.2186  0.3230  0.2271
  168MPD2     H 2618   0.219   1.561  12.613  0.9265  0.6315  0.4266
  168MPD2    H1 2619   0.054   1.782  12.299  1.2882  0.9898  1.0856
  168MPD2    H2 2620   4.537   1.624  12.602  0.9354  1.6454  1.3646
  168MPD2    H3 2621   4.567   1.754  12.386 -1.3978 -0.5763  1.9714
  168MPD2     N 2622   0.279   1.701  12.387 -0.4358  0.3401  0.3561
  168MPD2    H5 2623   0.278   1.728  12.289 -0.5984 -0.2975  0.1790
  168MPD2    N1 2624   4.737   1.490  12.731 -0.4814 -0.1346  0.0540
  168MPD2    H7 2625   0.089   1.454  12.762 -1.1692 -0.4982  1.6313
  169MPD1     C 2626   3.229   1.447   8.955 -0.0048 -0.5247 -0.5953
  169MPD1    C1 2627   3.307   1.438   9.065 -0.2037 -0.5123 -0.6966
  169MPD1    C2 2628   3.277   1.338   9.154 -0.7950 -0.2372 -0.2916
  169MPD1    C3 2629   3.159   1.257   9.143 -0.0375  0.0864 -0.2411
  169MPD1    C4 2630   3.086   1.270   9.031 -0.4806 -0.2259  0.1429
  169MPD1    C5 2631   3.120   1.365   8.942  1.3819  0.3422  0.4149
  169MPD1     H 2632   3.333   1.322   9.245 -1.2119 -0.4469 -0.0700
  169MPD1    H1 2633   2.996   1.219   8.998  0.9727 -2.9100  0.2799
  169MPD1    H2 2634   3.241   1.519   8.875 -0.6879  0.2827  0.0236
  169MPD1    H3 2635   3.064   1.372   8.850  1.1789 -0.9745  0.4432
  169MPD1     N 2636   3.137   1.162   9.243  0.0810  0.2525  0.1125
  169MPD1    H5 2637   3.201   1.163   9.321  0.6223  4.6936 -0.4160
  169MPD1    N1 2638   3.415   1.520   9.085  0.6929 -0.0157  0.3389
  169MPD1    H6 2639   3.394   1.609   9.040 -0.8355 -0.3042  0.4835
  169MPD1    H7 2640   3.434   1.525   9.185 -2.5096 -0.3965  0.9500
  170MPD1     C 2641   0.416   3.691  13.891 -0.5644  0.0204  0.5862
  170MPD1    C1 2642   0.516   3.640  13.974  0.1653 -0.2300  0.6623
  170MPD1    C2 2643   0.647   3.678  13.944  0.0722 -0.2814  0.0509
  170MPD1    C3 2644   0.681   3.777  13.853  0.4565 -0.3456 -0.3262
  170MPD1    C4 2645   0.572   3.828  13.780 -0.8027  1.1292  0.5148
  170MPD1    C5 2646   0.442   3.784  13.795 -0.0756  0.0078 -0.2004
  170MPD1     H 2647   0.724   3.630  14.004  1.3213  1.6623  0.0106
  170MPD1    H1 2648   0.588   3.904  13.705  0.2753 -2.1575 -2.5964
  170MPD1    H2 2649   0.313   3.657  13.899 -0.3128 -1.0370 -0.6526
  170MPD1    H3 2650   0.363   3.828  13.735  0.2090  1.4802  0.5170
  170MPD1     N 2651   0.815   3.820  13.829 -0.4460  0.5198  0.1024
  170MPD1    H5 2652   0.887   3.749  13.833 -2.1350 -1.2808 -1.6640
  170MPD1    N1 2653   0.494   3.537  14.070 -1.1992  0.2533 -0.2140
  170MPD1    H6 2654   0.571   3.520  14.134 -1.1329  1.9851  0.1657
  170MPD1    H7 2655   0.403   3.547  14.115 -0.9919 -1.2745  0.5558
  171MPD1     C 2656   0.220   0.508  15.434 -0.1911 -0.1119 -0.0717
  171MPD1    C1 2657   0.119   0.426  15.396  0.5484 -0.6424 -0.5454
  171MPD1    C2 2658   0.119   0.308  15.466  0.0490  0.7079  0.5332
  171MPD1    C3 2659   0.201   0.269  15.569 -0.0250  0.0195  0.4688
  171MPD1    C4 2660   0.297   0.359  15.598 -0.9596  0.1068 -0.2154
  171MPD1    C5 2661   0.306   0.475  15.534 -0.0002  0.2856 -0.4669
  171MPD1     H 2662   0.041   0.237  15.438 -1.1001  1.8326  0.8984
  171MPD1    H1 2663   0.366   0.331  15.677  0.6989 -1.6045 -2.2783
  171MPD1    H2 2664   0.221   0.610  15.399  0.1790 -0.0201  0.2145
  171MPD1    H3 2665   0.395   0.534  15.554 -0.1695  0.3305  0.1740
  171MPD1     N 2666   0.181   0.156  15.647 -1.1579  0.0495  0.1327
  171MPD1    H5 2667   0.236   0.154  15.733 -0.4420 -2.5432 -0.4179
  171MPD1    N1 2668   0.009   0.471  15.321 -0.3968  0.0979  0.6669
  171MPD1    H6 2669   0.026   0.551  15.262  0.0619  0.4878  1.3340
  171MPD1    H7 2670   4.707   0.392  15.269 -0.3472  0.4514  0.0962
  172MPD1     C 2671   3.421   3.411   0.666  0.0076 -0.4854 -0.4482
  172MPD1    C1 2672   3.415   3.523   0.585 -0.0522  0.0700 -0.8895
  172MPD1    C2 2673   3.532   3.588   0.553 -0.0398 -0.5015  0.2944
  172MPD1    C3 2674   3.647   3.550   0.620 -0.2168 -0.2499  0.0828
  172MPD1    C4 2675   3.645   3.439   0.704 -0.7362 -0.1393 -0.0419
  172MPD1    C5 2676   3.533   3.371   0.721 -0.0078 -0.5149  0.1837
  172MPD1     H 2677   3.538   3.666   0.479 -2.1031  0.5180  1.2193
  172MPD1    H1 2678   3.742   3.406   0.740  0.4470  1.1681 -2.0194
  172MPD1    H2 2679   3.329   3.359   0.692 -0.0678  0.0679  0.4009
  172MPD1    H3 2680   3.519   3.279   0.777  0.6830 -1.3090 -0.9490
  172MPD1     N 2681   3.767   3.623   0.614 -0.0796 -0.1002 -0.5023
  172MPD1    H5 2682   3.840   3.577   0.667 -0.2237  0.4644  0.1878
  172MPD1    N1 2683   3.291   3.564   0.534  0.0034 -0.1232 -0.8503
  172MPD1    H6 2684   3.299   3.653   0.485 -0.7768  0.1373 -0.5012
  172MPD1    H7 2685   3.216   3.546   0.601  0.0169  0.2876 -0.7250
  173MPD1     C 2686   0.955   4.402  13.886  0.4399 -0.0820  0.4982
  173MPD1    C1 2687   0.837   4.361  13.946 -0.4257  0.6606 -0.2943
  173MPD1    C2 2688   0.851   4.308  14.073 -0.5511  0.9314 -0.1376
  173MPD1    C3 2689   0.967   4.273  14.131  0.2471  0.0195  0.1292
  173MPD1    C4 2690   1.082   4.305  14.063  0.3908  0.2495  0.8440
  173MPD1    C5 2691   1.078   4.378  13.945  0.4698  0.3696 -0.1842
  173MPD1     H 2692   0.762   4.284  14.130 -0.0574 -1.8658 -0.5513
  173MPD1    H1 2693   1.175   4.296  14.118  1.3571  0.0760 -0.8110
  173MPD1    H2 2694   0.963   4.443  13.787 -1.3831 -0.8383  0.0306
  173MPD1    H3 2695   1.168   4.415  13.896 -0.5347 -0.0067 -2.3094
  173MPD1     N 2696   0.956   4.201  14.255  0.7404 -0.4164  0.0392
  173MPD1    H5 2697   0.867   4.206  14.304 -0.4027 -1.5130 -1.9212
  173MPD1    N1 2698   0.719   4.399  13.893 -0.0050  0.0025  0.4665
  173MPD1    H6 2699   0.724   4.398  13.791  0.2227 -0.8372  0.4886
  173MPD1    H7 2700   0.645   4.339  13.928  0.9469 -0.7880  1.0979
  174MPD1     C 2701   1.369   3.394  14.577  0.0536 -0.1756  0.0077
  174MPD1    C1 2702   1.261   3.398  14.654 -0.5321  0.0491 -0.5034
  174MPD1    C2 2703   1.199   3.521  14.662 -0.4623 -0.2945  0.9353
  174MPD1    C3 2704   1.245   3.630  14.594 -0.1904 -0.2932  0.4159
  174MPD1    C4 2705   1.360   3.616  14.519 -0.4182  0.2657  0.4698
  174MPD1    C5 2706   1.420   3.497  14.505  0.1662 -0.2351 -0.0745
  174MPD1     H 2707   1.114   3.526  14.729 -1.3670 -0.8084 -0.1809
  174MPD1    H1 2708   1.401   3.696  14.459 -2.4850  0.8803 -0.1173
  174MPD1    H2 2709   1.425   3.302  14.573  0.1521 -0.0041 -2.6603
  174MPD1    H3 2710   1.521   3.490  14.466  0.0094 -1.1511 -0.3134
  174MPD1     N 2711   1.179   3.758  14.587 -0.0741  0.1620  0.4980
  174MPD1    H5 2712   1.226   3.828  14.530 -0.1135 -0.6745 -0.5750
  174MPD1    N1 2713   1.201   3.279  14.712  0.6152 -0.1068  0.5096
  174MPD1    H6 2714   1.135   3.299  14.787  0.0202  1.8532 -0.5277
  174MPD1    H7 2715   1.265   3.207  14.746  0.2990  0.6305  2.6641
  175MPD1     C 2716   3.941   3.989  16.924 -0.5439  0.7138 -0.5840
  175MPD1    C1 2717   3.984   4.088  17.009  0.2730 -0.4860 -0.1303
  175MPD1    C2 2718   3.980   4.216  16.963  0.0249  0.3351  0.1631
  175MPD1    C3 2719   3.972   4.241  16.825 -0.5298  0.2317  0.2222
  175MPD1    C4 2720   3.941   4.137  16.738  0.1966 -0.5113 -0.1550
  175MPD1    C5 2721   3.927   4.011  16.786  0.7641  0.4307 -0.3519
  175MPD1     H 2722   4.002   4.294  17.036  1.0612 -0.9575  1.2220
  175MPD1    H1 2723   3.922   4.162  16.634 -0.4014 -1.5976 -0.3118
  175MPD1    H2 2724   3.924   3.888  16.960  0.8185  1.1275  1.1982
  175MPD1    H3 2725   3.887   3.932  16.723  0.0411  0.6717 -0.1938
  175MPD1     N 2726   3.985   4.364  16.763  0.1810 -0.1158  0.7668
  175MPD1    H5 2727   3.974   4.364  16.663  1.2921 -1.4544  0.6484
  175MPD1    N1 2728   3.976   4.066  17.152 -0.0844  0.1332  0.1022
  175MPD1    H6 2729   4.044   4.118  17.206  0.0118  0.1134  0.0011
  175MPD1    H7 2730   3.991   3.968  17.176  0.0507  0.4762  1.4189
  176MPD1     C 2731   0.546   2.105  16.925  0.0796 -0.0826  0.0200
  176MPD1    C1 2732   0.555   2.241  16.888 -0.3270  0.0365 -0.0466
  176MPD1    C2 2733   0.551   2.334  16.992  0.2735  0.5351  0.8495
  176MPD1    C3 2734   0.529   2.291  17.124 -0.3336  0.0837  0.0319
  176MPD1    C4 2735   0.532   2.150  17.158 -0.2715  0.5287  0.5583
  176MPD1    C5 2736   0.548   2.061  17.057 -0.4566 -0.2514 -0.5083
  176MPD1     H 2737   0.571   2.440  16.977 -1.0001  0.7035  0.2946
  176MPD1    H1 2738   0.532   2.119  17.262 -0.2432  1.7634  0.9351
  176MPD1    H2 2739   0.547   2.032  16.844  0.8493 -0.2861  0.2125
  176MPD1    H3 2740   0.562   1.954  17.073  1.9747  0.1016 -0.2576
  176MPD1     N 2741   0.528   2.389  17.217  0.0994 -0.1880 -0.0405
  176MPD1    H5 2742   0.523   2.483  17.180  0.9656  0.3342  1.1955
  176MPD1    N1 2743   0.602   2.266  16.760  0.1001 -0.2356  0.4899
  176MPD1    H6 2744   0.591   2.190  16.692  2.3051  2.1647 -2.4989
  176MPD1    H7 2745   0.566   2.353  16.722  0.9781  0.2154  0.7091
  177MPD1     C 2746   3.920   2.136  10.230 -0.7430  0.2644  0.3815
  177MPD1    C1 2747   3.922   2.101  10.100 -0.3731 -0.2190 -0.0811
  177MPD1    C2 2748   3.827   2.155  10.020 -0.0995 -0.1157  0.7914
  177MPD1    C3 2749   3.733   2.249  10.063  0.8932  0.4506 -0.4309
  177MPD1    C4 2750   3.746   2.296  10.189  0.1710  0.0635 -0.0737
  177MPD1    C5 2751   3.831   2.231  10.269  0.0378  0.9446  0.2859
  177MPD1     H 2752   3.816   2.115   9.920  1.2357 -1.3280  1.1300
  177MPD1    H1 2753   3.682   2.367  10.240 -3.1198 -0.7012 -3.1211
  177MPD1    H2 2754   3.985   2.099  10.308 -0.7376 -2.5816 -0.9736
  177MPD1    H3 2755   3.824   2.256  10.375 -1.3467 -1.9988  0.9051
  177MPD1     N 2756   3.625   2.298   9.978  0.4560 -0.6446  0.3807
  177MPD1    H5 2757   3.621   2.256   9.886 -0.3043 -3.9968  1.9682
  177MPD1    N1 2758   4.003   1.988  10.062  0.3790  0.8925 -0.0424
  177MPD1    H6 2759   4.087   1.995  10.119  1.1632  0.0558 -1.0870
  177MPD1    H7 2760   4.054   2.002   9.975  0.8420 -0.7758 -0.0428
  178MPD1     C 2761   1.503   2.212   0.356  0.4406 -0.6677  0.0045
  178MPD1    C1 2762   1.446   2.153   0.244 -0.3002  0.0762  0.2062
  178MPD1    C2 2763   1.480   2.209   0.119 -0.1559  0.0074  0.4066
  178MPD1    C3 2764   1.582   2.300   0.103  0.4432  0.7871  0.3654
  178MPD1    C4 2765   1.650   2.345   0.217  0.5991  0.3806 -0.6232
  178MPD1    C5 2766   1.600   2.307   0.342  0.1481 -0.0177 -0.0480
  178MPD1     H 2767   1.427   2.174   0.030 -2.5799  2.2219  1.0069
  178MPD1    H1 2768   1.726   2.421   0.226 -0.4497  1.2886  0.5474
  178MPD1    H2 2769   1.472   2.201   0.459 -2.8645 -0.2751 -0.9677
  178MPD1    H3 2770   1.647   2.344   0.432 -0.7294  0.6176  0.1544
  178MPD1     N 2771   1.618   2.354  17.726 -0.0457  0.5298  0.4666
  178MPD1    H5 2772   1.671   2.439  17.743 -0.6411  1.1264 -0.6510
  178MPD1    N1 2773   1.325   2.083   0.243  0.0201 -0.5721  0.6104
  178MPD1    H6 2774   1.301   2.032   0.158  1.2953 -0.2418  0.0485
  178MPD1    H7 2775   1.325   2.019   0.322 -0.8706 -2.4349 -0.8947
  179MPD1     C 2776   1.014   1.101  16.650  0.4331 -0.3323 -0.7309
  179MPD1    C1 2777   1.078   0.980  16.649 -0.0878  0.1036  0.3082
  179MPD1    C2 2778   1.089   0.919  16.532  0.2334 -0.0745 -0.3500
  179MPD1    C3 2779   1.022   0.958  16.417 -0.4471  0.1782 -0.2228
  179MPD1    C4 2780   0.941   1.067  16.428  0.4289  0.1136  0.2803
  179MPD1    C5 2781   0.947   1.142  16.538  0.2578 -0.0085  0.1543
  179MPD1     H 2782   1.139   0.822  16.530 -1.6855 -1.0729  0.9704
  179MPD1    H1 2783   0.884   1.103  16.343 -2.7911 -0.3789  2.2407
  179MPD1    H2 2784   1.016   1.167  16.736 -0.8146 -1.5388  0.2146
  179MPD1    H3 2785   0.899   1.238  16.544  2.5969  1.1333  0.4784
  179MPD1     N 2786   1.047   0.881  16.299 -0.1946  0.3400  0.0664
  179MPD1    H5 2787   1.128   0.821  16.300 -0.9956 -0.6989  2.7198
  179MPD1    N1 2788   1.164   0.954  16.754  0.6274 -0.4460  0.3379
  179MPD1    H6 2789   1.183   0.856  16.771  0.3008 -0.5024  0.3620
  179MPD1    H7 2790   1.148   0.995  16.846 -0.7224  0.0059 -0.1010
  180MPD1     C 2791   1.003   2.640  15.240  0.9544 -0.0352  0.4115
  180MPD1    C1 2792   1.065   2.594  15.129 -0.1435 -0.3977  0.3596
  180MPD1    C2 2793   0.988   2.567  15.017 -0.1318  0.0727  0.5396
  180MPD1    C3 2794   0.854   2.592  15.013 -0.2909 -0.2668  0.1620
  180MPD1    C4 2795   0.792   2.632  15.135 -0.2925  0.4272 -0.0056
  180MPD1    C5 2796   0.865   2.650  15.236  0.3545  0.1807  0.4906
  180MPD1     H 2797   1.046   2.546  14.928  0.6858  0.4874  0.9756
  180MPD1    H1 2798   0.686   2.645  15.152 -0.1730 -1.6222  2.2041
  180MPD1    H2 2799   1.056   2.680  15.326  1.3749  0.6594 -0.1768
  180MPD1    H3 2800   0.817   2.691  15.324 -1.9380 -0.5940 -0.4124
  180MPD1     N 2801   0.781   2.586  14.888 -0.6519  0.0445 -0.3850
  180MPD1    H5 2802   0.844   2.567  14.810  3.0391  0.9155  2.3920
  180MPD1    N1 2803   1.202   2.601  15.115  0.3488 -0.0353 -0.1266
  180MPD1    H6 2804   1.222   2.697  15.087  0.2785  0.4593  1.5052
  180MPD1    H7 2805   1.246   2.599  15.206  2.1948 -0.5307 -1.0407
  181MPD1     C 2806   3.452   0.493   9.862 -0.1854  0.0867 -0.1309
  181MPD1    C1 2807   3.371   0.389   9.826  0.2747  0.1371 -0.0712
  181MPD1    C2 2808   3.343   0.292   9.921  0.4672 -0.2943  0.9051
  181MPD1    C3 2809   3.412   0.288  10.041  0.4693 -0.0490  0.8172
  181MPD1    C4 2810   3.508   0.381  10.067 -0.3140  0.3293  0.5087
  181MPD1    C5 2811   3.526   0.486   9.978  0.5115 -0.1756 -0.5173
  181MPD1     H 2812   3.282   0.207   9.893  0.8194 -0.0210 -0.7226
  181MPD1    H1 2813   3.565   0.379  10.159  0.2323  1.2676  0.1997
  181MPD1    H2 2814   3.454   0.583   9.803  0.1256 -0.4478 -0.9308
  181MPD1    H3 2815   3.592   0.567  10.004  1.3630 -0.3294 -2.1671
  181MPD1     N 2816   3.407   0.185  10.138  0.1124 -0.6510 -0.2546
  181MPD1    H5 2817   3.484   0.191  10.204  1.9280  1.6380 -2.5411
  181MPD1    N1 2818   3.304   0.403   9.708 -0.4884  0.0326 -0.5009
  181MPD1    H6 2819   3.365   0.469   9.659  0.0355  0.4182  0.6487
  181MPD1    H7 2820   3.293   0.316   9.657 -2.5816  0.2239 -0.3738
  182MPD1     C 2821   3.974   3.127   1.792 -0.4491  0.2224 -0.1273
  182MPD1    C1 2822   3.986   3.041   1.682  0.5377 -0.7152  0.0191
  182MPD1    C2 2823   3.865   3.012   1.614  0.3444 -0.9128 -0.8414
  182MPD1    C3 2824   3.740   3.058   1.663  0.4867 -1.1608  0.3029
  182MPD1    C4 2825   3.738   3.146   1.769  0.8905  0.3244 -0.0497
  182MPD1    C5 2826   3.850   3.177   1.828 -0.3053  0.9792  0.6855
  182MPD1     H 2827   3.867   2.941   1.532  2.2337 -0.5002 -1.1444
  182MPD1    H1 2828   3.646   3.194   1.800 -0.1492 -1.3837 -0.4966
  182MPD1    H2 2829   4.073   3.151   1.830  0.6852  3.8122 -5.4357
  182MPD1    H3 2830   3.842   3.243   1.913 -1.4842  0.2723  1.1192
  182MPD1     N 2831   3.625   3.033   1.591  0.2236 -0.4938  0.1942
  182MPD1    H5 2832   3.544   3.075   1.636 -0.4189 -2.2417  0.6501
  182MPD1    N1 2833   4.115   2.984   1.641  0.1536 -0.1793  0.0565
  182MPD1    H6 2834   4.165   2.957   1.725  1.4489 -0.9419 -0.9570
  182MPD1    H7 2835   4.106   2.901   1.584  0.1690  0.7577 -1.3212
  183MPD1     C 2836   3.196   3.427   8.871 -0.3736 -1.0775 -0.1338
  183MPD1    C1 2837   3.300   3.418   8.956 -0.1009  0.2275  0.4684
  183MPD1    C2 2838   3.320   3.516   9.051 -0.5133  0.1596 -0.7448
  183MPD1    C3 2839   3.227   3.605   9.085  0.2186 -0.3451 -0.6052
  183MPD1    C4 2840   3.105   3.606   9.007  0.3653 -0.1545 -0.6865
  183MPD1    C5 2841   3.090   3.516   8.903 -0.7512  0.0192  0.1311
  183MPD1     H 2842   3.413   3.504   9.106 -1.9293  0.6144  1.7522
  183MPD1    H1 2843   3.025   3.677   9.022  0.5049  0.0722 -1.0169
  183MPD1    H2 2844   3.166   3.355   8.796 -0.9470 -2.1069  1.0875
  183MPD1    H3 2845   3.008   3.519   8.832 -0.0615 -1.3945 -0.7325
  183MPD1     N 2846   3.255   3.697   9.185 -0.0876  0.4489  0.0692
  183MPD1    H5 2847   3.349   3.692   9.222  0.2556  0.9454 -0.7241
  183MPD1    N1 2848   3.409   3.329   8.924  0.4817  0.1294 -0.2163
  183MPD1    H6 2849   3.463   3.294   9.003  0.1942  0.6565  0.2107
  183MPD1    H7 2850   3.377   3.251   8.867 -2.0915  0.4810  0.7522
  184MPD1     C 2851   2.872   1.314  10.132 -0.4400 -0.2303 -0.3800
  184MPD1    C1 2852   2.833   1.304   9.996 -0.2301  0.7257  0.2813
  184MPD1    C2 2853   2.871   1.399   9.908  0.4499  0.6093  0.1600
  184MPD1    C3 2854   2.953   1.504   9.942 -0.6064  0.6675 -0.4129
  184MPD1    C4 2855   2.997   1.514  10.074 -0.4490 -0.3771  0.4943
  184MPD1    C5 2856   2.957   1.415  10.164 -0.1788  0.5505  0.0968
  184MPD1     H 2857   2.835   1.401   9.806 -1.3967  0.1852  0.8065
  184MPD1    H1 2858   3.055   1.599  10.106 -1.2168  0.4216 -0.2434
  184MPD1    H2 2859   2.851   1.240  10.209 -1.1365  1.8451  1.3967
  184MPD1    H3 2860   2.991   1.403  10.266 -2.0307  0.1287  0.6656
  184MPD1     N 2861   2.994   1.611   9.854 -0.3499 -0.0834 -0.8651
  184MPD1    H5 2862   3.046   1.692   9.886  0.4490 -0.3416 -1.4999
  184MPD1    N1 2863   2.741   1.206   9.956  0.0252 -0.2401 -0.0284
  184MPD1    H6 2864   2.745   1.180   9.857 -2.3538  2.5579 -0.8632
  184MPD1    H7 2865   2.737   1.113   9.998 -0.1350  0.1525  0.8097
  185MPD1     C 2866   2.900   2.159   8.909 -0.0956  0.7387 -0.4324
  185MPD1    C1 2867   2.918   2.023   8.918  0.6628 -0.7221 -0.8248
  185MPD1    C2 2868   2.949   1.962   9.042  0.4925  0.0723  0.1262
  185MPD1    C3 2869   2.944   2.045   9.149 -0.2821  0.1317  0.5206
  185MPD1    C4 2870   2.919   2.182   9.141 -0.4561 -0.3913  0.3702
  185MPD1    C5 2871   2.903   2.236   9.019  0.1660  0.9186 -0.2544
  185MPD1     H 2872   2.963   1.855   9.052 -1.4248 -0.1495  0.3954
  185MPD1    H1 2873   2.914   2.243   9.230  0.7309 -2.6260  1.9509
  185MPD1    H2 2874   2.907   2.211   8.814 -0.5106  0.0319 -0.8418
  185MPD1    H3 2875   2.888   2.343   9.010  1.4553  1.0230 -1.0322
  185MPD1     N 2876   2.965   2.002   9.281  0.2972  0.0215 -0.4480
  185MPD1    H5 2877   2.961   2.070   9.357  0.2267 -0.3678 -0.1017
  185MPD1    N1 2878   2.941   1.948   8.801  0.0655  0.2845 -0.3477
  185MPD1    H6 2879   2.942   1.846   8.805  1.6826  0.4047  2.7281
  185MPD1    H7 2880   2.891   1.980   8.719  2.2518  0.5318 -1.5951
  186MPD1     C 2881   0.941   2.270  16.697 -0.6198  0.0057  0.1298
  186MPD1    C1 2882   0.933   2.141  16.757  0.3428  0.3010 -0.2141
  186MPD1    C2 2883   0.995   2.036  16.700 -0.0309  0.3410  0.4045
  186MPD1    C3 2884   1.072   2.055  16.585  0.9026 -0.0890 -0.3578
  186MPD1    C4 2885   1.083   2.182  16.528  0.0445  0.4962 -0.4468
  186MPD1    C5 2886   1.009   2.288  16.576 -0.4896  0.3200 -0.3149
  186MPD1     H 2887   1.004   1.945  16.758 -0.4715 -0.8086 -1.3454
  186MPD1    H1 2888   1.151   2.200  16.445  1.7288 -3.8556 -0.0419
  186MPD1    H2 2889   0.888   2.356  16.737 -0.4912 -1.1082  2.7651
  186MPD1    H3 2890   1.017   2.386  16.530 -0.0167  0.9068  1.0160
  186MPD1     N 2891   1.153   1.951  16.533  0.3256  0.1054 -0.4610
  186MPD1    H5 2892   1.224   1.962  16.462  1.4613 -1.4068  0.4122
  186MPD1    N1 2893   0.868   2.125  16.882  0.0290  0.1250  0.1963
  186MPD1    H6 2894   0.811   2.207  16.898 -0.7195 -0.6188  1.3746
  186MPD1    H7 2895   0.939   2.138  16.954 -1.4808 -1.6997  2.0200
  187MPD1     C 2896   0.948   3.397   0.059 -1.0926 -0.1771 -0.3800
  187MPD1    C1 2897   0.899   3.278   0.003 -0.1158 -0.2423 -0.3622
  187MPD1    C2 2898   0.823   3.282  17.632  0.0361  0.1401 -0.3940
  187MPD1    C3 2899   0.781   3.407  17.580  0.2986  0.4300  0.3389
  187MPD1    C4 2900   0.841   3.523  17.626  0.4496 -0.0841  0.6382
  187MPD1    C5 2901   0.920   3.520  17.740  0.2693  0.0428  0.2876
  187MPD1     H 2902   0.784   3.194  17.582 -0.0749 -1.4584  2.5244
  187MPD1    H1 2903   0.818   3.618  17.579  0.3146 -0.4761 -0.0904
  187MPD1    H2 2904   1.006   3.405   0.151  0.6438 -1.6542 -1.3608
  187MPD1    H3 2905   0.962   3.616   0.019 -0.2612  0.2599  0.3380
  187MPD1     N 2906   0.701   3.417  17.468 -0.0901 -0.2895  0.2633
  187MPD1    H5 2907   0.678   3.508  17.428  1.2833 -0.9897 -2.1196
  187MPD1    N1 2908   0.903   3.168   0.076  0.2812 -0.2868 -0.3098
  187MPD1    H6 2909   0.982   3.166   0.140  0.7717  0.6238 -0.8826
  187MPD1    H7 2910   0.930   3.089   0.017  2.3909 -1.2724  1.9560
  188MPD1     C 2911   1.411   3.034   9.678 -0.0346 -0.5584  0.3364
  188MPD1    C1 2912   1.417   2.985   9.806  0.0787  0.6338 -0.2773
  188MPD1    C2 2913   1.332   2.882   9.841  0.2692  0.2263 -0.5149
  188MPD1    C3 2914   1.227   2.840   9.763  0.6380  0.3563  0.6108
  188MPD1    C4 2915   1.224   2.892   9.636 -0.2030  0.1813  0.1768
  188MPD1    C5 2916   1.300   2.996   9.607  0.0596  0.8824 -0.0717
  188MPD1     H 2917   1.358   2.829   9.933 -0.2648  1.2492  0.2235
  188MPD1    H1 2918   1.153   2.863   9.560  0.9664 -2.6061  0.1485
  188MPD1    H2 2919   1.469   3.118   9.642 -1.6340 -0.8856 -3.0195
  188MPD1    H3 2920   1.290   3.032   9.506 -1.2327 -0.4980 -0.4374
  188MPD1     N 2921   1.131   2.738   9.800  0.3617  0.4056 -0.2230
  188MPD1    H5 2922   1.068   2.712   9.726  0.0640 -1.5374  0.6958
  188MPD1    N1 2923   1.523   3.018   9.891 -0.0934 -0.1162 -0.1835
  188MPD1    H6 2924   1.564   3.109   9.870 -1.5126  0.5449 -0.0854
  188MPD1    H7 2925   1.507   3.014   9.992 -1.7139 -1.5658 -0.4965
  189MPD1     C 2926   2.647   3.955   0.480  0.6964  0.5162 -0.4561
  189MPD1    C1 2927   2.551   4.053   0.491  0.0255  0.4659 -0.4041
  189MPD1    C2 2928   2.423   4.021   0.442  0.0152 -0.3447  0.3524
  189MPD1    C3 2929   2.389   3.897   0.388  0.0641  0.1591  0.5893
  189MPD1    C4 2930   2.489   3.801   0.391 -0.1300  0.1715 -0.9025
  189MPD1    C5 2931   2.612   3.829   0.440 -0.6993  0.2399  0.1604
  189MPD1     H 2932   2.344   4.094   0.455 -0.9653 -1.4382  0.5426
  189MPD1    H1 2933   2.466   3.701   0.355 -0.7489 -0.3725  0.9813
  189MPD1    H2 2934   2.743   3.975   0.525  1.4172 -1.5478 -1.0649
  189MPD1    H3 2935   2.685   3.749   0.445 -1.0306 -0.1976 -2.0900
  189MPD1     N 2936   2.267   3.881   0.325  0.2673 -0.9736 -0.4750
  189MPD1    H5 2937   2.208   3.964   0.328  0.9932 -0.5041  0.8262
  189MPD1    N1 2938   2.572   4.164   0.576  0.0716  0.3361 -0.5205
  189MPD1    H6 2939   2.531   4.253   0.546 -2.6496 -0.2995  1.3338
  189MPD1    H7 2940   2.669   4.191   0.585  0.0206 -0.3792  2.2763
  190MPD1     C 2941   0.974   2.149  15.077 -0.3120  0.3121 -0.2448
  190MPD1    C1 2942   1.065   2.058  15.105  0.2721  0.4229 -0.2015
  190MPD1    C2 2943   1.130   2.078  15.231 -0.1777 -0.3862 -0.8584
  190MPD1    C3 2944   1.116   2.193  15.306  0.1019 -0.2802  0.3774
  190MPD1    C4 2945   1.035   2.295  15.265 -0.0395  0.1963  0.0873
  190MPD1    C5 2946   0.961   2.263  15.149 -0.0082 -0.3189  0.3647
  190MPD1     H 2947   1.197   2.002  15.269 -0.8992 -0.5901 -0.0063
  190MPD1    H1 2948   1.028   2.393  15.312 -0.0795  0.0213  0.4387
  190MPD1    H2 2949   0.909   2.142  14.991 -0.4446  1.9325 -0.2753
  190MPD1    H3 2950   0.889   2.331  15.104 -0.0155  0.5536  1.7000
  190MPD1     N 2951   1.194   2.193  15.422 -0.4903 -0.0938  0.0683
  190MPD1    H5 2952   1.255   2.115  15.442 -1.4404 -0.1275  2.9445
  190MPD1    N1 2953   1.073   1.938  15.033  0.2333 -0.1449 -0.6886
  190MPD1    H6 2954   1.163   1.893  15.045  0.0960 -0.7074 -1.7078
  190MPD1    H7 2955   1.050   1.958  14.935 -3.1412 -2.6294 -0.4110
  191MPD1     C 2956   4.387   3.879  13.156 -0.0754  0.2571  0.4284
  191MPD1    C1 2957   4.507   3.926  13.105 -0.5489 -0.4356  0.2682
  191MPD1    C2 2958   4.514   4.064  13.094  0.3802  0.3928 -0.7219
  191MPD1    C3 2959   4.411   4.149  13.135 -0.1195  0.4997 -0.9913
  191MPD1    C4 2960   4.293   4.096  13.177  0.4163 -0.4840  1.0418
  191MPD1    C5 2961   4.281   3.960  13.191  0.2705 -0.1019 -0.0176
  191MPD1     H 2962   4.598   4.119  13.053  0.8648  0.2538  0.0905
  191MPD1    H1 2963   4.220   4.153  13.233 -0.1640 -1.6742  1.4938
  191MPD1    H2 2964   4.367   3.773  13.162  1.3814  0.0141  1.1458
  191MPD1    H3 2965   4.194   3.918  13.241  0.4053 -1.4168 -0.8861
  191MPD1     N 2966   4.421   4.291  13.161  0.2944 -0.2553  0.2516
  191MPD1    H5 2967   4.340   4.340  13.197 -0.9762 -0.1966 -2.6762
  191MPD1    N1 2968   4.584   3.839  13.026  0.4419 -0.4665  0.0096
  191MPD1    H6 2969   4.595   3.753  13.079 -0.4615 -0.8621 -0.4502
  191MPD1    H7 2970   4.673   3.873  12.991  0.8521 -1.1698  0.3527
  192MPD1     C 2971   4.206   0.171  13.826 -0.5654 -0.3489  0.0747
  192MPD1    C1 2972   4.128   0.100  13.741  0.8887  0.6096  0.1779
  192MPD1    C2 2973   4.187   0.060  13.623  0.3331 -0.4621  0.1353
  192MPD1    C3 2974   4.305   0.111  13.578 -0.0122  0.3015 -0.5195
  192MPD1    C4 2975   4.379   0.200  13.654 -0.3260  0.2930  0.1700
  192MPD1    C5 2976   4.327   0.226  13.777  0.0558  0.8651 -0.3753
  192MPD1     H 2977   4.132   4.726  13.562 -2.1450  0.4336  1.3110
  192MPD1    H1 2978   4.470   0.251  13.626 -1.2698  1.4875 -0.6831
  192MPD1    H2 2979   4.168   0.206  13.921 -0.2877 -0.4593  0.2279
  192MPD1    H3 2980   4.380   0.302  13.833  1.3904  1.1286 -2.0188
  192MPD1     N 2981   4.371   0.077  13.455  0.0093  0.0376 -0.7287
  192MPD1    H5 2982   4.465   0.111  13.438  0.3845 -0.3869  0.5131
  192MPD1    N1 2983   4.018   0.023  13.790 -0.3305  0.1856 -0.2761
  192MPD1    H6 2984   3.963   4.727  13.711 -3.9375  1.4033  1.7599
  192MPD1    H7 2985   3.961   0.076  13.855  0.9783  0.1723  0.8763
  193MPD1     C 2986   4.570   4.726  16.028  0.4160  0.3250 -0.3314
  193MPD1    C1 2987   4.565   4.643  16.131 -0.0899  0.1381  0.1239
  193MPD1    C2 2988   4.620   4.681  16.255 -0.5329 -0.0404  0.3016
  193MPD1    C3 2989   4.682   0.067  16.268 -0.1029  0.4597  0.0403
  193MPD1    C4 2990   4.668   0.156  16.162 -0.5379 -0.3479 -0.2947
  193MPD1    C5 2991   4.617   0.114  16.045  0.2776 -0.5495 -0.2416
  193MPD1     H 2992   4.620   4.604  16.332 -2.6472  0.3639  0.7303
  193MPD1    H1 2993   4.707   0.257  16.167  0.4510 -0.6420 -2.1328
  193MPD1    H2 2994   4.530   4.695  15.932  0.9850  3.8144 -1.6844
  193MPD1    H3 2995   4.621   0.171  15.952 -0.4245 -1.1250 -0.6160
  193MPD1     N 2996   0.023   0.101  16.383  0.4116  0.0088 -0.6737
  193MPD1    H5 2997   0.064   0.193  16.382  1.8029 -0.5776  1.6064
  193MPD1    N1 2998   4.495   4.523  16.113 -0.1517 -0.3870 -0.4577
  193MPD1    H6 2999   4.499   4.460  16.192 -1.7554  0.8924  0.6304
  193MPD1    H7 3000   4.533   4.462  16.041 -1.4090 -0.7036 -0.8513
  194MPD1     C 3001   2.338   1.956  16.943  0.5297 -0.3468 -0.3119
  194MPD1    C1 3002   2.280   1.832  16.962  0.2562  0.3001  0.2075
  194MPD1    C2 3003   2.361   1.739  17.021 -0.2247  0.4234 -0.9379
  194MPD1    C3 3004   2.499   1.762  17.043  0.2668 -0.7927  0.1779
  194MPD1    C4 3005   2.545   1.887  17.025  0.0679  0.5505  0.3203
  194MPD1    C5 3006   2.468   1.984  16.968  0.0457  0.8106 -0.4503
  194MPD1     H 3007   2.312   1.645  17.044  0.6387  0.3851  0.7398
  194MPD1    H1 3008   2.652   1.901  17.038  0.6263 -0.3778 -3.3047
  194MPD1    H2 3009   2.288   2.039  16.895 -0.2583 -0.1674  0.8262
  194MPD1    H3 3010   2.504   2.086  16.966  2.0502  0.1280  0.8311
  194MPD1     N 3011   2.601   1.661  17.069  0.2166  0.2414  0.7887
  194MPD1    H5 3012   2.698   1.692  17.067  0.0437  0.7984  1.3708
  194MPD1    N1 3013   2.144   1.813  16.949  0.8422 -0.6535  0.6698
  194MPD1    H6 3014   2.104   1.871  16.875  1.0910 -1.7064 -0.2965
  194MPD1    H7 3015   2.113   1.717  16.930  1.9717 -1.2448  1.8051
  195MPD1     C 3016   0.339   3.605  17.477  0.7798  0.4695 -0.2188
  195MPD1    C1 3017   0.447   3.654  17.545 -0.4083 -0.1227 -0.3581
  195MPD1    C2 3018   0.466   3.608  17.678  0.1741 -0.3343 -0.5008
  195MPD1    C3 3019   0.384   3.508  17.727 -0.2789 -0.2157 -0.6254
  195MPD1    C4 3020   0.287   3.459  17.644  0.8651  0.3696 -0.3341
  195MPD1    C5 3021   0.263   3.503  17.515 -0.1287  0.3864 -0.2841
  195MPD1     H 3022   0.541   3.663  17.732  0.1094  0.4407 -1.2036
  195MPD1    H1 3023   0.216   3.387  17.682  3.4602 -0.1073  3.6138
  195MPD1    H2 3024   0.312   3.643  17.379  1.1936  0.5404 -0.3075
  195MPD1    H3 3025   0.175   3.470  17.460 -0.9003 -0.3011  1.3660
  195MPD1     N 3026   0.385   3.456   0.111 -0.2070  1.1186  0.4294
  195MPD1    H5 3027   0.324   3.377   0.128  1.2389  0.1219  0.9948
  195MPD1    N1 3028   0.512   3.775  17.505  0.3624  0.2787 -0.2974
  195MPD1    H6 3029   0.604   3.778  17.550 -0.3076  1.7279  0.9813
  195MPD1    H7 3030   0.538   3.779  17.407 -1.0057  2.4962 -0.5713
  196MPD1     C 3031   3.756   2.306   0.587 -0.8034 -0.0044 -0.5304
  196MPD1    C1 3032   3.859   2.393   0.553 -0.2111 -0.1252 -0.7184
  196MPD1    C2 3033   3.936   2.442   0.655  0.1832 -0.6725 -0.5511
  196MPD1    C3 3034   3.911   2.401   0.783 -0.2187 -0.3887  0.3500
  196MPD1    C4 3035   3.808   2.312   0.813  0.9674  0.6981 -0.5968
  196MPD1    C5 3036   3.726   2.265   0.712  0.0286  0.2896 -0.6787
  196MPD1     H 3037   4.015   2.509   0.622  1.3071 -2.3662 -1.2585
  196MPD1    H1 3038   3.777   2.301   0.916 -1.4876  1.1836 -1.2682
  196MPD1    H2 3039   3.703   2.253   0.508  0.7971 -0.0415 -1.5816
  196MPD1    H3 3040   3.644   2.195   0.728  1.0905 -0.2829  2.3147
  196MPD1     N 3041   3.990   2.445   0.895 -0.5481 -0.1131 -0.0057
  196MPD1    H5 3042   3.958   2.429   0.990 -1.3176  1.8310  0.0736
  196MPD1    N1 3043   3.895   2.415   0.418  0.4081 -0.4273  0.3086
  196MPD1    H6 3044   3.942   2.503   0.401  1.9572 -1.3465 -0.0962
  196MPD1    H7 3045   3.812   2.404   0.360  0.4834  2.0952 -0.2868
  197MPD1     C 3046   3.363   0.728  17.345  0.0020  0.0367  1.0331
  197MPD1    C1 3047   3.376   0.854  17.292 -0.2203  0.1101  0.0805
  197MPD1    C2 3048   3.505   0.888  17.248  0.4736  0.1955 -0.2536
  197MPD1    C3 3049   3.614   0.798  17.251  0.0425 -0.0725 -0.2122
  197MPD1    C4 3050   3.584   0.669  17.280  0.0505  0.5498 -0.2339
  197MPD1    C5 3051   3.460   0.637  17.335  0.6674 -0.0126 -0.5314
  197MPD1     H 3052   3.515   0.990  17.215  1.0526  0.2840  0.2050
  197MPD1    H1 3053   3.666   0.600  17.297  0.2995 -0.0921 -3.9994
  197MPD1    H2 3054   3.266   0.698  17.384  0.6440 -0.5071  2.2362
  197MPD1    H3 3055   3.439   0.539  17.376  0.7709 -0.3951 -1.3949
  197MPD1     N 3056   3.741   0.832  17.204  0.1126  0.0237  0.3738
  197MPD1    H5 3057   3.810   0.759  17.214 -0.3360 -0.5850 -0.9160
  197MPD1    N1 3058   3.280   0.952  17.308 -0.4516  0.7077  0.7234
  197MPD1    H6 3059   3.296   1.027  17.241 -0.4656  0.1348  0.0782
  197MPD1    H7 3060   3.186   0.915  17.297 -0.7634  1.1077  1.9864
  198MPD1     C 3061   0.603   3.306  15.271  0.1095  0.5311  0.0217
  198MPD1    C1 3062   0.570   3.220  15.367  0.0789  0.1978 -0.2105
  198MPD1    C2 3063   0.582   3.259  15.500 -0.8747  0.1397 -0.2988
  198MPD1    C3 3064   0.635   3.382  15.537 -0.6665 -0.7261 -0.1385
  198MPD1    C4 3065   0.664   3.468  15.437 -0.4496  0.3147  0.2233
  198MPD1    C5 3066   0.650   3.428  15.311  0.8635  0.3326  0.1597
  198MPD1     H 3067   0.540   3.194  15.576 -0.7849  0.5223  0.0816
  198MPD1    H1 3068   0.709   3.565  15.450  0.9097 -0.4566  1.3349
  198MPD1    H2 3069   0.586   3.279  15.168 -0.2676 -1.6381  0.6602
  198MPD1    H3 3070   0.681   3.502  15.239 -0.2241  1.3865  0.7716
  198MPD1     N 3071   0.654   3.406  15.678  0.0752 -0.2957 -0.2549
  198MPD1    H5 3072   0.628   3.341  15.751  1.1219 -0.1244  0.2681
  198MPD1    N1 3073   0.490   3.110  15.340 -0.1875 -0.4531 -0.2672
  198MPD1    H6 3074   0.519   3.057  15.258  0.5134  0.4838 -0.6274
  198MPD1    H7 3075   0.507   3.034  15.406 -2.8180 -0.6689  0.1444
  199MPD1     C 3076   3.046   0.247  10.667  0.4597  0.6593 -0.3622
  199MPD1    C1 3077   2.952   0.153  10.662 -0.1461  0.0469 -0.9207
  199MPD1    C2 3078   2.917   0.089  10.539 -0.0184  0.0834  0.7184
  199MPD1    C3 3079   3.001   0.116  10.424  1.0010  0.2240  0.0226
  199MPD1    C4 3080   3.092   0.216  10.435  0.0495  0.1712  0.5363
  199MPD1    C5 3081   3.111   0.282  10.553  0.2338  0.3123  0.0194
  199MPD1     H 3082   2.846   0.008  10.533  1.2550 -0.9419 -0.6085
  199MPD1    H1 3083   3.160   0.245  10.356  0.5902  0.5870  1.1450
  199MPD1    H2 3084   3.079   0.296  10.758 -0.1434 -1.0953  0.7883
  199MPD1    H3 3085   3.186   0.359  10.549  0.1382  0.3966 -0.1459
  199MPD1     N 3086   2.976   0.056  10.300  0.1195  0.8702  0.3841
  199MPD1    H5 3087   3.036   0.093  10.227  0.6296  0.4926  0.6055
  199MPD1    N1 3088   2.890   0.105  10.775  0.0036 -0.0772 -0.0356
  199MPD1    H6 3089   2.898   0.168  10.854  0.6473 -2.0785  1.5117
  199MPD1    H7 3090   2.792   0.084  10.760 -0.0496  0.5272 -0.5146
  200MPD1     C 3091   1.146   0.442  14.362 -0.1985  0.0615 -0.0905
  200MPD1    C1 3092   1.211   0.343  14.290 -0.0143  0.3045  0.3354
  200MPD1    C2 3093   1.307   0.277  14.356 -0.0566 -0.0599  0.2884
  200MPD1    C3 3094   1.344   0.294  14.490  0.9033  0.4705 -0.2257
  200MPD1    C4 3095   1.281   0.402  14.552  0.5351 -0.5577  0.5897
  200MPD1    C5 3096   1.182   0.472  14.490 -0.3745 -0.3057  1.4248
  200MPD1     H 3097   1.356   0.191  14.311  0.1360  0.6277 -0.8067
  200MPD1    H1 3098   1.312   0.433  14.651 -0.8163 -1.0648  1.1648
  200MPD1    H2 3099   1.072   0.509  14.320 -1.4908 -0.6099  1.1091
  200MPD1    H3 3100   1.123   0.548  14.541  0.6897  1.5149 -0.0590
  200MPD1     N 3101   1.454   0.223  14.542  0.1217 -0.2618  0.6487
  200MPD1    H5 3102   1.507   0.156  14.487 -0.2333 -0.9194  1.1109
  200MPD1    N1 3103   1.171   0.283  14.167 -0.3115  0.0614 -0.1070
  200MPD1    H6 3104   1.248   0.241  14.115  0.3010  0.6707  0.3101
  200MPD1    H7 3105   1.150   0.364  14.109 -0.4656 -0.7889 -1.2324
  201MPD1     C 3106   0.489   4.069  12.410 -0.5396  0.1635 -0.1354
  201MPD1    C1 3107   0.494   3.990  12.522 -0.4499 -0.1626  0.2105
  201MPD1    C2 3108   0.418   3.876  12.527 -0.2843  0.1776  0.1038
  201MPD1    C3 3109   0.336   3.841  12.424  0.4722  0.4089  0.2807
  201MPD1    C4 3110   0.322   3.925  12.313 -0.1553 -0.4152 -0.7562
  201MPD1    C5 3111   0.405   4.039  12.305 -0.6375  0.4735  0.5420
  201MPD1     H 3112   0.434   3.815  12.615 -0.3241 -0.5999 -0.4248
  201MPD1    H1 3113   0.249   3.909  12.234 -2.0102  1.2012  0.6288
  201MPD1    H2 3114   0.542   4.163  12.403  1.2797 -0.9414 -1.2292
  201MPD1    H3 3115   0.386   4.107  12.222  1.9089  0.4377 -0.0715
  201MPD1     N 3116   0.255   3.722  12.448  0.1373 -0.0351  0.3156
  201MPD1    H5 3117   0.252   3.676  12.539 -0.1688 -0.4321  0.1043
  201MPD1    N1 3118   0.573   4.033  12.630 -0.1605  0.4577 -0.7588
  201MPD1    H6 3119   0.565   3.973  12.712  0.4149  0.9717 -0.3229
  201MPD1    H7 3120   0.670   4.028  12.599 -0.1704  0.5980 -0.8130
  202MPD1     C 3121   3.515   2.582   9.042 -0.0297  0.1790 -0.2918
  202MPD1    C1 3122   3.432   2.665   9.111  1.1516  0.0744 -0.2350
  202MPD1    C2 3123   3.498   2.753   9.202 -0.4032 -0.1475  0.0783
  202MPD1    C3 3124   3.630   2.727   9.240  0.5170 -0.7676 -0.0749
  202MPD1    C4 3125   3.703   2.629   9.179 -0.4475  0.2399  0.8262
  202MPD1    C5 3126   3.642   2.560   9.079  0.6774  0.2359  0.2464
  202MPD1     H 3127   3.446   2.838   9.245  1.1066 -0.4792  2.4923
  202MPD1    H1 3128   3.811   2.625   9.192 -0.4342  0.8211  0.9015
  202MPD1    H2 3129   3.495   2.531   8.948 -0.0937  0.6362 -0.5282
  202MPD1    H3 3130   3.702   2.488   9.024  0.1815  0.9319 -1.1974
  202MPD1     N 3131   3.704   2.801   9.334 -0.2353  0.3468  0.0622
  202MPD1    H5 3132   3.802   2.786   9.356 -0.2827 -0.0576  0.0014
  202MPD1    N1 3133   3.315   2.712   9.054  0.6969  0.2200 -0.2187
  202MPD1    H6 3134   3.251   2.754   9.120  1.0164  3.5371 -2.0033
  202MPD1    H7 3135   3.264   2.637   9.009  1.3968  0.6166 -1.6999
  203MPD1     C 3136   2.212   3.954  12.913  0.5107  0.5964 -0.4541
  203MPD1    C1 3137   2.190   3.829  12.967  0.6056 -0.0006  0.1914
  203MPD1    C2 3138   2.308   3.751  12.981  0.5621  0.3944  0.2639
  203MPD1    C3 3139   2.432   3.807  12.968  0.7192 -0.0132 -0.3594
  203MPD1    C4 3140   2.439   3.938  12.923  0.8179  0.5860  0.2551
  203MPD1    C5 3141   2.328   4.011  12.888  0.3955  0.0727  0.2094
  203MPD1     H 3142   2.300   3.645  13.002  0.9932  0.3238  0.0824
  203MPD1    H1 3143   2.520   4.001  12.889  0.2733  1.2195  0.1123
  203MPD1    H2 3144   2.124   4.014  12.894 -0.5878 -0.8374  0.1088
  203MPD1    H3 3145   2.331   4.114  12.854 -1.0388  0.4214  1.1793
  203MPD1     N 3146   2.544   3.726  12.998  0.6678  0.6220  0.4914
  203MPD1    H5 3147   2.536   3.635  13.041  0.9828  0.4683  0.2208
  203MPD1    N1 3148   2.062   3.771  12.984  0.3273  0.1726  0.6861
  203MPD1    H6 3149   1.998   3.848  13.002 -0.3992 -0.5160  1.0677
  203MPD1    H7 3150   2.074   3.713  13.067 -0.0050 -0.6799  0.1356
  204MPD1     C 3151   1.939   0.646  17.591  0.7797 -0.8729 -0.7330
  204MPD1    C1 3152   2.055   0.696  17.536 -0.1102 -0.1696 -0.1379
  204MPD1    C2 3153   2.168   0.612  17.526  0.5380  0.8040  0.4023
  204MPD1    C3 3154   2.168   0.480  17.566 -0.3929  0.6267  0.1820
  204MPD1    C4 3155   2.044   0.429  17.605  0.1690 -0.1250 -0.1362
  204MPD1    C5 3156   1.939   0.510  17.621  0.0896 -0.2804 -0.6073
  204MPD1     H 3157   2.270   0.639  17.501  0.5858 -1.3021 -1.6304
  204MPD1    H1 3158   2.028   0.324  17.629  0.7630 -0.5409 -1.5366
  204MPD1    H2 3159   1.851   0.705  17.611  1.6886  0.2149  0.0524
  204MPD1    H3 3160   1.846   0.467  17.658  0.4692 -0.2862  0.3536
  204MPD1     N 3161   2.292   0.411  17.560 -0.4286 -0.4011  0.1556
  204MPD1    H5 3162   2.372   0.467  17.532 -0.1227 -1.6816 -1.5363
  204MPD1    N1 3163   2.066   0.830  17.500 -0.1329  0.4179  0.4651
  204MPD1    H6 3164   2.123   0.845  17.417 -2.5313 -0.1180 -1.2652
  204MPD1    H7 3165   1.972   0.857  17.474  0.3926  1.5357 -0.3130
  205MPD1     C 3166   3.670   3.858  17.180  0.7534 -0.1557 -0.4715
  205MPD1    C1 3167   3.602   3.979  17.147 -0.7606  0.3692  0.2350
  205MPD1    C2 3168   3.474   3.997  17.198 -0.8733 -0.6900  0.0946
  205MPD1    C3 3169   3.414   3.897  17.273  0.1352 -0.0943  0.1994
  205MPD1    C4 3170   3.479   3.782  17.300  0.4856 -0.1341 -0.3944
  205MPD1    C5 3171   3.613   3.765  17.263 -0.4989  1.0517 -0.6622
  205MPD1     H 3172   3.410   4.083  17.182  1.0890  0.9702  1.1273
  205MPD1    H1 3173   3.432   3.706  17.360 -3.1145  2.0550 -0.4564
  205MPD1    H2 3174   3.764   3.832  17.134  0.4437 -1.5709 -0.3058
  205MPD1    H3 3175   3.670   3.682  17.301 -1.6984 -0.0775 -1.3158
  205MPD1     N 3176   3.288   3.905  17.339  0.3019 -0.4564 -0.0927
  205MPD1    H5 3177   3.248   3.824  17.386  0.0389  0.6634  1.6117
  205MPD1    N1 3178   3.650   4.063  17.041  0.1265 -0.0025  0.7705
  205MPD1    H6 3179   3.751   4.071  17.045  0.2045 -0.9517  0.6837
  205MPD1    H7 3180   3.607   4.155  17.036 -3.4234 -1.9054 -4.1595
  206MPD1     C 3181   2.600   2.627  17.370  0.3444 -0.0403  0.4711
  206MPD1    C1 3182   2.699   2.540  17.330 -0.3966 -0.7143 -0.0001
  206MPD1    C2 3183   2.712   2.511  17.193  0.1207  0.0118 -0.0625
  206MPD1    C3 3184   2.611   2.545  17.104  0.1028 -0.4945 -0.2733
  206MPD1    C4 3185   2.504   2.621  17.152 -0.1281  0.2317  0.0053
  206MPD1    C5 3186   2.498   2.666  17.283 -0.8333  0.4062 -1.3137
  206MPD1     H 3187   2.797   2.451  17.162  0.4153  1.4128 -2.0154
  206MPD1    H1 3188   2.428   2.661  17.086 -1.6048 -1.1582  0.8607
  206MPD1    H2 3189   2.576   2.646  17.474 -1.2470  0.7926 -0.0477
  206MPD1    H3 3190   2.410   2.716  17.320 -0.4813 -0.1513  0.2728
  206MPD1     N 3191   2.606   2.498  16.971 -0.1659  0.3226 -0.0403
  206MPD1    H5 3192   2.538   2.534  16.905  0.4802 -1.4539 -1.6919
  206MPD1    N1 3193   2.806   2.515  17.418  0.4234 -0.0274  0.0565
  206MPD1    H6 3194   2.768   2.493  17.510  0.9519 -0.4062  0.1838
  206MPD1    H7 3195   2.858   2.433  17.387  0.7712  0.2503 -0.0973
  207MPD1     C 3196   4.690   0.413  11.877 -0.3477 -0.3207 -0.1090
  207MPD1    C1 3197   4.722   0.281  11.887 -0.5030  0.2230  0.8639
  207MPD1    C2 3198   0.102   0.230  11.828 -0.1797 -0.0788  0.1364
  207MPD1    C3 3199   0.200   0.319  11.780 -0.4416  0.2597  0.1606
  207MPD1    C4 3200   0.161   0.446  11.757  0.5849 -0.4746  0.8015
  207MPD1    C5 3201   0.040   0.488  11.800 -0.4144  0.0908  0.7128
  207MPD1     H 3202   0.131   0.129  11.856 -1.9271 -0.1352  1.7636
  207MPD1    H1 3203   0.227   0.527  11.728  1.2803 -1.1119  0.6034
  207MPD1    H2 3204   4.602   0.458  11.921  1.2354  1.8163  0.8362
  207MPD1    H3 3205   0.022   0.593  11.782  0.5147  0.3514  1.3355
  207MPD1     N 3206   0.332   0.281  11.743 -0.0848 -0.0535  0.1720
  207MPD1    H5 3207   0.394   0.349  11.701 -1.5656  1.0350 -0.2616
  207MPD1    N1 3208   4.624   0.193  11.947 -0.0646 -0.5981  0.0851
  207MPD1    H6 3209   4.569   0.234  12.022  2.7604  1.8393  0.8316
  207MPD1    H7 3210   4.659   0.103  11.980 -0.9459 -0.4893  1.3200
  208MPD1     C 3211   3.997   3.507   0.279  0.3838 -0.1499 -0.0499
  208MPD1    C1 3212   3.980   3.408   0.378  0.5585 -0.5852 -0.2332
  208MPD1    C2 3213   3.858   3.352   0.398 -0.1801  0.5415  0.1458
  208MPD1    C3 3214   3.747   3.402   0.332 -0.6838 -0.4963  0.0037
  208MPD1    C4 3215   3.764   3.505   0.236 -0.7271 -0.0935  0.3909
  208MPD1    C5 3216   3.885   3.556   0.212 -0.2245 -0.2432  0.5028
  208MPD1     H 3217   3.847   3.266   0.463 -0.3527 -0.3390 -1.0526
  208MPD1    H1 3218   3.681   3.554   0.187 -1.6149 -0.8689  1.1195
  208MPD1    H2 3219   4.091   3.557   0.258  1.5111 -2.7393 -1.1685
  208MPD1    H3 3220   3.900   3.631   0.136  0.5539  0.8007  1.6965
  208MPD1     N 3221   3.627   3.327   0.351 -0.0278 -0.2213 -0.6966
  208MPD1    H5 3222   3.635   3.243   0.407  1.5313  1.2524  1.3267
  208MPD1    N1 3223   4.091   3.351   0.442 -0.2345  0.3989 -0.0221
  208MPD1    H6 3224   4.058   3.301   0.524 -1.2884  1.2891  0.0924
  208MPD1    H7 3225   4.165   3.413   0.476  0.7444  0.0820 -1.5677
  209MPD1     C 3226   0.922   3.232  10.891  0.2625  0.3608  0.0486
  209MPD1    C1 3227   0.800   3.204  10.950 -0.0610  0.2399 -0.3678
  209MPD1    C2 3228   0.749   3.303  11.035 -0.1731  0.2485 -0.1938
  209MPD1    C3 3229   0.816   3.421  11.058 -0.2076  0.2202  0.8558
  209MPD1    C4 3230   0.930   3.452  10.988 -0.4766 -0.5882 -0.1920
  209MPD1    C5 3231   0.980   3.354  10.901  0.3140  0.4014 -0.1413
  209MPD1     H 3232   0.661   3.278  11.093  1.2838 -1.0599  1.4777
  209MPD1    H1 3233   0.970   3.552  11.000  0.6540 -1.1969  1.0904
  209MPD1    H2 3234   0.959   3.158  10.821  0.4890  2.1132 -1.6837
  209MPD1    H3 3235   1.072   3.357  10.845 -1.8407  0.0197 -3.6837
  209MPD1     N 3236   0.755   3.516  11.146 -0.2722  0.4738  0.3558
  209MPD1    H5 3237   0.664   3.489  11.182 -0.0861  0.2473  0.6585
  209MPD1    N1 3238   0.732   3.084  10.931  0.0897 -0.4501 -0.2119
  209MPD1    H6 3239   0.703   3.036  11.017 -1.8128  0.5168 -0.3113
  209MPD1    H7 3240   0.792   3.020  10.879  0.4507  0.7883 -1.3102
  210MPD1     C 3241   0.151   3.559  11.926  0.5178 -0.2575  0.2167
  210MPD1    C1 3242   0.255   3.475  11.887  0.2231  0.0575 -0.0095
  210MPD1    C2 3243   0.331   3.525  11.778 -0.3429  0.2956 -0.0540
  210MPD1    C3 3244   0.301   3.642  11.710  0.2076 -0.6028  0.1175
  210MPD1    C4 3245   0.197   3.724  11.753  0.0705  0.0745 -0.2613
  210MPD1    C5 3246   0.128   3.675  11.860  0.5534 -0.5865 -0.7144
  210MPD1     H 3247   0.430   3.481  11.771  0.5483  2.4608 -1.1537
  210MPD1    H1 3248   0.172   3.819  11.708  1.8615  0.6425 -0.0539
  210MPD1    H2 3249   0.091   3.533  12.012 -1.2974  1.5507 -0.5111
  210MPD1    H3 3250   0.050   3.743  11.890  2.1791  0.7826  0.3900
  210MPD1     N 3251   0.380   3.695  11.609  0.3840  0.5072  0.3188
  210MPD1    H5 3252   0.358   3.791  11.586 -4.0662 -0.2638  1.4084
  210MPD1    N1 3253   0.311   3.385  11.978  0.1158 -0.3417  0.4791
  210MPD1    H6 3254   0.241   3.327  12.025 -0.0221  1.2654  2.2527
  210MPD1    H7 3255   0.376   3.326  11.926  2.2989  1.4015  1.2689
  211MPD1     C 3256   3.178   3.060  16.462  0.2552  0.0325 -0.2078
  211MPD1    C1 3257   3.195   3.160  16.560  1.2902  0.6892  0.3007
  211MPD1    C2 3258   3.093   3.252  16.576  0.0521 -0.1134  0.5853
  211MPD1    C3 3259   2.987   3.265  16.491  0.4043  0.1807  0.1223
  211MPD1    C4 3260   2.974   3.161  16.393 -0.5890 -0.3850  0.0680
  211MPD1    C5 3261   3.069   3.062  16.381 -0.0422  0.2310  0.2119
  211MPD1     H 3262   3.102   3.331  16.650 -0.4340 -0.2009  0.7414
  211MPD1    H1 3263   2.893   3.156  16.322 -0.8192 -1.8470  0.4352
  211MPD1    H2 3264   3.249   2.979  16.454  0.3313  0.1326 -0.5316
  211MPD1    H3 3265   3.059   2.987  16.303 -0.7689  0.3396  0.2034
  211MPD1     N 3266   2.899   3.374  16.505  0.4529 -0.5024  0.5426
  211MPD1    H5 3267   2.923   3.441  16.577  0.8462  1.2738 -1.2302
  211MPD1    N1 3268   3.300   3.147  16.653 -0.0445  0.3068 -0.2675
  211MPD1    H6 3269   3.337   3.239  16.676 -0.9830  1.2106 -2.3481
  211MPD1    H7 3270   3.380   3.092  16.624 -2.1291 -1.7237 -2.2717
  212MPD1     C 3271   1.762   2.474  16.915 -0.1195  0.2659  0.2259
  212MPD1    C1 3272   1.628   2.477  16.949 -0.3646 -0.5628  0.8797
  212MPD1    C2 3273   1.568   2.367  17.007  0.0830 -0.7089  0.0426
  212MPD1    C3 3274   1.646   2.253  17.048 -0.1246 -0.3289  0.0563
  212MPD1    C4 3275   1.776   2.248  17.003 -0.1569  0.3452  0.4626
  212MPD1    C5 3276   1.830   2.356  16.936  0.1548 -0.0885 -0.6175
  212MPD1     H 3277   1.462   2.362  17.026  0.2632  1.6658  1.6250
  212MPD1    H1 3278   1.845   2.166  17.020 -0.7077 -0.2222 -0.0532
  212MPD1    H2 3279   1.811   2.552  16.858 -2.3454  0.2513 -1.7327
  212MPD1    H3 3280   1.932   2.346  16.899  0.3345  0.6698 -0.3240
  212MPD1     N 3281   1.598   2.147  17.127  0.2161 -0.4983  0.1488
  212MPD1    H5 3282   1.670   2.077  17.145  0.6082  0.0510  0.6877
  212MPD1    N1 3283   1.548   2.590  16.917  0.1597  0.4147  0.1468
  212MPD1    H6 3284   1.606   2.673  16.929  0.7052 -0.0711  0.8080
  212MPD1    H7 3285   1.459   2.599  16.967 -0.0854 -0.9220 -0.0656
  213MPD1     C 3286   0.304   2.628  15.393 -0.6430  0.2713  0.6619
  213MPD1    C1 3287   0.359   2.719  15.312 -0.4564 -0.9213  0.2815
  213MPD1    C2 3288   0.271   2.807  15.258  0.2889 -0.3363 -0.6174
  213MPD1    C3 3289   0.132   2.781  15.260 -0.0059 -0.2531 -0.2690
  213MPD1    C4 3290   0.083   2.675  15.333 -0.3670 -1.0174 -0.4349
  213MPD1    C5 3291   0.170   2.596  15.402 -0.0363  0.3700  0.1687
  213MPD1     H 3292   0.302   2.897  15.207 -1.8507  0.8397  0.1703
  213MPD1    H1 3293   4.713   2.657  15.337 -0.5757  0.1815 -0.7478
  213MPD1    H2 3294   0.376   2.559  15.436  2.0150  1.3024 -2.0731
  213MPD1    H3 3295   0.139   2.508  15.458  2.4264 -2.1442 -2.3862
  213MPD1     N 3296   0.053   2.873  15.185 -0.5995  0.0031 -0.2499
  213MPD1    H5 3297   0.106   2.938  15.129  1.5738  0.4438  2.3061
  213MPD1    N1 3298   0.493   2.758  15.344 -0.2870 -0.6131 -0.0949
  213MPD1    H6 3299   0.547   2.680  15.380 -1.5826 -1.7326 -0.5627
  213MPD1    H7 3300   0.539   2.810  15.270  3.6098  0.9186  3.3637
  214MPD1     C 3301   4.247   2.846  14.284 -0.4615  0.0606  0.3708
  214MPD1    C1 3302   4.186   2.804  14.401 -0.0696  0.1293 -0.9195
  214MPD1    C2 3303   4.254   2.839  14.522  0.4091  0.3385 -0.3575
  214MPD1    C3 3304   4.364   2.918  14.522  0.5383 -0.2356  0.4881
  214MPD1    C4 3305   4.421   2.953  14.405  0.1749 -0.4019 -0.5672
  214MPD1    C5 3306   4.359   2.923  14.285  0.5153  0.1795  0.1101
  214MPD1     H 3307   4.205   2.822  14.617 -0.5689 -1.5134 -1.2088
  214MPD1    H1 3308   4.511   3.014  14.413 -2.1985  2.9584  0.2594
  214MPD1    H2 3309   4.197   2.826  14.190  0.5451 -1.6630  0.1973
  214MPD1    H3 3310   4.396   2.972  14.196  0.1334  2.3944  1.1689
  214MPD1     N 3311   4.428   2.967  14.642 -0.2968  1.1575 -0.3348
  214MPD1    H5 3312   4.497   3.041  14.635 -0.3088  1.0605 -1.3903
  214MPD1    N1 3313   4.068   2.723  14.404  0.3702  0.3565  0.2916
  214MPD1    H6 3314   4.017   2.730  14.316 -0.7066 -0.7871  0.8105
  214MPD1    H7 3315   4.089   2.624  14.419 -0.1714  0.4498  1.6577
  215MPD1     C 3316   1.174   4.051  10.962  0.0431  0.0512  0.4874
  215MPD1    C1 3317   1.122   4.172  10.990 -0.5746 -0.0764  0.6274
  215MPD1    C2 3318   0.982   4.177  10.992 -0.5488 -0.4593 -0.5869
  215MPD1    C3 3319   0.897   4.068  10.984  0.0680 -0.0254  0.3699
  215MPD1    C4 3320   0.958   3.950  10.962 -0.5502  0.1137 -0.7446
  215MPD1    C5 3321   1.094   3.944  10.941 -0.7984 -0.0673 -0.9392
  215MPD1     H 3322   0.942   4.278  10.990  2.4466  0.6774 -2.7542
  215MPD1    H1 3323   0.907   3.854  10.966 -1.5714  0.9392  5.2348
  215MPD1    H2 3324   1.281   4.031  10.961  0.3333  1.8695 -2.7440
  215MPD1    H3 3325   1.135   3.845  10.926 -1.0738 -0.2563 -0.4157
  215MPD1     N 3326   0.753   4.087  11.009  0.4315 -0.2822  0.7621
  215MPD1    H5 3327   0.718   4.178  11.033  0.8573  0.6088 -1.9324
  215MPD1    N1 3328   1.196   4.290  10.971 -0.5135 -0.2763 -0.2587
  215MPD1    H6 3329   1.147   4.366  11.017 -1.8738 -0.4377 -1.4681
  215MPD1    H7 3330   1.292   4.280  11.004 -1.3650 -1.2503  1.8929
  216MPD1     C 3331   2.184   1.610  17.335 -0.5572 -0.1131 -0.6242
  216MPD1    C1 3332   2.169   1.635  17.470  0.7263 -0.0284  0.2630
  216MPD1    C2 3333   2.218   1.540  17.555  0.0520 -0.4777 -0.0462
  216MPD1    C3 3334   2.287   1.431  17.512 -0.0336  0.0023 -0.8085
  216MPD1    C4 3335   2.313   1.419  17.380 -0.3987  0.8566  0.7425
  216MPD1    C5 3336   2.253   1.503  17.289  0.0854  0.8184  0.3538
  216MPD1     H 3337   2.204   1.540  17.663 -1.3082 -2.4567 -0.2100
  216MPD1    H1 3338   2.361   1.332  17.337  0.7049  1.0882  1.5251
  216MPD1    H2 3339   2.129   1.667  17.261  0.2820  0.5154 -0.7644
  216MPD1    H3 3340   2.281   1.484  17.186 -1.2802 -0.9183  0.3056
  216MPD1     N 3341   2.335   1.337  17.606  0.8596 -0.2001  0.4883
  216MPD1    H5 3342   2.320   1.359  17.703 -2.9521  1.5340 -0.4992
  216MPD1    N1 3343   2.079   1.728  17.516 -0.2839 -0.5138  0.1231
  216MPD1    H6 3344   2.092   1.821  17.476 -0.9158 -0.0446  1.0123
  216MPD1    H7 3345   2.090   1.742  17.616 -2.5734 -0.4763  0.3628
  217MPD1     C 3346   2.986   3.071   8.798  0.3590 -0.2031  0.7570
  217MPD1    C1 3347   3.037   2.955   8.845  0.0706  0.0446  0.1988
  217MPD1    C2 3348   3.061   2.953   8.990 -0.3209  0.1979 -0.1018
  217MPD1    C3 3349   3.033   3.057   9.078  0.6477  0.0611 -0.1948
  217MPD1    C4 3350   2.971   3.165   9.019 -0.3745  0.0911 -0.0368
  217MPD1    C5 3351   2.946   3.170   8.887 -0.6078  0.4850 -0.3506
  217MPD1     H 3352   3.104   2.864   9.033 -1.1491  0.5164  1.4053
  217MPD1    H1 3353   2.939   3.241   9.089  0.0970  0.1358  0.1284
  217MPD1    H2 3354   2.950   3.064   8.696  0.6124 -0.6907  0.6994
  217MPD1    H3 3355   2.887   3.255   8.855  0.4109  1.1524 -0.4802
  217MPD1     N 3356   3.054   3.060   9.220  0.0377  0.1208 -0.4083
  217MPD1    H5 3357   3.038   3.150   9.265  0.5111 -0.1463  0.2986
  217MPD1    N1 3358   3.092   2.869   8.756 -0.2243  0.1210 -0.8878
  217MPD1    H6 3359   3.041   2.865   8.668  0.1354 -3.6366 -0.9200
  217MPD1    H7 3360   3.105   2.771   8.783  0.1639  0.5950  0.6462
  218MPD1     C 3361   4.169   4.600  12.879  0.8182 -0.7156 -0.5019
  218MPD1    C1 3362   4.289   4.654  12.851  1.1152 -0.0129  0.1158
  218MPD1    C2 3363   4.389   4.573  12.803 -0.1032 -0.2205 -0.8607
  218MPD1    C3 3364   4.369   4.435  12.790 -0.3470  0.3214  0.9024
  218MPD1    C4 3365   4.247   4.377  12.838 -0.1671  0.0290 -0.0762
  218MPD1    C5 3366   4.150   4.463  12.878 -0.3075  0.0576  0.2926
  218MPD1     H 3367   4.484   4.614  12.771 -0.2006  0.5375 -0.1697
  218MPD1    H1 3368   4.240   4.270  12.858  1.3168 -0.4462 -2.1720
  218MPD1    H2 3369   4.084   4.663  12.904  0.9349 -0.8589  0.2670
  218MPD1    H3 3370   4.051   4.424  12.899  0.1924 -0.4400  1.7050
  218MPD1     N 3371   4.472   4.363  12.733 -0.0660 -0.0337 -0.3146
  218MPD1    H5 3372   4.547   4.415  12.687  0.5829 -0.0521  0.7115
  218MPD1    N1 3373   4.310   0.055  12.859 -0.2783 -0.2165 -0.0592
  218MPD1    H6 3374   4.232   0.092  12.912  0.2943  1.6717 -0.5318
  218MPD1    H7 3375   4.403   0.090  12.880 -0.0069 -1.7440  1.2858
  219MPD1     C 3376   0.426   4.625  12.138 -0.1650  0.8398 -0.5946
  219MPD1    C1 3377   0.289   4.602  12.136 -0.1616 -0.3472 -0.3171
  219MPD1    C2 3378   0.235   4.514  12.221 -0.1020  0.4813  0.2782
  219MPD1    C3 3379   0.311   4.442  12.315  0.4482  0.4217 -0.2000
  219MPD1    C4 3380   0.451   4.453  12.303 -0.0027 -0.0851 -0.2283
  219MPD1    C5 3381   0.507   4.543  12.216 -0.1313 -0.1760 -0.0252
  219MPD1     H 3382   0.127   4.504  12.227  0.0797 -1.1888  0.9733
  219MPD1    H1 3383   0.519   4.392  12.361  0.4832 -1.6858 -2.4948
  219MPD1    H2 3384   0.481   4.701  12.084  1.5433 -2.0158 -2.8527
  219MPD1    H3 3385   0.615   4.554  12.210  0.1331 -0.7792  3.2891
  219MPD1     N 3386   0.252   4.354  12.415 -0.6599 -0.1832  0.5047
  219MPD1    H5 3387   0.319   4.326  12.485  0.1418 -1.0950 -0.6283
  219MPD1    N1 3388   0.207   4.683  12.058  0.0585 -0.8206  0.4826
  219MPD1    H6 3389   0.119   4.648  12.020 -0.1482 -0.2921  0.4804
  219MPD1    H7 3390   0.261   4.704  11.974 -1.3003 -1.6975 -0.6101
  220MPD1     C 3391   4.090   0.317  10.026 -0.0574 -0.3818 -0.3779
  220MPD1    C1 3392   4.196   0.336  10.116 -0.4477 -0.1867  1.1563
  220MPD1    C2 3393   4.244   0.223  10.177 -0.1775 -0.2448  0.0635
  220MPD1    C3 3394   4.184   0.102  10.156  0.0532 -0.2603 -0.4596
  220MPD1    C4 3395   4.067   0.091  10.082 -0.2941  0.2774  0.5943
  220MPD1    C5 3396   4.026   0.200  10.015  0.3403  0.5471  0.4127
  220MPD1     H 3397   4.328   0.232  10.245  0.6798  1.2169 -1.1790
  220MPD1    H1 3398   4.005   0.004  10.066  0.2391 -0.1432  0.8181
  220MPD1    H2 3399   4.045   0.399   9.971  1.0914 -0.1360 -0.9401
  220MPD1    H3 3400   3.944   0.191   9.945 -0.0789 -1.8702  1.1950
  220MPD1     N 3401   4.237   0.004  10.242 -0.6624  0.0009 -0.0417
  220MPD1    H5 3402   4.326   0.024  10.285 -0.0160 -0.5060 -1.1625
  220MPD1    N1 3403   4.253   0.464  10.130  0.2898 -0.2082 -0.5274
  220MPD1    H6 3404   4.176   0.529  10.119 -0.4198 -0.9028  0.3142
  220MPD1    H7 3405   4.307   0.482  10.214 -0.2285 -0.9266 -0.0442
  221MPD1     C 3406   2.325   3.718  15.440  0.6690 -1.0677 -0.0846
  221MPD1    C1 3407   2.365   3.836  15.506 -0.1117  0.3599 -0.5508
  221MPD1    C2 3408   2.427   3.818  15.631 -0.0139  0.3425  0.2075
  221MPD1    C3 3409   2.469   3.693  15.678  0.1969  0.3454 -0.5136
  221MPD1    C4 3410   2.434   3.581  15.603 -0.5723  0.4010 -0.2060
  221MPD1    C5 3411   2.368   3.594  15.482  0.1374 -0.3088  0.2772
  221MPD1     H 3412   2.462   3.900  15.693 -1.1103  0.0911  1.1594
  221MPD1    H1 3413   2.472   3.484  15.634 -0.6921  0.1206 -0.9325
  221MPD1    H2 3414   2.282   3.738  15.342  0.4265  0.8603  0.4018
  221MPD1    H3 3415   2.366   3.510  15.414  0.5858 -0.3847  0.3560
  221MPD1     N 3416   2.558   3.668  15.785 -0.0452 -0.0663  0.1935
  221MPD1    H5 3417   2.600   3.575  15.783 -0.2203 -0.0748 -2.2572
  221MPD1    N1 3418   2.306   3.962  15.475  0.2521  0.2230 -0.5524
  221MPD1    H6 3419   2.355   4.041  15.517  1.0980 -0.6368  0.0695
  221MPD1    H7 3420   2.289   3.966  15.375 -2.8469 -0.8651 -0.0678
  222MPD1     C 3421   2.094   2.429  17.422  0.1440 -0.0976 -0.5364
  222MPD1    C1 3422   2.002   2.343  17.354  0.1324 -0.2125  0.5172
  222MPD1    C2 3423   1.924   2.247  17.422 -0.3774 -0.6191 -0.5565
  222MPD1    C3 3424   1.957   2.232  17.555 -0.4908  0.0205 -0.0329
  222MPD1    C4 3425   2.047   2.323  17.617  0.3139 -0.6273 -1.1420
  222MPD1    C5 3426   2.118   2.425  17.552 -0.2193  0.8286 -0.0872
  222MPD1     H 3427   1.865   2.170  17.373 -2.7515  1.0769 -0.3568
  222MPD1    H1 3428   2.069   2.309  17.723  1.1615  0.0243 -1.2271
  222MPD1    H2 3429   2.151   2.504  17.369  0.1138 -0.0854 -0.5518
  222MPD1    H3 3430   2.176   2.499  17.605  3.0189 -0.7000 -1.4534
  222MPD1     N 3431   1.903   2.129  17.637  0.1412 -0.3329 -0.4271
  222MPD1    H5 3432   1.933   2.121  17.733  2.2195  0.7346 -0.9882
  222MPD1    N1 3433   1.990   2.360  17.213  0.1686  0.1892  0.3320
  222MPD1    H6 3434   2.031   2.450  17.190  4.3808 -1.5874  0.9006
  222MPD1    H7 3435   1.904   2.344  17.161 -0.3266  1.6410  0.7007
  223MPD1     C 3436   1.810   1.120  17.592  0.2413  0.3858 -0.6094
  223MPD1    C1 3437   1.912   1.204  17.561 -0.1112 -0.0777 -0.1408
  223MPD1    C2 3438   1.901   1.343  17.580  0.0140 -0.4891 -1.3155
  223MPD1    C3 3439   1.780   1.394  17.630  0.4388 -0.0556  0.0931
  223MPD1    C4 3440   1.687   1.303  17.672  0.4941  0.6344  0.6844
  223MPD1    C5 3441   1.704   1.169  17.654 -0.1499 -0.6420  0.2760
  223MPD1     H 3442   1.983   1.407  17.549 -1.3385  0.8209 -2.1703
  223MPD1    H1 3443   1.596   1.334  17.722  0.3031 -0.5135  1.0643
  223MPD1    H2 3444   1.809   1.013  17.573  1.4103  0.0033  1.4434
  223MPD1    H3 3445   1.634   1.092  17.685 -0.8326 -0.1542 -0.0401
  223MPD1     N 3446   1.766   1.535  17.661  0.7550 -0.1537 -0.1322
  223MPD1    H5 3447   1.829   1.602  17.616  0.6838  0.4222  0.6320
  223MPD1    N1 3448   2.028   1.146  17.492  0.0768  0.2035  0.3633
  223MPD1    H6 3449   2.110   1.204  17.503  0.7065 -0.7771  0.8010
  223MPD1    H7 3450   2.035   1.051  17.527 -3.2201 -0.0911  0.2841
  224MPD1     C 3451   3.190   3.402   9.399  0.2056  0.1337 -0.4084
  224MPD1    C1 3452   3.116   3.502   9.464  0.2682  0.2171  0.2881
  224MPD1    C2 3453   3.139   3.522   9.600 -0.3407  0.1644 -0.9039
  224MPD1    C3 3454   3.258   3.477   9.659 -0.6551  0.0628  0.2276
  224MPD1    C4 3455   3.339   3.388   9.590 -0.5676  0.3520 -0.1028
  224MPD1    C5 3456   3.297   3.351   9.462 -0.7319 -0.0515 -0.2947
  224MPD1     H 3457   3.061   3.562   9.664  0.6673 -1.0015  1.0859
  224MPD1    H1 3458   3.431   3.350   9.632 -0.5227  0.5640 -0.0078
  224MPD1    H2 3459   3.175   3.376   9.295  1.3275  1.5339 -0.9196
  224MPD1    H3 3460   3.361   3.283   9.407 -0.2821 -0.2051  0.4174
  224MPD1     N 3461   3.292   3.508   9.791 -0.9127 -0.7957 -0.2505
  224MPD1    H5 3462   3.362   3.450   9.836  0.3937  0.8606 -0.1223
  224MPD1    N1 3463   3.002   3.558   9.399 -0.0609  0.2136  0.1262
  224MPD1    H6 3464   3.033   3.584   9.305  0.2991 -0.6931 -0.0043
  224MPD1    H7 3465   2.965   3.644   9.439 -0.4615  0.0929  0.0153
  225MPD1     C 3466   4.697   0.204  12.530 -0.6040 -0.1805  0.4039
  225MPD1    C1 3467   4.645   0.078  12.492 -0.2998 -0.0984  0.0962
  225MPD1    C2 3468   4.502   0.067  12.491 -0.3369 -0.1838 -0.4663
  225MPD1    C3 3469   4.422   0.172  12.532 -0.2365  0.2835 -0.4341
  225MPD1    C4 3470   4.477   0.291  12.570 -0.3053 -0.2178  0.0294
  225MPD1    C5 3471   4.614   0.306  12.570 -0.3911 -0.2137 -0.8629
  225MPD1     H 3472   4.460   4.710  12.456  0.2879 -0.7053  0.1836
  225MPD1    H1 3473   4.414   0.365  12.618 -0.9118 -0.1355 -0.8910
  225MPD1    H2 3474   0.067   0.218  12.524 -0.4453 -2.1786 -1.5009
  225MPD1    H3 3475   4.658   0.403  12.594 -1.4673  0.1126 -0.2505
  225MPD1     N 3476   4.282   0.161  12.543  0.5342 -0.3174 -0.1329
  225MPD1    H5 3477   4.232   0.243  12.575  0.1407  0.3569 -2.4360
  225MPD1    N1 3478   4.725   4.717  12.425 -0.3069 -0.3331  0.2700
  225MPD1    H6 3479   4.674   4.632  12.448 -1.1450  0.0547 -0.1627
  225MPD1    H7 3480   0.077   4.707  12.472 -0.7815 -2.6741  0.6763
  226MPD1     C 3481   3.250   0.980   8.974 -0.4527 -0.1307 -0.4187
  226MPD1    C1 3482   3.148   0.903   8.921 -0.3840  0.3318  0.3984
  226MPD1    C2 3483   3.115   0.788   8.981  0.3810 -0.0915  0.3236
  226MPD1    C3 3484   3.192   0.735   9.083 -0.2283  0.9217  0.0647
  226MPD1    C4 3485   3.297   0.812   9.135  0.0073 -0.8939  0.0720
  226MPD1    C5 3486   3.322   0.937   9.081 -0.0733 -0.1520 -0.1650
  226MPD1     H 3487   3.026   0.736   8.946  2.0066 -1.9346 -1.0392
  226MPD1    H1 3488   3.363   0.783   9.216  0.6393  0.5577  0.0795
  226MPD1    H2 3489   3.278   1.074   8.928  1.5598 -1.4663 -1.9377
  226MPD1    H3 3490   3.402   0.996   9.124 -1.4266  1.8703 -0.4256
  226MPD1     N 3491   3.150   0.609   9.131 -0.1702  0.0658  0.2346
  226MPD1    H5 3492   3.061   0.586   9.088 -0.9201  2.2130  0.6115
  226MPD1    N1 3493   3.070   0.947   8.811 -0.4017  0.0877 -0.1088
  226MPD1    H6 3494   3.033   0.868   8.758 -0.6195 -1.6508  2.6722
  226MPD1    H7 3495   3.114   1.015   8.749  0.2410 -0.9887 -0.8199
  227MPD1     C 3496   2.425   4.666   9.077 -0.3120  0.0072 -0.1352
  227MPD1    C1 3497   2.526   4.580   9.107  0.3535 -0.0504  0.0449
  227MPD1    C2 3498   2.651   4.641   9.123  0.4494 -0.2923  0.0527
  227MPD1    C3 3499   2.672   0.038   9.114 -0.1494  0.6242  0.0210
  227MPD1    C4 3500   2.564   0.120   9.101  0.1660  0.8026 -0.2588
  227MPD1    C5 3501   2.442   0.060   9.089 -0.0170 -0.1615  0.5421
  227MPD1     H 3502   2.735   4.575   9.144  0.2222 -0.5521  0.1460
  227MPD1    H1 3503   2.566   0.227   9.119  1.3315  0.7055  0.1682
  227MPD1    H2 3504   2.331   4.631   9.037  0.0202  0.6961 -1.5395
  227MPD1    H3 3505   2.352   0.120   9.084 -0.7920 -1.0694  3.4109
  227MPD1     N 3506   2.808   0.087   9.140 -0.0990 -0.2888  0.2560
  227MPD1    H5 3507   2.872   0.014   9.169  1.6841  1.7197  1.3451
  227MPD1    N1 3508   2.509   4.440   9.106  0.2866  0.6495 -0.2232
  227MPD1    H6 3509   2.414   4.413   9.131  0.5881  0.7916  1.0741
  227MPD1    H7 3510   2.575   4.391   9.166 -1.4363 -2.1510 -0.6163
  228MPD1     C 3511   1.310   2.729  13.278  0.3379 -0.3881 -0.3409
  228MPD1    C1 3512   1.305   2.740  13.144  0.4111 -0.4694  1.3176
  228MPD1    C2 3513   1.201   2.671  13.080  0.7978  0.0859 -0.3577
  228MPD1    C3 3514   1.128   2.576  13.151 -0.0374  0.7592  0.7812
  228MPD1    C4 3515   1.142   2.554  13.283  0.0577  0.2294  0.3188
  228MPD1    C5 3516   1.224   2.649  13.347  0.6470  0.3056 -1.0062
  228MPD1     H 3517   1.193   2.675  12.972  0.8696 -1.8197 -0.4364
  228MPD1    H1 3518   1.073   2.489  13.335  0.9320 -0.9665 -0.0162
  228MPD1    H2 3519   1.386   2.782  13.333 -0.4193 -0.0144  0.3424
  228MPD1    H3 3520   1.215   2.665  13.453  1.8611  1.7323 -1.1296
  228MPD1     N 3521   1.031   2.490  13.081  0.8738 -0.1735  0.5350
  228MPD1    H5 3522   0.965   2.442  13.141  0.4382 -1.1125 -0.6857
  228MPD1    N1 3523   1.381   2.836  13.081  0.3992  0.1910  0.6889
  228MPD1    H6 3524   1.473   2.839  13.124 -0.3890  0.4118  2.3670
  228MPD1    H7 3525   1.387   2.821  12.980 -0.3852 -1.1438  0.8270
  229MPD1     C 3526   1.895   1.854  15.065 -0.0326  0.1374  0.8003
  229MPD1    C1 3527   1.774   1.919  15.095 -0.5228 -0.0629 -0.2001
  229MPD1    C2 3528   1.666   1.852  15.164  0.0931 -0.2236  0.2323
  229MPD1    C3 3529   1.678   1.713  15.207  0.0817 -0.8313  0.2424
  229MPD1    C4 3530   1.804   1.654  15.186  0.2065  0.6300  0.1108
  229MPD1    C5 3531   1.902   1.723  15.118  0.1715  0.2878  0.5794
  229MPD1     H 3532   1.574   1.904  15.190 -0.2815 -0.2034 -1.1417
  229MPD1    H1 3533   1.819   1.550  15.213 -0.9790  0.5942  0.6534
  229MPD1    H2 3534   1.979   1.902  15.018 -0.1053 -1.0304 -0.5023
  229MPD1    H3 3535   1.995   1.671  15.101  0.8209  1.5003  0.4028
  229MPD1     N 3536   1.578   1.634  15.272 -0.1293 -0.0560  0.1496
  229MPD1    H5 3537   1.609   1.546  15.313  0.1098 -0.5623 -1.1427
  229MPD1    N1 3538   1.758   2.060  15.075  0.0061 -0.2423  0.4534
  229MPD1    H6 3539   1.813   2.098  14.999  0.8165 -5.0710 -1.3565
  229MPD1    H7 3540   1.664   2.076  15.041  0.4799  0.9295 -0.3167
  230MPD1     C 3541   1.048   1.548  16.202 -0.4304  0.0630  0.7204
  230MPD1    C1 3542   1.054   1.414  16.156  0.9939  0.5248  0.7188
  230MPD1    C2 3543   1.098   1.387  16.027 -0.4843 -0.1137 -0.5746
  230MPD1    C3 3544   1.135   1.493  15.941  0.1888 -0.0681 -0.6632
  230MPD1    C4 3545   1.126   1.625  15.988  0.7276  0.5274  0.0991
  230MPD1    C5 3546   1.093   1.644  16.124 -0.6504 -0.4890  0.8685
  230MPD1     H 3547   1.114   1.283  16.000  1.1201  0.0482 -0.2362
  230MPD1    H1 3548   1.148   1.714  15.929 -0.4169  1.7366  1.4850
  230MPD1    H2 3549   1.014   1.578  16.301 -0.4110 -1.2051  1.1074
  230MPD1    H3 3550   1.085   1.739  16.174  0.4279  0.8728 -1.5260
  230MPD1     N 3551   1.186   1.473  15.805  0.0575 -0.2576 -0.0321
  230MPD1    H5 3552   1.217   1.378  15.785 -0.1004 -1.1647  4.1153
  230MPD1    N1 3553   1.006   1.314  16.241 -0.1014 -0.0117 -0.2443
  230MPD1    H6 3554   1.031   1.219  16.213 -0.3942 -0.7851  2.1004
  230MPD1    H7 3555   0.907   1.318  16.261 -0.1237 -0.7807 -0.1982
  231MPD1     C 3556   4.492   3.110  15.342 -0.1606 -1.0362 -0.4053
  231MPD1    C1 3557   4.407   3.175  15.254 -0.2762  0.7638 -0.0224
  231MPD1    C2 3558   4.455   3.294  15.199  0.4392  0.7317  0.7045
  231MPD1    C3 3559   4.575   3.354  15.216 -0.4650 -0.1119 -0.1755
  231MPD1    C4 3560   4.661   3.276  15.292  0.0858  0.5771  0.7729
  231MPD1    C5 3561   4.610   3.163  15.353  0.6762  0.3095  0.5214
  231MPD1     H 3562   4.379   3.353  15.149  0.7857 -1.5786 -2.5585
  231MPD1    H1 3563   0.023   3.315  15.314  0.6832 -0.1499 -0.6431
  231MPD1    H2 3564   4.473   3.025  15.406 -1.0104 -0.8057 -0.3588
  231MPD1    H3 3565   4.673   3.107  15.421  0.7476  0.3797  0.5132
  231MPD1     N 3566   4.611   3.476  15.157  0.1992 -0.3949  0.0647
  231MPD1    H5 3567   4.539   3.507  15.092  1.9662 -0.8290 -2.1132
  231MPD1    N1 3568   4.271   3.142  15.245 -0.2548  0.2352  0.6612
  231MPD1    H6 3569   4.267   3.042  15.266 -0.1209  0.8582  3.5797
  231MPD1    H7 3570   4.230   3.163  15.155  1.7738  2.0724  0.1519
  232MPD1     C 3571   1.789   0.785   0.879  0.1702 -0.1039  0.4659
  232MPD1    C1 3572   1.825   0.657   0.863  0.0832 -0.7517 -0.3038
  232MPD1    C2 3573   1.720   0.572   0.833 -1.2028 -0.5849 -0.7716
  232MPD1    C3 3574   1.593   0.618   0.815 -0.5586 -0.0068 -0.0799
  232MPD1    C4 3575   1.561   0.746   0.842 -0.5807 -0.1677 -0.2511
  232MPD1    C5 3576   1.659   0.826   0.885  0.1282  0.0375 -0.4830
  232MPD1     H 3577   1.740   0.466   0.822 -1.0946 -0.7649  1.1166
  232MPD1    H1 3578   1.465   0.797   0.840 -0.0805  0.8155  0.7631
  232MPD1    H2 3579   1.865   0.855   0.912 -2.4655  2.1521  1.7622
  232MPD1    H3 3580   1.636   0.926   0.919 -0.4321  0.1746 -1.2478
  232MPD1     N 3581   1.500   0.515   0.773  0.3715 -0.5878 -0.4097
  232MPD1    H5 3582   1.532   0.420   0.757 -1.2358 -1.1502 -0.2482
  232MPD1    N1 3583   1.958   0.622   0.843  0.3141 -0.1413 -0.3950
  232MPD1    H6 3584   1.985   0.525   0.860 -1.1722 -0.2350  1.4215
  232MPD1    H7 3585   2.018   0.682   0.898 -0.0328  1.9849 -2.3297
  233MPD1     C 3586   1.817   2.967   2.259 -0.7413 -0.2508  0.4176
  233MPD1    C1 3587   1.946   3.014   2.282  0.1958 -0.3523  0.5295
  233MPD1    C2 3588   2.031   3.059   2.180 -0.0966  0.5521  0.7415
  233MPD1    C3 3589   1.987   3.033   2.048 -0.2007 -0.4197 -0.3619
  233MPD1    C4 3590   1.859   2.977   2.033 -0.0566 -0.7589  0.6084
  233MPD1    C5 3591   1.772   2.952   2.133  0.2824 -0.9848 -0.5232
  233MPD1     H 3592   2.127   3.102   2.201  0.3778  0.4625 -1.2607
  233MPD1    H1 3593   1.832   2.958   1.929  1.2692 -2.2897  0.5462
  233MPD1    H2 3594   1.748   2.953   2.342 -0.6233 -0.7763  0.4261
  233MPD1    H3 3595   1.669   2.926   2.109 -0.8155  3.7988 -0.9328
  233MPD1     N 3596   2.062   3.045   1.929 -0.8126  0.1249  0.6088
  233MPD1    H5 3597   2.016   3.027   1.840  2.0409 -0.4845 -0.7231
  233MPD1    N1 3598   1.968   3.047   2.419 -0.0086  0.0241  0.4291
  233MPD1    H6 3599   2.061   3.020   2.451 -0.8169  0.3438  3.0825
  233MPD1    H7 3600   1.902   3.004   2.483  0.6828 -2.8621 -0.8003
  234MPD1     C 3601   4.405   2.188  10.286  0.7555  0.1421  0.1249
  234MPD1    C1 3602   4.319   2.184  10.173  0.5654  0.0725 -0.6003
  234MPD1    C2 3603   4.231   2.289  10.155  0.2051 -0.2062 -0.5170
  234MPD1    C3 3604   4.233   2.400  10.239  0.2223 -0.3724  0.1670
  234MPD1    C4 3605   4.319   2.397  10.348 -0.1109 -0.3850 -0.1123
  234MPD1    C5 3606   4.405   2.293  10.374  0.0458 -0.0010 -0.2986
  234MPD1     H 3607   4.162   2.288  10.071  0.1302 -1.0448 -0.4469
  234MPD1    H1 3608   4.313   2.466  10.431  0.2079 -0.1324 -0.2983
  234MPD1    H2 3609   4.467   2.104  10.314 -1.5588 -0.8258  2.4130
  234MPD1    H3 3610   4.463   2.280  10.466 -1.2538  0.0442  0.5261
  234MPD1     N 3611   4.146   2.515  10.211  0.3442  0.2357 -0.3298
  234MPD1    H5 3612   4.103   2.517  10.119  3.0573 -0.2799 -1.6111
  234MPD1    N1 3613   4.314   2.071  10.091  0.1883  0.3993 -0.2262
  234MPD1    H6 3614   4.404   2.024  10.095  0.0444  0.2485  1.2869
  234MPD1    H7 3615   4.293   2.082   9.992  0.7392  1.1327 -0.2636
  235MPD1     C 3616   4.402   4.228  10.204  0.2921  0.2962 -0.3765
  235MPD1    C1 3617   4.487   4.231  10.312  0.4531  0.4122 -0.2646
  235MPD1    C2 3618   4.568   4.341  10.332 -0.0621 -0.1439 -0.6093
  235MPD1    C3 3619   4.549   4.458  10.262 -0.6619  0.2081 -0.0228
  235MPD1    C4 3620   4.449   4.460  10.173  0.4191 -0.2218  0.0754
  235MPD1    C5 3621   4.379   4.349  10.138  0.3190  0.0536 -0.1865
  235MPD1     H 3622   4.646   4.333  10.406 -1.5594 -0.2168  0.9582
  235MPD1    H1 3623   4.424   4.553  10.123 -3.1038 -1.8223 -1.1703
  235MPD1    H2 3624   4.343   4.145  10.166  1.6112  0.2124 -2.3018
  235MPD1    H3 3625   4.300   4.359  10.064  0.5534  0.8663 -0.3238
  235MPD1     N 3626   4.641   4.570  10.302  0.0020  0.2159 -0.2852
  235MPD1    H5 3627   4.725   4.549  10.355 -0.5792 -1.7035 -0.1336
  235MPD1    N1 3628   4.533   4.110  10.364  0.5497  0.2666 -0.3686
  235MPD1    H6 3629   4.573   4.119  10.457  2.6484 -1.4554 -1.1096
  235MPD1    H7 3630   4.461   4.038  10.376  1.4011 -0.5047  0.0783
  236MPD1     C 3631   4.219   1.123  10.181 -0.0975 -0.8866  0.0949
  236MPD1    C1 3632   4.244   1.220  10.275  0.1672  0.0877 -0.2014
  236MPD1    C2 3633   4.360   1.209  10.353 -0.1129 -0.3341  0.0262
  236MPD1    C3 3634   4.441   1.095  10.351 -1.1924 -0.4295  0.2580
  236MPD1    C4 3635   4.390   0.988  10.283  0.3635 -1.0779 -0.3061
  236MPD1    C5 3636   4.290   1.006  10.195 -0.2185 -0.5872  0.1694
  236MPD1     H 3637   4.386   1.302  10.403  0.4020  0.1268 -1.1015
  236MPD1    H1 3638   4.437   0.890  10.285  1.7064 -0.3898  1.2035
  236MPD1    H2 3639   4.135   1.128  10.114  0.1226 -1.1184 -0.1985
  236MPD1    H3 3640   4.258   0.924  10.133 -0.1242 -0.4306 -0.0840
  236MPD1     N 3641   4.557   1.080  10.429 -0.7020 -0.5308 -0.2879
  236MPD1    H5 3642   4.596   0.987  10.421 -2.4583 -1.1956 -1.1883
  236MPD1    N1 3643   4.171   1.340  10.259  0.4283 -0.1195 -0.4866
  236MPD1    H6 3644   4.175   1.390  10.348 -1.5310  0.3433 -0.6686
  236MPD1    H7 3645   4.073   1.325  10.237  0.5948 -2.7306  0.5613
  237MPD1     C 3646   4.658   4.357  15.242 -0.4246 -0.1805 -0.2743
  237MPD1    C1 3647   4.655   4.280  15.356 -0.9204  0.1822  0.2979
  237MPD1    C2 3648   4.582   4.333  15.464  1.0922  0.3034  0.3542
  237MPD1    C3 3649   4.488   4.438  15.440 -1.4711  0.6732  0.3125
  237MPD1    C4 3650   4.486   4.496  15.319  0.2339  0.3904 -0.2116
  237MPD1    C5 3651   4.572   4.457  15.224 -0.1676 -0.0405  0.5305
  237MPD1     H 3652   4.581   4.287  15.562 -1.6197  0.2731  0.3312
  237MPD1    H1 3653   4.419   4.579  15.302 -0.2388  0.2520  0.9737
  237MPD1    H2 3654   4.721   4.336  15.157 -0.4197  1.0926 -0.5772
  237MPD1    H3 3655   4.554   4.494  15.123 -1.9632 -3.1257 -0.2805
  237MPD1     N 3656   4.380   4.476  15.516  0.0068 -0.6737 -0.0531
  237MPD1    H5 3657   4.321   4.554  15.487 -2.5695 -2.7423 -0.4674
  237MPD1    N1 3658   0.019   4.180  15.372 -0.3071 -0.1972 -0.5377
  237MPD1    H6 3659   0.064   4.136  15.292  1.3264  1.4904 -0.5398
  237MPD1    H7 3660   0.011   4.114  15.449  1.4781 -3.0155 -2.7497
  238MPD1     C 3661   1.400   3.085  15.542 -0.3793  0.0864 -0.0017
  238MPD1    C1 3662   1.440   3.005  15.442  0.3239  0.1255 -0.0166
  238MPD1    C2 3663   1.354   2.984  15.338 -0.1556  0.2336  0.4805
  238MPD1    C3 3664   1.223   3.031  15.341 -0.3507  0.2037 -0.4401
  238MPD1    C4 3665   1.192   3.119  15.444 -0.0599 -0.2684 -0.3228
  238MPD1    C5 3666   1.280   3.146  15.543  0.5463  0.5888 -0.3931
  238MPD1     H 3667   1.374   2.908  15.264 -1.4011 -0.4948  0.8806
  238MPD1    H1 3668   1.090   3.151  15.463 -0.5544 -1.6342 -0.7224
  238MPD1    H2 3669   1.462   3.110  15.628  1.5744 -1.9881 -0.8048
  238MPD1    H3 3670   1.235   3.203  15.624  0.0771  0.6066 -0.6693
  238MPD1     N 3671   1.125   3.005  15.239 -0.3037 -0.0669 -0.3343
  238MPD1    H5 3672   1.038   3.055  15.249  0.1789  0.8984 -0.9004
  238MPD1    N1 3673   1.558   2.933  15.454  0.0117 -0.4402  0.1482
  238MPD1    H6 3674   1.636   2.974  15.506  0.2927 -0.1582 -0.5073
  238MPD1    H7 3675   1.597   2.882  15.375  0.6846  1.0568 -0.4785
  239MPD1     C 3676   1.504   3.244  15.106 -0.0627 -0.1155 -0.2889
  239MPD1    C1 3677   1.583   3.236  14.994  0.2969  0.3364  0.7678
  239MPD1    C2 3678   1.603   3.355  14.924 -0.1500  0.5955 -0.8082
  239MPD1    C3 3679   1.521   3.469  14.954  0.2480  0.4984 -0.2604
  239MPD1    C4 3680   1.433   3.464  15.061 -0.1628 -0.1672  0.3287
  239MPD1    C5 3681   1.428   3.348  15.138 -0.4224 -0.7265 -0.9777
  239MPD1     H 3682   1.668   3.343  14.838  0.8246 -0.9805  0.1669
  239MPD1    H1 3683   1.379   3.549  15.101  1.3141  1.0287 -0.2583
  239MPD1    H2 3684   1.504   3.156  15.169  0.8160  0.3600  0.3623
  239MPD1    H3 3685   1.366   3.354  15.227 -0.6160 -1.9239 -1.0358
  239MPD1     N 3686   1.530   3.591  14.898  0.1228  0.0972 -0.6037
  239MPD1    H5 3687   1.460   3.660  14.926  1.0686  0.1040  1.7300
  239MPD1    N1 3688   1.667   3.124  14.959  0.4009 -0.7697 -0.1050
  239MPD1    H6 3689   1.633   3.035  14.996  0.0507 -1.0655 -1.1520
  239MPD1    H7 3690   1.670   3.131  14.858 -1.6078  1.5423 -0.0043
  240MPD1     C 3691   1.206   3.787  14.123  0.3290  0.9707  0.5404
  240MPD1    C1 3692   1.262   3.692  14.209 -0.8417  0.2427  0.2430
  240MPD1    C2 3693   1.166   3.621  14.281  0.1540  0.1705 -0.5253
  240MPD1    C3 3694   1.030   3.643  14.280 -0.2372 -0.0822  0.4235
  240MPD1    C4 3695   0.985   3.754  14.212 -0.4393 -0.0993  0.0833
  240MPD1    C5 3696   1.075   3.815  14.129 -0.9440  0.7809 -0.0324
  240MPD1     H 3697   1.198   3.529  14.329  2.5440  2.1552  1.6735
  240MPD1    H1 3698   0.882   3.786  14.199  0.2776  2.4367  0.6836
  240MPD1    H2 3699   1.264   3.825  14.039 -0.8873  0.2307 -0.6309
  240MPD1    H3 3700   1.040   3.887  14.055  0.3377  0.8503 -0.5679
  240MPD1     N 3701   0.947   3.553  14.354  0.0319  0.3981  0.0308
  240MPD1    H5 3702   0.986   3.466  14.389  2.8040  1.7675  0.3733
  240MPD1    N1 3703   1.392   3.647  14.185 -0.1840  0.0165  0.2571
  240MPD1    H6 3704   1.437   3.595  14.261  2.1652  0.9994 -0.4430
  240MPD1    H7 3705   1.450   3.730  14.172  1.1536 -1.0031 -0.2303
  241MPD1     C 3706   1.035   3.392  15.222 -0.6499 -0.0441 -1.1273
  241MPD1    C1 3707   0.934   3.298  15.197  0.0833  0.2829  0.4981
  241MPD1    C2 3708   0.893   3.297  15.064 -0.2487 -0.0958  0.4072
  241MPD1    C3 3709   0.929   3.392  14.974  0.6496  0.5290  0.0775
  241MPD1    C4 3710   1.028   3.479  15.006 -0.3602 -0.1874 -0.2967
  241MPD1    C5 3711   1.078   3.484  15.134 -0.4247  0.7710 -0.4424
  241MPD1     H 3712   0.826   3.216  15.037  1.5148 -1.7542  1.0147
  241MPD1    H1 3713   1.078   3.542  14.933  4.0038 -1.4339  1.6148
  241MPD1    H2 3714   1.085   3.400  15.318 -1.2775 -3.8806 -0.4776
  241MPD1    H3 3715   1.163   3.546  15.160 -1.2955  1.4366  0.8396
  241MPD1     N 3716   0.870   3.411  14.839  0.4009 -0.0543 -0.5323
  241MPD1    H5 3717   0.903   3.482  14.775  0.0695  1.3168  0.8343
  241MPD1    N1 3718   0.908   3.189  15.286 -0.7752  0.2900 -0.4292
  241MPD1    H6 3719   0.821   3.139  15.276 -0.2425 -0.9202  0.9425
  241MPD1    H7 3720   0.919   3.226  15.381  0.4993  2.1792 -1.3041
  242MPD1     C 3721   0.911   2.938  15.589  0.3850 -1.1423  0.5474
  242MPD1    C1 3722   0.785   2.881  15.593  0.2077  0.3642  0.4079
  242MPD1    C2 3723   0.763   2.751  15.575 -0.2948 -0.2869  0.0396
  242MPD1    C3 3724   0.872   2.662  15.558 -0.7499  0.6263  0.1282
  242MPD1    C4 3725   0.999   2.711  15.571 -0.0913  0.2845 -0.3197
  242MPD1    C5 3726   1.014   2.844  15.585 -0.0653 -0.1722  0.2553
  242MPD1     H 3727   0.663   2.710  15.571 -0.2979 -0.1747 -1.2103
  242MPD1    H1 3728   1.088   2.652  15.557 -0.0480  1.3518 -4.7282
  242MPD1    H2 3729   0.937   3.042  15.606  1.1895 -1.0453 -1.3588
  242MPD1    H3 3730   1.115   2.881  15.599 -0.4719  1.5492 -1.2257
  242MPD1     N 3731   0.857   2.521  15.542 -0.3167  0.2149  0.3432
  242MPD1    H5 3732   0.932   2.453  15.553 -1.4468 -1.1263 -0.2685
  242MPD1    N1 3733   0.671   2.958  15.603  0.5542 -0.1642  0.3515
  242MPD1    H6 3734   0.584   2.917  15.637  1.1907 -0.0116  2.1652
  242MPD1    H7 3735   0.692   3.056  15.619 -1.8989  0.2699  0.9291
  243MPD1     C 3736   1.626   0.148   0.125 -0.2901 -0.2350 -0.6426
  243MPD1    C1 3737   1.672   0.185  17.745 -0.0824 -0.0494 -0.2224
  243MPD1    C2 3738   1.779   0.123  17.700 -0.4800  0.4849  0.8399
  243MPD1    C3 3739   1.844   0.024   0.023 -0.7479  0.6375 -0.5993
  243MPD1    C4 3740   1.795   4.719   0.142  0.8656 -0.4215  0.3183
  243MPD1    C5 3741   1.682   0.045   0.192 -0.2415  0.1091 -0.8289
  243MPD1     H 3742   1.816   0.169  17.609  0.8723 -0.6880  0.8048
  243MPD1    H1 3743   1.837   4.638   0.201  0.2515  0.1548  1.5428
  243MPD1    H2 3744   1.558   0.210   0.183  0.5573 -0.1446  0.2512
  243MPD1    H3 3745   1.640   0.016   0.288 -0.9090  1.8531 -0.5876
  243MPD1     N 3746   1.959   4.706  17.706  0.5263 -0.2073  0.4855
  243MPD1    H5 3747   1.965   4.728  17.607  0.5572  0.9059  0.7385
  243MPD1    N1 3748   1.622   0.305  17.681  0.8800 -0.0776  0.0715
  243MPD1    H6 3749   1.635   0.294  17.581  1.6562  0.2977  0.1288
  243MPD1    H7 3750   1.524   0.320  17.706 -0.1239 -1.9620 -2.6648
  244MPD1     C 3751   2.535   3.790  17.594  0.4936 -0.7128 -0.0137
  244MPD1    C1 3752   2.551   3.854  17.473  0.4382  0.4984  0.5401
  244MPD1    C2 3753   2.489   3.980  17.454  0.4224  0.2804 -0.1163
  244MPD1    C3 3754   2.428   4.042  17.564  1.0268  0.3864  0.1932
  244MPD1    C4 3755   2.406   3.965  17.684 -1.0104  0.5297  0.3671
  244MPD1    C5 3756   2.462   3.842  17.699 -0.1768 -0.0707  0.2113
  244MPD1     H 3757   2.491   4.020  17.354 -2.0566  1.1729  0.1969
  244MPD1    H1 3758   2.352   4.002   0.023  1.0876  1.8277  1.1356
  244MPD1    H2 3759   2.571   3.688  17.607 -0.9924 -1.1265  0.8894
  244MPD1    H3 3760   2.448   3.782   0.041  0.8548  0.4361  0.7154
  244MPD1     N 3761   2.383   4.177  17.543 -0.1257  0.5132  0.5044
  244MPD1    H5 3762   2.426   4.226  17.466 -0.6302 -0.7935 -0.6037
  244MPD1    N1 3763   2.617   3.793  17.366  0.2591 -0.3964 -0.2861
  244MPD1    H6 3764   2.691   3.726  17.389 -0.1794 -0.5717  0.6427
  244MPD1    H7 3765   2.647   3.843  17.283  1.3228  0.9876  0.9331
  245MPD1     C 3766   3.091   0.982  13.612 -0.9691 -0.4302 -0.1285
  245MPD1    C1 3767   3.150   1.014  13.732  0.5749 -0.2448  0.3262
  245MPD1    C2 3768   3.278   1.065  13.728 -0.0900 -0.6289 -0.9957
  245MPD1    C3 3769   3.342   1.108  13.612 -0.1513 -0.0467  0.4908
  245MPD1    C4 3770   3.279   1.068  13.491 -1.0034 -0.3535  0.1752
  245MPD1    C5 3771   3.155   1.010  13.493  0.4772 -0.2236 -0.4426
  245MPD1     H 3772   3.326   1.089  13.822 -1.5863  0.7164 -0.5646
  245MPD1    H1 3773   3.336   1.077  13.399 -1.1304 -0.0753  0.1206
  245MPD1    H2 3774   2.991   0.942  13.603 -1.4502  0.8446 -0.4430
  245MPD1    H3 3775   3.110   0.967  13.405  1.9175 -1.3636 -0.6099
  245MPD1     N 3776   3.460   1.188  13.622  0.2993 -0.0721  0.2363
  245MPD1    H5 3777   3.488   1.225  13.712 -0.5160 -0.2815  0.5785
  245MPD1    N1 3778   3.097   0.987  13.858  0.0588  0.1364  0.4051
  245MPD1    H6 3779   3.132   1.050  13.929 -1.1473 -1.1664  2.1460
  245MPD1    H7 3780   2.995   0.981  13.854  0.2030 -2.1367 -0.3197
  246MPD1     C 3781   0.365   4.491  10.088  0.1938 -0.0586  0.3623
  246MPD1    C1 3782   0.244   4.430  10.069  0.1066  0.1498 -0.3426
  246MPD1    C2 3783   0.141   4.510  10.025  0.5542 -0.2153 -0.2195
  246MPD1    C3 3784   0.161   4.648  10.005 -0.0792 -0.1992  0.1147
  246MPD1    C4 3785   0.284   4.698  10.033 -0.4491  0.0665 -0.6905
  246MPD1    C5 3786   0.389   4.620  10.053 -0.2230  0.6595  0.4134
  246MPD1     H 3787   0.042   4.467  10.015  0.2289 -0.2292  3.0257
  246MPD1    H1 3788   0.311   0.064  10.020 -0.6984  0.2091 -0.0858
  246MPD1    H2 3789   0.444   4.447  10.148 -0.1476 -0.4099  0.5533
  246MPD1    H3 3790   0.483   4.666  10.082 -0.4188  1.0798  0.3817
  246MPD1     N 3791   0.051   4.723   9.960 -0.1007  0.1398 -0.3346
  246MPD1    H5 3792   4.698   4.678   9.961  0.2843 -0.6321 -0.2408
  246MPD1    N1 3793   0.218   4.309  10.126 -0.0257  0.2686  0.3619
  246MPD1    H6 3794   0.301   4.251  10.124 -1.2844 -1.4803 -1.1664
  246MPD1    H7 3795   0.145   4.265  10.070 -0.9542  1.3193  0.7381
  247MPD1     C 3796   3.646   1.953  15.789  0.8052  0.1424  0.6003
  247MPD1    C1 3797   3.723   1.950  15.906  0.7842  0.5992 -0.2353
  247MPD1    C2 3798   3.788   1.840  15.940 -0.0854  0.0618 -0.7561
  247MPD1    C3 3799   3.769   1.723  15.872 -0.6965 -0.6917 -0.0850
  247MPD1    C4 3800   3.687   1.721  15.763 -0.4303  0.2051 -0.8055
  247MPD1    C5 3801   3.633   1.835  15.719  0.1836  0.3034 -0.7697
  247MPD1     H 3802   3.866   1.851  16.014  1.3530 -0.1947 -2.2484
  247MPD1    H1 3803   3.664   1.630  15.709  0.1551 -0.8633  0.7610
  247MPD1    H2 3804   3.601   2.044  15.752  2.4125  1.7182  2.5378
  247MPD1    H3 3805   3.571   1.834  15.630  1.3189  1.2526 -1.5707
  247MPD1     N 3806   3.822   1.592  15.918 -0.1390  0.3830 -0.6225
  247MPD1    H5 3807   3.795   1.512  15.862 -1.5771  0.4978 -0.0979
  247MPD1    N1 3808   3.743   2.077  15.970 -0.3323  0.1971 -0.6369
  247MPD1    H6 3809   3.777   2.069  16.066  2.6922 -0.8670 -1.8035
  247MPD1    H7 3810   3.656   2.130  15.978  0.0184  0.5217  1.1416
  248MPD1     C 3811   0.716   0.429   0.266 -0.7095 -0.3265  0.2466
  248MPD1    C1 3812   0.616   0.364   0.333 -0.4930  0.8293  0.0197
  248MPD1    C2 3813   0.509   0.315   0.269 -0.1681 -0.1048 -0.8421
  248MPD1    C3 3814   0.491   0.345   0.133  0.4271  0.0694 -0.0379
  248MPD1    C4 3815   0.581   0.429   0.073 -0.2017  0.4141  0.0190
  248MPD1    C5 3816   0.698   0.462   0.134 -1.2702 -0.9620  0.2794
  248MPD1     H 3817   0.430   0.268   0.327 -1.0461  1.4262 -0.7912
  248MPD1    H1 3818   0.568   0.463  17.718  2.9314  0.0995 -0.4695
  248MPD1    H2 3819   0.807   0.461   0.315 -0.8141  0.3654 -0.0131
  248MPD1    H3 3820   0.775   0.514   0.077 -2.6213 -0.9035 -1.5217
  248MPD1     N 3821   0.365   0.302   0.071 -0.2185 -0.0282 -0.3821
  248MPD1    H5 3822   0.311   0.234   0.124 -0.2350  0.8197  0.7017
  248MPD1    N1 3823   0.637   0.331   0.469 -0.1475 -0.2057  1.1705
  248MPD1    H6 3824   0.555   0.307   0.525 -0.9831 -0.8731 -0.3443
  248MPD1    H7 3825   0.699   0.398   0.513  1.1430  0.4360 -1.6156
  249MPD1     C 3826   2.436   0.495   9.592  0.3169  0.1878  0.0627
  249MPD1    C1 3827   2.313   0.536   9.640  0.3608  0.0011 -0.4397
  249MPD1    C2 3828   2.305   0.570   9.769 -0.2466 -0.2193  0.1897
  249MPD1    C3 3829   2.415   0.571   9.851 -0.1325 -0.1380 -0.2702
  249MPD1    C4 3830   2.538   0.529   9.808 -0.6589  0.4781  0.2286
  249MPD1    C5 3831   2.549   0.500   9.674  0.3014  0.1501 -0.3529
  249MPD1     H 3832   2.209   0.596   9.812 -0.4680 -0.4784 -0.1512
  249MPD1    H1 3833   2.620   0.518   9.878  0.4893 -0.6570 -1.2971
  249MPD1    H2 3834   2.440   0.449   9.494 -1.2884  0.3535 -0.0828
  249MPD1    H3 3835   2.646   0.472   9.632  0.4886 -0.5698  0.5724
  249MPD1     N 3836   2.388   0.627   9.976  0.2891 -0.5500  0.1678
  249MPD1    H5 3837   2.294   0.659   9.999 -0.2827 -1.7734 -0.4712
  249MPD1    N1 3838   2.203   0.493   9.562 -0.1389 -0.3160  0.4181
  249MPD1    H6 3839   2.113   0.529   9.593  0.8272  1.8694  0.6228
  249MPD1    H7 3840   2.203   0.528   9.467  3.4539 -0.5075  0.3727
  250MPD2     C 3841   2.480   4.221  13.238 -0.0147  0.3422 -0.0477
  250MPD2    C1 3842   2.373   4.293  13.275  0.2742  0.2712  0.9584
  250MPD2    C2 3843   2.256   4.226  13.297 -0.0240  0.1197 -0.0415
  250MPD2    C3 3844   2.245   4.088  13.279 -0.4025  0.6976 -0.4591
  250MPD2    C4 3845   2.353   4.022  13.227 -0.3678 -0.3205  0.3787
  250MPD2    C5 3846   2.472   4.085  13.210 -0.4061 -0.3561 -0.3809
  250MPD2     H 3847   2.165   4.267  13.341  0.0812 -0.1902  0.4667
  250MPD2    H1 3848   2.348   3.917  13.198 -1.3787  0.1368 -1.1492
  250MPD2    H2 3849   2.577   4.267  13.221  0.8496 -1.0082  1.1227
  250MPD2    H3 3850   2.563   4.030  13.188 -0.6638 -0.3769 -1.3856
  250MPD2     N 3851   2.130   4.012  13.296 -0.2074 -0.1515  0.5673
  250MPD2    H5 3852   2.128   3.914  13.271 -0.1998 -0.3706  1.4323
  250MPD2    N1 3853   2.390   4.430  13.282 -0.1129 -0.7380  0.0921
  250MPD2    H7 3854   2.481   4.475  13.273 -0.6469  0.4263  0.6427
  251TMC3    C1 3855   2.338   4.670  13.293 -0.3771 -0.4508  0.1778
  251TMC3    C2 3856   2.265   0.012  13.369  0.2274 -0.1177 -0.5452
  251TMC3    C3 3857   2.332   0.114  13.436  0.0499 -0.5207  0.1666
  251TMC3    C4 3858   2.471   4.692  13.256  0.0329  0.8874 -0.2196
  251TMC3    C5 3859   2.531   0.054  13.330  0.0006  0.3976 -0.3301
  251TMC3    C6 3860   2.466   0.135  13.423 -0.1270  0.5452  0.5383
  251TMC3     C 3861   2.288   4.529  13.290 -0.0515  0.4538 -0.7111
  251TMC3     O 3862   2.169   4.516  13.300 -0.2387 -0.0199 -0.4506
  251TMC3     H 3863   2.160   4.729  13.382  0.6283 -2.7542 -1.3865
  251TMC3    H1 3864   2.532   4.625  13.196 -0.6555 -0.4974  0.6089
  251TMC3    H2 3865   2.515   0.216  13.474 -3.6013  1.2984  2.7142
  251TMC3    C7 3866   2.677   0.051  13.331  0.4397  0.4656 -0.2851
  251TMC3    C8 3867   2.244   0.219  13.476  0.0668  0.1430  0.5784
  251TMC3    O1 3868   2.727   4.681  13.322  0.0585 -0.2756 -0.4081
  251TMC3    O2 3869   2.141   0.184  13.531 -0.4707  0.2326  0.4365
  252TMC3    C1 3870   3.054   0.969   9.347 -0.2348 -0.1965  0.1327
  252TMC3    C2 3871   3.144   0.987   9.445  0.0117 -0.1635 -0.1291
  252TMC3    C3 3872   3.163   0.880   9.531 -0.0907  0.1730  0.7702
  252TMC3    C4 3873   2.997   0.844   9.332  0.4460  0.3751  0.1665
  252TMC3    C5 3874   3.007   0.744   9.420 -0.1994  0.5494  0.3123
  252TMC3    C6 3875   3.100   0.754   9.515  0.3349  0.8325 -0.0717
  252TMC3     C 3876   3.035   1.070   9.243  0.5931  0.2292 -0.7267
  252TMC3     O 3877   2.942   1.058   9.165  0.1732  0.2302  0.4999
  252TMC3     H 3878   3.189   1.083   9.467  2.3314 -1.5697  1.2336
  252TMC3    H1 3879   2.933   0.826   9.246 -1.2142  1.7534  1.1130
  252TMC3    H2 3880   3.118   0.670   9.580 -0.4805  0.8491  0.1755
  252TMC3    C7 3881   2.924   0.621   9.398  0.2195 -0.2488 -0.1358
  252TMC3    C8 3882   3.276   0.899   9.621 -0.0868 -0.1017  0.2098
  252TMC3    O1 3883   2.842   0.628   9.308  0.2882  0.5355 -0.0800
  252TMC3    O2 3884   3.365   0.978   9.573 -0.3148 -0.0739 -0.5394
  253MPD2     C 3885   3.908   0.038  16.024  1.1280 -0.1266 -0.4761
  253MPD2    C1 3886   3.798   4.717  15.956 -0.0524  0.1691  0.1666
  253MPD2    C2 3887   3.728   4.610  16.005  0.1346 -0.2934 -0.5471
  253MPD2    C3 3888   3.763   4.549  16.127 -0.6205 -0.4400 -0.0699
  253MPD2    C4 3889   3.873   4.597  16.188  0.7577 -0.1265  0.5355
  253MPD2    C5 3890   3.942   4.708  16.143  0.3508  0.1664  0.6393
  253MPD2     H 3891   3.642   4.578  15.947  1.5881  1.2822 -3.6371
  253MPD2    H1 3892   3.923   4.555  16.274 -2.4379  0.1579  2.5150
  253MPD2    H2 3893   3.952   0.134  16.000  2.1253 -0.6010 -0.5405
  253MPD2    H3 3894   4.024   0.017  16.199  0.4334  0.3747  0.3472
  253MPD2     N 3895   3.686   4.445  16.191  0.0985  0.0862  0.8512
  253MPD2    H5 3896   3.728   4.397  16.269  1.0869  1.7970  1.3707
  253MPD2    N1 3897   3.739   0.054  15.847  0.5553 -0.0280  0.4379
  253MPD2    H7 3898   3.651   0.015  15.815  0.2816  1.1739 -0.2697
  254TMC3    C1 3899   3.485   4.300  16.219 -0.1400  0.4422 -0.1914
  254TMC3    C2 3900   3.362   4.269  16.173 -0.2068 -0.1263 -0.1212
  254TMC3    C3 3901   3.282   4.194  16.253  0.4708  0.0676 -0.4724
  254TMC3    C4 3902   3.524   4.270  16.348  0.2671 -0.7907  0.2983
  254TMC3    C5 3903   3.437   4.200  16.427  0.4816  0.3962  0.4518
  254TMC3    C6 3904   3.325   4.155  16.375  0.2301  0.9096  0.1586
  254TMC3     C 3905   3.558   4.403  16.145  0.1165 -0.1691  0.5224
  254TMC3     O 3906   3.495   4.436  16.046  0.0757 -0.6415  0.1011
  254TMC3     H 3907   3.325   4.283  16.072  0.9874  0.1189 -0.5294
  254TMC3    H1 3908   3.615   4.312  16.390  0.1635  0.0588 -0.3418
  254TMC3    H2 3909   3.258   4.087  16.426  1.4515 -0.6166 -0.2884
  254TMC3    C7 3910   3.473   4.222  16.565  0.0678  0.7219 -0.4855
  254TMC3    C8 3911   3.165   4.150  16.181 -0.1209 -0.6637  0.3783
  254TMC3    O1 3912   3.587   4.239  16.593  0.2849 -0.1369  0.0112
  254TMC3    O2 3913   3.184   4.111  16.068  0.0207 -0.7059  0.9173
  255MPD2     C 3914   2.404   2.003  10.743 -0.6725 -0.6318 -1.2763
  255MPD2    C1 3915   2.391   2.109  10.657 -0.1302  1.0171 -0.4088
  255MPD2    C2 3916   2.480   2.120  10.547 -0.0811  0.7418 -0.3616
  255MPD2    C3 3917   2.572   2.022  10.511 -0.3696 -0.0039 -0.2676
  255MPD2    C4 3918   2.588   1.920  10.603  0.5820 -0.3424 -0.4941
  255MPD2    C5 3919   2.508   1.913  10.718  0.1815  0.4485 -0.1144
  255MPD2     H 3920   2.466   2.203  10.479  0.4568  1.4638  0.4028
  255MPD2    H1 3921   2.671   1.851  10.594 -0.4088 -1.6977  0.7183
  255MPD2    H2 3922   2.337   1.990  10.827 -0.5001  1.9847 -0.7227
  255MPD2    H3 3923   2.520   1.831  10.787  0.3841 -2.2297 -3.3353
  255MPD2     N 3924   2.641   2.049  10.395  0.0012  0.0425  0.3451
  255MPD2    H5 3925   2.613   2.135  10.349 -0.2542  0.5935  1.5528
  255MPD2    N1 3926   2.291   2.200  10.694 -0.0361 -0.0580 -0.2242
  255MPD2    H7 3927   2.213   2.184  10.756  2.2025 -0.2197  2.5952
  256TMC3    C1 3928   2.150   2.381  10.650 -0.5140  0.3801 -0.1115
  256TMC3    C2 3929   2.141   2.513  10.662  0.5281  0.4207 -0.4854
  256TMC3    C3 3930   2.018   2.561  10.643 -0.2776 -0.2112 -0.3672
  256TMC3    C4 3931   2.040   2.295  10.630 -0.2529  0.0805  0.7657
  256TMC3    C5 3932   1.917   2.349  10.627  0.2134  0.3902 -0.5524
  256TMC3    C6 3933   1.907   2.486  10.623  0.1587  0.2725 -0.0945
  256TMC3     C 3934   2.285   2.326  10.634  0.1424 -0.2235 -0.3317
  256TMC3     O 3935   2.368   2.398  10.576 -0.1643  0.1764  0.2195
  256TMC3     H 3936   2.231   2.566  10.690  0.7338 -0.0097 -0.3228
  256TMC3    H1 3937   2.046   2.187  10.619  2.2856  0.2315  0.5260
  256TMC3    H2 3938   1.812   2.531  10.593 -1.1898 -2.0570  0.7055
  256TMC3    C7 3939   1.814   2.274  10.555  0.5635 -0.2698  0.4106
  256TMC3    C8 3940   1.991   2.698  10.661  0.9492  0.1958 -0.0458
  256TMC3    O1 3941   1.839   2.213  10.451  0.2724  0.3580  0.0007
  256TMC3    O2 3942   1.876   2.729  10.683 -0.4752  0.0875 -0.1230
  257MPD2     C 3943   1.181   4.710  13.471  0.6693  0.5047 -0.0050
  257MPD2    C1 3944   1.092   4.630  13.399 -0.2136  0.2474 -0.4032
  257MPD2    C2 3945   1.065   4.497  13.438 -0.5163 -0.2976  0.9236
  257MPD2    C3 3946   1.141   4.444  13.539  0.2102 -1.0956  0.5804
  257MPD2    C4 3947   1.221   4.528  13.616  0.6227  0.4999  0.4506
  257MPD2    C5 3948   1.239   4.658  13.582 -0.1794  0.0942 -0.7524
  257MPD2     H 3949   0.999   4.432  13.382  0.0162  0.1004 -0.1541
  257MPD2    H1 3950   1.274   4.486  13.701  0.1891  1.8333  1.3809
  257MPD2    H2 3951   1.207   0.073  13.438  0.6434 -0.1745 -2.1377
  257MPD2    H3 3952   1.294   4.720  13.652  0.7441 -1.9288  0.3094
  257MPD2     N 3953   1.122   4.308  13.572  0.1246 -0.2539 -0.4450
  257MPD2    H5 3954   1.049   4.261  13.519 -0.5582 -0.9705  1.1275
  257MPD2    N1 3955   1.034   4.690  13.285 -0.4068 -0.0837 -0.2209
  257MPD2    H7 3956   1.054   0.051  13.275 -1.0057  0.0337 -0.2361
  258TMC3    C1 3957   1.162   4.092  13.660 -0.4125 -0.2050 -0.4129
  258TMC3    C2 3958   1.027   4.074  13.677  0.2426 -0.1404  0.9082
  258TMC3    C3 3959   0.986   3.948  13.715 -0.9527  0.5184  0.7633
  258TMC3    C4 3960   1.251   3.998  13.707  0.0082 -0.3230 -0.1027
  258TMC3    C5 3961   1.203   3.877  13.749  0.0827  0.0796 -0.4160
  258TMC3    C6 3962   1.071   3.848  13.748  0.2632 -0.3853 -0.1126
  258TMC3     C 3963   1.211   4.229  13.647  0.2504 -0.8850 -0.0141
  258TMC3     O 3964   1.330   4.248  13.678 -0.1287 -0.7189  0.1639
  258TMC3     H 3965   0.959   4.157  13.662 -0.9284 -0.9803  1.5654
  258TMC3    H1 3966   1.359   4.006  13.705 -0.1142  1.4405  0.4950
  258TMC3    H2 3967   1.046   3.745  13.773 -1.7109  0.3459  0.9675
  258TMC3    C7 3968   1.295   3.767  13.765  0.0947 -0.3578 -0.0751
  258TMC3    C8 3969   0.847   3.938  13.767  0.3634 -0.2737  0.8892
  258TMC3    O1 3970   1.263   3.665  13.707  0.1362  0.0691  0.6213
  258TMC3    O2 3971   0.781   4.038  13.739  0.1418  0.0191 -0.2900
  259MPD2     C 3972   0.066   0.863   1.278 -0.8448  0.7951 -0.4359
  259MPD2    C1 3973   0.103   0.735   1.263 -0.0991 -0.4092 -0.4444
  259MPD2    C2 3974   0.102   0.682   1.142  0.0734  0.2279  0.7990
  259MPD2    C3 3975   0.063   0.752   1.026 -0.0121  0.0569  0.2889
  259MPD2    C4 3976   0.018   0.879   1.049  0.0677 -0.3656  0.7070
  259MPD2    C5 3977   0.029   0.935   1.170 -0.2687  0.0470 -0.6422
  259MPD2     H 3978   0.140   0.581   1.132  1.4787  0.7967  0.3660
  259MPD2    H1 3979   4.724   0.945   0.968  0.2741 -1.2785 -0.1170
  259MPD2    H2 3980   0.073   0.916   1.372  0.4418 -0.4464  0.1718
  259MPD2    H3 3981   0.013   1.041   1.187 -1.0566 -0.0115 -1.0310
  259MPD2     N 3982   0.071   0.676   0.903 -0.0286  0.9167  0.3027
  259MPD2    H5 3983   0.108   0.582   0.915 -0.6520  0.6986  0.4909
  259MPD2    N1 3984   0.141   0.655   1.378  0.1614 -0.3317 -0.1578
  259MPD2    H7 3985   0.158   0.557   1.354  2.0383  0.2692 -1.2880
  260TMC3    C1 3986   0.128   0.649   0.673  0.6345  0.0812  0.6272
  260TMC3    C2 3987   0.184   0.738   0.587 -0.6118 -0.2558  0.1657
  260TMC3    C3 3988   0.273   0.679   0.499  0.7497  0.7573 -0.2589
  260TMC3    C4 3989   0.142   0.515   0.668 -0.3061 -0.4821 -0.3375
  260TMC3    C5 3990   0.215   0.462   0.568  0.4465 -0.2217 -0.0614
  260TMC3    C6 3991   0.290   0.545   0.486 -0.7776  0.3041 -0.6554
  260TMC3     C 3992   0.046   0.711   0.780 -0.0309  0.1144  0.6815
  260TMC3     O 3993   0.001   0.821   0.753  0.1045  0.5828  0.1537
  260TMC3     H 3994   0.191   0.843   0.613  1.5252 -0.4400  0.3759
  260TMC3    H1 3995   0.097   0.448   0.741 -2.9545  2.6496  0.9446
  260TMC3    H2 3996   0.358   0.504   0.412 -0.2991 -0.1917  0.0578
  260TMC3    C7 3997   0.265   0.328   0.575 -0.2630  0.2624  0.2991
  260TMC3    C8 3998   0.382   0.755   0.453 -0.2423 -0.2920  0.0044
  260TMC3    O1 3999   0.388   0.318   0.594  0.1716  0.1581 -0.4870
  260TMC3    O2 4000   0.348   0.874   0.442 -0.6206 -0.0298  0.3045
  261MPD2     C 4001   1.388   4.022  13.028 -0.4220  0.0350 -0.4777
  261MPD2    C1 4002   1.515   4.073  13.038  0.3177 -0.0889 -0.0041
  261MPD2    C2 4003   1.553   4.186  12.958 -0.0119 -0.7700  0.2453
  261MPD2    C3 4004   1.468   4.229  12.860 -0.0136  0.8749 -0.1014
  261MPD2    C4 4005   1.345   4.162  12.841  0.4114 -0.1659 -0.3327
  261MPD2    C5 4006   1.299   4.067  12.931  0.5382  0.0804  0.0789
  261MPD2     H 4007   1.650   4.231  12.975 -0.1503 -0.6546  0.7437
  261MPD2    H1 4008   1.281   4.194  12.759 -0.1188 -1.0785 -0.2710
  261MPD2    H2 4009   1.355   3.940  13.090 -2.0826 -0.6316 -2.2429
  261MPD2    H3 4010   1.198   4.030  12.928  0.6901 -0.1772 -1.8420
  261MPD2     N 4011   1.504   4.349  12.798  0.7486  0.0718  0.5666
  261MPD2    H5 4012   1.593   4.394  12.816  1.0617 -1.0877  1.8495
  261MPD2    N1 4013   1.612   4.019  13.126  0.6876  0.9426  1.1622
  261MPD2    H7 4014   1.701   4.069  13.128  1.5799 -0.6186  0.6154
  262TMC3    C1 4015   1.459   4.557  12.719 -0.0589 -0.3149 -0.3922
  262TMC3    C2 4016   1.447   4.630  12.604 -0.3086 -0.6049 -0.2489
  262TMC3    C3 4017   1.527   4.736  12.579  0.2138 -0.4045 -0.0309
  262TMC3    C4 4018   1.562   4.586  12.804  0.2317  0.5840  0.2474
  262TMC3    C5 4019   1.655   4.672  12.768 -0.4803  0.5347 -0.5471
  262TMC3    C6 4020   1.634   0.019  12.668 -0.0237 -0.2606  0.1292
  262TMC3     C 4021   1.416   4.421  12.715 -0.2278 -0.4634  0.0020
  262TMC3     O 4022   1.316   4.387  12.651 -0.0883 -0.5469 -0.2787
  262TMC3     H 4023   1.376   4.598  12.528 -0.2390  0.9012 -0.9402
  262TMC3    H1 4024   1.581   4.541  12.900 -1.0964 -0.9004 -0.1934
  262TMC3    H2 4025   1.701   0.103  12.653 -1.1291  0.1246 -2.6792
  262TMC3    C7 4026   1.785   4.622  12.771  0.2791 -0.2550 -0.4234
  262TMC3    C8 4027   1.542   0.065  12.453 -0.0744  0.4114 -0.4698
  262TMC3    O1 4028   1.795   4.513  12.827 -0.3564  0.2172 -0.1675
  262TMC3    O2 4029   1.653   0.107  12.421  0.3008  0.3881  0.7452
  263MPD2     C 4030   2.489   3.321  11.828  0.2063  0.1588  0.8418
  263MPD2    C1 4031   2.616   3.371  11.813  0.0149 -0.5487  0.5177
  263MPD2    C2 4032   2.639   3.476  11.727 -1.0959 -0.0675 -0.7476
  263MPD2    C3 4033   2.528   3.524  11.659  0.3541  0.0287  0.1633
  263MPD2    C4 4034   2.403   3.462  11.664 -0.7452  0.1399  0.5494
  263MPD2    C5 4035   2.390   3.364  11.751  0.6884 -0.1721 -0.6027
  263MPD2     H 4036   2.734   3.526  11.713 -1.3599  0.3322 -1.1012
  263MPD2    H1 4037   2.320   3.493  11.603  0.4830  1.9397 -0.2114
  263MPD2    H2 4038   2.457   3.244  11.897 -1.6716 -0.4179 -0.6829
  263MPD2    H3 4039   2.292   3.322  11.768 -0.0325  1.3126 -1.1662
  263MPD2     N 4040   2.563   3.631  11.570 -0.0345 -0.4102  0.0229
  263MPD2    H5 4041   2.658   3.666  11.571  0.5062 -1.7055 -3.3693
  263MPD2    N1 4042   2.723   3.317  11.888 -0.1033 -0.1181  0.1793
  263MPD2    H7 4043   2.709   3.222  11.921  1.7033 -0.9953 -1.5779
  264TMC3    C1 4044   2.557   3.766  11.391  0.1458  0.0539  0.3602
  264TMC3    C2 4045   2.630   3.860  11.452  0.5928 -0.6536 -0.1660
  264TMC3    C3 4046   2.731   3.905  11.383  0.3131  0.0612  0.3608
  264TMC3    C4 4047   2.588   3.725  11.260 -0.0111 -0.2102 -0.1841
  264TMC3    C5 4048   2.693   3.775  11.194 -0.8855 -0.8222 -0.0979
  264TMC3    C6 4049   2.766   3.873  11.256  0.5349  0.1891 -0.0734
  264TMC3     C 4050   2.489   3.662  11.464  0.3428  0.0046 -0.2954
  264TMC3     O 4051   2.391   3.603  11.413  0.2152  0.4085 -0.4343
  264TMC3     H 4052   2.599   3.898  11.549  1.8396 -0.7657  0.2748
  264TMC3    H1 4053   2.543   3.629  11.236 -0.2451 -0.2159  0.2832
  264TMC3    H2 4054   2.861   3.912  11.220  0.6884 -0.9074 -0.8661
  264TMC3    C7 4055   2.735   3.700  11.078 -0.0395 -0.4774 -0.5517
  264TMC3    C8 4056   2.804   4.023  11.441  0.0775 -0.5707 -0.0129
  264TMC3    O1 4057   2.650   3.629  11.028 -0.4050 -0.6475 -0.3131
  264TMC3    O2 4058   2.911   4.039  11.389  0.5875  0.5724 -0.1087
  265MPD2     C 4059   0.108   4.022  15.653  0.2748  0.2151  0.7904
  265MPD2    C1 4060   0.204   4.116  15.633  0.3095  0.4628  0.4975
  265MPD2    C2 4061   0.308   4.073  15.555 -0.2803 -0.4308  1.3999
  265MPD2    C3 4062   0.309   3.950  15.491 -1.0656 -0.1194 -0.4957
  265MPD2    C4 4063   0.210   3.861  15.520  0.0587  0.3582  0.4341
  265MPD2    C5 4064   0.111   3.898  15.607  0.3631 -0.3565 -0.6273
  265MPD2     H 4065   0.377   4.152  15.527 -2.2148  0.1977 -1.5375
  265MPD2    H1 4066   0.197   3.763  15.475 -1.4340  0.9494 -0.4107
  265MPD2    H2 4067   0.023   4.039  15.718 -0.5063 -0.3147 -0.1097
  265MPD2    H3 4068   0.024   3.838  15.631 -0.0555 -0.2583 -1.8958
  265MPD2     N 4069   0.417   3.901  15.409  0.2017 -0.3324 -0.3892
  265MPD2    H5 4070   0.407   3.806  15.376 -1.7625  0.1927 -1.3023
  265MPD2    N1 4071   0.197   4.249  15.680  0.3836 -0.4211 -0.0320
  265MPD2    H7 4072   0.270   4.310  15.644 -0.3454  1.5989  1.8636
  266TMC3    C1 4073   0.117   4.443  15.795 -0.1979 -0.2080 -0.1606
  266TMC3    C2 4074   0.121   4.486  15.930 -0.2444  0.7209 -0.2149
  266TMC3    C3 4075   0.144   4.620  15.952 -0.1165 -0.4297  0.5363
  266TMC3    C4 4076   0.137   4.537  15.696 -0.3209  0.9306 -0.6517
  266TMC3    C5 4077   0.146   4.669  15.721 -0.0317 -0.1158  0.4976
  266TMC3    C6 4078   0.146   4.713  15.855  0.0686  0.2931 -0.4478
  266TMC3     C 4079   0.111   4.297  15.778 -0.5192  0.6257 -0.3219
  266TMC3     O 4080   0.058   4.234  15.870 -0.4961  0.2364  0.4633
  266TMC3     H 4081   0.114   4.412  16.008 -1.7615  0.7746 -0.3095
  266TMC3    H1 4082   0.137   4.505  15.593 -1.7892 -0.9260 -0.0993
  266TMC3    H2 4083   0.135   0.080  15.884  0.7688  0.1417  0.3617
  266TMC3    C7 4084   0.117   0.031  15.613  0.1690 -0.1584  0.6174
  266TMC3    C8 4085   0.211   4.636  16.077  0.1805 -0.1935  0.2730
  266TMC3    O1 4086   0.052   4.733  15.516  0.6553 -0.1538  0.1417
  266TMC3    O2 4087   0.218   4.539  16.156  0.1977  0.3390 -0.1810
  267MPD2     C 4088   3.026   0.589   0.265  0.2495 -0.2308 -0.2961
  267MPD2    C1 4089   3.046   0.689   0.172 -0.5646 -0.0731  0.5846
  267MPD2    C2 4090   2.945   0.777   0.144 -0.1096  0.0487 -0.3879
  267MPD2    C3 4091   2.820   0.756   0.202 -0.4756 -0.2284  0.1028
  267MPD2    C4 4092   2.802   0.651   0.293 -0.7182  0.1074 -0.7404
  267MPD2    C5 4093   2.907   0.565   0.326 -0.0817 -0.2775 -0.0317
  267MPD2     H 4094   2.956   0.857   0.073 -0.5136  0.0500 -0.4496
  267MPD2    H1 4095   2.704   0.642   0.338 -0.7848 -1.7923 -1.2835
  267MPD2    H2 4096   3.112   0.529   0.291  0.7976  0.2253 -1.0515
  267MPD2    H3 4097   2.883   0.481   0.390  0.9458  0.7397  1.6757
  267MPD2     N 4098   2.707   0.841   0.170 -0.2407  0.1926 -0.3510
  267MPD2    H5 4099   2.628   0.820   0.230 -1.5785  2.1582 -1.4395
  267MPD2    N1 4100   3.175   0.691   0.108  0.4632  0.1074  0.1984
  267MPD2    H7 4101   3.237   0.618   0.140  0.0479 -1.1348 -1.8062
  268TMC3    C1 4102   3.364   0.790   0.002 -0.0171  0.2244  0.5503
  268TMC3    C2 4103   3.398   0.877  17.650  0.0243  1.2648 -0.1956
  268TMC3    C3 4104   3.515   0.947  17.672  0.3928  0.2154  0.5408
  268TMC3    C4 4105   3.444   0.767   0.118 -0.2331  0.0021  0.0850
  268TMC3    C5 4106   3.549   0.851   0.133 -0.8661 -0.5029 -0.1953
  268TMC3    C6 4107   3.589   0.940   0.041 -0.5400 -0.0572 -0.7226
  268TMC3     C 4108   3.220   0.782   0.017  0.4771 -0.4861  0.1109
  268TMC3     O 4109   3.155   0.861  17.697 -0.0608  0.3755  0.3495
  268TMC3     H 4110   3.331   0.893  17.566  1.6619  0.1499 -1.7193
  268TMC3    H1 4111   3.407   0.707   0.200 -0.7605  1.7740  1.1467
  268TMC3    H2 4112   3.689   0.981   0.048  0.1523 -1.8178 -0.4165
  268TMC3    C7 4113   3.582   0.876   0.274 -0.7277  0.0405 -0.2749
  268TMC3    C8 4114   3.532   1.075  17.605  0.6140 -0.5949 -0.3609
  268TMC3    O1 4115   3.577   0.787   0.354  0.1316 -0.1402  0.6512
  268TMC3    O2 4116   3.613   1.149  17.659  0.0506  0.0558  0.5539
  269MPD2     C 4117   3.039   0.110  15.954 -0.2206 -0.6703  0.0484
  269MPD2    C1 4118   2.904   0.134  15.959  0.7919 -0.4018 -0.4519
  269MPD2    C2 4119   2.861   0.261  15.932  0.0196  0.0273  0.4387
  269MPD2    C3 4120   2.952   0.363  15.921 -0.6377  0.1781  0.6608
  269MPD2    C4 4121   3.083   0.340  15.925  0.0320  0.0536 -0.2368
  269MPD2    C5 4122   3.129   0.211  15.929  0.4038 -0.4622 -0.0915
  269MPD2     H 4123   2.753   0.274  15.933  0.1444  1.2375 -2.1199
  269MPD2    H1 4124   3.160   0.416  15.927  0.6197 -0.4969 -1.6269
  269MPD2    H2 4125   3.075   0.008  15.965  1.2397 -0.3638 -1.9080
  269MPD2    H3 4126   3.234   0.184  15.927  0.2970 -0.9381  0.6834
  269MPD2     N 4127   2.900   0.487  15.917 -0.0078 -0.1245  0.8813
  269MPD2    H5 4128   2.799   0.497  15.922 -0.0333 -1.1258  2.5689
  269MPD2    N1 4129   2.820   0.025  16.001  1.2985  0.1012 -0.1604
  269MPD2    H7 4130   2.871   4.680  16.033  1.8223  0.1676 -0.8386
  270TMC3    C1 4131   2.626   4.643  16.066  0.5957  0.6712  0.4063
  270TMC3    C2 4132   2.490   4.631  16.059  0.2058 -0.2944 -0.2850
  270TMC3    C3 4133   2.436   4.507  16.037  0.4363 -0.3186  0.0197
  270TMC3    C4 4134   2.710   4.527  16.066  0.0317 -0.2678 -0.4606
  270TMC3    C5 4135   2.651   4.407  16.065 -0.8153 -0.5370 -0.8925
  270TMC3    C6 4136   2.517   4.399  16.038 -0.2019  0.1960  0.7130
  270TMC3     C 4137   2.683   0.031  16.032 -0.8537 -0.2828  0.1783
  270TMC3     O 4138   2.604   0.126  16.040 -0.1448 -0.0326  0.2376
  270TMC3     H 4139   2.422   4.714  16.077  1.0443  0.1280  1.0135
  270TMC3    H1 4140   2.817   4.537  16.074 -0.5219  5.0704  0.3806
  270TMC3    H2 4141   2.473   4.301  16.053 -2.9732  0.7338 -3.8466
  270TMC3    C7 4142   2.739   4.300  16.022 -0.4664 -0.1452  0.7310
  270TMC3    C8 4143   2.321   4.509  15.948 -0.6985  0.5428  0.0646
  270TMC3    O1 4144   2.855   4.304  16.059 -0.1671  0.1801 -0.2999
  270TMC3    O2 4145   2.256   4.610  15.938  0.4867 -0.0306 -0.1521
  271MPD2     C 4146   1.819   4.693  14.231 -0.2451 -0.5278  0.1698
  271MPD2    C1 4147   1.747   4.611  14.320  0.2298 -0.0739  0.1220
  271MPD2    C2 4148   1.608   4.605  14.305  0.5336 -0.3436  0.0644
  271MPD2    C3 4149   1.543   4.658  14.198 -0.5624  0.2054  0.5409
  271MPD2    C4 4150   1.618   4.736  14.106 -0.5462  0.3446 -0.1215
  271MPD2    C5 4151   1.752   0.019  14.125 -0.0022 -0.0168 -0.0608
  271MPD2     H 4152   1.557   4.543  14.378 -0.6516  1.2899  0.6298
  271MPD2    H1 4153   1.574   0.044  14.017 -0.1348 -1.2889 -1.1467
  271MPD2    H2 4154   1.927   4.704  14.233  0.0071 -3.0069  0.4228
  271MPD2    H3 4155   1.814   0.074  14.055 -0.5688 -0.3656 -0.8290
  271MPD2     N 4156   1.406   4.655  14.183 -0.1963  0.6360 -0.5463
  271MPD2    H5 4157   1.365   4.699  14.101 -1.9988  0.8859  0.4780
  271MPD2    N1 4158   1.799   4.531  14.425 -0.0225  0.2321  0.0252
  271MPD2    H7 4159   1.744   4.472  14.488  0.5883 -0.6207 -0.2323
  272TMC3    C1 4160   1.951   4.439  14.565 -0.6134  0.6890 -0.1959
  272TMC3    C2 4161   2.070   4.374  14.561  0.0265 -0.8446  0.3810
  272TMC3    C3 4162   2.104   4.290  14.662  0.7302 -1.1043 -0.3514
  272TMC3    C4 4163   1.874   4.438  14.674  0.5687 -0.0592  0.3413
  272TMC3    C5 4164   1.920   4.358  14.784  0.3859 -0.3871 -0.3255
  272TMC3    C6 4165   2.035   4.283  14.783 -0.5405  0.5971 -0.0760
  272TMC3     C 4166   1.928   4.517  14.446  0.8650 -0.1524 -0.9423
  272TMC3     O 4167   2.018   4.545  14.368  0.0352  0.1341 -0.7341
  272TMC3     H 4168   2.132   4.380  14.472  0.5179 -0.9973  0.7098
  272TMC3    H1 4169   1.791   4.507  14.681  0.4096 -0.0824 -1.2606
  272TMC3    H2 4170   2.065   4.227  14.870 -2.1519  1.1371  0.8274
  272TMC3    C7 4171   1.868   4.412  14.910  0.2938 -0.0841  0.3141
  272TMC3    C8 4172   2.212   4.199  14.628  0.4785 -0.3269  0.0249
  272TMC3    O1 4173   1.759   4.465  14.900  0.3310  0.3056 -0.1965
  272TMC3    O2 4174   2.254   4.214  14.513  0.2243 -0.1238  0.1070
  273MPD2     C 4175   3.448   1.859  11.857  0.1012 -0.3803 -0.0182
  273MPD2    C1 4176   3.503   1.980  11.814  0.8961  0.1613 -0.3122
  273MPD2    C2 4177   3.436   2.052  11.713  0.5968 -0.4219 -0.5901
  273MPD2    C3 4178   3.315   2.006  11.667  0.0489 -0.6766 -0.5685
  273MPD2    C4 4179   3.264   1.881  11.710  0.6301  0.0024  0.5542
  273MPD2    C5 4180   3.332   1.805  11.801  0.0034  0.4370 -0.4459
  273MPD2     H 4181   3.469   2.146  11.669 -2.5305  0.5240 -0.9266
  273MPD2    H1 4182   3.178   1.836  11.662  0.9986  0.5954 -0.6824
  273MPD2    H2 4183   3.499   1.798  11.931  0.6851 -0.1533 -0.2320
  273MPD2    H3 4184   3.289   1.714  11.841  0.7153 -0.3534 -1.4621
  273MPD2     N 4185   3.237   2.084  11.586 -0.2787  0.0997 -0.0367
  273MPD2    H5 4186   3.276   2.176  11.570 -0.0859  0.0739  0.2890
  273MPD2    N1 4187   3.610   2.042  11.886 -0.0149 -0.2564 -0.0970
  273MPD2    H7 4188   3.647   1.990  11.965  1.4185  0.0657 -0.5614
  274TMC3    C1 4189   3.035   2.185  11.513  0.2074 -0.0354  0.3664
  274TMC3    C2 4190   3.002   2.237  11.383  0.4730  0.3697  0.1657
  274TMC3    C3 4191   2.981   2.376  11.376 -0.3207  0.4027 -0.2682
  274TMC3    C4 4192   3.060   2.270  11.618  0.0761 -0.0080  0.0760
  274TMC3    C5 4193   3.036   2.408  11.599  0.1315  0.6409  0.2874
  274TMC3    C6 4194   3.010   2.464  11.479 -0.2371 -0.1947  0.0694
  274TMC3     C 4195   3.108   2.056  11.531 -0.2458  0.0023 -0.1619
  274TMC3     O 4196   3.071   1.953  11.485  0.0980  0.1784 -0.2312
  274TMC3     H 4197   2.973   2.178  11.297 -1.4147  0.5154  0.6915
  274TMC3    H1 4198   3.072   2.222  11.714  2.4426 -2.5175 -1.4558
  274TMC3    H2 4199   2.974   2.566  11.472  0.8758  0.1518 -0.6732
  274TMC3    C7 4200   3.059   2.497  11.709 -0.2306  0.5111  0.3667
  274TMC3    C8 4201   2.894   2.427  11.270 -0.9139  0.2736 -0.1040
  274TMC3    O1 4202   3.101   2.609  11.678  0.6538  0.1299 -0.6045
  274TMC3    O2 4203   2.831   2.527  11.293 -0.3958  0.4438  0.0556
  275MPD2     C 4204   3.198   1.003  14.622  0.1804  0.9333  0.0215
  275MPD2    C1 4205   3.214   0.872  14.573 -0.7284  0.0370 -0.1871
  275MPD2    C2 4206   3.100   0.797  14.556 -0.5870  0.2516 -0.0469
  275MPD2    C3 4207   2.975   0.825  14.610  0.6508 -0.3179  0.0470
  275MPD2    C4 4208   2.966   0.946  14.665 -0.1777  0.2405 -0.6328
  275MPD2    C5 4209   3.072   1.040  14.661 -0.0397  0.0412 -0.4486
  275MPD2     H 4210   3.125   0.697  14.522 -0.5689  0.9982 -2.2566
  275MPD2    H1 4211   2.867   0.975  14.696  0.8217  2.0089  0.9213
  275MPD2    H2 4212   3.283   1.070  14.627 -0.7723  2.3090 -2.1037
  275MPD2    H3 4213   3.058   1.134  14.713  1.0184  0.6019 -1.1866
  275MPD2     N 4214   2.870   0.735  14.627  0.5911  0.5845 -0.3956
  275MPD2    H5 4215   2.797   0.774  14.686  0.6755 -1.3190  0.9805
  275MPD2    N1 4216   3.343   0.818  14.542  0.5281 -0.5541 -0.9275
  275MPD2    H7 4217   3.350   0.722  14.510 -2.2040  0.1551 -3.6129
  276TMC3    C1 4218   3.580   0.779  14.586 -0.2402 -0.0243  0.1176
  276TMC3    C2 4219   3.540   0.648  14.602 -0.3393  0.0239  0.1520
  276TMC3    C3 4220   3.612   0.574  14.695  0.2819  0.7426  0.5841
  276TMC3    C4 4221   3.688   0.829  14.659  0.5163  0.4425 -0.0051
  276TMC3    C5 4222   3.750   0.753  14.754  0.4896  0.0894  0.1270
  276TMC3    C6 4223   3.710   0.628  14.771 -0.3382 -0.2582 -0.6505
  276TMC3     C 4224   3.469   0.876  14.577 -0.1599 -0.4111  0.1962
  276TMC3     O 4225   3.498   0.993  14.577  0.2003 -0.0610  0.4396
  276TMC3     H 4226   3.460   0.601  14.547  1.3610 -1.9414 -0.6475
  276TMC3    H1 4227   3.717   0.933  14.651 -1.6834  1.1894  1.6059
  276TMC3    H2 4228   3.759   0.570  14.848  0.5420  2.5091  0.8535
  276TMC3    C7 4229   3.887   0.775  14.799 -0.1255  0.3397  0.1280
  276TMC3    C8 4230   3.570   0.440  14.724  0.5583 -0.1777 -0.9413
  276TMC3    O1 4231   3.927   0.701  14.886 -0.0818  0.2972 -0.2507
  276TMC3    O2 4232   3.524   0.372  14.635  0.3710  0.2661  0.3542
  277MPD2     C 4233   0.568   4.591  13.351  0.0522 -0.5053 -0.2863
  277MPD2    C1 4234   0.431   4.605  13.328  0.3473 -0.3093  0.5467
  277MPD2    C2 4235   0.357   4.490  13.306  0.6004 -0.5672  0.3913
  277MPD2    C3 4236   0.410   4.369  13.332 -0.8940  0.0487 -0.1638
  277MPD2    C4 4237   0.550   4.358  13.341  0.2129  0.1061  0.0362
  277MPD2    C5 4238   0.625   4.469  13.353 -0.7392  0.1418  1.1281
  277MPD2     H 4239   0.251   4.492  13.280  0.3467 -2.2509  1.2580
  277MPD2    H1 4240   0.606   4.265  13.338  0.1632  0.0766  0.0257
  277MPD2    H2 4241   0.627   4.681  13.364 -0.0891 -0.6904  1.7033
  277MPD2    H3 4242   0.731   4.467  13.374 -0.8352 -0.9923  1.4970
  277MPD2     N 4243   0.325   4.258  13.333  0.4433  0.4543  0.2896
  277MPD2    H5 4244   0.225   4.275  13.335  0.6683  1.6469  0.8728
  277MPD2    N1 4245   0.372   4.735  13.314  0.8011  0.1110  0.1153
  277MPD2    H7 4246   0.435   0.076  13.329  0.8470  0.2602 -0.8440
  278TMC3    C1 4247   0.246   4.034  13.362 -0.6618 -0.1629  0.4229
  278TMC3    C2 4248   0.260   3.921  13.288 -0.1731 -0.0399 -0.4152
  278TMC3    C3 4249   0.147   3.846  13.286 -0.3892  0.1450 -0.6453
  278TMC3    C4 4250   0.131   4.082  13.414  0.7827  0.0607 -0.9642
  278TMC3    C5 4251   0.016   4.017  13.384  0.3030 -0.2825  0.3044
  278TMC3    C6 4252   0.027   3.898  13.321 -0.7823 -0.3155 -0.1030
  278TMC3     C 4253   0.362   4.124  13.354 -0.0668 -0.5881 -0.4936
  278TMC3     O 4254   0.475   4.075  13.363 -0.3546  0.0831  0.0504
  278TMC3     H 4255   0.356   3.885  13.254 -1.0592 -2.8860  0.0393
  278TMC3    H1 4256   0.125   4.179  13.463 -0.6160 -0.3766 -0.2401
  278TMC3    H2 4257   4.667   3.853  13.302 -0.6809  0.0483 -1.4594
  278TMC3    C7 4258   4.631   4.045  13.453 -0.8292 -0.1014  0.3571
  278TMC3    C8 4259   0.144   3.750  13.184 -0.2741 -0.0373 -0.5601
  278TMC3    O1 4260   4.547   3.958  13.464 -0.0001 -0.4821  0.1186
  278TMC3    O2 4261   0.207   3.758  13.080 -0.1474 -0.3977  0.3819
  279MPD2     C 4262   4.527   3.639   0.372 -0.0959  0.4577 -0.0096
  279MPD2    C1 4263   4.460   3.761   0.362 -0.1292  0.5578 -0.0362
  279MPD2    C2 4264   4.522   3.855   0.286  0.2826  0.3925 -0.3755
  279MPD2    C3 4265   4.633   3.830   0.203  0.0368 -0.5864  0.1235
  279MPD2    C4 4266   4.691   3.704   0.211 -0.8753 -0.5356 -0.4131
  279MPD2    C5 4267   4.634   3.607   0.294 -0.8643  0.3274  0.4648
  279MPD2     H 4268   4.461   3.944   0.284 -0.3372 -0.0332 -0.6148
  279MPD2    H1 4269   0.037   3.671   0.150  0.3110 -2.4188  2.2616
  279MPD2    H2 4270   4.490   3.552   0.427  1.2124 -0.3313 -0.3896
  279MPD2    H3 4271   4.669   3.505   0.302 -1.7276  0.0563  0.8488
  279MPD2     N 4272   4.677   3.929   0.111 -0.5853 -0.3284 -0.5898
  279MPD2    H5 4273   0.016   3.904   0.049  0.7086  1.9925  0.0551
  279MPD2    N1 4274   4.335   3.783   0.425  0.0353 -0.4432 -0.7712
  279MPD2    H7 4275   4.303   3.879   0.425 -0.7653 -0.7128  0.2808
  280TMC3    C1 4276   4.151   3.780   0.553  0.1053  0.1035 -0.1264
  280TMC3    C2 4277   4.037   3.710   0.567  0.4492  0.3459  0.5327
  280TMC3    C3 4278   3.921   3.789   0.560 -0.1078  0.3941  0.0305
  280TMC3    C4 4279   4.156   3.919   0.549 -0.7288 -0.3283 -0.3580
  280TMC3    C5 4280   4.042   3.990   0.549  0.2272  1.0984 -0.4976
  280TMC3    C6 4281   3.922   3.927   0.559  0.0948  1.2166 -0.5825
  280TMC3     C 4282   4.267   3.701   0.510 -0.0956  0.3033  0.2583
  280TMC3     O 4283   4.266   3.581   0.524 -0.2422  0.1433  0.1263
  280TMC3     H 4284   4.037   3.602   0.561  0.0132  0.4500 -1.4134
  280TMC3    H1 4285   4.246   3.980   0.555 -1.6779  1.4702 -4.2347
  280TMC3    H2 4286   3.832   3.987   0.554 -0.1829  0.8054 -0.5137
  280TMC3    C7 4287   4.064   4.140   0.574  0.5627  0.1263  0.2357
  280TMC3    C8 4288   3.789   3.735   0.533 -0.0668  0.1018  0.5589
  280TMC3    O1 4289   4.168   4.163   0.636 -0.1968 -0.5531  0.4115
  280TMC3    O2 4290   3.712   3.816   0.487  0.0113  0.2644  0.1324
  281TMC3    C1 4291   3.051   4.443  13.614 -0.1453 -0.6788  0.6703
  281TMC3    C2 4292   3.118   4.562  13.587 -0.0286  0.5079  0.3078
  281TMC3    C3 4293   3.209   4.559  13.485 -0.0099 -0.3506 -0.6216
  281TMC3    C4 4294   3.087   4.321  13.564 -0.3506  0.5890  0.9279
  281TMC3    C5 4295   3.173   4.327  13.458  0.7725 -0.1212 -0.1156
  281TMC3    C6 4296   3.236   4.441  13.415 -0.0667 -0.1766  0.4359
  281TMC3     C 4297   2.907   4.445  13.649  0.3468  0.2047  0.4826
  281TMC3     O 4298   2.844   4.341  13.662  0.1415 -0.2222 -0.0371
  281TMC3     H 4299   3.092   4.657  13.630  0.8071  1.1505 -0.5960
  281TMC3    H1 4300   3.043   4.226  13.592  1.5558 -0.7326 -0.5613
  281TMC3    H2 4301   3.300   4.448  13.327 -0.4166 -1.3002  0.0955
  281TMC3    C7 4302   3.222   4.208  13.408 -1.0931  0.2229  0.0561
  281TMC3    C8 4303   3.165   4.653  13.383 -0.4030 -0.0659 -0.7669
  281TMC3    O1 4304   3.327   4.206  13.341  0.3408  0.5001 -0.4509
  281TMC3    O2 4305   3.106   4.612  13.283  0.1667 -0.2660 -0.2134
  282MPD2     C 4306   0.201   0.938  14.955 -1.2263  0.6217 -0.0903
  282MPD2    C1 4307   0.183   1.072  14.951 -0.8704  0.3593  0.6480
  282MPD2    C2 4308   0.119   1.125  14.837 -0.0838 -0.8024  0.1421
  282MPD2    C3 4309   0.056   1.047  14.742 -0.1050 -0.3599 -0.2403
  282MPD2    C4 4310   0.064   0.914  14.759 -0.2588 -0.6099 -0.8265
  282MPD2    C5 4311   0.141   0.860  14.859 -0.1428  0.0594  0.5378
  282MPD2     H 4312   0.122   1.232  14.820 -1.7005 -0.4647  2.0520
  282MPD2    H1 4313   0.030   0.840  14.687 -1.8886 -0.1912 -0.5009
  282MPD2    H2 4314   0.274   0.897  15.024 -0.9132  0.7908 -0.3241
  282MPD2    H3 4315   0.156   0.753  14.856  1.2464  0.2266  1.4929
  282MPD2     N 4316   4.735   1.123  14.637 -0.0965  0.1181 -0.1785
  282MPD2    H5 4317   0.010   1.224  14.634  2.6595 -0.1438  2.1173
  282MPD2    N1 4318   0.258   1.157  15.035 -0.3938  0.0385  0.4321
  282MPD2    H7 4319   0.248   1.256  15.014  1.4034  0.3675  1.0988
  283TMC3    C1 4320   0.349   1.213  15.248 -0.1264  0.5758  0.6899
  283TMC3    C2 4321   0.312   1.343  15.232  0.0083 -0.2681 -0.4778
  283TMC3    C3 4322   0.312   1.420  15.341  0.3934  0.0755 -0.7002
  283TMC3    C4 4323   0.390   1.165  15.371  0.2526 -0.2583  0.1021
  283TMC3    C5 4324   0.365   1.240  15.483 -0.6393 -0.2941 -0.4698
  283TMC3    C6 4325   0.340   1.372  15.466  0.6608 -0.2091 -0.7179
  283TMC3     C 4326   0.293   1.118  15.161  0.5612  1.1332  0.0250
  283TMC3     O 4327   0.256   1.023  15.222  0.2100  0.2397 -0.2958
  283TMC3     H 4328   0.280   1.384  15.137  3.1319 -1.1565 -1.9119
  283TMC3    H1 4329   0.419   1.062  15.390  0.0183 -0.2313  0.6025
  283TMC3    H2 4330   0.321   1.438  15.550  0.0893 -2.4266  0.8868
  283TMC3    C7 4331   0.262   1.179  15.564 -0.5496  0.5148 -0.4266
  283TMC3    C8 4332   0.293   1.567  15.311 -0.3323 -0.1866 -0.4417
  283TMC3    O1 4333   0.228   1.237  15.668 -0.2399  0.4793  0.1419
  283TMC3    O2 4334   0.258   1.608  15.203  0.3431 -0.2240  0.9847
  284MPD2     C 4335   2.616   0.559  12.200  0.4142  0.0130  0.6223
  284MPD2    C1 4336   2.756   0.566  12.198 -0.6581  0.2611  0.4561
  284MPD2    C2 4337   2.825   0.503  12.299 -0.6857 -0.1613 -0.4661
  284MPD2    C3 4338   2.760   0.409  12.378 -0.1411 -0.3725 -0.2473
  284MPD2    C4 4339   2.625   0.398  12.368  0.2371 -0.0507 -0.7300
  284MPD2    C5 4340   2.550   0.474  12.287  0.0241 -0.1297 -0.7877
  284MPD2     H 4341   2.933   0.508  12.308 -0.9251  1.2637  1.6994
  284MPD2    H1 4342   2.575   0.323  12.429 -3.2213  1.4833 -1.6726
  284MPD2    H2 4343   2.554   0.609  12.126 -0.0802 -0.7756  0.5074
  284MPD2    H3 4344   2.442   0.465  12.274 -0.1378  0.1918  0.2896
  284MPD2     N 4345   2.847   0.349  12.471 -0.0899 -0.7303 -0.2807
  284MPD2    H5 4346   2.948   0.358  12.463 -0.2695  0.0575 -1.6559
  284MPD2    N1 4347   2.824   0.629  12.100  1.0511  0.5346  1.0418
  284MPD2    H7 4348   2.923   0.634  12.117  0.9801  0.7970  1.3725
  285TMC3    C1 4349   2.882   0.732  11.914 -0.4456 -0.3554 -0.4530
  285TMC3    C2 4350   2.980   0.640  11.886 -0.5703  0.4071 -0.0469
  285TMC3    C3 4351   3.081   0.682  11.807 -0.4853 -0.1139 -0.2570
  285TMC3    C4 4352   2.884   0.853  11.853  0.2799  0.3586  0.1435
  285TMC3    C5 4353   2.995   0.895  11.784 -0.2840 -0.2066 -0.4355
  285TMC3    C6 4354   3.094   0.811  11.760 -0.2853  0.2005 -0.2916
  285TMC3     C 4355   2.771   0.696  11.996 -0.7636  0.0071 -0.1099
  285TMC3     O 4356   2.659   0.726  11.966  0.2721 -0.1154  0.0768
  285TMC3     H 4357   2.975   0.540  11.928  0.1646  0.6152  0.5454
  285TMC3    H1 4358   2.796   0.912  11.873  1.3867  2.2308 -0.5499
  285TMC3    H2 4359   3.183   0.840  11.705 -1.7733  0.0456 -2.7823
  285TMC3    C7 4360   3.003   1.035  11.742 -0.6408 -0.4807 -0.8427
  285TMC3    C8 4361   3.177   0.571  11.765  0.6045 -0.0128 -0.4018
  285TMC3    O1 4362   3.111   1.066  11.690 -0.3661 -0.0545 -0.0732
  285TMC3    O2 4363   3.136   0.456  11.785  0.3041  0.3673 -0.0022
  286MPD2     C 4364   3.193   3.523   1.812  0.6059 -0.5252 -0.3449
  286MPD2    C1 4365   3.176   3.483   1.682 -0.2575  0.1240 -0.6489
  286MPD2    C2 4366   3.288   3.440   1.609  0.4313  1.2615 -0.9961
  286MPD2    C3 4367   3.412   3.437   1.670 -0.7269  0.0483 -0.4766
  286MPD2    C4 4368   3.427   3.477   1.802 -0.2990 -0.1938 -0.2722
  286MPD2    C5 4369   3.317   3.526   1.872  0.4784  0.8772 -0.3314
  286MPD2     H 4370   3.276   3.421   1.503 -0.2853 -0.8004 -0.5357
  286MPD2    H1 4371   3.526   3.479   1.848 -0.5318  0.1655  0.2209
  286MPD2    H2 4372   3.107   3.560   1.867  0.3684 -0.5018 -0.7347
  286MPD2    H3 4373   3.333   3.566   1.972 -1.1985 -0.5126  0.4806
  286MPD2     N 4374   3.528   3.398   1.597  0.1162 -0.1459  1.0717
  286MPD2    H5 4375   3.606   3.405   1.663  0.3738 -0.1531  0.7655
  286MPD2    N1 4376   3.056   3.489   1.614  0.4806  0.0231  0.2961
  286MPD2    H7 4377   3.064   3.453   1.519 -0.0086 -0.2570  0.3580
  287TMC3    C1 4378   3.673   3.341   1.423  0.6661 -0.2622  0.1364
  287TMC3    C2 4379   3.691   3.250   1.324  0.1759 -0.7724 -0.1963
  287TMC3    C3 4380   3.823   3.211   1.300 -0.5472  0.6755 -0.1818
  287TMC3    C4 4381   3.780   3.397   1.485  0.4923 -0.1564 -0.5781
  287TMC3    C5 4382   3.906   3.350   1.460  0.0203 -0.3751  0.0111
  287TMC3    C6 4383   3.938   3.256   1.361  0.6755 -1.0595  0.0676
  287TMC3     C 4384   3.536   3.359   1.468 -0.2542 -0.3742  0.4586
  287TMC3     O 4385   3.444   3.348   1.386  0.1125 -0.9431  0.4886
  287TMC3     H 4386   3.609   3.205   1.269 -0.2222 -3.3965  2.5073
  287TMC3    H1 4387   3.755   3.467   1.564  0.5327 -2.5434  1.5589
  287TMC3    H2 4388   4.040   3.237   1.328  1.3275  1.4747  0.5844
  287TMC3    C7 4389   4.008   3.431   1.535  0.0940 -0.1130 -0.2068
  287TMC3    C8 4390   3.842   3.113   1.196  0.4679  0.1845  0.3098
  287TMC3    O1 4391   3.969   3.510   1.619  0.0073 -0.2933 -0.0541
  287TMC3    O2 4392   3.734   3.069   1.155 -0.1156  0.1196 -0.4572
  288TMC3    C1 4393   1.009   3.920  14.609  0.8162 -0.0701  0.4630
  288TMC3    C2 4394   0.940   3.989  14.701 -0.8736  0.2260 -0.2722
  288TMC3    C3 4395   0.906   4.121  14.665 -0.0033 -0.6887 -0.2213
  288TMC3    C4 4396   1.049   3.972  14.489 -0.6598  0.5154  0.1730
  288TMC3    C5 4397   1.003   4.096  14.459  0.0577 -0.1889  0.2179
  288TMC3    C6 4398   0.932   4.179  14.541 -0.4878  0.3811  0.1340
  288TMC3     C 4399   1.061   3.792  14.649 -0.0906  0.1345  0.0784
  288TMC3     O 4400   1.004   3.726  14.737  0.2971  0.4534  0.3211
  288TMC3     H 4401   0.925   3.957  14.803 -0.8308 -1.1381 -0.6979
  288TMC3    H1 4402   1.102   3.920  14.410 -0.1948  1.4415 -0.1270
  288TMC3    H2 4403   0.910   4.282  14.516  1.3398  0.6614 -0.3648
  288TMC3    C7 4404   1.059   4.150  14.334  0.3131 -0.1903  0.6531
  288TMC3    C8 4405   0.808   4.188  14.748  0.2808 -0.2785  0.2618
  288TMC3    O1 4406   1.173   4.136  14.299  0.2925  0.5487  0.0051
  288TMC3    O2 4407   0.804   4.309  14.744  0.0126  0.5809  0.0559
  289MPD2     C 4408   0.349   2.915  14.445  0.2462 -0.0301 -0.5245
  289MPD2    C1 4409   0.346   3.044  14.405  0.1209  0.2230 -0.3403
  289MPD2    C2 4410   0.235   3.084  14.325  0.5324  0.0295  0.1200
  289MPD2    C3 4411   0.127   2.998  14.303  0.1454  0.6479 -0.6544
  289MPD2    C4 4412   0.137   2.864  14.344 -0.1105  0.3573  0.0838
  289MPD2    C5 4413   0.251   2.828  14.417  0.3086  0.1267  0.1950
  289MPD2     H 4414   0.220   3.187  14.295 -0.5138 -0.0031  0.5533
  289MPD2    H1 4415   0.061   2.789  14.327 -0.2810  0.7480 -0.8953
  289MPD2    H2 4416   0.436   2.876  14.496  2.2447  0.4769 -3.5254
  289MPD2    H3 4417   0.270   2.728  14.454  4.1958  0.4117 -0.9867
  289MPD2     N 4418   0.016   3.031  14.223 -0.0742  0.3691  0.2506
  289MPD2    H5 4419   4.695   2.953  14.193  0.2987 -0.4107  1.5839
  289MPD2    N1 4420   0.437   3.136  14.460  0.0167 -1.3437  0.2263
  289MPD2    H7 4421   0.496   3.103  14.536  2.2632  2.0436 -0.0362
  290TMC3    C1 4422   4.603   3.168  14.106 -0.1513 -0.0308  0.2501
  290TMC3    C2 4423   4.572   3.301  14.073 -0.3194 -0.4775  0.2488
  290TMC3    C3 4424   4.495   3.320  13.963 -0.0108 -0.1627 -0.1450
  290TMC3    C4 4425   4.567   3.061  14.029  0.0486 -0.3294 -0.4444
  290TMC3    C5 4426   4.469   3.087  13.934  0.1912 -0.2658  0.1019
  290TMC3    C6 4427   4.428   3.217  13.906  0.1570 -0.6902 -0.3307
  290TMC3     C 4428   4.715   3.157  14.197  0.6909 -0.3947  0.4687
  290TMC3     O 4429   0.011   3.265  14.241 -0.1690  0.5920  0.0684
  290TMC3     H 4430   4.600   3.387  14.133 -1.1485  0.9558 -1.4073
  290TMC3    H1 4431   4.608   2.961  14.041  0.7929  0.0786  0.4072
  290TMC3    H2 4432   4.349   3.238  13.836  0.3474  0.6071 -0.1569
  290TMC3    C7 4433   4.427   2.988  13.840  0.0170  0.7966  0.0412
  290TMC3    C8 4434   4.469   3.456  13.917  0.6592 -0.2821 -0.2333
  290TMC3    O1 4435   4.369   3.031  13.743 -0.0801 -0.3396 -0.1362
  290TMC3    O2 4436   4.370   3.474  13.851  0.5590 -0.5412 -0.0648
  291MPD2     C 4437   4.414   3.176   0.528 -0.7874  0.3938  0.9016
  291MPD2    C1 4438   4.510   3.081   0.501 -0.6199  0.1383 -0.0465
  291MPD2    C2 4439   4.641   3.119   0.494  0.0005  0.1728  0.6502
  291MPD2    C3 4440   4.684   3.247   0.519  0.1733 -0.0484  0.7048
  291MPD2    C4 4441   4.589   3.342   0.547 -1.0457 -0.4036 -0.1959
  291MPD2    C5 4442   4.457   3.311   0.547  0.7589  0.5012  0.3477
  291MPD2     H 4443   4.706   3.033   0.482 -1.7710 -0.5851 -3.5480
  291MPD2    H1 4444   4.617   3.446   0.564 -1.1158 -0.2890 -0.7758
  291MPD2    H2 4445   4.307   3.158   0.537 -0.6833  0.5518  2.3536
  291MPD2    H3 4446   4.393   3.392   0.579 -1.3647 -0.8668 -0.4259
  291MPD2     N 4447   0.085   3.295   0.519  0.8872 -0.5298  0.8465
  291MPD2    H5 4448   0.099   3.394   0.535 -1.8302  0.0850 -0.5684
  291MPD2    N1 4449   4.477   2.947   0.516 -0.6140  0.0729 -0.2695
  291MPD2    H7 4450   4.553   2.880   0.516  0.0989  0.9016  0.7372
  292TMC3    C1 4451   4.355   2.754   0.537 -0.1169 -0.1142 -0.5656
  292TMC3    C2 4452   4.450   2.720   0.630 -0.4629 -0.0492  0.1028
  292TMC3    C3 4453   4.487   2.591   0.634  0.8583 -0.4553 -0.2614
  292TMC3    C4 4454   4.314   2.673   0.438  0.1246  0.6527  0.1979
  292TMC3    C5 4455   4.366   2.547   0.441  0.1023  0.3111  0.4324
  292TMC3    C6 4456   4.439   2.498   0.549 -0.7080 -0.2664  0.0686
  292TMC3     C 4457   4.355   2.891   0.497  0.1786  0.3075  0.2634
  292TMC3     O 4458   4.258   2.925   0.434  0.4717  0.1394  0.0969
  292TMC3     H 4459   4.462   2.795   0.707  0.4550  0.4594 -0.5310
  292TMC3    H1 4460   4.260   2.719   0.356 -0.4751 -2.2070 -0.9973
  292TMC3    H2 4461   4.488   2.401   0.547 -0.2300 -0.0658  1.8725
  292TMC3    C7 4462   4.344   2.458   0.329 -0.1852 -0.0331 -0.5286
  292TMC3    C8 4463   4.535   2.544   0.764 -0.0938  0.8790  0.4756
  292TMC3    O1 4464   4.429   2.376   0.302  0.3245  0.4471 -0.2444
  292TMC3    O2 4465   4.575   2.623   0.850  0.1886  0.0374 -0.3457
  293MPD2     C 4466   1.420   0.054  13.095  0.0320  0.4586  0.0672
  293MPD2    C1 4467   1.366   4.667  13.136  1.1715 -0.1396 -0.2520
  293MPD2    C2 4468   1.405   4.609  13.252  0.0185  0.0421 -0.9660
  293MPD2    C3 4469   1.516   4.661  13.325 -0.6948 -0.7082 -0.4198
  293MPD2    C4 4470   1.570   0.046  13.279  0.8780  0.2013  0.0958
  293MPD2    C5 4471   1.516   0.105  13.169  0.5535  0.3299 -0.6678
  293MPD2     H 4472   1.349   4.521  13.281  1.0969 -0.3555 -0.0520
  293MPD2    H1 4473   1.654   0.091  13.331  1.4416  1.7956 -2.1658
  293MPD2    H2 4474   1.381   0.108  13.010  0.8988  0.3038 -0.4174
  293MPD2    H3 4475   1.561   0.194  13.129  0.4177 -0.1737 -1.9525
  293MPD2     N 4476   1.562   4.599  13.440 -0.2011 -0.2079  0.2695
  293MPD2    H5 4477   1.503   4.527  13.479 -1.0951  0.3653 -0.0305
  293MPD2    N1 4478   1.279   4.608  13.041 -0.2813 -0.0560 -0.2350
  293MPD2    H7 4479   1.264   4.668  12.961 -0.1147 -0.9773 -0.9543
  294TMC3    C1 4480   1.118   4.453  12.944 -0.7552 -0.2067  0.1170
  294TMC3    C2 4481   1.063   4.332  12.950  0.6039 -0.1402 -0.0374
  294TMC3    C3 4482   0.969   4.296  12.859 -0.2871 -0.1605 -1.2311
  294TMC3    C4 4483   1.061   4.554  12.873  0.1278  0.3233  0.1781
  294TMC3    C5 4484   0.957   4.515  12.792  0.0908  0.5128 -0.4309
  294TMC3    C6 4485   0.903   4.384  12.781 -0.0582  0.0842 -0.4530
  294TMC3     C 4486   1.210   4.495  13.055  1.3062  0.2723  0.3101
  294TMC3     O 4487   1.202   4.420  13.151 -0.2147 -0.3210 -0.0343
  294TMC3     H 4488   1.101   4.261  13.023 -0.5789 -1.5201 -0.7668
  294TMC3    H1 4489   1.095   4.657  12.877  0.2715  0.3015 -0.4686
  294TMC3    H2 4490   0.838   4.355  12.699  2.5078  0.1250 -2.5400
  294TMC3    C7 4491   0.906   4.619  12.703  0.7040  0.7941 -0.5826
  294TMC3    C8 4492   0.949   4.157  12.839 -0.1629  0.2889  0.1115
  294TMC3    O1 4493   0.926   4.732  12.743 -0.1675  0.3409 -0.0781
  294TMC3    O2 4494   0.943   4.078  12.933  0.4377 -0.1957 -0.7372
  295MPD2     C 4495   2.481   2.187   1.067  0.4858 -0.0448 -0.5869
  295MPD2    C1 4496   2.348   2.202   1.114  0.2008  0.8341  0.1533
  295MPD2    C2 4497   2.307   2.136   1.227  0.3101 -0.5514  0.2762
  295MPD2    C3 4498   2.400   2.058   1.302  0.4927  0.1044  0.0465
  295MPD2    C4 4499   2.526   2.048   1.247 -0.0905  0.4043 -0.1498
  295MPD2    C5 4500   2.564   2.110   1.141 -0.4324  0.4549  0.3908
  295MPD2     H 4501   2.207   2.149   1.266  0.0301  0.1859 -0.6844
  295MPD2    H1 4502   2.602   1.983   1.289 -0.2038  0.7957  0.6598
  295MPD2    H2 4503   2.515   2.239   0.978 -0.8769  0.5324 -0.7747
  295MPD2    H3 4504   2.666   2.102   1.107 -0.0933 -0.7274  1.6887
  295MPD2     N 4505   2.368   1.973   1.411  0.2544  0.2615 -0.2199
  295MPD2    H5 4506   2.439   1.910   1.448 -0.6821 -0.0943  0.9860
  295MPD2    N1 4507   2.247   2.274   1.044 -0.1275  0.6265 -0.4482
  295MPD2    H7 4508   2.155   2.270   1.087 -0.1507  1.7450 -0.3903
  296TMC3    C1 4509   2.253   1.859   1.585 -0.5454  0.6279  0.4626
  296TMC3    C2 4510   2.133   1.849   1.652 -0.8667 -0.1655  0.1785
  296TMC3    C3 4511   2.110   1.736   1.717 -0.4268 -0.0081  0.4016
  296TMC3    C4 4512   2.349   1.755   1.583 -0.1355  0.3715  0.7269
  296TMC3    C5 4513   2.310   1.641   1.651  1.0903 -0.2664  0.5896
  296TMC3    C6 4514   2.194   1.632   1.723  0.4835  0.3951  0.8410
  296TMC3     C 4515   2.255   1.972   1.490  0.1541 -0.1359 -0.2738
  296TMC3     O 4516   2.167   2.055   1.486  0.2146 -0.2816 -0.5538
  296TMC3     H 4517   2.061   1.929   1.654 -2.7442 -1.8451 -0.2851
  296TMC3    H1 4518   2.447   1.768   1.539 -0.5828 -1.5720 -0.8539
  296TMC3    H2 4519   2.170   1.540   1.775 -0.3334 -0.1433 -0.4635
  296TMC3    C7 4520   2.406   1.529   1.659  0.2041 -0.1343 -0.1397
  296TMC3    C8 4521   1.972   1.697   1.743  0.4354 -0.6800 -0.2073
  296TMC3    O1 4522   2.523   1.569   1.664  0.1637 -0.0633 -0.1031
  296TMC3    O2 4523   1.947   1.629   1.843 -0.0724 -0.5673 -0.2120
  297MPD2     C 4524   4.385   0.401  16.766  0.3412  0.7398  0.1178
  297MPD2    C1 4525   4.400   0.332  16.652  0.1013  0.6402 -0.5881
  297MPD2    C2 4526   4.452   0.387  16.535 -0.1540 -0.0816  0.0856
  297MPD2    C3 4527   4.496   0.521  16.534  0.8157 -0.1601  0.1652
  297MPD2    C4 4528   4.496   0.587  16.653 -0.1846 -0.1259 -0.2062
  297MPD2    C5 4529   4.439   0.525  16.761 -0.0014  0.0556 -0.1627
  297MPD2     H 4530   4.459   0.323  16.448  2.6129  0.9812 -0.4845
  297MPD2    H1 4531   4.533   0.688  16.664  1.2682 -0.6373 -0.3332
  297MPD2    H2 4532   4.342   0.359  16.856 -0.0725  0.3248 -0.2746
  297MPD2    H3 4533   4.439   0.573  16.858 -1.5925 -0.4349  0.0849
  297MPD2     N 4534   4.538   0.584  16.418  0.0653  0.1514  0.3883
  297MPD2    H5 4535   4.580   0.676  16.431  2.1314 -0.6668 -0.4557
  297MPD2    N1 4536   4.339   0.201  16.624  0.5059  0.1215  0.3625
  297MPD2    H7 4537   4.324   0.163  16.531 -0.8785  1.8253 -0.1154
  298TMC3    C1 4538   4.198   0.013  16.654  0.2867 -0.6295 -0.3737
  298TMC3    C2 4539   4.173   4.643  16.730 -0.1008  0.1855  0.3297
  298TMC3    C3 4540   4.054   4.584  16.714 -0.7295 -0.1923 -0.0582
  298TMC3    C4 4541   4.103   0.065  16.564  0.0302  0.6834  0.3352
  298TMC3    C5 4542   3.980   0.002  16.553 -0.5864 -0.6471 -0.0800
  298TMC3    C6 4543   3.961   4.632  16.628 -0.4153  0.7217  0.1654
  298TMC3     C 4544   4.278   0.119  16.716  0.7275  0.2021 -0.5614
  298TMC3     O 4545   4.286   0.127  16.836 -0.1431  0.2154  0.1547
  298TMC3     H 4546   4.247   4.612  16.803 -1.1487 -1.1848  0.8176
  298TMC3    H1 4547   4.111   0.163  16.519  2.9566 -0.1920 -1.0826
  298TMC3    H2 4548   3.860   4.595  16.647 -0.1454  0.3900  0.9465
  298TMC3    C7 4549   3.872   0.086  16.507  0.4857  0.4073 -0.0812
  298TMC3    C8 4550   4.015   4.482  16.821  0.1855  0.1487  0.4583
  298TMC3    O1 4551   3.885   0.207  16.500 -0.0836 -0.1861 -0.3155
  298TMC3    O2 4552   4.057   4.506  16.934  0.4569 -0.0839 -0.7124
  299MPD2     C 4553   4.143   0.057  11.096  1.1711 -0.3434 -0.8083
  299MPD2    C1 4554   4.221   0.081  10.986  0.6315  0.0301 -0.4675
  299MPD2    C2 4555   4.164   0.087  10.864  0.2372  0.3877  0.0358
  299MPD2    C3 4556   4.031   0.063  10.846 -0.4314  0.7998 -0.0917
  299MPD2    C4 4557   3.953   0.037  10.957  0.6485  0.1546  0.3995
  299MPD2    C5 4558   4.010   0.035  11.082  0.9162  0.5362 -0.1371
  299MPD2     H 4559   4.218   0.089  10.770 -0.6338 -1.6130 -0.5135
  299MPD2    H1 4560   3.848   0.013  10.947  0.5473  1.0968 -0.7938
  299MPD2    H2 4561   4.193   0.057  11.192 -0.9814 -2.7165  0.2983
  299MPD2    H3 4562   3.953   0.030  11.174  1.9900  0.8200  0.5418
  299MPD2     N 4563   3.970   0.058  10.719 -0.0567  0.2650 -0.3990
  299MPD2    H5 4564   3.871   0.038  10.713 -0.0497  0.0842  0.0981
  299MPD2    N1 4565   4.356   0.075  11.010  0.0421 -0.8668 -0.4129
  299MPD2    H7 4566   4.390   0.030  11.093  0.7002 -0.2233 -0.3333
  300TMC3    C1 4567   3.949   0.011  10.489  0.0935 -0.4239  0.6739
  300TMC3    C2 4568   3.927   0.100  10.388  0.3848  0.1747  0.8408
  300TMC3    C3 4569   3.809   0.091  10.323  0.0687  0.2371  0.5169
  300TMC3    C4 4570   3.860   4.665  10.535  0.1388 -0.3873 -0.3311
  300TMC3    C5 4571   3.740   4.658  10.473 -0.1765  0.4978  0.5448
  300TMC3    C6 4572   3.716   0.001  10.368  0.6486  0.1415 -0.1822
  300TMC3     C 4573   4.030   0.067  10.594  0.6995  0.0310  0.5341
  300TMC3     O 4574   4.136   0.120  10.566 -0.6563  0.1148  0.2346
  300TMC3     H 4575   4.008   0.169  10.368  0.3824  0.9676  3.6133
  300TMC3    H1 4576   3.886   4.604  10.622 -1.2700  0.5895  0.7833
  300TMC3    H2 4577   3.617   4.728  10.326  1.0874  2.5033 -1.7085
  300TMC3    C7 4578   3.639   4.554  10.504  1.1886  0.0103 -0.2425
  300TMC3    C8 4579   3.745   0.214  10.300 -0.1873  0.5161  0.2723
  300TMC3    O1 4580   3.576   4.493  10.420  0.4037  0.1238 -0.3358
  300TMC3    O2 4581   3.626   0.193  10.295  0.1344  0.3447 -0.4073
  301MPD2     C 4582   2.001   1.358   1.226 -0.0638  0.3891  0.2869
  301MPD2    C1 4583   1.878   1.298   1.206 -0.4381  0.2169 -0.1036
  301MPD2    C2 4584   1.874   1.160   1.199  0.1125 -0.4241  0.2196
  301MPD2    C3 4585   1.979   1.087   1.243 -0.2839 -0.3589  0.4727
  301MPD2    C4 4586   2.096   1.146   1.268 -0.4987 -1.1311  0.4889
  301MPD2    C5 4587   2.109   1.284   1.251 -0.1745 -0.0996  0.2339
  301MPD2     H 4588   1.783   1.116   1.159  1.0490 -0.2655 -2.0848
  301MPD2    H1 4589   2.179   1.082   1.296 -0.6142 -1.1229  0.8506
  301MPD2    H2 4590   2.012   1.464   1.211 -0.5486 -0.0004 -2.8051
  301MPD2    H3 4591   2.205   1.331   1.267 -0.3255  0.2678  0.0713
  301MPD2     N 4592   1.972   0.949   1.269 -0.1638 -0.1332 -0.1769
  301MPD2    H5 4593   2.055   0.915   1.317 -1.8868 -1.5471  1.8439
  301MPD2    N1 4594   1.764   1.370   1.157 -0.1603  0.2137  0.2059
  301MPD2    H7 4595   1.685   1.315   1.126 -0.1077 -0.4474  1.2319
  302TMC3    C1 4596   1.894   0.728   1.270  0.1166 -0.0694  1.0054
  302TMC3    C2 4597   2.008   0.672   1.225  0.2941  0.0261 -0.3207
  302TMC3    C3 4598   2.016   0.535   1.203 -0.0221  0.5733 -0.1229
  302TMC3    C4 4599   1.783   0.647   1.286  0.2558 -0.0416 -0.1546
  302TMC3    C5 4600   1.791   0.516   1.266  0.6456  0.3290  0.3794
  302TMC3    C6 4601   1.906   0.456   1.225  0.0274 -0.0505  0.1845
  302TMC3     C 4602   1.861   0.866   1.244  0.0531  0.3301  0.4607
  302TMC3     O 4603   1.751   0.900   1.197 -0.3535 -0.1005 -0.2519
  302TMC3     H 4604   2.086   0.738   1.190 -0.2523  0.0381 -1.5110
  302TMC3    H1 4605   1.692   0.698   1.313  0.4558  1.0308 -1.4783
  302TMC3    H2 4606   1.907   0.347   1.219 -0.3514 -0.0112 -0.6508
  302TMC3    C7 4607   1.674   0.438   1.244  0.0663 -0.2750 -0.4906
  302TMC3    C8 4608   2.130   0.478   1.137 -0.1005  0.2536 -0.1095
  302TMC3    O1 4609   1.675   0.316   1.257 -0.4115 -0.0075  0.0748
  302TMC3    O2 4610   2.192   0.554   1.066  0.1994 -0.3766  0.5218
  303MPD2     C 4611   2.366   4.297  10.861  0.0268 -0.0376  0.3436
  303MPD2    C1 4612   2.286   4.187  10.886 -0.9774  0.2730 -0.1072
  303MPD2    C2 4613   2.274   4.078  10.790 -0.1879 -0.2898 -0.3201
  303MPD2    C3 4614   2.347   4.092  10.672 -0.3510 -0.1766 -0.1350
  303MPD2    C4 4615   2.420   4.204  10.648  0.2669  0.2270 -0.2897
  303MPD2    C5 4616   2.437   4.294  10.748  0.4207 -0.1798  0.1323
  303MPD2     H 4617   2.210   3.993  10.811  1.1247 -1.6195 -1.7585
  303MPD2    H1 4618   2.485   4.217  10.562  0.0535 -1.2128 -0.6646
  303MPD2    H2 4619   2.382   4.374  10.935  1.9158 -0.6573  0.5910
  303MPD2    H3 4620   2.514   4.368  10.728  0.3716 -0.5125 -1.2932
  303MPD2     N 4621   2.335   3.999  10.568  0.2201 -0.6185  0.1702
  303MPD2    H5 4622   2.393   4.031  10.491 -2.8751  1.5931 -1.2204
  303MPD2    N1 4623   2.215   4.184  11.007  0.6098 -0.1659 -0.7044
  303MPD2    H7 4624   2.213   4.270  11.061  1.2280 -1.9218  2.1413
  304TMC3    C1 4625   2.043   4.117  11.163 -0.8060  0.5007  0.1930
  304TMC3    C2 4626   1.939   4.200  11.123 -0.1194 -0.2739 -0.4104
  304TMC3    C3 4627   1.816   4.167  11.170 -0.2633  0.6732  0.5485
  304TMC3    C4 4628   2.016   4.002  11.235 -0.1607 -0.7440  0.5216
  304TMC3    C5 4629   1.896   3.967  11.288  0.3476  0.2245  0.1058
  304TMC3    C6 4630   1.796   4.066  11.271  0.0431 -0.9105  0.2077
  304TMC3     C 4631   2.130   4.088  11.054 -0.4287  0.3428  0.6605
  304TMC3     O 4632   2.115   3.977  11.015  0.0567 -0.5893 -0.2503
  304TMC3     H 4633   1.951   4.284  11.055 -1.0156  0.2514  0.0773
  304TMC3    H1 4634   2.107   3.943  11.245 -0.0496 -0.7023 -0.2246
  304TMC3    H2 4635   1.696   4.045  11.306  0.4358 -1.5830  0.9109
  304TMC3    C7 4636   1.854   3.828  11.275  0.7225  0.2854 -0.1518
  304TMC3    C8 4637   1.726   4.154  11.054  0.4871 -0.1091 -0.4944
  304TMC3    O1 4638   1.734   3.805  11.263 -0.3546 -0.3768 -0.1449
  304TMC3    O2 4639   1.736   4.241  10.968 -0.1571 -0.0571 -0.1687
  305MPD2     C 4640   4.696   1.673  14.338  0.7919 -0.1863 -0.6024
  305MPD2    C1 4641   0.043   1.564  14.351 -0.0176 -0.2871  0.1251
  305MPD2    C2 4642   0.045   1.463  14.260  0.0355  0.4977  1.1836
  305MPD2    C3 4643   4.688   1.469  14.160 -0.2785 -0.3198 -0.1092
  305MPD2    C4 4644   4.593   1.566  14.156 -0.3848 -0.1333  0.6892
  305MPD2    C5 4645   4.607   1.672  14.238 -0.1483 -0.3953 -0.1786
  305MPD2     H 4646   0.118   1.384  14.268  2.1531  2.4267  0.9360
  305MPD2    H1 4647   4.510   1.571  14.087 -0.1459 -0.4617  0.3777
  305MPD2    H2 4648   4.709   1.757  14.406 -0.2016  0.4281 -1.1676
  305MPD2    H3 4649   4.528   1.746  14.231 -0.4960 -0.6874  0.6179
  305MPD2     N 4650   4.679   1.380  14.058  0.5590  0.2000  0.1609
  305MPD2    H5 4651   4.610   1.397  13.986 -2.4156  1.3612  3.2588
  305MPD2    N1 4652   0.136   1.562  14.459 -0.0285 -0.2630  0.5247
  305MPD2    H7 4653   0.143   1.648  14.512  1.1822 -0.5272  0.7804
  306TMC3    C1 4654   0.306   1.492  14.608  0.8656 -0.3979 -0.1406
  306TMC3    C2 4655   0.351   1.384  14.679 -0.1582 -0.3784  0.0087
  306TMC3    C3 4656   0.466   1.410  14.751  0.2938 -0.0510 -0.4374
  306TMC3    C4 4657   0.352   1.620  14.624 -0.2585 -0.7808 -0.8476
  306TMC3    C5 4658   0.460   1.635  14.706 -0.1168 -0.7166 -0.1970
  306TMC3    C6 4659   0.531   1.531  14.765  0.9369 -0.0523 -0.3929
  306TMC3     C 4660   0.202   1.457  14.507  0.1900 -0.1112 -1.2829
  306TMC3     O 4661   0.160   1.340  14.499 -0.0576 -0.3086  0.3022
  306TMC3     H 4662   0.307   1.285  14.679 -0.5532 -0.2001  0.4051
  306TMC3    H1 4663   0.313   1.703  14.567  1.0907 -0.9187 -1.9621
  306TMC3    H2 4664   0.630   1.547  14.804  1.1585  0.7455 -1.2853
  306TMC3    C7 4665   0.487   1.770  14.729 -0.2653 -0.1910  0.1080
  306TMC3    C8 4666   0.528   1.311  14.837  0.3846  0.1137 -0.2671
  306TMC3    O1 4667   0.451   1.858  14.650 -0.3065  0.1079  0.1112
  306TMC3    O2 4668   0.510   1.191  14.813 -0.2630  0.3597  0.0203
  307MPD2     C 4669   3.050   3.888   0.179  0.2779  0.2818 -0.0659
  307MPD2    C1 4670   3.010   3.990   0.266  0.1191 -0.2811 -0.3300
  307MPD2    C2 4671   2.979   3.952   0.394 -0.5566 -0.2934 -0.3205
  307MPD2    C3 4672   2.998   3.823   0.442  0.6175 -0.6647  0.3947
  307MPD2    C4 4673   3.036   3.729   0.350  0.3163  0.8569 -1.2170
  307MPD2    C5 4674   3.063   3.763   0.221 -0.2225 -0.7149  0.6022
  307MPD2     H 4675   2.947   4.032   0.460 -1.4741 -1.5017  0.7074
  307MPD2    H1 4676   3.033   3.624   0.377 -2.1966  0.6675 -2.2865
  307MPD2    H2 4677   3.066   3.912   0.075  2.1107  0.3045  0.2225
  307MPD2    H3 4678   3.104   3.687   0.157 -1.4585 -0.4193 -0.5623
  307MPD2     N 4679   2.962   3.797   0.575  0.3297  0.0803  0.2835
  307MPD2    H5 4680   2.928   3.874   0.631  0.1792  0.4542 -0.3273
  307MPD2    N1 4681   2.995   4.121   0.220  0.6548 -0.2728  0.1112
  307MPD2    H7 4682   2.956   4.183   0.291  0.4436  1.2618 -1.3527
  308TMC3    C1 4683   2.628   3.686   0.807 -0.1890  0.2143 -0.1802
  308TMC3    C2 4684   2.646   3.805   0.879 -0.4702  0.3531 -0.0570
  308TMC3    C3 4685   2.773   3.865   0.882  0.2214  0.4335 -0.4065
  308TMC3    C4 4686   2.736   3.628   0.743  0.6551  0.2983  0.3445
  308TMC3    C5 4687   2.862   3.691   0.755 -0.6077 -0.7742 -0.5242
  308TMC3    C6 4688   2.880   3.805   0.823 -1.0554  0.9306  0.8075
  308TMC3     C 4689   2.503   3.628   0.767  0.5184 -0.2771  0.3361
  308TMC3     O 4690   2.502   3.511   0.726  0.0265  0.1930  0.2706
  308TMC3     H 4691   2.573   3.860   0.937  2.1877  1.3028  2.3759
  308TMC3    H1 4692   2.725   3.547   0.672 -0.7757  0.5393  0.3015
  308TMC3    H2 4693   2.971   3.865   0.819 -2.0880  2.3241 -1.9651
  308TMC3    C7 4694   2.946   3.674   0.638 -0.0023 -0.5582 -0.8835
  308TMC3    C8 4695   2.790   4.002   0.940 -0.9552 -0.1183 -0.4174
  308TMC3    O1 4696   2.952   3.564   0.583 -0.3386 -0.0227  0.2880
  308TMC3    O2 4697   2.903   4.043   0.952  0.6410 -0.1383 -0.0149
  309MPD2     C 4698   1.931   4.337  17.462  0.7768 -0.0080 -0.4017
  309MPD2    C1 4699   1.869   4.424  17.376 -0.1711  0.0155  0.2065
  309MPD2    C2 4700   1.761   4.489  17.425 -0.6260  0.1620 -0.5542
  309MPD2    C3 4701   1.710   4.481  17.554  0.0422 -0.8773 -0.1051
  309MPD2    C4 4702   1.785   4.411  17.644  0.1482  0.4007 -0.6103
  309MPD2    C5 4703   1.886   4.336  17.593  0.1791 -1.0422 -0.4291
  309MPD2     H 4704   1.697   4.532  17.349  0.8491 -0.7314 -2.3114
  309MPD2    H1 4705   1.760   4.398   0.002  0.3289  1.4449 -0.4414
  309MPD2    H2 4706   2.018   4.275  17.444 -1.6430 -3.2802 -0.8548
  309MPD2    H3 4707   1.944   4.278  17.664 -0.6771  1.3388  2.2223
  309MPD2     N 4708   1.585   4.538  17.599  0.6574 -0.9621 -0.5267
  309MPD2    H5 4709   1.552   4.498  17.687  1.8484 -0.4993  0.1242
  309MPD2    N1 4710   1.911   4.457  17.238 -0.2036 -0.6182 -0.1990
  309MPD2    H7 4711   1.857   4.521  17.181  0.9518  2.1914  1.8382
  310TMC3    C1 4712   2.031   4.417  17.037  0.3189  0.0341  0.2532
  310TMC3    C2 4713   1.917   4.428  16.956 -0.2328 -0.0271 -0.3855
  310TMC3    C3 4714   1.925   4.394  16.827  0.4185 -0.6204  0.6278
  310TMC3    C4 4715   2.148   4.370  16.983  0.5165  0.1506 -0.4105
  310TMC3    C5 4716   2.154   4.349  16.850 -1.0033 -0.5055  0.6200
  310TMC3    C6 4717   2.048   4.375  16.768  0.5777  0.2070 -0.3442
  310TMC3     C 4718   2.014   4.396  17.179 -0.0091 -0.3827  0.5298
  310TMC3     O 4719   2.096   4.315  17.223  0.5532  0.4869  0.1959
  310TMC3     H 4720   1.822   4.441  17.005 -0.4949 -1.4985 -0.5011
  310TMC3    H1 4721   2.227   4.337  17.049 -0.5801 -0.5580  0.5531
  310TMC3    H2 4722   2.053   4.343  16.665  0.3370  0.7258 -0.5185
  310TMC3    C7 4723   2.254   4.262  16.794  0.3792  0.3261 -0.8003
  310TMC3    C8 4724   1.801   4.410  16.758  0.3313  0.5100  0.2298
  310TMC3    O1 4725   2.221   4.194  16.701  0.4540 -0.0709 -0.3226
  310TMC3    O2 4726   1.702   4.425  16.824 -0.3725 -0.3467 -0.3552
  311MPD2     C 4727   4.013   1.193  13.125 -0.4437  0.7469  0.4428
  311MPD2    C1 4728   3.953   1.261  13.009  0.9144 -0.1416  0.7393
  311MPD2    C2 4729   3.817   1.281  13.018  0.1613  0.1291 -0.5240
  311MPD2    C3 4730   3.744   1.232  13.127 -0.3617 -0.8655 -0.3698
  311MPD2    C4 4731   3.813   1.180  13.232 -0.1034 -0.4320  0.4787
  311MPD2    C5 4732   3.946   1.169  13.242 -1.0421 -0.1486  0.3213
  311MPD2     H 4733   3.760   1.324  12.936 -0.8175  0.1413  0.1657
  311MPD2    H1 4734   3.752   1.150  13.317 -0.8228 -0.9140 -0.2052
  311MPD2    H2 4735   4.120   1.173  13.130 -0.3443  1.5154  1.4029
  311MPD2    H3 4736   4.001   1.127  13.326 -1.5782 -2.6308 -0.5601
  311MPD2     N 4737   3.604   1.262  13.137 -0.6582 -0.4147 -0.4877
  311MPD2    H5 4738   3.564   1.256  13.231 -1.1182  1.7257 -0.5331
  311MPD2    N1 4739   4.016   1.280  12.886  0.6774 -0.2275 -0.3360
  311MPD2    H7 4740   3.962   1.313  12.807  0.2640  1.1439  0.5308
  312TMC3    C1 4741   3.381   1.301  13.090  0.5528 -0.0884 -1.2194
  312TMC3    C2 4742   3.278   1.228  13.040 -0.0753 -0.0719 -0.1503
  312TMC3    C3 4743   3.167   1.204  13.117  0.4819 -0.3479  0.3284
  312TMC3    C4 4744   3.356   1.364  13.212  0.3086 -0.2191 -0.3626
  312TMC3    C5 4745   3.236   1.362  13.263 -0.8255 -0.1876 -0.2092
  312TMC3    C6 4746   3.142   1.273  13.230 -0.7930 -0.1163  0.8333
  312TMC3     C 4747   3.513   1.302  13.037 -0.1750 -0.1133 -0.2419
  312TMC3     O 4748   3.522   1.296  12.914  0.2969 -0.0568 -0.2919
  312TMC3     H 4749   3.278   1.180  12.943  2.3187  0.2411 -0.3054
  312TMC3    H1 4750   3.431   1.431  13.252 -1.2336 -0.0608  2.2059
  312TMC3    H2 4751   3.053   1.242  13.284 -1.9260 -0.3898 -1.2084
  312TMC3    C7 4752   3.229   1.418  13.397 -0.5581  0.0275  0.8755
  312TMC3    C8 4753   3.058   1.121  13.062 -0.0227 -0.4520  0.4023
  312TMC3    O1 4754   3.327   1.477  13.442 -0.1370 -0.0506 -0.4024
  312TMC3    O2 4755   3.031   1.020  13.123 -0.2985 -0.1459 -0.3804
  313MPD2     C 4756   2.597   0.779  11.636 -0.6417 -0.6563  0.2785
  313MPD2    C1 4757   2.710   0.772  11.561 -0.4142 -0.2636 -0.3392
  313MPD2    C2 4758   2.781   0.652  11.547 -0.0465  0.0200 -0.7131
  313MPD2    C3 4759   2.724   0.536  11.599 -1.1993 -0.6126  0.1593
  313MPD2    C4 4760   2.613   0.549  11.679  0.2048  0.2606 -0.1162
  313MPD2    C5 4761   2.540   0.666  11.688  0.0712  0.3927  0.0828
  313MPD2     H 4762   2.872   0.649  11.489 -1.0964  0.8922 -2.4183
  313MPD2    H1 4763   2.561   0.461  11.716 -0.2309  0.8484  0.6579
  313MPD2    H2 4764   2.547   0.874  11.655 -0.2116 -0.3007 -0.3797
  313MPD2    H3 4765   2.448   0.668  11.745  0.2540 -1.1184  0.4320
  313MPD2     N 4766   2.783   0.406  11.570  0.3370  0.5620  0.2502
  313MPD2    H5 4767   2.859   0.400  11.503  0.3760  2.1470  0.1638
  313MPD2    N1 4768   2.768   0.885  11.492 -0.0976  0.0365 -0.2271
  313MPD2    H7 4769   2.852   0.875  11.438 -0.3054  0.4279 -0.6233
  314TMC3    C1 4770   2.781   1.094  11.393 -0.4618  0.0802 -0.0078
  314TMC3    C2 4771   2.921   1.096  11.405 -0.0418 -0.0528 -0.2194
  314TMC3    C3 4772   2.983   1.196  11.334 -0.2267 -0.4484 -0.5174
  314TMC3    C4 4773   2.705   1.179  11.319  0.4582  0.1269  0.2014
  314TMC3    C5 4774   2.775   1.278  11.254 -0.3984 -0.1475  0.0980
  314TMC3    C6 4775   2.911   1.289  11.266  0.2771 -0.3546  0.6564
  314TMC3     C 4776   2.703   0.997  11.466  0.2896 -0.2217  0.2875
  314TMC3     O 4777   2.592   1.032  11.494  0.2455 -0.4020  0.0115
  314TMC3     H 4778   2.974   1.023  11.464 -1.5539 -1.4966 -0.6669
  314TMC3    H1 4779   2.598   1.166  11.310 -0.1466  2.9224  3.1253
  314TMC3    H2 4780   2.960   1.367  11.210  1.1291  0.1730  2.1277
  314TMC3    C7 4781   2.729   1.271  11.116 -0.0591 -0.3502 -0.1648
  314TMC3    C8 4782   3.128   1.198  11.319 -0.4268  0.9732  0.0448
  314TMC3    O1 4783   2.608   1.248  11.100  0.0230 -0.1911 -0.2670
  314TMC3    O2 4784   3.171   1.296  11.258 -0.0125  0.4239 -0.4699
  315MPD2     C 4785   3.111   4.495   0.472 -0.1134 -0.1324 -0.1477
  315MPD2    C1 4786   3.221   4.427   0.422  0.5576  0.0596 -0.1259
  315MPD2    C2 4787   3.307   4.496   0.344  0.4731 -0.1633 -0.0278
  315MPD2    C3 4788   3.284   4.630   0.315 -0.1589  1.0478 -0.0196
  315MPD2    C4 4789   3.181   4.703   0.375 -0.0024 -0.1189  0.1384
  315MPD2    C5 4790   3.099   4.629   0.458  0.4387 -0.8477  0.4040
  315MPD2     H 4791   3.391   4.446   0.297  0.1150 -0.3447 -0.4728
  315MPD2    H1 4792   3.179   0.073   0.360  1.6294 -0.1743 -0.4137
  315MPD2    H2 4793   3.035   4.450   0.534  1.4224 -2.0994  0.3163
  315MPD2    H3 4794   3.022   4.684   0.510  1.8459 -0.3523  1.9762
  315MPD2     N 4795   3.384   4.688   0.238  0.1508 -0.5023  0.6319
  315MPD2    H5 4796   3.456   4.626   0.203  0.6615  0.1720  0.5138
  315MPD2    N1 4797   3.251   4.286   0.429  0.1925 -0.3579 -0.3100
  315MPD2    H7 4798   3.323   4.252   0.365  0.2470 -1.3527  0.2656
  316TMC3    C1 4799   3.519   0.108   0.147  0.2131  0.0467 -0.0465
  316TMC3    C2 4800   3.620   0.043   0.211  0.2376  0.1896  0.2027
  316TMC3    C3 4801   3.743   0.077   0.178  0.3061 -0.0655  0.4062
  316TMC3    C4 4802   3.542   0.176   0.032  0.1141  0.4479 -0.3704
  316TMC3    C5 4803   3.671   0.198  17.741  0.5461  0.0679 -0.3770
  316TMC3    C6 4804   3.776   0.147   0.067  0.4481  0.1333 -0.5279
  316TMC3     C 4805   3.384   0.080   0.193 -0.0007 -0.1432  0.0683
  316TMC3     O 4806   3.286   0.154   0.175  0.0387  0.3175 -0.0414
  316TMC3     H 4807   3.603   4.728   0.305 -1.2331 -1.3197 -0.8809
  316TMC3    H1 4808   3.471   0.240  17.727  2.0720  2.1139 -1.0292
  316TMC3    H2 4809   3.881   0.170   0.051  0.9129  0.1840  2.5250
  316TMC3    C7 4810   3.712   0.253  17.617  0.2511  0.2100  1.1860
  316TMC3    C8 4811   3.855   0.023   0.253 -0.5526 -0.0838 -0.5219
  316TMC3    O1 4812   3.827   0.289  17.614  0.0457  0.2499  0.5233
  316TMC3    O2 4813   3.964   0.082   0.247  0.3337  0.2536 -0.0886
  317MPD2     C 4814   0.376   3.271  12.651  0.1221  0.4525 -0.6837
  317MPD2    C1 4815   0.424   3.142  12.622 -0.5646  0.6725 -0.2007
  317MPD2    C2 4816   0.447   3.060  12.730  0.1506  0.2213 -0.2337
  317MPD2    C3 4817   0.429   3.100  12.860  0.1123 -0.7696 -0.0246
  317MPD2    C4 4818   0.376   3.227  12.885 -0.1874  0.3203 -0.0698
  317MPD2    C5 4819   0.347   3.304  12.775  0.1551 -0.4592  0.6029
  317MPD2     H 4820   0.502   2.967  12.726 -1.4926 -0.6974 -1.4706
  317MPD2    H1 4821   0.349   3.269  12.981 -1.5042 -0.5515 -0.0453
  317MPD2    H2 4822   0.349   3.338  12.570 -4.0438  0.9881  1.1412
  317MPD2    H3 4823   0.301   3.401  12.790  0.8248  0.3468 -2.4740
  317MPD2     N 4824   0.469   3.017  12.970 -0.7939 -0.2198 -0.2959
  317MPD2    H5 4825   0.515   2.931  12.942 -2.3074 -0.9817 -0.4425
  317MPD2    N1 4826   0.447   3.095  12.487 -0.3077  0.1717  0.0518
  317MPD2    H7 4827   0.490   3.003  12.486 -0.8029 -0.0731  1.5145
  318TMC3    C1 4828   0.505   2.927  13.174  0.3119  0.3209  0.2155
  318TMC3    C2 4829   0.467   2.802  13.129  0.2086 -0.5990  0.2716
  318TMC3    C3 4830   0.539   2.701  13.189  0.3150 -0.2273 -0.6612
  318TMC3    C4 4831   0.593   2.954  13.274 -0.4766  0.1599  0.0104
  318TMC3    C5 4832   0.656   2.847  13.337 -0.0333  0.4048  1.1789
  318TMC3    C6 4833   0.625   2.720  13.298 -0.2617 -0.9867  0.1838
  318TMC3     C 4834   0.457   3.048  13.101 -0.3336 -0.3262  0.6913
  318TMC3     O 4835   0.449   3.155  13.158 -0.1748 -0.1474 -0.5476
  318TMC3     H 4836   0.386   2.799  13.057 -2.8937  2.3696  3.6404
  318TMC3    H1 4837   0.617   3.058  13.291 -0.0399 -0.2695  2.0199
  318TMC3    H2 4838   0.691   2.641  13.333 -0.9099 -0.9736  1.4314
  318TMC3    C7 4839   0.766   2.888  13.421 -0.1200 -0.0913  0.1527
  318TMC3    C8 4840   0.497   2.565  13.151  0.1571 -0.2890  0.0875
  318TMC3    O1 4841   0.779   3.002  13.457 -0.0147  0.0240 -0.0749
  318TMC3    O2 4842   0.548   2.478  13.221 -0.2748 -0.2513  0.6293
  319MPD2     C 4843   1.158   4.147  17.035 -0.3078  0.8386 -0.6029
  319MPD2    C1 4844   1.135   4.011  17.053 -0.3279 -0.6249 -0.7836
  319MPD2    C2 4845   1.028   3.957  16.986 -0.1769 -0.2423 -0.1950
  319MPD2    C3 4846   0.959   4.020  16.889  0.0134 -0.3594  0.5996
  319MPD2    C4 4847   0.986   4.155  16.867  0.7697 -0.3809  0.1692
  319MPD2    C5 4848   1.088   4.210  16.934 -0.7992 -0.8205 -0.2262
  319MPD2     H 4849   1.010   3.854  17.014 -1.2487  0.3109  1.1482
  319MPD2    H1 4850   0.933   4.219  16.797 -1.3316 -3.0643 -0.7018
  319MPD2    H2 4851   1.239   4.194  17.089 -0.7813  2.2980 -1.1732
  319MPD2    H3 4852   1.105   4.315  16.914 -2.0526 -0.3358  1.2026
  319MPD2     N 4853   0.867   3.956  16.807  0.1435  0.5039 -0.2177
  319MPD2    H5 4854   0.829   4.023  16.740 -1.5395  0.1309  0.3635
  319MPD2    N1 4855   1.199   3.932  17.155 -0.0114  0.3713 -0.2394
  319MPD2    H7 4856   1.162   3.841  17.177  1.9935 -0.1536  0.9509
  320TMC3    C1 4857   0.758   3.783  16.688  0.2614 -0.3303 -0.5117
  320TMC3    C2 4858   0.744   3.870  16.585  0.5348  0.3239 -0.2602
  320TMC3    C3 4859   0.700   3.820  16.467 -0.0967 -0.1383 -0.0531
  320TMC3    C4 4860   0.719   3.651  16.678 -0.0885 -0.0702  0.1226
  320TMC3    C5 4861   0.663   3.609  16.560 -0.7769  0.6357  0.0937
  320TMC3    C6 4862   0.664   3.687  16.454  0.0224  0.7366 -0.4715
  320TMC3     C 4863   0.842   3.826  16.802  0.1730  0.3786 -0.3933
  320TMC3     O 4864   0.884   3.727  16.866  0.5370 -0.6953  0.2520
  320TMC3     H 4865   0.772   3.974  16.572 -0.6930  0.7264  0.3118
  320TMC3    H1 4866   0.716   3.588  16.766  0.0321  0.1162  0.2598
  320TMC3    H2 4867   0.631   3.646  16.359 -0.7377 -0.3745  0.2645
  320TMC3    C7 4868   0.643   3.466  16.531 -0.2308 -0.2942  0.6543
  320TMC3    C8 4869   0.694   3.913  16.352  0.2713 -0.0424  0.6015
  320TMC3    O1 4870   0.580   3.445  16.434 -0.3679  0.2227 -0.3499
  320TMC3    O2 4871   0.753   4.020  16.359  0.3047 -0.1097  0.0670
  321TMC3    C1 4872   1.342   3.885  17.346  0.6467  0.1110  0.4677
  321TMC3    C2 4873   1.235   3.813  17.398  0.3452  0.6774  0.5652
  321TMC3    C3 4874   1.261   3.757  17.522 -0.0630 -0.1119  0.3719
  321TMC3    C4 4875   1.460   3.917  17.418 -0.2824  0.1702 -0.3407
  321TMC3    C5 4876   1.466   3.875  17.547 -0.1977 -0.5822 -0.2030
  321TMC3    C6 4877   1.362   3.798  17.599  0.8882  0.2042 -0.3423
  321TMC3     C 4878   1.305   3.975  17.236 -0.3122  0.7270 -1.1268
  321TMC3     O 4879   1.381   4.073  17.226  0.4133 -0.1540 -0.0751
  321TMC3     H 4880   1.156   3.776  17.333  0.7844 -0.8240  0.8829
  321TMC3    H1 4881   1.531   3.980  17.366  1.1708 -0.9355  0.2826
  321TMC3    H2 4882   1.358   3.771  17.704 -1.7924  0.5085 -0.3535
  321TMC3    C7 4883   1.594   3.828  17.590  0.4668 -0.2687  0.3438
  321TMC3    C8 4884   1.238   3.617  17.533  0.4297  0.2656 -0.8333
  321TMC3    O1 4885   1.584   3.724  17.655 -0.6090  0.5649  0.2828
  321TMC3    O2 4886   1.141   3.557  17.485 -0.5193 -0.6074  0.6865
  322MPD2     C 4887   0.218   0.951  13.910 -0.4897 -0.4843  0.0991
  322MPD2    C1 4888   0.175   0.861  14.000  0.1700 -0.4423 -0.5280
  322MPD2    C2 4889   0.117   0.744  13.959  0.6086  0.0506  0.3754
  322MPD2    C3 4890   0.100   0.712  13.824  0.9181  0.0455 -0.4722
  322MPD2    C4 4891   0.142   0.809  13.734  0.5442  0.4033  0.4185
  322MPD2    C5 4892   0.203   0.928  13.771  0.1224  0.4772 -0.6328
  322MPD2     H 4893   0.098   0.664  14.030 -0.5505  0.5632  0.6369
  322MPD2    H1 4894   0.129   0.793  13.628  0.0251 -0.1675  0.5661
  322MPD2    H2 4895   0.274   1.037  13.945  0.3036 -1.1081  0.3685
  322MPD2    H3 4896   0.231   1.003  13.698 -1.2020  0.2249 -1.3893
  322MPD2     N 4897   0.053   0.582  13.786  0.1335  0.7831 -0.2405
  322MPD2    H5 4898   0.035   0.519  13.864 -1.7192  2.8288  0.9735
  322MPD2    N1 4899   0.188   0.905  14.130 -0.6762 -0.0778 -0.0661
  322MPD2    H7 4900   0.221   1.001  14.139 -0.6821 -0.1480  0.6335
  323TMC3    C1 4901   0.191   0.901  14.368  0.6521  0.1254  0.3016
  323TMC3    C2 4902   0.230   1.032  14.357  0.3711 -0.3031  0.5681
  323TMC3    C3 4903   0.323   1.080  14.441 -0.5366  0.2829 -0.1419
  323TMC3    C4 4904   0.242   0.818  14.467  0.8318  0.3792  0.4476
  323TMC3    C5 4905   0.330   0.874  14.551  0.0244  0.1097  0.7143
  323TMC3    C6 4906   0.371   1.002  14.545 -0.1391  0.0799  0.6167
  323TMC3     C 4907   0.173   0.829  14.244  0.4152  0.8781 -0.3362
  323TMC3     O 4908   0.157   0.711  14.254 -0.3942  0.3923  0.2522
  323TMC3     H 4909   0.181   1.094  14.283  1.4234  1.7198  1.5794
  323TMC3    H1 4910   0.219   0.713  14.471 -2.4706  1.0472 -1.3620
  323TMC3    H2 4911   0.446   1.041  14.612 -0.2575  2.2183 -0.4551
  323TMC3    C7 4912   0.388   0.788  14.655 -0.1125  0.8668 -0.3016
  323TMC3    C8 4913   0.411   1.187  14.399 -0.4515  0.8611 -0.1093
  323TMC3    O1 4914   0.384   0.667  14.631  0.5242 -0.0411  0.0235
  323TMC3    O2 4915   0.521   1.190  14.462 -0.0358 -0.5939  0.2322
  324MPD2     C 4916   1.656   1.329  14.520  0.3417 -0.1099 -0.9087
  324MPD2    C1 4917   1.705   1.428  14.438 -0.4323 -0.0953  0.1040
  324MPD2    C2 4918   1.608   1.499  14.366  0.3931  0.1608  0.4482
  324MPD2    C3 4919   1.469   1.486  14.389 -0.1149  0.2947 -0.3050
  324MPD2    C4 4920   1.427   1.405  14.486  0.3392  0.0984  0.3300
  324MPD2    C5 4921   1.519   1.319  14.541 -0.5683 -0.1904 -0.0536
  324MPD2     H 4922   1.638   1.566  14.286  0.2501 -0.5563 -0.2015
  324MPD2    H1 4923   1.322   1.389  14.510  0.1010  1.3649  0.1571
  324MPD2    H2 4924   1.719   1.263  14.577 -1.4655 -0.3362  0.8183
  324MPD2    H3 4925   1.477   1.252  14.615 -0.2959 -0.1757  0.1129
  324MPD2     N 4926   1.378   1.579  14.328 -0.1188 -0.8479  0.4941
  324MPD2    H5 4927   1.283   1.575  14.365 -0.8455 -0.0090 -1.2892
  324MPD2    N1 4928   1.840   1.442  14.409  0.6077 -0.3060  0.7870
  324MPD2    H7 4929   1.861   1.508  14.335 -1.5543 -2.7624 -2.0348
  325TMC3    C1 4930   1.289   1.783  14.266  0.2339  0.6963  0.2215
  325TMC3    C2 4931   1.172   1.733  14.224 -0.1897  0.0752  0.2244
  325TMC3    C3 4932   1.065   1.819  14.216 -0.1880 -0.3513  0.5641
  325TMC3    C4 4933   1.305   1.911  14.310  0.0755 -0.2170  0.8862
  325TMC3    C5 4934   1.200   1.999  14.297  0.6931  0.2868  0.0129
  325TMC3    C6 4935   1.075   1.949  14.264 -0.5869  0.0669 -0.4453
  325TMC3     C 4936   1.405   1.698  14.259 -0.3570  0.2680  0.4740
  325TMC3     O 4937   1.513   1.752  14.228 -0.6186 -1.1529  0.2353
  325TMC3     H 4938   1.150   1.630  14.195  2.7394 -0.9390  1.6328
  325TMC3    H1 4939   1.403   1.948  14.337 -0.9338 -0.0137  4.1951
  325TMC3    H2 4940   0.997   2.021  14.240 -1.7456 -0.3032  2.2111
  325TMC3    C7 4941   1.228   2.137  14.299 -0.3776 -0.5309 -0.8487
  325TMC3    C8 4942   0.955   1.786  14.136 -0.4578  0.0884 -0.1629
  325TMC3    O1 4943   1.349   2.168  14.282 -0.0513  0.1960 -0.4411
  325TMC3    O2 4944   0.961   1.693  14.054 -0.0455 -0.2194 -0.5421
  326MPD2     C 4945   2.506   2.769  11.575  0.1285 -0.3959 -0.4670
  326MPD2    C1 4946   2.571   2.812  11.460  0.6608  0.2776  0.0830
  326MPD2    C2 4947   2.708   2.844  11.467  0.2194  0.3722 -0.1980
  326MPD2    C3 4948   2.776   2.838  11.586  0.1057 -0.5564  0.5436
  326MPD2    C4 4949   2.705   2.814  11.707 -0.6124 -0.3222  0.5385
  326MPD2    C5 4950   2.578   2.779  11.698 -0.2305  0.4505 -0.3376
  326MPD2     H 4951   2.757   2.871  11.373  0.5130  1.6683  0.3276
  326MPD2    H1 4952   2.762   2.815  11.799 -0.8780 -2.1204  0.7319
  326MPD2    H2 4953   2.401   2.743  11.579 -0.2218  1.1843  0.3765
  326MPD2    H3 4954   2.529   2.750  11.790 -0.4098  0.1102 -0.5410
  326MPD2     N 4955   2.913   2.854  11.602 -0.2951 -0.3286 -0.2666
  326MPD2    H5 4956   2.943   2.860  11.698  0.1441 -0.4929 -0.3932
  326MPD2    N1 4957   2.518   2.828  11.333 -0.2471 -0.6461  0.5767
  326MPD2    H7 4958   2.578   2.857  11.257 -1.4014  1.3825  0.4498
  327TMC3    C1 4959   2.368   2.837  11.161 -0.4618 -0.1925 -0.3931
  327TMC3    C2 4960   2.378   2.957  11.096  0.6498  0.2382  1.0054
  327TMC3    C3 4961   2.377   2.966  10.959  0.0431  0.0849 -0.6448
  327TMC3    C4 4962   2.352   2.726  11.088 -0.3790  0.0701 -1.0336
  327TMC3    C5 4963   2.361   2.739  10.950  0.1298 -0.4769  0.0660
  327TMC3    C6 4964   2.359   2.854  10.878  0.2953 -1.1894 -0.0083
  327TMC3     C 4965   2.379   2.815  11.303 -0.1483 -0.3340  0.4472
  327TMC3     O 4966   2.291   2.758  11.368 -0.8930 -0.1019  0.3786
  327TMC3     H 4967   2.386   3.048  11.153  0.8408  0.8866 -0.0577
  327TMC3    H1 4968   2.332   2.632  11.138 -0.3572  0.8814  0.5152
  327TMC3    H2 4969   2.368   2.859  10.770 -0.6848 -1.7628 -0.1088
  327TMC3    C7 4970   2.432   2.626  10.889 -0.3768  0.5854  0.4048
  327TMC3    C8 4971   2.367   3.090  10.904  0.0697 -0.1944 -0.2095
  327TMC3    O1 4972   2.448   2.637  10.768  0.1100  0.2671  0.0193
  327TMC3    O2 4973   2.440   3.133  10.814 -0.4522 -0.5636 -0.5084
  328MPD2     C 4974   0.703   3.073  17.118  0.4878  0.1456 -0.4211
  328MPD2    C1 4975   0.595   2.997  17.160  0.2562 -0.0987  0.5377
  328MPD2    C2 4976   0.476   2.999  17.088 -0.9797 -0.2185  0.3137
  328MPD2    C3 4977   0.456   3.095  16.991  0.8095 -0.1269 -0.3812
  328MPD2    C4 4978   0.556   3.181  16.963  0.4504  0.2267 -0.4491
  328MPD2    C5 4979   0.683   3.168  17.020 -0.6373  0.0541  0.6279
  328MPD2     H 4980   0.396   2.928  17.107 -0.3343 -1.6045 -2.1475
  328MPD2    H1 4981   0.542   3.240  16.873 -0.3465  2.0704  0.8599
  328MPD2    H2 4982   0.803   3.062  17.158  0.6093 -0.4666 -0.8831
  328MPD2    H3 4983   0.770   3.223  16.985 -1.0275  0.3659  0.1673
  328MPD2     N 4984   0.329   3.106  16.930 -0.4575  0.4284 -0.1736
  328MPD2    H5 4985   0.322   3.184  16.866  0.7269  0.6328 -0.0605
  328MPD2    N1 4986   0.616   2.912  17.271 -0.4404 -0.5742  0.0280
  328MPD2    H7 4987   0.710   2.907  17.307  0.0388  3.3647 -0.7026
  329TMC3    C1 4988   0.568   2.727  17.403  0.2317  0.3256 -0.1696
  329TMC3    C2 4989   0.662   2.730  17.506  0.4355  0.7532  0.5323
  329TMC3    C3 4990   0.678   2.614  17.579 -0.6570 -0.3943 -0.0580
  329TMC3    C4 4991   0.516   2.612  17.361  0.1478 -0.0134 -0.5283
  329TMC3    C5 4992   0.555   2.490  17.419 -0.8504  0.3232  0.3394
  329TMC3    C6 4993   0.631   2.488  17.534 -0.1590 -0.2444  0.2341
  329TMC3     C 4994   0.516   2.840  17.329  0.6364  0.6457 -0.0028
  329TMC3     O 4995   0.395   2.840  17.315  0.1001 -0.9204  0.6253
  329TMC3     H 4996   0.733   2.808  17.532  0.8258  0.4514  0.3766
  329TMC3    H1 4997   0.450   2.617  17.275  0.0111 -1.6610 -0.5248
  329TMC3    H2 4998   0.649   2.394  17.585  0.6148 -1.1085 -1.6449
  329TMC3    C7 4999   0.528   2.368  17.346  0.0104 -0.6224 -0.4558
  329TMC3    C8 5000   0.723   2.624  17.713 -0.0596  0.3094  0.2207
  329TMC3    O1 5001   0.559   2.266  17.411 -1.0338 -0.0067  0.4101
  329TMC3    O2 5002   0.779   2.526   0.005 -0.0053  0.0536 -0.0373
  330TMC3    C1 5003   3.258   2.531   9.804  0.7947  0.8662 -1.2457
  330TMC3    C2 5004   3.250   2.441   9.700  0.2950  0.1717  1.4767
  330TMC3    C3 5005   3.334   2.335   9.703 -0.8292 -1.1559 -0.1339
  330TMC3    C4 5006   3.346   2.513   9.901 -0.4474 -0.5409 -0.5606
  330TMC3    C5 5007   3.440   2.414   9.903  0.1479 -0.2667  0.5423
  330TMC3    C6 5008   3.432   2.321   9.797 -0.3183  0.7067 -0.5723
  330TMC3     C 5009   3.161   2.645   9.812 -0.1843 -0.8361  0.8500
  330TMC3     O 5010   3.144   2.695   9.922 -0.0060  0.4358 -0.2631
  330TMC3     H 5011   3.168   2.432   9.630  0.2548 -1.8084  1.7739
  330TMC3    H1 5012   3.330   2.577   9.987  2.6814 -0.4375 -0.0674
  330TMC3    H2 5013   3.495   2.233   9.785  0.1068  0.9900 -0.4140
  330TMC3    C7 5014   3.527   2.394  10.013 -0.4164  0.7125 -0.6497
  330TMC3    C8 5015   3.308   2.224   9.608 -0.4927 -0.1782  0.2772
  330TMC3    O1 5016   3.513   2.468  10.107  0.0297 -0.2268 -0.0876
  330TMC3    O2 5017   3.265   2.248   9.497  0.2177  0.2941 -0.5010
  331MPD2     C 5018   0.715   1.103  13.242 -0.0775  0.9936  0.8265
  331MPD2    C1 5019   0.830   1.160  13.191 -0.6944 -0.5955 -0.4451
  331MPD2    C2 5020   0.923   1.080  13.124 -0.1529 -0.0105  0.2673
  331MPD2    C3 5021   0.906   0.944  13.119 -0.0706 -0.6874 -0.0140
  331MPD2    C4 5022   0.791   0.881  13.179 -0.7196  0.3723  0.0881
  331MPD2    C5 5023   0.699   0.966  13.239 -0.2435 -0.4108  0.5003
  331MPD2     H 5024   1.005   1.129  13.073 -1.7363  1.4789 -0.8411
  331MPD2    H1 5025   0.767   0.776  13.190  2.0539  0.0004  2.6381
  331MPD2    H2 5026   0.627   1.155  13.277 -0.8682  0.7498 -0.7894
  331MPD2    H3 5027   0.607   0.918  13.272 -1.2591  0.3931 -1.1405
  331MPD2     N 5028   1.004   0.867  13.058  0.4939 -0.5537  0.0788
  331MPD2    H5 5029   1.074   0.925  13.012  2.1575 -2.9570 -0.4082
  331MPD2    N1 5030   0.836   1.298  13.198  0.7000 -0.6864  0.9124
  331MPD2    H7 5031   0.755   1.351  13.228  0.9836  0.6480 -0.6557
  332TMC3    C1 5032   1.142   0.691  12.997  0.6993  0.3187 -0.2389
  332TMC3    C2 5033   1.169   0.757  12.884 -0.0468  0.8798  0.6926
  332TMC3    C3 5034   1.290   0.728  12.822  0.2330 -0.3323 -0.8801
  332TMC3    C4 5035   1.224   0.590  13.052 -1.0442  0.4224 -0.2157
  332TMC3    C5 5036   1.347   0.579  12.994 -0.0765 -0.5599  0.1187
  332TMC3    C6 5037   1.379   0.638  12.878 -0.6709 -0.1050  0.1862
  332TMC3     C 5038   1.018   0.729  13.061 -0.1272  0.7003  0.3142
  332TMC3     O 5039   0.968   0.658  13.151  0.3036  0.4152 -0.5899
  332TMC3     H 5040   1.101   0.827  12.836 -0.6963  0.1383  0.5246
  332TMC3    H1 5041   1.196   0.526  13.134  2.4983 -0.7331  0.0881
  332TMC3    H2 5042   1.472   0.619  12.827 -0.8564 -0.9933  0.1854
  332TMC3    C7 5043   1.450   0.517  13.075 -0.5957  0.4484  0.5936
  332TMC3    C8 5044   1.355   0.833  12.741  0.1944 -0.1619  0.0140
  332TMC3    O1 5045   1.407   0.434  13.159 -0.2341  0.1494  0.6269
  332TMC3    O2 5046   1.477   0.849  12.742  0.0176 -0.2332 -0.3778
  333MPD2     C 5047   1.434   1.474  11.218  0.6597  0.0141  0.4473
  333MPD2    C1 5048   1.565   1.508  11.222 -0.5298 -0.1603  0.0593
  333MPD2    C2 5049   1.648   1.468  11.326 -0.5547 -0.2172 -0.1687
  333MPD2    C3 5050   1.588   1.391  11.434 -0.4228  0.0779 -0.3752
  333MPD2    C4 5051   1.451   1.371  11.429 -0.9297  0.0197 -0.2363
  333MPD2    C5 5052   1.375   1.408  11.322  0.6831 -0.2320  0.2025
  333MPD2     H 5053   1.755   1.485  11.325 -0.3801 -1.2377  0.6689
  333MPD2    H1 5054   1.399   1.306  11.499 -1.7524 -0.2014 -1.0586
  333MPD2    H2 5055   1.362   1.503  11.142  0.3355  0.7142  1.0179
  333MPD2    H3 5056   1.274   1.371  11.336 -0.2877  1.9809 -1.1912
  333MPD2     N 5057   1.672   1.326  11.525 -0.5510 -0.5637  0.0333
  333MPD2    H5 5058   1.773   1.338  11.515 -0.6112  0.7172  1.0481
  333MPD2    N1 5059   1.616   1.572  11.101  0.3851  0.0538 -0.0588
  333MPD2    H7 5060   1.543   1.612  11.044 -0.0955  1.1409  1.3119
  334TMC3    C1 5061   1.759   1.683  10.961  0.2790 -0.6769  0.1689
  334TMC3    C2 5062   1.873   1.678  10.889 -0.2650 -0.6779  1.2065
  334TMC3    C3 5063   1.908   1.786  10.808  0.5589 -0.2216 -0.0855
  334TMC3    C4 5064   1.666   1.783  10.958  0.4675  0.2968 -0.3846
  334TMC3    C5 5065   1.704   1.883  10.876  0.0452 -0.1120 -0.1426
  334TMC3    C6 5066   1.808   1.883  10.790 -0.5378  0.2179 -0.5564
  334TMC3     C 5067   1.748   1.597  11.078  0.2655 -0.3915 -0.0122
  334TMC3     O 5068   1.856   1.564  11.128 -0.0824  0.0080  0.1570
  334TMC3     H 5069   1.930   1.586  10.896  0.9363 -0.1129 -1.2821
  334TMC3    H1 5070   1.593   1.794  11.038  0.0337  1.5376 -0.9516
  334TMC3    H2 5071   1.834   1.960  10.719  0.9666  1.7506  1.6534
  334TMC3    C7 5072   1.649   2.008  10.905 -0.3312 -0.1552  0.3802
  334TMC3    C8 5073   1.993   1.769  10.696 -0.3236  0.2644  0.1198
  334TMC3    O1 5074   1.721   2.104  10.920 -0.1370 -0.0184 -0.4257
  334TMC3    O2 5075   1.951   1.810  10.591  0.6416 -0.1720  0.0853
  335TMC3    C1 5076   1.590   2.420  17.495 -0.5450  0.9085 -0.0078
  335TMC3    C2 5077   1.476   2.440  17.414 -0.2576  0.3200  0.5909
  335TMC3    C3 5078   1.487   2.536  17.312  0.2072 -0.1321  0.8601
  335TMC3    C4 5079   1.701   2.500  17.479  1.1036 -0.3829  0.0695
  335TMC3    C5 5080   1.705   2.592  17.381 -0.3927  0.2444  0.0554
  335TMC3    C6 5081   1.604   2.610  17.289  0.8029  0.2842  1.0394
  335TMC3     C 5082   1.562   2.326  17.606 -0.2246  0.0085  0.1816
  335TMC3     O 5083   1.488   2.234  17.576 -0.4770 -0.3449  0.4932
  335TMC3     H 5084   1.382   2.390  17.438 -0.5244  1.1727  1.3261
  335TMC3    H1 5085   1.793   2.475  17.530 -0.3320 -2.3389  1.7102
  335TMC3    H2 5086   1.611   2.694  17.220 -1.2107 -0.6663 -0.3354
  335TMC3    C7 5087   1.824   2.682  17.364 -0.1236  0.5907  0.1279
  335TMC3    C8 5088   1.365   2.580  17.247 -0.1749  0.5044  0.1805
  335TMC3    O1 5089   1.834   2.740  17.255 -0.1371  0.0890 -0.1637
  335TMC3    O2 5090   1.363   2.684  17.184  0.2123  0.6247  0.1604
  336MPD2     C 5091   1.161   0.447  16.446 -0.0583 -0.0405  0.1357
  336MPD2    C1 5092   1.177   0.406  16.318  0.1044 -0.6361  0.0566
  336MPD2    C2 5093   1.178   0.272  16.287  0.2089 -0.7228  0.3050
  336MPD2    C3 5094   1.175   0.175  16.387  0.6946  0.1767  0.0893
  336MPD2    C4 5095   1.171   0.222  16.518  0.1095  0.4405 -0.0364
  336MPD2    C5 5096   1.168   0.357  16.548 -0.0807 -0.3636  0.0593
  336MPD2     H 5097   1.175   0.230  16.187 -0.0667 -0.0019  0.0098
  336MPD2    H1 5098   1.178   0.153  16.601 -0.1697 -0.3532 -0.6689
  336MPD2    H2 5099   1.149   0.555  16.456 -0.6014 -0.2656  1.8664
  336MPD2    H3 5100   1.171   0.387  16.652  0.1499 -2.2963  0.6284
  336MPD2     N 5101   1.158   0.032  16.372 -0.2528 -0.4191 -0.2954
  336MPD2    H5 5102   1.122   4.720  16.453  0.6550  0.4784  0.6540
  336MPD2    N1 5103   1.184   0.506  16.218 -0.2999 -0.0569  0.4491
  336MPD2    H7 5104   1.194   0.599  16.258 -0.6417  0.2888 -0.2904
  337TMC3    C1 5105   1.149   0.616  16.020  0.0956  0.0691  0.1690
  337TMC3    C2 5106   1.083   0.596  15.903  0.2129 -0.2579 -0.2359
  337TMC3    C3 5107   0.995   0.693  15.870 -0.2364  0.0750 -0.5298
  337TMC3    C4 5108   1.129   0.728  16.100 -0.5707  0.2716 -0.0330
  337TMC3    C5 5109   1.026   0.814  16.068 -0.4287  0.2953  0.0583
  337TMC3    C6 5110   0.962   0.799  15.954 -0.2886  0.6057 -0.1612
  337TMC3     C 5111   1.193   0.498  16.081  0.2454  0.8618  0.0843
  337TMC3     O 5112   1.211   0.396  16.015 -0.2722  0.3664 -0.1700
  337TMC3     H 5113   1.114   0.518  15.834  1.6298 -0.8917  1.1116
  337TMC3    H1 5114   1.191   0.747  16.187  0.3735 -1.3757 -0.3530
  337TMC3    H2 5115   0.894   0.879  15.926 -1.8102 -0.0008  1.8330
  337TMC3    C7 5116   0.985   0.903  16.177  0.0635  0.8802  0.2767
  337TMC3    C8 5117   0.934   0.691  15.732  0.1127  0.6262 -0.1200
  337TMC3    O1 5118   0.881   0.962  16.169  0.3495 -0.1601  0.1216
  337TMC3    O2 5119   0.934   0.577  15.679  0.7214  0.2374  0.0910
  338MPD2     C 5120   1.943   4.542   1.107  0.1355 -0.7547  0.0946
  338MPD2    C1 5121   1.818   4.504   1.069  0.8178 -0.4624  0.0808
  338MPD2    C2 5122   1.706   4.557   1.136 -0.3925 -0.0572 -0.6064
  338MPD2    C3 5123   1.713   4.617   1.258  0.1439 -0.0803 -0.4056
  338MPD2    C4 5124   1.838   4.652   1.303  0.1849 -0.5185  0.1791
  338MPD2    C5 5125   1.941   4.614   1.228  0.5543 -0.0511 -0.1757
  338MPD2     H 5126   1.609   4.537   1.092  0.5336 -1.6673 -1.8928
  338MPD2    H1 5127   1.863   4.703   1.395  0.9163  0.3523 -0.5078
  338MPD2    H2 5128   2.030   4.508   1.053 -1.7102 -2.7700 -1.5767
  338MPD2    H3 5129   2.041   4.644   1.256  0.1829  0.0200  1.0862
  338MPD2     N 5130   1.590   4.631   1.334 -0.3126  0.6039 -0.7570
  338MPD2    H5 5131   1.502   4.612   1.288 -0.8839  1.0979  0.1377
  338MPD2    N1 5132   1.795   4.419   0.955  0.0882  0.3500 -0.5184
  338MPD2    H7 5133   1.697   4.395   0.943 -0.7182  2.4140  2.0695
  339TMC3    C1 5134   1.463   4.637   1.533  0.6897 -0.0807 -1.1557
  339TMC3    C2 5135   1.435   4.720   1.637 -0.3520 -0.0857  0.0176
  339TMC3    C3 5136   1.309   0.020   1.668  0.4545  0.0897  0.1646
  339TMC3    C4 5137   1.367   4.595   1.453 -0.0938  0.3218 -0.3397
  339TMC3    C5 5138   1.244   4.644   1.467 -0.0202 -0.5338  0.2803
  339TMC3    C6 5139   1.210   4.722   1.580  0.6410 -0.1526  0.3286
  339TMC3     C 5140   1.589   4.654   1.473  0.0290 -0.2727  0.5557
  339TMC3     O 5141   1.679   4.669   1.550 -0.2412 -0.4334  0.1508
  339TMC3     H 5142   1.515   0.016   1.702  0.8593 -0.0215 -1.4847
  339TMC3    H1 5143   1.383   4.526   1.371 -0.3705  1.2662 -1.1857
  339TMC3    H2 5144   1.115   0.037   1.580  1.2560  0.9619 -1.8407
  339TMC3    C7 5145   1.183   4.695   1.345  0.5324  0.4337  0.2437
  339TMC3    C8 5146   1.286   0.077   1.802 -0.6440  0.4333  0.2079
  339TMC3    O1 5147   1.266   4.709   1.254  0.4179 -0.2428 -0.1443
  339TMC3    O2 5148   1.384   0.120   1.859 -0.0833  0.0791  0.0289
  340MPD2     C 5149   1.330   2.117  10.543  0.3511  0.8765 -0.7591
  340MPD2    C1 5150   1.426   2.112  10.447  0.4564 -0.3626  0.0581
  340MPD2    C2 5151   1.551   2.156  10.475 -0.0185 -0.0813 -0.3264
  340MPD2    C3 5152   1.569   2.223  10.596 -0.1489 -0.0325 -0.7061
  340MPD2    C4 5153   1.467   2.239  10.689 -0.3015  0.0527  0.2547
  340MPD2    C5 5154   1.348   2.176  10.663  0.1041 -0.2405  0.3519
  340MPD2     H 5155   1.624   2.160  10.395  0.2682 -0.9143 -0.1046
  340MPD2    H1 5156   1.492   2.295  10.779  0.8256 -0.3810  0.2105
  340MPD2    H2 5157   1.232   2.070  10.534  1.1591 -0.6849 -1.4026
  340MPD2    H3 5158   1.273   2.159  10.738  0.6015  0.8605  1.1039
  340MPD2     N 5159   1.699   2.277  10.631 -0.0598  0.1696 -0.3544
  340MPD2    H5 5160   1.705   2.342  10.708 -1.8164 -0.8020  0.5842
  340MPD2    N1 5161   1.391   2.050  10.327 -0.7760 -0.2021 -0.3396
  340MPD2    H7 5162   1.293   2.026  10.314 -0.7528  1.2806 -3.1430
  341TMC3    C1 5163   1.403   1.982  10.097 -0.6792 -0.1080 -0.6888
  341TMC3    C2 5164   1.298   1.897  10.099  0.4099 -0.2563 -0.5351
  341TMC3    C3 5165   1.239   1.870   9.980  0.3192  0.0883  0.0982
  341TMC3    C4 5166   1.459   2.023   9.977  0.3194 -0.8338 -0.6335
  341TMC3    C5 5167   1.399   1.989   9.858 -0.0018 -0.8424 -0.2628
  341TMC3    C6 5168   1.287   1.917   9.857  0.1598 -0.0742 -0.1179
  341TMC3     C 5169   1.475   2.031  10.214 -0.6025 -0.6474  0.0125
  341TMC3     O 5170   1.595   2.062  10.195  0.8070 -0.5761 -0.2899
  341TMC3     H 5171   1.255   1.859  10.191 -2.6046  1.5671 -1.1618
  341TMC3    H1 5172   1.541   2.093   9.962  0.6514 -0.4480  2.7508
  341TMC3    H2 5173   1.237   1.881   9.768 -2.9028  3.5776  0.1303
  341TMC3    C7 5174   1.485   1.995   9.741 -0.6043  0.7718 -0.1653
  341TMC3    C8 5175   1.119   1.787   9.987  0.3488 -0.4063  0.4954
  341TMC3    O1 5176   1.605   1.975   9.760  0.1512 -0.5252  0.3944
  341TMC3    O2 5177   1.056   1.779  10.090 -0.0126  0.4221  0.4867
  342MPD2     C 5178   3.945   1.142  17.424 -0.6028 -0.2143 -0.1481
  342MPD2    C1 5179   4.087   1.152  17.422 -0.0873 -0.5464 -0.1167
  342MPD2    C2 5180   4.146   1.275  17.443  0.5209 -0.2909  0.3265
  342MPD2    C3 5181   4.077   1.379  17.495  0.5823 -0.5786  0.5268
  342MPD2    C4 5182   3.941   1.369  17.518 -0.5009 -0.5316  0.2851
  342MPD2    C5 5183   3.875   1.247  17.479  0.2065 -0.7492  0.6569
  342MPD2     H 5184   4.254   1.269  17.436  0.4481  1.5778 -2.6400
  342MPD2    H1 5185   3.887   1.457  17.550 -0.2489 -0.8126  1.4767
  342MPD2    H2 5186   3.880   1.059  17.399  1.1954 -1.4664 -0.6665
  342MPD2    H3 5187   3.768   1.233  17.492  0.2756 -1.5031  0.4214
  342MPD2     N 5188   4.146   1.499  17.527  0.2918  0.0878  0.0552
  342MPD2    H5 5189   4.098   1.570  17.581  0.3947  1.2535 -1.4312
  342MPD2    N1 5190   4.170   1.043  17.381  0.9634  0.1912  0.1978
  342MPD2    H7 5191   4.268   1.059  17.363  1.1383  0.1610  1.0968
  343TMC3    C1 5192   4.234   0.814  17.359 -0.0440  0.2641 -0.0679
  343TMC3    C2 5193   4.321   0.840  17.255  0.0620 -0.5603  0.6902
  343TMC3    C3 5194   4.416   0.746  17.224 -0.4273 -0.1080 -0.5995
  343TMC3    C4 5195   4.227   0.697  17.421  0.8321 -0.4453 -0.7873
  343TMC3    C5 5196   4.322   0.605  17.387  0.3831  0.4890  0.5856
  343TMC3    C6 5197   4.419   0.626  17.289 -1.4089  0.4278 -0.2155
  343TMC3     C 5198   4.127   0.907  17.385  0.3831 -0.0519 -0.5631
  343TMC3     O 5199   4.022   0.860  17.429 -0.0650 -0.0618 -0.2156
  343TMC3     H 5200   4.318   0.930  17.194  0.1144 -0.8532  0.2565
  343TMC3    H1 5201   4.159   0.675  17.502  3.1041  0.7331  1.4208
  343TMC3    H2 5202   4.494   0.554  17.257 -1.2729  1.4012 -2.1023
  343TMC3    C7 5203   4.316   0.481  17.462  0.3881  0.5553 -0.0051
  343TMC3    C8 5204   4.506   0.778  17.113 -0.0355 -0.6664  0.1215
  343TMC3    O1 5205   4.216   0.458  17.521 -0.3137 -0.0483 -0.0190
  343TMC3    O2 5206   4.511   0.893  17.084  0.2186 -0.0237  0.5455
  344MPD2     C 5207   0.401   0.214  10.734  0.1359 -0.3640  0.5612
  344MPD2    C1 5208   0.291   0.295  10.752 -0.1642  0.8933  0.0375
  344MPD2    C2 5209   0.287   0.408  10.668  0.3113 -0.2626  0.0264
  344MPD2    C3 5210   0.390   0.440  10.581 -0.3102 -0.0371 -0.6890
  344MPD2    C4 5211   0.490   0.348  10.574  0.1536 -0.4309  0.1060
  344MPD2    C5 5212   0.501   0.234  10.647 -1.0094  0.2616 -0.4697
  344MPD2     H 5213   0.204   0.474  10.690  0.9605  0.4245  0.4050
  344MPD2    H1 5214   0.576   0.370  10.513  2.8048 -2.3122  3.1608
  344MPD2    H2 5215   0.400   0.123  10.794  3.4319 -0.8610 -0.1444
  344MPD2    H3 5216   0.576   0.158  10.631 -1.5308 -0.1567 -0.9534
  344MPD2     N 5217   0.398   0.554  10.509 -0.3956 -1.0861  0.4644
  344MPD2    H5 5218   0.484   0.582  10.462 -0.4255 -0.4081  0.8114
  344MPD2    N1 5219   0.179   0.262  10.835 -0.5289  0.0204 -0.0399
  344MPD2    H7 5220   0.087   0.298  10.814 -0.9658 -0.1535  1.6032
  345TMC3    C1 5221   0.346   0.778  10.476  0.2922 -0.0872 -0.1997
  345TMC3    C2 5222   0.455   0.817  10.547 -0.5761 -0.8390 -0.1255
  345TMC3    C3 5223   0.495   0.944  10.535 -0.0645  0.0055 -0.1283
  345TMC3    C4 5224   0.269   0.870  10.410  0.5430 -0.0201 -0.3148
  345TMC3    C5 5225   0.303   1.005  10.409  0.8855 -0.1287  0.2778
  345TMC3    C6 5226   0.417   1.040  10.473  0.5113 -0.5239  0.5989
  345TMC3     C 5227   0.295   0.648  10.509 -0.2295  0.3089 -1.2900
  345TMC3     O 5228   0.172   0.629  10.523 -0.2272 -0.6607  0.0225
  345TMC3     H 5229   0.528   0.755  10.598  0.7340  1.2647  0.5640
  345TMC3    H1 5230   0.177   0.838  10.362  0.3066  0.7512 -0.3686
  345TMC3    H2 5231   0.445   1.144  10.480  0.2256 -0.3645 -0.6654
  345TMC3    C7 5232   0.244   1.107  10.319  0.5033 -0.8153  0.0459
  345TMC3    C8 5233   0.613   1.002  10.598 -0.2099  1.0733  0.3983
  345TMC3    O1 5234   0.306   1.209  10.315  0.0590  0.5449 -0.0380
  345TMC3    O2 5235   0.647   1.109  10.554  0.1231 -0.0831 -0.4267
  346MPD2     C 5236   0.143   2.051  14.218 -0.5502  0.5205  0.4854
  346MPD2    C1 5237   0.189   2.159  14.144 -0.5947  0.4473 -0.2905
  346MPD2    C2 5238   0.247   2.261  14.222  0.1775 -0.1034 -0.0404
  346MPD2    C3 5239   0.249   2.261  14.359 -0.0120  0.0628 -0.4482
  346MPD2    C4 5240   0.201   2.154  14.433 -0.3804  0.4177  0.2803
  346MPD2    C5 5241   0.148   2.050  14.356  0.0591 -0.2045 -0.1867
  346MPD2     H 5242   0.288   2.343  14.163 -2.4239  0.1356 -1.5134
  346MPD2    H1 5243   0.181   2.152  14.539  0.7078 -0.1639  0.4614
  346MPD2    H2 5244   0.107   1.955  14.184  1.1140  0.3161 -0.7101
  346MPD2    H3 5245   0.105   1.960  14.398  0.0009 -1.0824 -2.1319
  346MPD2     N 5246   0.303   2.378  14.424  0.5733 -0.1886  0.1623
  346MPD2    H5 5247   0.347   2.449  14.366 -0.2555 -0.6997 -1.1148
  346MPD2    N1 5248   0.193   2.157  14.006  0.4230  0.3868 -0.0985
  346MPD2    H7 5249   0.244   2.233  13.962 -2.3037  1.6109 -1.1157
  347TMC3    C1 5250   0.424   2.494  14.584  0.4237  0.7505 -0.4711
  347TMC3    C2 5251   0.508   2.536  14.486 -0.5145  0.5772  0.3969
  347TMC3    C3 5252   0.630   2.598  14.514  0.0531 -1.2036 -0.0177
  347TMC3    C4 5253   0.473   2.507  14.713  0.0986  0.2988 -0.5352
  347TMC3    C5 5254   0.598   2.563  14.742 -0.2390 -0.0534  0.0507
  347TMC3    C6 5255   0.673   2.616  14.644  0.0534 -0.7091 -0.6743
  347TMC3     C 5256   0.327   2.387  14.560 -0.4433 -0.4916  0.1640
  347TMC3     O 5257   0.281   2.326  14.653 -0.0232 -0.0227 -0.2915
  347TMC3     H 5258   0.479   2.535  14.382 -2.7564  0.7600  1.0135
  347TMC3    H1 5259   0.415   2.459  14.792  1.2110  0.9957  0.6951
  347TMC3    H2 5260   0.767   2.664  14.668  0.2390 -0.4778 -1.8889
  347TMC3    C7 5261   0.641   2.574  14.875 -0.1492 -0.2353  0.1011
  347TMC3    C8 5262   0.728   2.570  14.412  0.0409 -0.3988 -0.0104
  347TMC3    O1 5263   0.553   2.566  14.958 -0.4716  0.1216  0.0139
  347TMC3    O2 5264   0.700   2.488  14.324 -0.2235  0.7900  0.4399
  348MPD2     C 5265   4.359   1.211  11.676 -0.0051  0.2209  0.4733
  348MPD2    C1 5266   4.222   1.239  11.690  0.1277 -0.1061 -0.4809
  348MPD2    C2 5267   4.170   1.353  11.645 -0.6729 -0.1333  0.3001
  348MPD2    C3 5268   4.246   1.437  11.566 -0.1197  0.5379 -0.6102
  348MPD2    C4 5269   4.377   1.417  11.544 -0.2949  0.0610 -0.4043
  348MPD2    C5 5270   4.428   1.301  11.603  0.2155 -0.4281 -0.7306
  348MPD2     H 5271   4.068   1.384  11.666 -0.6648 -0.7152  1.2426
  348MPD2    H1 5272   4.447   1.482  11.491 -0.4342  0.5052 -0.0447
  348MPD2    H2 5273   4.411   1.130  11.727 -0.7679 -0.7932 -0.3444
  348MPD2    H3 5274   4.536   1.296  11.603  0.2570  0.2797  0.2786
  348MPD2     N 5275   4.177   1.551  11.515  0.3947 -0.4168  0.0592
  348MPD2    H5 5276   4.077   1.546  11.533  0.4873  1.3626  1.1198
  348MPD2    N1 5277   4.131   1.170  11.771 -0.1578 -0.0684  0.7523
  348MPD2    H7 5278   4.037   1.208  11.778 -0.2706 -0.1533 -0.2040
  349TMC3    C1 5279   4.069   1.048  11.959 -0.7432  0.8186 -0.4175
  349TMC3    C2 5280   4.116   1.032  12.086  0.2766  0.0131  0.6591
  349TMC3    C3 5281   4.045   1.086  12.194  0.4719 -0.3415 -0.0943
  349TMC3    C4 5282   3.956   1.123  11.941 -0.6925 -0.7677 -0.3415
  349TMC3    C5 5283   3.883   1.173  12.048  0.7799 -0.4062 -0.4202
  349TMC3    C6 5284   3.922   1.150  12.176  0.2569 -0.3268 -0.6886
  349TMC3     C 5285   4.171   1.068  11.854  0.2909 -0.3771 -0.1437
  349TMC3     O 5286   4.279   1.012  11.870  0.5816  0.1987  0.3464
  349TMC3     H 5287   4.197   0.963  12.108  1.7201  1.1011 -1.2340
  349TMC3    H1 5288   3.906   1.137  11.846 -1.1920 -0.7817 -0.0784
  349TMC3    H2 5289   3.860   1.183  12.259 -0.3697 -0.0730 -1.2623
  349TMC3    C7 5290   3.818   1.301  12.010 -0.3958  0.1967  0.1194
  349TMC3    C8 5291   4.092   1.086  12.330 -0.1172  0.3371 -0.3729
  349TMC3    O1 5292   3.701   1.290  11.978  0.2436  0.3014 -0.2759
  349TMC3    O2 5293   4.013   1.143  12.406 -0.3934 -0.4900  0.1435
  350MPD2     C 5294   3.388   0.198  10.891  0.5908  0.4446 -1.0488
  350MPD2    C1 5295   3.290   0.102  10.857  0.3458 -0.7247  0.3005
  350MPD2    C2 5296   3.194   0.079  10.950  0.0218 -0.3234 -0.6923
  350MPD2    C3 5297   3.184   0.151  11.070 -0.1038 -0.1095 -0.1299
  350MPD2    C4 5298   3.286   0.242  11.094  0.8908  0.0157 -0.4503
  350MPD2    C5 5299   3.389   0.262  11.006 -0.1784  0.5607  0.0318
  350MPD2     H 5300   3.114   0.009  10.927 -0.0118 -0.8873  1.1356
  350MPD2    H1 5301   3.299   0.281  11.194 -1.5129  0.7858 -0.4329
  350MPD2    H2 5302   3.469   0.219  10.823  2.6114 -1.0515  0.8707
  350MPD2    H3 5303   3.466   0.335  11.030 -0.2167  0.2568  1.0730
  350MPD2     N 5304   3.092   0.117  11.170  0.2315  0.4360 -0.5430
  350MPD2    H5 5305   3.033   0.045  11.131 -1.3844  0.6941  1.4510
  350MPD2    N1 5306   3.280   0.039  10.728  0.1775  0.0434  0.2793
  350MPD2    H7 5307   3.202   4.711  10.720  0.8844 -0.9118  1.0607
  351TMC3    C1 5308   3.334   0.003  10.492 -0.7530 -0.1427  0.3776
  351TMC3    C2 5309   3.265   4.622  10.499  0.8364  0.4266  0.0688
  351TMC3    C3 5310   3.222   4.572  10.381  0.7448 -1.0012  0.4122
  351TMC3    C4 5311   3.355   0.066  10.374  0.5685 -0.1726  0.4530
  351TMC3    C5 5312   3.323   4.734  10.261  0.3292 -0.0678  0.2552
  351TMC3    C6 5313   3.247   4.625  10.262 -0.1760  0.3414  0.3186
  351TMC3     C 5314   3.359   0.073  10.617  0.3148 -0.7768 -0.1211
  351TMC3     O 5315   3.452   0.153  10.607 -0.2043  0.4572 -0.0643
  351TMC3     H 5316   3.246   4.571  10.593  0.5292 -0.1640 -0.3163
  351TMC3    H1 5317   3.413   0.157  10.384 -1.1832  0.9167  0.7211
  351TMC3    H2 5318   3.203   4.584  10.172  0.4172  1.1300 -0.3367
  351TMC3    C7 5319   3.312   0.084  10.143  0.1023 -0.1773  0.6028
  351TMC3    C8 5320   3.209   4.432  10.370  0.6598  0.2425  0.3546
  351TMC3    O1 5321   3.212   0.073  10.072 -0.2375  0.4211  0.4541
  351TMC3    O2 5322   3.262   4.374  10.272  0.2384 -0.6160  0.3945
  352MPD2     C 5323   0.998   1.621   1.643  0.1926  0.5549  0.3907
  352MPD2    C1 5324   1.008   1.723   1.554  0.0335  0.3176  0.3631
  352MPD2    C2 5325   1.105   1.718   1.463 -0.1849  0.0092  0.5448
  352MPD2    C3 5326   1.203   1.625   1.462 -0.9248  0.4333 -0.6254
  352MPD2    C4 5327   1.198   1.526   1.552  0.1236 -0.5251  0.6306
  352MPD2    C5 5328   1.083   1.519   1.632  0.0016  0.1221  0.3349
  352MPD2     H 5329   1.105   1.796   1.388  1.5095 -0.0235  0.5101
  352MPD2    H1 5330   1.276   1.452   1.561  1.8345  1.5242  2.7000
  352MPD2    H2 5331   0.913   1.614   1.710 -0.0412 -0.7103 -0.0475
  352MPD2    H3 5332   1.072   1.433   1.698  0.4165 -0.0359  0.1981
  352MPD2     N 5333   1.308   1.620   1.364 -0.9168  0.1387 -0.0574
  352MPD2    H5 5334   1.371   1.541   1.369 -0.0229  0.7518 -1.5497
  352MPD2    N1 5335   0.914   1.823   1.567 -0.4350 -0.5579  0.6902
  352MPD2    H7 5336   0.839   1.815   1.635 -0.0785  0.2262  1.1697
  353TMC3    C1 5337   1.405   1.619   1.155 -0.4402 -0.3129 -0.1479
  353TMC3    C2 5338   1.524   1.597   1.213  0.1516  0.6409  0.0961
  353TMC3    C3 5339   1.618   1.533   1.136  0.1099  1.1655  0.4947
  353TMC3    C4 5340   1.375   1.585   1.026 -0.2185 -0.5674 -0.2053
  353TMC3    C5 5341   1.464   1.498   0.960  0.3335 -0.2465 -0.1395
  353TMC3    C6 5342   1.594   1.488   1.004  0.1156 -0.3470  0.4502
  353TMC3     C 5343   1.312   1.683   1.241 -0.7582  0.2264 -0.1619
  353TMC3     O 5344   1.256   1.783   1.200 -0.1285  0.1482 -0.0216
  353TMC3     H 5345   1.545   1.637   1.311 -1.5597 -1.7636  1.4448
  353TMC3    H1 5346   1.272   1.600   0.995 -0.8013 -0.0570  1.9201
  353TMC3    H2 5347   1.662   1.417   0.959  2.9773  2.5972  0.1980
  353TMC3    C7 5348   1.405   1.406   0.869 -0.2489 -0.6270 -0.0282
  353TMC3    C8 5349   1.745   1.501   1.187  0.8778  0.3524 -0.2024
  353TMC3    O1 5350   1.287   1.384   0.882 -0.2827 -0.0951  0.2601
  353TMC3    O2 5351   1.801   1.584   1.259  0.1164  0.1284  0.0896
  354TMC3    C1 5352   2.610   2.598  13.696 -0.5347  0.1203 -0.1103
  354TMC3    C2 5353   2.567   2.730  13.716 -1.0490 -0.2100  0.7159
  354TMC3    C3 5354   2.617   2.827  13.635  0.1705 -0.3697  0.3937
  354TMC3    C4 5355   2.681   2.556  13.585  0.2451 -0.2934  0.3747
  354TMC3    C5 5356   2.739   2.662  13.519 -0.5166 -0.1770  0.3232
  354TMC3    C6 5357   2.692   2.792  13.526 -0.7080  0.0337  0.1539
  354TMC3     C 5358   2.579   2.506  13.808 -0.1074  0.7951 -0.3720
  354TMC3     O 5359   2.495   2.543  13.889 -0.4935 -0.0328  0.1786
  354TMC3     H 5360   2.518   2.762  13.808 -0.2772  0.3962  0.9220
  354TMC3    H1 5361   2.728   2.461  13.565  1.1584 -0.4693  3.2469
  354TMC3    H2 5362   2.714   2.859  13.444 -1.5669 -0.2207 -0.2885
  354TMC3    C7 5363   2.859   2.632  13.446  0.4558  0.0882  0.4126
  354TMC3    C8 5364   2.568   2.960  13.660  0.6154 -0.3173  0.3341
  354TMC3    O1 5365   2.865   2.524  13.383 -0.3529  0.4181  0.5114
  354TMC3    O2 5366   2.486   2.984  13.745 -0.4365 -0.3413  0.8828
  355MPD2     C 5367   2.749   3.798  12.159  0.0888  0.0537 -0.6661
  355MPD2    C1 5368   2.835   3.787  12.056 -0.1825 -0.0978 -0.3443
  355MPD2    C2 5369   2.974   3.786  12.070  0.1222 -0.5957  0.9972
  355MPD2    C3 5370   3.027   3.804  12.196 -0.3178 -0.2602  0.1821
  355MPD2    C4 5371   2.943   3.836  12.300 -0.2670  0.1173  0.4412
  355MPD2    C5 5372   2.805   3.824  12.282  0.0654  0.0382  0.0960
  355MPD2     H 5373   3.026   3.772  11.975 -0.1140  1.3160  0.5856
  355MPD2    H1 5374   2.989   3.855  12.396  0.7646  1.3053 -0.2950
  355MPD2    H2 5375   2.641   3.798  12.147 -0.2316  0.5201  2.1810
  355MPD2    H3 5376   2.749   3.846  12.371 -0.9724 -2.1505 -0.0132
  355MPD2     N 5377   3.163   3.819  12.219  0.3979 -0.0479 -0.1964
  355MPD2    H5 5378   3.192   3.843  12.314 -2.1118 -0.0541  0.5794
  355MPD2    N1 5379   2.771   3.788  11.926 -0.4380  0.2601 -0.2919
  355MPD2    H7 5380   2.676   3.754  11.923 -1.0006  1.7858  0.4673
  356TMC3    C1 5381   3.393   3.848  12.165  0.3408 -0.0609 -0.1724
  356TMC3    C2 5382   3.451   3.923  12.070 -0.2275 -0.1040 -0.1616
  356TMC3    C3 5383   3.561   4.003  12.101 -0.1247  0.1430 -0.8702
  356TMC3    C4 5384   3.438   3.847  12.295  0.3743  0.1411 -0.3045
  356TMC3    C5 5385   3.554   3.918  12.319 -0.9922  1.0732 -0.3081
  356TMC3    C6 5386   3.617   3.996  12.225  0.0064 -0.1899 -0.0928
  356TMC3     C 5387   3.263   3.803  12.118 -0.5079  0.6108 -0.7198
  356TMC3     O 5388   3.247   3.768  12.001 -0.2518  0.6948 -0.2418
  356TMC3     H 5389   3.404   3.939  11.974  1.1184  2.2731 -0.4263
  356TMC3    H1 5390   3.384   3.799  12.376  1.1761  0.2786  0.3109
  356TMC3    H2 5391   3.719   4.028  12.244  0.5883 -2.0906  0.0050
  356TMC3    C7 5392   3.595   3.945  12.454  0.3010 -0.0313 -0.1532
  356TMC3    C8 5393   3.627   4.072  11.991  0.3569  0.1795 -0.0027
  356TMC3    O1 5394   3.583   3.857  12.539  0.2106  0.4764  0.2333
  356TMC3    O2 5395   3.573   4.056  11.882 -0.5695 -0.6081  0.8100
  357MPD2     C 5396   3.093   3.190   1.833 -0.0034 -0.1456  0.0459
  357MPD2    C1 5397   3.054   3.125   1.724  0.4988  0.0144 -0.9806
  357MPD2    C2 5398   2.916   3.123   1.695 -0.6460  0.6291  0.0469
  357MPD2    C3 5399   2.820   3.169   1.786 -0.4599 -0.1323 -0.0398
  357MPD2    C4 5400   2.862   3.234   1.902 -0.2638  1.0598 -0.1519
  357MPD2    C5 5401   3.003   3.240   1.919  0.2312  0.8251  0.8726
  357MPD2     H 5402   2.878   3.082   1.603 -0.2188 -0.7893  0.5051
  357MPD2    H1 5403   2.799   3.276   1.980 -2.3236 -0.9428 -0.7232
  357MPD2    H2 5404   3.198   3.202   1.856  0.2263 -1.4299 -0.3456
  357MPD2    H3 5405   3.038   3.295   2.005  0.2396  0.4018  1.1358
  357MPD2     N 5406   2.684   3.157   1.767  0.6457  0.0063 -0.1495
  357MPD2    H5 5407   2.632   3.189   1.848 -0.1227 -1.9945  0.1459
  357MPD2    N1 5408   3.150   3.064   1.646  0.3657  0.2746 -0.1328
  357MPD2    H7 5409   3.250   3.067   1.664  0.5772 -0.6173 -1.1059
  358TMC3    C1 5410   3.245   2.936   1.460 -0.4965  0.3409 -0.0224
  358TMC3    C2 5411   3.220   2.888   1.341  0.3806  0.2025 -0.3706
  358TMC3    C3 5412   3.332   2.872   1.264 -0.7106 -0.5875 -0.2361
  358TMC3    C4 5413   3.370   2.961   1.508  0.2687 -0.0689 -0.0672
  358TMC3    C5 5414   3.477   2.935   1.434  0.3426 -0.4954 -0.0636
  358TMC3    C6 5415   3.454   2.886   1.312  0.3949 -0.0328  0.6023
  358TMC3     C 5416   3.123   2.979   1.534 -0.0078  0.0807 -0.2868
  358TMC3     O 5417   3.020   2.959   1.477  0.2473 -0.0523 -0.3605
  358TMC3     H 5418   3.122   2.904   1.298  0.2183 -1.0548 -0.4710
  358TMC3    H1 5419   3.388   2.981   1.613  2.7810 -0.0070 -0.5108
  358TMC3    H2 5420   3.542   2.878   1.249 -1.0777 -1.0182 -1.3049
  358TMC3    C7 5421   3.612   2.953   1.480 -0.2831 -0.2814  0.6903
  358TMC3    C8 5422   3.325   2.860   1.116 -0.0408 -0.3088 -0.7956
  358TMC3    O1 5423   3.694   2.891   1.415  0.3933  0.0480  0.1240
  358TMC3    O2 5424   3.428   2.874   1.048  0.1838 -0.0576 -0.8452
  359MPD2     C 5425   3.653   2.225  12.595 -0.2650  0.0496  0.2145
  359MPD2    C1 5426   3.583   2.176  12.483  0.2989 -0.4191  0.4362
  359MPD2    C2 5427   3.471   2.100  12.495  0.1494  0.1684  0.0464
  359MPD2    C3 5428   3.427   2.050  12.618 -0.7404 -0.5965  0.2973
  359MPD2    C4 5429   3.504   2.085  12.727 -0.5329 -0.6828 -1.3992
  359MPD2    C5 5430   3.616   2.168  12.714  0.0430 -0.6114 -0.1280
  359MPD2     H 5431   3.408   2.079  12.409 -0.3225  1.3109  0.1058
  359MPD2    H1 5432   3.481   2.062  12.830  0.0460 -0.4626 -1.2183
  359MPD2    H2 5433   3.725   2.306  12.597  0.7988 -0.8795 -0.3882
  359MPD2    H3 5434   3.672   2.201  12.801  3.2663 -1.0485 -2.0061
  359MPD2     N 5435   3.300   1.997  12.645 -0.3822  0.0436  0.3163
  359MPD2    H5 5436   3.258   1.982  12.736 -1.2244 -1.4555 -0.3094
  359MPD2    N1 5437   3.626   2.211  12.351  0.1031  0.3093  0.4128
  359MPD2    H7 5438   3.566   2.169  12.281  0.6873  0.9770 -0.4748
  360TMC3    C1 5439   3.739   2.318  12.170  0.7535 -0.1466 -0.9068
  360TMC3    C2 5440   3.800   2.434  12.127  0.6830  0.1879  0.3031
  360TMC3    C3 5441   3.850   2.431  12.004  0.3186  0.5556  0.0331
  360TMC3    C4 5442   3.721   2.213  12.091  0.3185 -0.4190 -0.1350
  360TMC3    C5 5443   3.765   2.213  11.958  0.4841 -0.3096  0.4748
  360TMC3    C6 5444   3.839   2.325  11.915  0.3604  0.1880  0.1673
  360TMC3     C 5445   3.715   2.307  12.315  0.9942 -0.7101  0.4898
  360TMC3     O 5446   3.780   2.378  12.392  0.4600 -0.7332 -0.1196
  360TMC3     H 5447   3.822   2.507  12.203  0.8555 -0.5033  0.9140
  360TMC3    H1 5448   3.670   2.128  12.133 -1.4405  1.3734  1.3636
  360TMC3    H2 5449   3.851   2.337  11.808  0.6194 -1.3337  0.0265
  360TMC3    C7 5450   3.676   2.159  11.857  0.0773  0.3910 -0.3017
  360TMC3    C8 5451   3.917   2.550  11.967  0.5862 -0.3434  0.0796
  360TMC3    O1 5452   3.675   2.219  11.750 -0.0504 -0.2674 -0.3121
  360TMC3    O2 5453   3.881   2.649  12.025 -0.0493  0.2950 -0.3696
  361MPD2     C 5454   0.673   1.216  16.855 -0.3404  0.7747 -0.1600
  361MPD2    C1 5455   0.667   1.304  16.960 -0.3332 -0.3811 -0.6807
  361MPD2    C2 5456   0.694   1.251  17.085 -0.1392  0.0233 -0.0905
  361MPD2    C3 5457   0.742   1.123  17.098  0.6702 -0.8278  0.1169
  361MPD2    C4 5458   0.745   1.035  16.994  0.7960 -0.1488 -0.5979
  361MPD2    C5 5459   0.708   1.086  16.872 -0.1181 -0.8568  0.5258
  361MPD2     H 5460   0.673   1.310  17.174  2.4001  0.3740  0.2942
  361MPD2    H1 5461   0.786   0.935  16.988 -2.5164 -1.5175 -0.0625
  361MPD2    H2 5462   0.635   1.237  16.756 -1.2083  0.1477  0.0407
  361MPD2    H3 5463   0.701   1.022  16.785 -3.8838  2.7883 -1.8884
  361MPD2     N 5464   0.770   1.059  17.225 -0.0684 -0.3181 -0.6554
  361MPD2    H5 5465   0.786   0.959  17.218  1.7193 -0.2650  2.6276
  361MPD2    N1 5466   0.611   1.436  16.948 -0.3508 -0.1536 -0.8769
  361MPD2    H7 5467   0.603   1.498  17.028 -3.1573 -1.2000 -0.3411
  362TMC3    C1 5468   0.516   1.629  16.851 -0.2734 -0.0538 -0.5602
  362TMC3    C2 5469   0.475   1.654  16.978 -0.3556  0.3779 -0.1027
  362TMC3    C3 5470   0.389   1.760  16.994  0.1634  0.7679  0.1352
  362TMC3    C4 5471   0.462   1.701  16.743  0.1383 -0.4376 -0.7791
  362TMC3    C5 5472   0.376   1.809  16.766  0.8681  0.0145  0.1363
  362TMC3    C6 5473   0.335   1.834  16.893 -0.2904  0.5838 -0.7396
  362TMC3     C 5474   0.572   1.493  16.831  0.1880 -0.3798 -0.3173
  362TMC3     O 5475   0.589   1.461  16.714 -0.2942 -0.2465 -0.5099
  362TMC3     H 5476   0.517   1.605  17.066 -2.2582 -1.6708 -0.3370
  362TMC3    H1 5477   0.483   1.671  16.641  0.7303  0.1721 -0.8393
  362TMC3    H2 5478   0.292   1.933  16.903 -1.2767  0.2267 -1.5106
  362TMC3    C7 5479   0.347   1.907  16.665 -0.2982  0.5647  0.0693
  362TMC3    C8 5480   0.369   1.805  17.129 -1.0793 -0.1477  0.0705
  362TMC3    O1 5481   0.250   1.981  16.682  0.1157  0.4978  0.1511
  362TMC3    O2 5482   0.451   1.769  17.205  0.0668 -0.2492  0.6210
  363TMC3    C1 5483   3.230   3.866   9.349 -0.6814 -0.8207 -0.5573
  363TMC3    C2 5484   3.308   3.805   9.448  1.3636 -0.3525  0.4520
  363TMC3    C3 5485   3.340   3.876   9.561  0.6689 -0.4109  0.3308
  363TMC3    C4 5486   3.182   3.988   9.370 -0.9756  0.2769  0.2353
  363TMC3    C5 5487   3.209   4.054   9.493  0.2768 -0.0066 -0.4626
  363TMC3    C6 5488   3.298   4.002   9.584 -0.1958  0.2484 -0.4116
  363TMC3     C 5489   3.173   3.783   9.244  1.1624 -0.3924  0.8076
  363TMC3     O 5490   3.057   3.805   9.209  0.2103  0.1959 -0.4563
  363TMC3     H 5491   3.330   3.699   9.440 -0.9446 -0.8431  0.5893
  363TMC3    H1 5492   3.114   4.037   9.303  1.9750  2.4817 -1.1489
  363TMC3    H2 5493   3.329   4.058   9.672  1.0512  1.0697 -1.3623
  363TMC3    C7 5494   3.184   4.197   9.485 -0.1808 -0.2992  0.2006
  363TMC3    C8 5495   3.433   3.829   9.661  0.5524  1.0052  1.0947
  363TMC3    O1 5496   3.153   4.241   9.377 -0.1876 -0.0652 -0.7437
  363TMC3    O2 5497   3.433   3.881   9.774  0.0092 -0.1944  0.0789
  364MPD2     C 5498   2.168   3.569  10.899 -0.1405  0.3224  0.2451
  364MPD2    C1 5499   2.293   3.524  10.853 -0.1813  0.8441 -0.1085
  364MPD2    C2 5500   2.326   3.386  10.869 -0.3960  0.1301  0.2875
  364MPD2    C3 5501   2.248   3.305  10.947 -1.1096  0.8517 -0.0082
  364MPD2    C4 5502   2.131   3.357  10.993  0.0917 -0.3730 -0.1213
  364MPD2    C5 5503   2.090   3.486  10.967 -0.5502 -0.2008  0.1890
  364MPD2     H 5504   2.413   3.347  10.817 -1.7463 -1.9732 -0.3873
  364MPD2    H1 5505   2.065   3.289  11.046 -0.4786 -0.4680 -0.9412
  364MPD2    H2 5506   2.141   3.673  10.888 -1.8291 -0.5608 -3.8800
  364MPD2    H3 5507   1.995   3.517  11.009  1.1071  0.9605  3.0815
  364MPD2     N 5508   2.276   3.171  10.972 -0.0323  0.6409 -0.1815
  364MPD2    H5 5509   2.216   3.119  11.036 -0.1752  1.4158  0.3190
  364MPD2    N1 5510   2.372   3.620  10.789  0.4298 -0.0901  0.7430
  364MPD2    H7 5511   2.334   3.713  10.773 -0.9331 -1.0883 -1.7775
  365TMC3    C1 5512   2.560   3.728  10.704 -0.1781  0.4779 -0.5784
  365TMC3    C2 5513   2.602   3.737  10.576 -0.6223 -0.0585 -0.8904
  365TMC3    C3 5514   2.667   3.853  10.541  0.4809  0.0604 -0.6207
  365TMC3    C4 5515   2.571   3.829  10.795 -0.1893  0.3342 -0.5127
  365TMC3    C5 5516   2.644   3.933  10.755 -0.3295 -0.2430 -0.0501
  365TMC3    C6 5517   2.694   3.955  10.630  0.5708 -0.3566 -0.3968
  365TMC3     C 5518   2.499   3.601  10.746  0.7192 -0.5950  0.0142
  365TMC3     O 5519   2.575   3.505  10.728  0.3982  0.0733 -0.6442
  365TMC3     H 5520   2.592   3.662  10.498 -0.2358 -0.5935 -0.4356
  365TMC3    H1 5521   2.548   3.815  10.900 -0.6802 -2.6675 -1.0357
  365TMC3    H2 5522   2.760   4.038  10.607 -0.0376 -0.4970 -2.6481
  365TMC3    C7 5523   2.683   4.028  10.857  0.3310 -0.5620  0.1179
  365TMC3    C8 5524   2.726   3.859  10.409  0.5014  0.1094 -0.0911
  365TMC3    O1 5525   2.758   4.117  10.815 -0.4475 -0.8154  0.5003
  365TMC3    O2 5526   2.724   3.970  10.359 -0.2359 -0.5170 -0.2391
  366MPD2     C 5527   1.010   3.875  15.479  1.0607  0.3939 -0.2666
  366MPD2    C1 5528   1.053   3.995  15.529  0.1252 -1.1087 -0.1083
  366MPD2    C2 5529   1.171   4.044  15.491  0.0714  0.6041 -0.0832
  366MPD2    C3 5530   1.248   3.991  15.392 -0.1337 -0.1959 -0.0202
  366MPD2    C4 5531   1.209   3.875  15.335  0.1945  0.0319 -0.0654
  366MPD2    C5 5532   1.091   3.821  15.382  1.0319 -0.4334  0.7050
  366MPD2     H 5533   1.203   4.136  15.538  0.6312  0.6548 -0.5616
  366MPD2    H1 5534   1.260   3.826  15.253 -1.4906 -1.0505 -0.4610
  366MPD2    H2 5535   0.918   3.824  15.504  1.7568 -0.3619  0.7448
  366MPD2    H3 5536   1.062   3.727  15.336 -0.0902  1.0095 -1.5771
  366MPD2     N 5537   1.370   4.050  15.361  0.2839 -0.2941 -0.7010
  366MPD2    H5 5538   1.393   4.132  15.416 -0.5467 -0.6287  0.1515
  366MPD2    N1 5539   0.978   4.073  15.617 -0.3894  0.8594 -0.0110
  366MPD2    H7 5540   1.006   4.165  15.648  1.4382 -0.5213  2.4866
  367TMC3    C1 5541   0.811   4.153  15.742 -0.4030  0.3509 -0.2783
  367TMC3    C2 5542   0.912   4.209  15.809 -0.3926 -0.1198  0.2126
  367TMC3    C3 5543   0.925   4.345  15.801 -1.0229  0.1701  0.0576
  367TMC3    C4 5544   0.716   4.223  15.674  0.2525 -0.2767  0.3369
  367TMC3    C5 5545   0.733   4.363  15.672 -0.3686 -0.0593 -0.3665
  367TMC3    C6 5546   0.830   4.423  15.743  0.1161 -0.2257 -0.2151
  367TMC3     C 5547   0.855   4.041  15.663  0.4300 -0.5117  0.6323
  367TMC3     O 5548   0.776   3.944  15.648  0.3232 -0.1330  0.1664
  367TMC3     H 5549   0.990   4.153  15.859  1.0114 -0.9008 -2.8462
  367TMC3    H1 5550   0.646   4.164  15.616  0.1009 -0.0376  0.2783
  367TMC3    H2 5551   0.836   4.532  15.741 -0.6150 -0.1322  2.3245
  367TMC3    C7 5552   0.655   4.456  15.588  0.8958  0.2710 -0.1525
  367TMC3    C8 5553   1.061   4.386  15.775  0.3880 -0.3151  0.1633
  367TMC3    O1 5554   0.666   4.576  15.602 -0.2743  0.3598  0.0135
  367TMC3    O2 5555   1.148   4.336  15.840  0.1061 -0.4886 -0.6590
  368MPD2     C 5556   1.661   1.451  13.265 -0.6584  0.0526 -0.1961
  368MPD2    C1 5557   1.758   1.483  13.355 -0.0793 -0.0904  0.2415
  368MPD2    C2 5558   1.889   1.443  13.321  0.3020 -0.3924 -0.2694
  368MPD2    C3 5559   1.926   1.392  13.199 -0.3566  0.2382  0.2134
  368MPD2    C4 5560   1.822   1.378  13.110 -0.3804  0.0965 -0.0735
  368MPD2    C5 5561   1.694   1.411  13.142  0.1665 -0.2359 -0.2638
  368MPD2     H 5562   1.970   1.467  13.389 -1.3192  1.2708  1.0654
  368MPD2    H1 5563   1.831   1.348  13.006  1.4628  0.3022  0.0340
  368MPD2    H2 5564   1.557   1.480  13.275 -0.7912  0.2108 -2.0079
  368MPD2    H3 5565   1.612   1.403  13.073 -0.8215 -3.3538  1.2549
  368MPD2     N 5566   2.062   1.366  13.162  0.5305 -0.4678  0.4232
  368MPD2    H5 5567   2.084   1.353  13.063 -0.4689  2.3046 -0.1710
  368MPD2    N1 5568   1.726   1.562  13.467 -0.0826 -0.3221  0.5660
  368MPD2    H7 5569   1.641   1.616  13.471  0.7152  0.9664  0.2409
  369TMC3    C1 5570   1.786   1.743  13.597 -0.4674 -0.1355 -0.1080
  369TMC3    C2 5571   1.888   1.834  13.581  0.1031  0.5281  0.5732
  369TMC3    C3 5572   1.848   1.965  13.549  0.3361 -1.1933 -0.3821
  369TMC3    C4 5573   1.658   1.784  13.595  0.1359 -0.3179  0.2234
  369TMC3    C5 5574   1.623   1.913  13.597 -0.8771 -0.5079 -0.5684
  369TMC3    C6 5575   1.713   2.011  13.571  0.5258 -0.4647 -0.3164
  369TMC3     C 5576   1.817   1.599  13.566  0.3858 -0.0288 -0.5088
  369TMC3     O 5577   1.930   1.557  13.585 -0.1710  0.3258  0.1090
  369TMC3     H 5578   1.988   1.793  13.588 -1.2923 -3.1827 -1.3861
  369TMC3    H1 5579   1.583   1.707  13.607 -1.7716  1.2689 -1.7380
  369TMC3    H2 5580   1.687   2.113  13.544  0.6386 -0.0864  1.0410
  369TMC3    C7 5581   1.482   1.948  13.583  0.5681  0.3726  0.4772
  369TMC3    C8 5582   1.930   2.049  13.464 -0.1043 -0.1828  0.6779
  369TMC3    O1 5583   1.423   1.884  13.505  0.6849 -0.2540 -0.5280
  369TMC3    O2 5584   1.882   2.119  13.375 -0.8778  0.1001  0.1829
  370TMC3    C1 5585   1.621   2.462  16.291  0.3074  0.4710 -0.5615
  370TMC3    C2 5586   1.538   2.416  16.393 -0.1754 -0.4655 -0.3322
  370TMC3    C3 5587   1.470   2.295  16.380 -0.4832 -0.4938  0.2723
  370TMC3    C4 5588   1.635   2.379  16.178 -0.3928 -0.1221  0.2424
  370TMC3    C5 5589   1.577   2.253  16.179 -0.0107  0.1863  0.1129
  370TMC3    C6 5590   1.489   2.213  16.276  0.6315 -0.2599 -0.3858
  370TMC3     C 5591   1.733   2.540  16.330 -0.4693  0.4899  0.1549
  370TMC3     O 5592   1.754   2.553  16.452  0.3492 -0.2372 -0.6929
  370TMC3     H 5593   1.543   2.476  16.483 -1.7313  0.5887 -0.9498
  370TMC3    H1 5594   1.717   2.403  16.111 -0.4330 -0.2762  0.1391
  370TMC3    H2 5595   1.441   2.116  16.271 -1.0059  0.5668 -0.8469
  370TMC3    C7 5596   1.624   2.156  16.089  0.1430  0.0402 -0.4927
  370TMC3    C8 5597   1.424   2.237  16.508  0.1248 -0.0438 -0.5515
  370TMC3    O1 5598   1.672   2.193  15.982 -0.1826  0.5690 -0.4133
  370TMC3    O2 5599   1.418   2.115  16.507 -0.5551  0.4165  0.2434
  371TMC3    C1 5600   2.887   0.718  15.952 -0.2039 -0.1716 -0.2205
  371TMC3    C2 5601   2.784   0.710  16.042  0.0782 -0.3119 -0.1352
  371TMC3    C3 5602   2.709   0.828  16.045  0.0693 -0.1459  0.2028
  371TMC3    C4 5603   2.933   0.837  15.904  0.2825 -0.3920  0.3757
  371TMC3    C5 5604   2.855   0.950  15.918 -0.1775 -0.8400  0.3292
  371TMC3    C6 5605   2.739   0.949  15.986  0.3211 -0.4127  0.2566
  371TMC3     C 5606   2.967   0.607  15.923  0.0241  0.6532  0.3455
  371TMC3     O 5607   3.088   0.621  15.905  0.1605 -0.2436 -0.3304
  371TMC3     H 5608   2.757   0.618  16.094 -0.2000  0.2005  0.6198
  371TMC3    H1 5609   3.018   0.821  15.839 -1.7232  1.4795 -2.6705
  371TMC3    H2 5610   2.680   1.039  15.979  2.0372  0.6709 -0.2985
  371TMC3    C7 5611   2.864   1.051  15.809  0.2032  0.6623 -0.5702
  371TMC3    C8 5612   2.587   0.822  16.128 -0.3387 -0.0288 -0.4001
  371TMC3    O1 5613   2.770   1.126  15.793 -0.0691  0.5776  0.0397
  371TMC3    O2 5614   2.536   0.707  16.127  0.1179  0.2834 -0.1148
  372MPD2     C 5615   1.868   1.754  13.931 -0.0750 -0.6278 -0.0913
  372MPD2    C1 5616   1.975   1.666  13.924  0.3074 -0.0927  0.6579
  372MPD2    C2 5617   1.945   1.531  13.943 -0.4622 -0.0044 -0.4785
  372MPD2    C3 5618   1.817   1.491  13.976 -0.3634 -0.2539  0.1936
  372MPD2    C4 5619   1.716   1.583  13.974 -0.3180  0.2043 -0.2140
  372MPD2    C5 5620   1.741   1.716  13.957  0.1399 -0.4000 -0.0757
  372MPD2     H 5621   2.015   1.448  13.944 -1.1362 -0.5612 -0.0660
  372MPD2    H1 5622   1.613   1.552  13.984  0.5515 -1.9828  1.9895
  372MPD2    H2 5623   1.884   1.861  13.926 -0.1527 -0.5287  1.9112
  372MPD2    H3 5624   1.669   1.794  13.978  2.5264  1.4057  1.3946
  372MPD2     N 5625   1.793   1.354  14.010  0.2819  0.0209 -0.2402
  372MPD2    H5 5626   1.871   1.291  13.993  2.0348  1.5430  2.1497
  372MPD2    N1 5627   2.114   1.703  13.897  0.3123  0.0630 -0.5055
  372MPD2    H7 5628   2.178   1.625  13.889  2.0597  1.3221  1.0402
  373TMC3    C1 5629   1.677   1.176  14.096  0.2972 -0.3375 -0.7123
  373TMC3    C2 5630   1.613   1.141  14.210 -0.4064 -0.0494 -0.4346
  373TMC3    C3 5631   1.606   1.018  14.252 -0.9898 -0.1777  0.1573
  373TMC3    C4 5632   1.749   1.083  14.021  0.1492  0.4838 -0.2473
  373TMC3    C5 5633   1.743   0.957  14.069  0.0043 -0.1463 -0.2704
  373TMC3    C6 5634   1.681   0.929  14.186 -0.3627 -0.8055 -0.4776
  373TMC3     C 5635   1.670   1.313  14.058 -0.7204  0.3577 -0.3872
  373TMC3     O 5636   1.562   1.364  14.077  0.1776 -0.2487 -0.0146
  373TMC3     H 5637   1.557   1.215  14.265  1.6937  2.2138 -1.3775
  373TMC3    H1 5638   1.782   1.109  13.921 -1.0854 -3.7051 -1.7129
  373TMC3    H2 5639   1.707   0.837  14.237 -3.4351 -1.2063  0.3554
  373TMC3    C7 5640   1.816   0.855  13.990 -0.7794 -0.2136  0.7289
  373TMC3    C8 5641   1.646   1.010  14.392 -0.2605  0.0074 -0.1426
  373TMC3    O1 5642   1.886   0.901  13.903 -0.4055 -0.2662  0.0362
  373TMC3    O2 5643   1.554   1.002  14.473 -0.1990 -0.3033 -0.5653
  374TMC3    C1 5644   2.998   1.746   9.664  0.5243  0.3732 -0.1979
  374TMC3    C2 5645   2.977   1.853   9.749  0.2582  0.2175  0.4016
  374TMC3    C3 5646   2.947   1.971   9.694  0.0136 -0.5326  0.1270
  374TMC3    C4 5647   2.986   1.755   9.531  0.3361  0.1142  0.4301
  374TMC3    C5 5648   2.961   1.878   9.473 -0.5988  0.6522 -0.4461
  374TMC3    C6 5649   2.932   1.985   9.556 -0.0788 -0.3736  1.1615
  374TMC3     C 5650   2.970   1.615   9.722 -0.2537  0.1054  0.1998
  374TMC3     O 5651   2.928   1.525   9.648 -0.4767 -0.2311 -0.0231
  374TMC3     H 5652   2.970   1.837   9.856  1.6241 -0.9598  0.3147
  374TMC3    H1 5653   3.028   1.677   9.469 -2.1809 -0.7704 -0.1432
  374TMC3    H2 5654   2.921   2.083   9.511 -2.4949 -1.0401  0.3004
  374TMC3    C7 5655   2.986   1.879   9.331 -0.1312  0.5139 -0.5889
  374TMC3    C8 5656   2.955   2.088   9.767 -0.4747 -0.6230  0.4123
  374TMC3    O1 5657   3.009   1.775   9.271  0.6517  0.1721  0.1270
  374TMC3    O2 5658   2.919   2.188   9.712 -0.5235  0.5825 -0.3134
  375MPD2     C 5659   2.973   2.672  17.124  0.8788 -0.2985 -0.0110
  375MPD2    C1 5660   2.902   2.699  17.005 -0.9383  0.3713  0.5624
  375MPD2    C2 5661   2.921   2.612  16.898 -0.2207  0.1801  0.2121
  375MPD2    C3 5662   3.005   2.505  16.905  0.0364  1.1997  0.5155
  375MPD2    C4 5663   3.086   2.490  17.012  0.0146  0.2525  0.4124
  375MPD2    C5 5664   3.061   2.566  17.125 -0.1810 -0.4098 -0.9330
  375MPD2     H 5665   2.852   2.624  16.815  0.0812 -1.2759 -0.2458
  375MPD2    H1 5666   3.163   2.414  17.019  0.3207  0.3093 -2.3814
  375MPD2    H2 5667   2.978   2.734  17.213  0.5935  0.6777 -0.6699
  375MPD2    H3 5668   3.113   2.545  17.218 -1.1570 -2.0897 -0.7757
  375MPD2     N 5669   3.030   2.405  16.808 -0.1141 -0.4442 -0.8840
  375MPD2    H5 5670   3.080   2.323  16.840 -1.1050 -1.0817 -0.9741
  375MPD2    N1 5671   2.807   2.801  16.988  0.6191 -0.3517 -0.2203
  375MPD2    H7 5672   2.749   2.793  16.905 -1.0743  1.5244  0.8085
  376TMC3    C1 5673   3.038   2.333  16.582  0.6207 -0.0392  0.5888
  376TMC3    C2 5674   3.161   2.278  16.601  0.0881  0.0311  0.0650
  376TMC3    C3 5675   3.237   2.225  16.500 -0.0044  0.6226 -0.1070
  376TMC3    C4 5676   2.995   2.353  16.450 -0.7017  0.1270 -0.4913
  376TMC3    C5 5677   3.077   2.309  16.350  0.0647 -0.2774  0.2600
  376TMC3    C6 5678   3.192   2.239  16.374 -0.1774  0.2758  0.5127
  376TMC3     C 5679   2.988   2.422  16.677  0.1848 -0.3395 -0.2710
  376TMC3     O 5680   2.921   2.514  16.631 -0.1204 -0.7356  0.7300
  376TMC3     H 5681   3.212   2.279  16.697  2.2969  1.6167 -1.1485
  376TMC3    H1 5682   2.899   2.401  16.433 -1.4207 -1.6212 -1.3296
  376TMC3    H2 5683   3.247   2.204  16.287 -0.2085 -0.3742  0.7583
  376TMC3    C7 5684   3.040   2.330  16.211 -0.0961  0.2460 -0.8027
  376TMC3    C8 5685   3.366   2.167  16.531  0.4959  0.0703  0.1501
  376TMC3    O1 5686   3.133   2.360  16.134 -0.4892 -0.3277  0.1331
  376TMC3    O2 5687   3.389   2.093  16.626 -0.0813  0.8226  0.6338
  377MPD2     C 5688   0.529   2.109  12.349 -0.0972  0.5761  0.6910
  377MPD2    C1 5689   0.564   2.072  12.478 -0.7351 -0.2203 -0.3436
  377MPD2    C2 5690   0.466   2.028  12.563  0.2023  0.4827 -0.2650
  377MPD2    C3 5691   0.331   2.029  12.522  0.2251 -0.0022 -0.8863
  377MPD2    C4 5692   0.303   2.047  12.387 -0.9064  0.7210  0.3597
  377MPD2    C5 5693   0.398   2.101  12.301 -0.9286  0.5830 -0.4531
  377MPD2     H 5694   0.477   2.020  12.671 -1.7865  1.0043 -0.0094
  377MPD2    H1 5695   0.204   2.021  12.351 -1.2970  1.7551  0.6803
  377MPD2    H2 5696   0.602   2.138  12.274 -0.4879 -1.1036 -0.3618
  377MPD2    H3 5697   0.379   2.115  12.196  0.7579 -1.7606 -1.0741
  377MPD2     N 5698   0.229   1.981  12.609 -0.4600  0.5162 -0.4946
  377MPD2    H5 5699   0.140   1.966  12.561  0.6161 -0.2933 -2.2285
  377MPD2    N1 5700   0.706   2.073  12.510  0.4498  0.3495 -0.4831
  377MPD2    H7 5701   0.771   2.105  12.439  0.3729  1.4771 -0.0503
  378TMC3    C1 5702   1.102   2.124  12.563 -0.4851 -0.3397  0.0868
  378TMC3    C2 5703   0.967   2.097  12.541 -0.0163 -0.0580  0.5546
  378TMC3    C3 5704   0.890   2.075  12.658 -0.5339 -0.4342  1.0719
  378TMC3    C4 5705   1.157   2.133  12.693  0.0026  0.2018  0.0506
  378TMC3    C5 5706   1.077   2.094  12.793 -0.2337 -0.6453 -0.0455
  378TMC3    C6 5707   0.947   2.078  12.779  0.2098  0.0798  0.0571
  378TMC3     C 5708   1.171   2.176  12.453 -0.7596  0.3985 -0.0215
  378TMC3     O 5709   1.105   2.225  12.358 -0.6646  0.0942  0.1347
  378TMC3     H 5710   0.932   2.089  12.439 -0.6996  1.7255  0.6398
  378TMC3    H1 5711   1.252   2.176  12.725  0.2258  0.8977 -1.5880
  378TMC3    H2 5712   0.887   2.048  12.865  0.1274  1.0423  0.3265
  378TMC3    C7 5713   1.130   2.069  12.931  0.9086 -0.2586  0.6291
  378TMC3    C8 5714   0.754   2.038  12.635 -0.3156  0.1864  0.2374
  378TMC3    O1 5715   1.051   2.060  13.023  0.4384 -0.1447  0.0129
  378TMC3    O2 5716   0.691   2.024  12.738  0.1555  0.1676  0.0607
  379MPD2     C 5717   1.537   4.519  16.340 -0.0011  0.0989  0.0361
  379MPD2    C1 5718   1.666   4.515  16.305  0.3138 -0.5831 -0.3963
  379MPD2    C2 5719   1.759   4.472  16.398 -0.2061 -0.1334  0.5760
  379MPD2    C3 5720   1.720   4.445  16.528 -0.5517  1.3393 -0.8492
  379MPD2    C4 5721   1.588   4.457  16.558 -0.0461 -0.1108  0.0721
  379MPD2    C5 5722   1.495   4.492  16.466  0.0620 -0.1354  0.3118
  379MPD2     H 5723   1.863   4.459  16.374 -0.5511 -1.0119 -0.4583
  379MPD2    H1 5724   1.550   4.432  16.656  1.1986 -0.0564  0.5692
  379MPD2    H2 5725   1.459   4.562  16.278 -0.9180 -1.1947  0.2952
  379MPD2    H3 5726   1.391   4.502  16.494  0.5280  1.7777  1.3253
  379MPD2     N 5727   1.819   4.404  16.622  0.3315 -0.9069  0.8535
  379MPD2    H5 5728   1.915   4.412  16.592  0.9030 -0.3617  2.8400
  379MPD2    N1 5729   1.690   4.546  16.171  0.5504  0.4960 -0.1552
  379MPD2    H7 5730   1.618   4.578  16.107 -0.6516  1.7198  1.8156
  380TMC3    C1 5731   1.840   4.621  16.001 -0.4795  0.0046 -0.4524
  380TMC3    C2 5732   1.957   4.691  15.987  0.2991 -0.3011 -0.1662
  380TMC3    C3 5733   1.970   0.035  15.871  0.4822  0.7724 -0.9116
  380TMC3    C4 5734   1.733   4.631  15.906 -0.1437 -0.0188 -0.1987
  380TMC3    C5 5735   1.747   4.713  15.801  0.2755 -0.2451  0.1170
  380TMC3    C6 5736   1.865   0.042  15.780 -0.2512  0.6215  0.1949
  380TMC3     C 5737   1.824   4.553  16.127 -0.1708  0.6551  0.0497
  380TMC3     O 5738   1.926   4.527  16.185 -0.0923 -0.1147 -0.4345
  380TMC3     H 5739   2.018   4.700  16.076 -0.3943 -0.3163  0.3076
  380TMC3    H1 5740   1.655   4.557  15.920  0.7140 -0.7230  0.8775
  380TMC3    H2 5741   1.878   0.104  15.692 -0.8112 -1.1889 -1.1711
  380TMC3    C7 5742   1.643   4.736  15.713  0.0077  0.2794  0.1077
  380TMC3    C8 5743   2.067   0.152  15.871 -0.0922 -0.4228 -0.5095
  380TMC3    O1 5744   1.666   0.057  15.609 -0.4626  0.4439  0.0006
  380TMC3    O2 5745   2.032   0.248  15.803 -0.8371 -0.1283 -0.0975
  381TMC3    C1 5746   1.242   1.739  16.518  0.0951 -1.0252  0.0919
  381TMC3    C2 5747   1.359   1.800  16.538 -0.4456 -0.0281 -0.0623
  381TMC3    C3 5748   1.456   1.710  16.581  0.1466 -0.1018  0.4642
  381TMC3    C4 5749   1.205   1.607  16.537  0.4665 -0.4204  1.2971
  381TMC3    C5 5750   1.309   1.530  16.573 -1.2852 -0.6588 -0.5417
  381TMC3    C6 5751   1.438   1.578  16.583 -0.0982  0.4392 -0.1767
  381TMC3     C 5752   1.131   1.821  16.560 -0.2427 -0.0165 -0.1666
  381TMC3     O 5753   1.039   1.767  16.625 -0.3769 -0.1597  0.3645
  381TMC3     H 5754   1.390   1.901  16.514 -0.5699  0.0870  0.2588
  381TMC3    H1 5755   1.105   1.570  16.514  0.6462 -0.6027  0.8288
  381TMC3    H2 5756   1.522   1.512  16.597  0.7107  1.2635 -1.2500
  381TMC3    C7 5757   1.265   1.457  16.688 -0.0300 -0.5213  0.2765
  381TMC3    C8 5758   1.593   1.766  16.573  0.6005 -0.7122  0.2986
  381TMC3    O1 5759   1.321   1.355  16.722 -0.1339  0.1676 -0.2351
  381TMC3    O2 5760   1.673   1.701  16.506  0.7009  0.1556 -0.1292
  382MPD2     C 5761   0.538   4.114  16.938  0.5163  0.2769  0.2144
  382MPD2    C1 5762   0.602   4.067  17.051 -0.5599 -0.2978 -0.5439
  382MPD2    C2 5763   0.579   3.939  17.090  0.9140 -0.5872 -0.3460
  382MPD2    C3 5764   0.524   3.851  17.006 -0.0605  0.3333  0.2797
  382MPD2    C4 5765   0.470   3.897  16.891  0.0288  0.2476  0.5918
  382MPD2    C5 5766   0.463   4.029  16.864 -0.3428  0.3809  0.9725
  382MPD2     H 5767   0.642   3.898  17.169 -1.7299 -1.5820  1.2326
  382MPD2    H1 5768   0.402   3.830  16.840  0.7272 -0.0737  0.0783
  382MPD2    H2 5769   0.532   4.220  16.917 -3.7299  0.2153  1.1309
  382MPD2    H3 5770   0.401   4.068  16.784 -0.7477 -1.6196  0.3207
  382MPD2     N 5771   0.521   3.713  17.032 -0.5308 -0.2055 -0.3992
  382MPD2    H5 5772   0.481   3.653  16.961  0.0937  1.4612 -2.1823
  382MPD2    N1 5773   0.673   4.153  17.135 -0.1425 -0.3644  0.2698
  382MPD2    H7 5774   0.705   4.104  17.218 -1.4730 -2.1202 -0.2789
  383TMC3    C1 5775   0.531   3.526  17.157  0.2607 -0.3176 -0.6058
  383TMC3    C2 5776   0.407   3.480  17.126  0.8636 -0.2310 -0.0972
  383TMC3    C3 5777   0.367   3.365  17.189 -1.8712  0.1011  0.3841
  383TMC3    C4 5778   0.615   3.453  17.238  1.1051  0.2060 -0.0943
  383TMC3    C5 5779   0.569   3.335  17.289  0.0224 -0.3853  0.1972
  383TMC3    C6 5780   0.447   3.286  17.265  0.4289 -0.1016 -0.2730
  383TMC3     C 5781   0.574   3.661  17.146 -0.5632 -0.1263  0.7005
  383TMC3     O 5782   0.623   3.706  17.250 -0.0872  0.4940 -0.4348
  383TMC3     H 5783   0.336   3.538  17.069  2.1669  0.4915 -0.9829
  383TMC3    H1 5784   0.713   3.497  17.252  1.3194 -0.6804  1.1321
  383TMC3    H2 5785   0.421   3.194  17.316  1.6897 -0.6784 -0.6724
  383TMC3    C7 5786   0.622   3.314  17.418 -0.0924  0.6356  0.2978
  383TMC3    C8 5787   0.228   3.327  17.169  0.4465  0.4301 -0.1047
  383TMC3    O1 5788   0.587   3.205  17.473  0.0816 -0.2427 -0.2200
  383TMC3    O2 5789   0.163   3.403  17.098  0.3191 -0.7613  0.1625
  384MPD2     C 5790   2.039   0.305  12.170  0.3819  1.0802  0.3582
  384MPD2    C1 5791   2.038   0.308  12.312  0.5745 -0.0122  0.0117
  384MPD2    C2 5792   2.139   0.253  12.389 -0.0270  0.8553 -0.4643
  384MPD2    C3 5793   2.253   0.214  12.326  0.0533  0.8210  0.0584
  384MPD2    C4 5794   2.266   0.232  12.189 -0.6539 -0.6394 -0.3040
  384MPD2    C5 5795   2.162   0.271  12.108  0.3165 -0.3369  0.1570
  384MPD2     H 5796   2.122   0.231  12.493  1.5350 -0.7200 -0.5548
  384MPD2    H1 5797   2.356   0.209  12.134 -0.7600 -1.1008 -0.2916
  384MPD2    H2 5798   1.957   0.335  12.106 -0.2289  1.7412  1.4530
  384MPD2    H3 5799   2.167   0.267  12.000  0.6341  0.2138  0.1529
  384MPD2     N 5800   2.364   0.149  12.387  0.0935 -0.4453 -0.4503
  384MPD2    H5 5801   2.439   0.117  12.327  0.9770  0.2031  0.3047
  384MPD2    N1 5802   1.934   0.360  12.382  0.1091 -0.4733 -0.4585
  384MPD2    H7 5803   1.957   0.371  12.481  1.3546 -0.0918 -0.7925
  385TMC3    C1 5804   2.474   0.028  12.560 -0.1305 -0.2634  0.4720
  385TMC3    C2 5805   2.490   4.651  12.486  0.4295 -0.0091  0.7528
  385TMC3    C3 5806   2.478   4.533  12.553 -0.1864 -0.3544 -0.0566
  385TMC3    C4 5807   2.472   0.014  12.699 -0.2083  0.1338 -0.1198
  385TMC3    C5 5808   2.456   4.634  12.762 -0.4899  0.1953 -0.4373
  385TMC3    C6 5809   2.460   4.518  12.688  0.0947  0.3673 -0.1524
  385TMC3     C 5810   2.378   0.130  12.521 -0.0328  0.7617  0.5136
  385TMC3     O 5811   2.308   0.178  12.606 -0.3302 -0.2872 -0.4224
  385TMC3     H 5812   2.501   4.650  12.379 -0.9078  1.7098  0.5967
  385TMC3    H1 5813   2.491   0.105  12.756 -2.3111  1.1269 -1.0147
  385TMC3    H2 5814   2.440   4.423  12.735  0.4239  0.1173 -0.5142
  385TMC3    C7 5815   2.338   4.629  12.841 -0.2813 -0.3032  0.1648
  385TMC3    C8 5816   2.522   4.409  12.485 -0.0530 -0.7220  1.0867
  385TMC3    O1 5817   2.321   4.524  12.900 -0.3191 -0.4718 -0.4372
  385TMC3    O2 5818   2.560   4.317  12.560  0.5068  0.2298 -0.2338
  386TMC3    C1 5819   2.646   2.290  11.848 -0.0973 -0.2401  0.3702
  386TMC3    C2 5820   2.575   2.353  11.751  0.0669 -0.0931  0.0246
  386TMC3    C3 5821   2.464   2.422  11.792 -0.5228 -1.0192 -0.7002
  386TMC3    C4 5822   2.633   2.303  11.979 -0.1208 -0.2361 -0.0865
  386TMC3    C5 5823   2.524   2.378  12.010  0.7490  0.2651  0.1859
  386TMC3    C6 5824   2.441   2.439  11.923 -0.0267  0.0614  0.1754
  386TMC3     C 5825   2.710   2.165  11.799  1.1323 -0.2624 -0.1777
  386TMC3     O 5826   2.753   2.157  11.684 -0.0344 -0.3497  0.2433
  386TMC3     H 5827   2.587   2.310  11.652 -1.8044  0.4572 -0.4414
  386TMC3    H1 5828   2.697   2.253  12.050  1.6348 -0.8994 -2.1307
  386TMC3    H2 5829   2.351   2.490  11.956 -1.3266 -0.8681 -1.9415
  386TMC3    C7 5830   2.478   2.359  12.143 -0.3488  0.0838  0.0101
  386TMC3    C8 5831   2.355   2.459  11.703 -0.5740 -0.6059  0.2118
  386TMC3    O1 5832   2.565   2.332  12.221 -0.1173  0.2706 -0.0106
  386TMC3    O2 5833   2.254   2.510  11.758  0.5055 -0.1239  0.1440
  387MPD2     C 5834   0.680   2.158   9.526 -0.5167 -0.1298 -0.9809
  387MPD2    C1 5835   0.618   2.229   9.628 -0.2912  0.1421 -0.6066
  387MPD2    C2 5836   0.500   2.179   9.684  0.7873 -0.1887  0.0795
  387MPD2    C3 5837   0.445   2.062   9.645 -0.5524 -0.1246 -0.2106
  387MPD2    C4 5838   0.503   1.993   9.539  0.1252 -0.3175 -0.2156
  387MPD2    C5 5839   0.616   2.045   9.475 -0.4626  0.1673 -0.0672
  387MPD2     H 5840   0.441   2.229   9.760 -0.9649 -0.3676 -1.1615
  387MPD2    H1 5841   0.461   1.906   9.491  0.9762  0.0232 -1.5870
  387MPD2    H2 5842   0.776   2.181   9.482 -0.4433  0.8485 -0.3154
  387MPD2    H3 5843   0.661   1.993   9.391  0.9478  0.0217  0.7638
  387MPD2     N 5844   0.343   2.013   9.726  0.2390  0.0238  0.5636
  387MPD2    H5 5845   0.323   2.074   9.805 -0.5733 -0.7670  0.9650
  387MPD2    N1 5846   0.677   2.333   9.706 -0.7373  0.2422  0.2898
  387MPD2    H7 5847   0.615   2.353   9.783  0.8216  1.3556  1.2442
  388TMC3    C1 5848   0.831   2.459   9.817 -0.0248 -0.1427 -0.1720
  388TMC3    C2 5849   0.942   2.540   9.810  0.2394 -0.7032 -0.4922
  388TMC3    C3 5850   0.996   2.588   9.923  0.3915 -0.2874 -0.1909
  388TMC3    C4 5851   0.769   2.430   9.936  0.2420 -0.5031  0.2022
  388TMC3    C5 5852   0.834   2.474  10.048  0.2885 -0.5702  0.4400
  388TMC3    C6 5853   0.948   2.559  10.045 -0.2134 -0.0743 -0.3742
  388TMC3     C 5854   0.809   2.374   9.705 -0.1310 -0.1227 -0.0778
  388TMC3     O 5855   0.892   2.344   9.619 -0.1952  0.0925 -0.0258
  388TMC3     H 5856   0.988   2.567   9.715  1.2313  0.3355  0.2721
  388TMC3    H1 5857   0.686   2.360   9.927 -0.7569  0.6208  0.7418
  388TMC3    H2 5858   1.014   2.589  10.125  0.5207 -0.0695 -0.9764
  388TMC3    C7 5859   0.810   2.395  10.165 -0.1815  0.0457 -0.2744
  388TMC3    C8 5860   1.103   2.687   9.922 -0.3685  0.6242 -0.3066
  388TMC3    O1 5861   0.892   2.388  10.261  0.4541 -0.3046 -0.4717
  388TMC3    O2 5862   1.156   2.723  10.024  0.4929 -0.5165 -0.0387
  389MPD2     C 5863   4.318   0.360  11.622 -0.2552 -0.8252  0.0986
  389MPD2    C1 5864   4.199   0.317  11.575 -0.4488 -0.1185 -0.3683
  389MPD2    C2 5865   4.122   0.246  11.653 -0.3900  0.2731  0.4830
  389MPD2    C3 5866   4.155   0.229  11.787 -0.2950  0.4924  0.4502
  389MPD2    C4 5867   4.269   0.284  11.835  0.1423  0.1361  0.4693
  389MPD2    C5 5868   4.359   0.335  11.747  0.1441  0.8018 -0.3238
  389MPD2     H 5869   4.034   0.197  11.613 -1.4852  3.0635 -0.5457
  389MPD2    H1 5870   4.303   0.271  11.937 -3.1517  1.8978  1.8054
  389MPD2    H2 5871   4.391   0.405  11.555  0.0848  1.4264  1.9770
  389MPD2    H3 5872   4.466   0.351  11.754 -0.1412  2.3761  0.6088
  389MPD2     N 5873   4.077   0.165  11.878  0.1097  0.2705 -0.1062
  389MPD2    H5 5874   4.097   0.185  11.976 -2.2758  1.6143  0.0902
  389MPD2    N1 5875   4.176   0.349  11.441  0.1630  0.6056 -0.6555
  389MPD2    H7 5876   4.231   0.427  11.404 -0.3040  0.3483 -1.8904
  390TMC3    C1 5877   3.923   0.024  11.969  0.1029  0.4271  0.7872
  390TMC3    C2 5878   3.837   4.655  11.949 -0.0093 -0.2264  0.0857
  390TMC3    C3 5879   3.770   4.605  12.062  0.1468  0.3660  1.3420
  390TMC3    C4 5880   3.929   0.089  12.086 -0.2195 -0.2293  0.0410
  390TMC3    C5 5881   3.838   0.056  12.183  0.3062  0.0749  0.2365
  390TMC3    C6 5882   3.762   4.679  12.178 -0.0445 -0.0837 -0.2230
  390TMC3     C 5883   3.972   0.086  11.851  0.2696 -1.0612 -0.5121
  390TMC3     O 5884   3.928   0.039  11.747  0.0912  0.9431  0.1051
  390TMC3     H 5885   3.836   4.596  11.858 -0.5470  0.9436 -0.6662
  390TMC3    H1 5886   3.983   0.183  12.097  0.7781 -1.0079  1.7747
  390TMC3    H2 5887   3.717   4.647  12.271  2.0922 -0.6209  0.6129
  390TMC3    C7 5888   3.809   0.145  12.291 -0.3590 -0.2297 -0.5592
  390TMC3    C8 5889   3.661   4.512  12.039 -0.1086  0.4113  0.3990
  390TMC3    O1 5890   3.886   0.236  12.303 -0.1538 -0.1089 -0.2694
  390TMC3    O2 5891   3.628   4.501  11.921  0.3272 -0.7431 -0.4460
  391MPD2     C 5892   3.540   1.553  11.181 -0.0355  0.0333  0.4328
  391MPD2    C1 5893   3.638   1.647  11.149  0.1323  0.1956  0.8636
  391MPD2    C2 5894   3.634   1.718  11.029  0.5385 -0.1063  0.4192
  391MPD2    C3 5895   3.522   1.699  10.942  1.1431  0.0196 -0.5531
  391MPD2    C4 5896   3.425   1.604  10.968  0.1070  0.1247 -0.0064
  391MPD2    C5 5897   3.439   1.533  11.086  0.8393  0.0657  0.1762
  391MPD2     H 5898   3.704   1.791  10.990  0.3655 -0.9371 -1.4154
  391MPD2    H1 5899   3.344   1.577  10.902 -0.6662  0.7212  0.6945
  391MPD2    H2 5900   3.536   1.498  11.274 -0.0346 -1.0201 -0.1906
  391MPD2    H3 5901   3.364   1.462  11.117 -0.9601  1.1068 -1.8092
  391MPD2     N 5902   3.517   1.776  10.822 -0.3434  0.3514  0.3043
  391MPD2    H5 5903   3.596   1.836  10.801 -0.0242 -0.6001 -1.2330
  391MPD2    N1 5904   3.745   1.663  11.235 -0.2033  0.2039  0.0929
  391MPD2    H7 5905   3.758   1.606  11.319  0.0875 -0.8893 -0.6935
  392TMC3    C1 5906   3.427   1.904  10.643 -0.4758  0.3519 -0.4900
  392TMC3    C2 5907   3.338   1.912  10.541 -0.3176  0.2882 -0.1052
  392TMC3    C3 5908   3.342   2.025  10.460 -0.0179  0.6287  0.0078
  392TMC3    C4 5909   3.519   1.999  10.664  0.0812  0.1491 -0.2142
  392TMC3    C5 5910   3.530   2.099  10.571  0.4169 -0.0427 -0.1439
  392TMC3    C6 5911   3.444   2.113  10.459  0.8261  0.2375  0.2678
  392TMC3     C 5912   3.407   1.804  10.750 -0.0929  0.3491 -0.0282
  392TMC3     O 5913   3.296   1.754  10.758 -0.2167 -0.0141 -0.0689
  392TMC3     H 5914   3.265   1.832  10.536  0.0887  0.0251 -2.0002
  392TMC3    H1 5915   3.584   2.001  10.750 -0.5994 -1.2376  0.3197
  392TMC3    H2 5916   3.457   2.175  10.372 -1.3768  0.7465  0.2910
  392TMC3    C7 5917   3.626   2.208  10.599  0.3668 -0.2251 -0.4362
  392TMC3    C8 5918   3.241   2.041  10.356 -0.8499  0.3752  0.2935
  392TMC3    O1 5919   3.720   2.189  10.676  0.2744  0.4467 -0.4042
  392TMC3    O2 5920   3.196   1.940  10.309  0.2471  0.1528 -0.9970
  393TMC3    C1 5921   2.219   4.633  10.620  1.1416 -0.2273 -0.5526
  393TMC3    C2 5922   2.168   4.525  10.542  0.3850 -0.1386 -0.3623
  393TMC3    C3 5923   2.082   4.442  10.606  0.2334  0.4831  0.3008
  393TMC3    C4 5924   2.183   4.649  10.749  0.2453  0.3985 -0.0233
  393TMC3    C5 5925   2.083   4.570  10.804 -0.1786  0.1793 -0.1315
  393TMC3    C6 5926   2.036   4.465  10.729  0.2252 -0.1303  0.0437
  393TMC3     C 5927   2.252   0.024  10.556  0.3616 -0.3508  1.0741
  393TMC3     O 5928   2.295   0.121  10.618 -0.4645 -0.0039 -0.1465
  393TMC3     H 5929   2.200   4.512  10.439  0.5651 -1.6666 -0.1115
  393TMC3    H1 5930   2.209   0.001  10.805  0.9247 -0.5270  1.1404
  393TMC3    H2 5931   1.966   4.398  10.776  0.3245 -1.5867 -1.8705
  393TMC3    C7 5932   2.089   4.542  10.943 -1.3116 -0.1392  0.4160
  393TMC3    C8 5933   2.040   4.320  10.547  0.3130 -0.8518 -0.9138
  393TMC3    O1 5934   1.991   4.481  10.986  0.3004 -0.6690  0.4226
  393TMC3    O2 5935   1.973   4.236  10.607  0.6607  0.0806 -0.1229
  394TMC3    C1 5936   4.080   0.357  11.232  0.8678  0.0422 -0.0741
  394TMC3    C2 5937   3.960   0.364  11.165  0.4142 -0.5580 -0.2777
  394TMC3    C3 5938   3.967   0.424  11.042  0.1099 -0.0808 -0.8533
  394TMC3    C4 5939   4.203   0.393  11.175 -0.7204 -0.0255 -0.0780
  394TMC3    C5 5940   4.204   0.436  11.044 -0.0858 -0.1150  0.3969
  394TMC3    C6 5941   4.087   0.451  10.971 -0.0090 -0.6987 -0.1597
  394TMC3     C 5942   4.067   0.310  11.367 -0.5761 -0.0975 -0.8224
  394TMC3     O 5943   3.972   0.239  11.400 -0.3722  0.1110 -0.4097
  394TMC3     H 5944   3.867   0.358  11.221  0.1315 -0.3263 -0.7240
  394TMC3    H1 5945   4.297   0.397  11.229 -1.3704 -0.0525  1.0550
  394TMC3    H2 5946   4.093   0.500  10.875 -0.7919  5.1959  2.8072
  394TMC3    C7 5947   4.320   0.497  10.978  0.0923 -0.2191 -0.0460
  394TMC3    C8 5948   3.843   0.417  10.962 -0.2970  0.2451 -0.1833
  394TMC3    O1 5949   4.292   0.594  10.910 -0.2050  0.6274 -0.0623
  394TMC3    O2 5950   3.740   0.389  11.026 -0.0253 -0.2227  0.2120
  395TMC3    C1 5951   3.961   3.013  14.614  0.1170  0.3574  0.0010
  395TMC3    C2 5952   3.890   3.008  14.497 -0.9893  0.4163  0.7905
  395TMC3    C3 5953   3.938   3.093  14.405  0.0662  0.0705 -0.4119
  395TMC3    C4 5954   4.072   3.087  14.648  0.2298 -0.6171 -1.1488
  395TMC3    C5 5955   4.123   3.168  14.546 -0.7756  0.4567 -0.6116
  395TMC3    C6 5956   4.053   3.173  14.426  0.3719  0.7582  0.0551
  395TMC3     C 5957   3.942   2.901  14.707 -0.1917  0.0355 -0.5137
  395TMC3     O 5958   4.001   2.911  14.812 -0.0798 -0.2044 -0.3612
  395TMC3     H 5959   3.804   2.943  14.480  0.0628 -0.4025 -1.4287
  395TMC3    H1 5960   4.120   3.101  14.744  0.4873 -0.1133 -1.3477
  395TMC3    H2 5961   4.080   3.240  14.345 -0.2109  0.6781 -0.2025
  395TMC3    C7 5962   4.242   3.254  14.577 -1.5585 -0.0832  0.4474
  395TMC3    C8 5963   3.858   3.108  14.286  0.1953  0.5535  0.0642
  395TMC3    O1 5964   4.291   3.253  14.688  0.6729 -0.0694  0.5457
  395TMC3    O2 5965   3.877   3.215  14.222  0.5794  0.3086 -0.2723
  396MPD2     C 5966   3.456   3.836  17.729  0.0910  0.1266 -0.7458
  396MPD2    C1 5967   3.572   3.807  17.661  0.2972 -0.5290  0.2485
  396MPD2    C2 5968   3.632   3.910  17.593  0.6569 -0.9068 -0.0162
  396MPD2    C3 5969   3.565   4.028  17.576  1.2969 -0.1042 -0.6122
  396MPD2    C4 5970   3.439   4.050  17.622  0.2981 -0.7390  0.0567
  396MPD2    C5 5971   3.383   3.953  17.706 -0.6460 -0.8232 -0.2810
  396MPD2     H 5972   3.731   3.888  17.554  0.3091 -0.0166 -1.4074
  396MPD2    H1 5973   3.379   4.134  17.588 -1.7417 -2.8928 -1.7164
  396MPD2    H2 5974   3.409   3.761   0.045  0.6310 -1.1728 -1.8880
  396MPD2    H3 5975   3.288   3.962   0.010  1.2666  0.3453  3.1313
  396MPD2     N 5976   3.622   4.133  17.502  0.3294  0.0841 -0.7093
  396MPD2    H5 5977   3.563   4.216  17.499 -1.0639 -0.9019 -0.5382
  396MPD2    N1 5978   3.631   3.684  17.677 -0.4434  0.4531  0.1612
  396MPD2    H7 5979   3.562   3.619  17.712  2.3943 -3.2491 -1.0886
  397TMC3    C1 5980   3.764   3.494  17.612 -0.1984 -0.5536  0.2035
  397TMC3    C2 5981   3.836   3.474  17.501 -0.3426  0.3424  0.8058
  397TMC3    C3 5982   3.792   3.393  17.403  0.1829  0.6408  0.4378
  397TMC3    C4 5983   3.641   3.428  17.635 -0.0713 -0.0680 -0.0302
  397TMC3    C5 5984   3.604   3.343  17.537 -0.7945  0.9483 -0.0789
  397TMC3    C6 5985   3.663   3.336  17.415 -0.0295 -0.2290 -0.5131
  397TMC3     C 5986   3.752   3.642  17.635  0.0326  0.4733 -0.4906
  397TMC3     O 5987   3.852   3.712  17.614  0.0845  0.6643 -0.5641
  397TMC3     H 5988   3.919   3.543  17.489  0.8082 -1.3090 -0.7629
  397TMC3    H1 5989   3.574   3.438  17.719  0.6694  1.9785  0.3281
  397TMC3    H2 5990   3.618   3.269  17.343  2.1168 -1.7523 -0.4546
  397TMC3    C7 5991   3.517   3.237  17.563 -1.0034  0.0443 -0.0553
  397TMC3    C8 5992   3.818   3.440  17.270  0.2835  0.3948 -0.1502
  397TMC3    O1 5993   3.436   3.205  17.475  0.0006 -0.2319  0.1162
  397TMC3    O2 5994   3.726   3.446  17.191 -0.0781 -0.2508  0.0009
  398MPD2     C 5995   1.755   4.335   0.317 -0.1385 -0.1520  0.4560
  398MPD2    C1 5996   1.878   4.279   0.336  0.1602 -0.0665 -0.2369
  398MPD2    C2 5997   1.973   4.363   0.396 -0.1317  0.4508  0.0264
  398MPD2    C3 5998   1.936   4.485   0.450 -0.0200  1.4189 -0.7954
  398MPD2    C4 5999   1.808   4.531   0.425  0.3928  0.5650 -0.4675
  398MPD2    C5 6000   1.720   4.460   0.349  1.2216  0.6103  0.4175
  398MPD2     H 6001   2.075   4.331   0.415 -0.2777  0.9037  1.5155
  398MPD2    H1 6002   1.772   4.626   0.461 -1.6944 -0.2352 -0.4768
  398MPD2    H2 6003   1.679   4.292   0.253  0.2761 -2.0158  1.2287
  398MPD2    H3 6004   1.618   4.498   0.344  0.1908 -2.1633  0.2630
  398MPD2     N 6005   2.024   4.543   0.541 -0.1182  0.2411  0.4590
  398MPD2    H5 6006   2.115   4.503   0.561 -0.9884 -1.8121  0.2878
  398MPD2    N1 6007   1.914   4.148   0.289  0.4140 -0.5390 -0.6796
  398MPD2    H7 6008   2.006   4.120   0.322  0.8110  1.2942 -0.2616
  399TMC3    C1 6009   1.886   3.930   0.223 -0.1766 -0.8829  0.2790
  399TMC3    C2 6010   2.019   3.908   0.219  0.0904  0.0818  0.7223
  399TMC3    C3 6011   2.072   3.785   0.231  0.5256 -0.1039  0.0873
  399TMC3    C4 6012   1.799   3.822   0.224  0.0836 -0.1238  0.0348
  399TMC3    C5 6013   1.858   3.695   0.217  0.8967  0.0105 -0.8724
  399TMC3    C6 6014   1.993   3.675   0.225  0.0946  0.3551 -0.0898
  399TMC3     C 6015   1.830   4.059   0.228 -0.9057 -0.5515  0.0349
  399TMC3     O 6016   1.714   4.070   0.188  0.3884  0.0896 -0.1525
  399TMC3     H 6017   2.075   3.993   0.182  0.1145 -1.5909 -3.0308
  399TMC3    H1 6018   1.693   3.843   0.224  0.1634  0.2905 -0.2385
  399TMC3    H2 6019   2.027   3.572   0.214  3.2851  1.4837 -0.5852
  399TMC3    C7 6020   1.773   3.583   0.223  0.2181  0.0249 -0.5203
  399TMC3    C8 6021   2.211   3.767   0.272 -0.2275  0.0871 -0.0962
  399TMC3    O1 6022   1.814   3.494   0.296 -0.3995 -0.6184  0.2193
  399TMC3    O2 6023   2.259   3.655   0.262  0.1158 -0.3052 -0.1546
  400TMC3    C1 6024   0.111   3.075  16.884 -0.2640  0.8299  0.3452
  400TMC3    C2 6025   0.018   2.977  16.861  0.4843 -0.5545 -0.0594
  400TMC3    C3 6026   4.640   3.036  16.801 -0.1581 -0.5852 -0.2949
  400TMC3    C4 6027   0.100   3.213  16.856  0.3895  0.8580 -0.3053
  400TMC3    C5 6028   4.721   3.251  16.793 -0.3245 -0.5301  0.3466
  400TMC3    C6 6029   4.617   3.167  16.767 -0.3796 -0.3578  1.3422
  400TMC3     C 6030   0.227   3.017  16.939  0.1784  0.8560 -0.2112
  400TMC3     O 6031   0.209   2.911  17.000 -0.1748  0.1289  0.2988
  400TMC3     H 6032   0.025   2.876  16.900  0.3398 -1.0099 -1.2261
  400TMC3    H1 6033   0.177   3.281  16.893  2.3279 -1.0265 -0.8828
  400TMC3    H2 6034   4.527   3.190  16.711  0.3373 -1.0059 -0.0990
  400TMC3    C7 6035   4.699   3.394  16.758  0.4868 -0.2131  0.2909
  400TMC3    C8 6036   4.547   2.942  16.736 -0.2362 -0.4631 -0.4959
  400TMC3    O1 6037   4.612   3.416  16.681  0.5470 -0.3021  0.6204
  400TMC3    O2 6038   4.430   2.983  16.727 -0.4656 -0.3950 -0.3109
  401MPD2     C 6039   3.917   1.782   0.463  0.1355 -0.2172 -0.1233
  401MPD2    C1 6040   3.940   1.690   0.567  0.0694  0.5164  0.0075
  401MPD2    C2 6041   3.944   1.553   0.532 -0.5353  0.0780  0.2504
  401MPD2    C3 6042   3.935   1.517   0.399 -0.1680 -0.5005 -0.0553
  401MPD2    C4 6043   3.913   1.617   0.302 -0.0485 -0.4181  0.1521
  401MPD2    C5 6044   3.891   1.742   0.336 -0.2288  0.2336 -0.5513
  401MPD2     H 6045   3.953   1.464   0.593  2.0557  0.6097  0.6222
  401MPD2    H1 6046   3.892   1.592   0.198 -0.4706  1.3414 -0.1866
  401MPD2    H2 6047   3.908   1.889   0.479 -3.7682 -1.0959  3.6157
  401MPD2    H3 6048   3.856   1.822   0.272 -1.2827  0.4271  0.2712
  401MPD2     N 6049   3.957   1.380   0.370  0.2552  0.2302 -0.5409
  401MPD2    H5 6050   4.005   1.331   0.446 -0.5278 -1.0255 -0.8593
  401MPD2    N1 6051   3.969   1.742   0.697  0.8805 -0.3226  0.0127
  401MPD2    H7 6052   3.969   1.843   0.704  0.9257 -0.3292  0.1102
  402TMC3    C1 6053   4.005   1.181   0.257 -0.4559  0.4456 -0.8046
  402TMC3    C2 6054   4.000   1.107   0.373  0.5164  0.1602  0.3929
  402TMC3    C3 6055   4.051   0.979   0.355 -0.2097 -0.0003  1.0182
  402TMC3    C4 6056   4.065   1.129   0.147 -0.8462  0.3017 -0.5205
  402TMC3    C5 6057   4.135   1.014   0.142  0.7029 -0.1266  1.0104
  402TMC3    C6 6058   4.116   0.921   0.243  0.2929 -0.4285 -0.0567
  402TMC3     C 6059   3.951   1.321   0.251 -0.1064 -0.0467  0.6174
  402TMC3     O 6060   3.912   1.363   0.146  0.1000  1.0909  0.2003
  402TMC3     H 6061   3.936   1.135   0.456 -1.0249 -1.6890 -0.1728
  402TMC3    H1 6062   4.064   1.200   0.064 -2.1332  1.6464  0.6524
  402TMC3    H2 6063   4.165   0.826   0.259 -0.7607 -0.6205  2.1022
  402TMC3    C7 6064   4.219   0.993   0.020 -0.4392 -0.1296 -0.5189
  402TMC3    C8 6065   4.036   0.884   0.463  0.0141  0.1934  0.0490
  402TMC3    O1 6066   4.225   1.089  17.689  0.5275 -0.3419 -0.0664
  402TMC3    O2 6067   4.028   0.766   0.434 -0.0252  0.2356 -0.1826
  403MPD2     C 6068   2.110   4.144  13.696  0.0549 -0.1204 -0.1242
  403MPD2    C1 6069   2.124   4.273  13.746  0.3498 -0.1602  0.1975
  403MPD2    C2 6070   2.236   4.301  13.827  0.9771  0.5336 -0.0800
  403MPD2    C3 6071   2.337   4.213  13.845 -0.2963  0.0880  0.3550
  403MPD2    C4 6072   2.323   4.094  13.774 -0.2119  0.2946  0.1960
  403MPD2    C5 6073   2.208   4.056  13.705 -0.2203  0.4249  0.3930
  403MPD2     H 6074   2.257   4.402  13.859  0.4911 -0.4987  3.5104
  403MPD2    H1 6075   2.394   4.012  13.776 -0.2883  0.2246  0.0076
  403MPD2    H2 6076   2.019   4.116  13.644 -0.6708  0.1687  0.9953
  403MPD2    H3 6077   2.201   3.957  13.664  0.0684 -0.0312  1.4356
  403MPD2     N 6078   2.454   4.249  13.913  0.0542 -0.1439 -0.1338
  403MPD2    H5 6079   2.458   4.336  13.966  1.3869 -0.7928  0.7979
  403MPD2    N1 6080   2.015   4.363  13.730 -0.4886 -0.1052  0.6597
  403MPD2    H7 6081   1.934   4.346  13.670 -0.2417  0.6235  0.1216
  404TMC3    C1 6082   1.880   4.559  13.788 -0.1344  0.1273  0.3991
  404TMC3    C2 6083   1.786   4.524  13.882  1.3350 -0.3723  0.3007
  404TMC3    C3 6084   1.654   4.535  13.848  0.5083 -0.1022 -0.2424
  404TMC3    C4 6085   1.843   4.572  13.656 -0.4983 -0.4546 -0.3213
  404TMC3    C5 6086   1.709   4.579  13.631 -0.1602  0.3140 -0.0253
  404TMC3    C6 6087   1.614   4.566  13.723  0.5097  0.1319 -0.3886
  404TMC3     C 6088   2.006   4.477  13.808  0.0104 -0.3026 -0.3952
  404TMC3     O 6089   2.062   4.506  13.908  0.1857 -0.2520 -0.2472
  404TMC3     H 6090   1.819   4.507  13.984 -0.4465 -2.0169  0.5980
  404TMC3    H1 6091   1.917   4.571  13.577 -0.6143  2.0421 -0.4652
  404TMC3    H2 6092   1.512   4.590  13.694  0.4782  0.4122 -0.0362
  404TMC3    C7 6093   1.683   4.623  13.497  1.0500 -0.6606  0.1760
  404TMC3    C8 6094   1.558   4.447  13.916  0.4108 -0.0002 -0.2314
  404TMC3    O1 6095   1.777   4.688  13.454 -0.0673  0.1342 -0.3433
  404TMC3    O2 6096   1.445   4.437  13.868  0.3349 -0.1771 -0.3486
  405MPD2     C 6097   1.738   0.271  15.306  0.3105  0.3514  0.4689
  405MPD2    C1 6098   1.825   0.246  15.200 -0.6132  1.2362 -0.0118
  405MPD2    C2 6099   1.947   0.319  15.208  0.0285  1.0599  0.4780
  405MPD2    C3 6100   1.972   0.415  15.306 -0.4081  0.3339  0.3303
  405MPD2    C4 6101   1.881   0.438  15.410  0.3303 -0.2489 -0.0034
  405MPD2    C5 6102   1.774   0.349  15.416 -0.3164 -0.5522 -0.6993
  405MPD2     H 6103   2.012   0.324  15.122  1.2111  0.9027  1.3741
  405MPD2    H1 6104   1.900   0.503  15.494  0.2878  0.3266 -0.4338
  405MPD2    H2 6105   1.652   0.206  15.297 -0.4005  1.3339  0.1871
  405MPD2    H3 6106   1.710   0.349  15.504  0.3140  0.3202 -0.2291
  405MPD2     N 6107   2.086   0.494  15.281  0.5174  0.3202  0.2112
  405MPD2    H5 6108   2.143   0.479  15.198 -0.8114 -1.6825 -0.3420
  405MPD2    N1 6109   1.780   0.181  15.081 -0.0336 -0.2631  0.5537
  405MPD2    H7 6110   1.684   0.148  15.080 -0.2494  0.3650 -0.3010
  406TMC3    C1 6111   2.199   0.929  15.208  0.0819  0.6138  0.0681
  406TMC3    C2 6112   2.284   0.893  15.106  0.2816  0.3683  0.0522
  406TMC3    C3 6113   2.301   0.763  15.079 -0.8577 -0.6525 -0.5280
  406TMC3    C4 6114   2.160   0.835  15.302 -0.0446 -0.0716  0.0167
  406TMC3    C5 6115   2.197   0.703  15.281 -0.1675  0.5022  0.3664
  406TMC3    C6 6116   2.263   0.667  15.168 -0.3562  0.0844  0.2723
  406TMC3     C 6117   2.103   1.033  15.179  0.2676  0.5470 -0.4006
  406TMC3     O 6118   2.149   1.140  15.144  0.6809  0.5651  0.2209
  406TMC3     H 6119   2.311   0.967  15.031  2.6145 -2.3142 -1.7530
  406TMC3    H1 6120   2.080   0.856  15.372  0.2352 -1.1862  0.6738
  406TMC3    H2 6121   2.295   0.563  15.159  1.0293  0.5141  0.1494
  406TMC3    C7 6122   2.115   0.608  15.352 -0.5558 -0.3873 -0.2212
  406TMC3    C8 6123   2.301   0.723  14.935  0.6058  0.7179 -0.6667
  406TMC3    O1 6124   2.044   0.656  15.441 -0.0423 -0.0544 -0.3712
  406TMC3    O2 6125   2.364   0.793  14.856 -0.8629 -1.0348 -0.2642
  407MPD2     C 6126   4.527   1.743   9.416  0.2736 -0.0795 -0.1839
  407MPD2    C1 6127   4.554   1.716   9.549  0.1047  0.0005 -0.7743
  407MPD2    C2 6128   4.564   1.815   9.644  0.4830 -0.0553  0.0113
  407MPD2    C3 6129   4.522   1.946   9.612  0.0480 -0.1647 -0.8345
  407MPD2    C4 6130   4.477   1.969   9.485 -0.1130 -0.2910  0.5622
  407MPD2    C5 6131   4.477   1.868   9.389 -0.3526  1.1497  0.1967
  407MPD2     H 6132   4.589   1.796   9.747 -0.9344 -1.9309  0.0049
  407MPD2    H1 6133   4.448   2.068   9.451 -1.2413 -0.7758  0.0940
  407MPD2    H2 6134   4.535   1.673   9.333 -0.1442 -0.6411  0.2574
  407MPD2    H3 6135   4.440   1.884   9.288  1.4939 -1.8481 -0.9376
  407MPD2     N 6136   4.512   2.052   9.705  0.1169 -0.8148 -0.2688
  407MPD2    H5 6137   4.486   2.142   9.668  0.6131  0.0122  1.3846
  407MPD2    N1 6138   4.584   1.579   9.588  0.5123 -0.4444  0.3660
  407MPD2    H7 6139   4.609   1.560   9.684  2.2065 -0.2665 -0.0331
  408TMC3    C1 6140   4.642   1.352   9.575  0.3650 -0.0052 -0.1319
  408TMC3    C2 6141   0.023   1.383   9.636  0.3346 -0.1278 -0.6455
  408TMC3    C3 6142   0.093   1.280   9.700  0.1740  0.6329  0.3962
  408TMC3    C4 6143   4.580   1.226   9.581 -0.0966 -0.0878  0.2818
  408TMC3    C5 6144   4.643   1.132   9.655 -0.7000  0.3403  0.7062
  408TMC3    C6 6145   0.024   1.158   9.721  0.2227 -0.2044 -0.8750
  408TMC3     C 6146   4.579   1.467   9.504 -0.5301  0.5665  0.0786
  408TMC3     O 6147   4.544   1.454   9.385  0.4022  0.5131  0.3126
  408TMC3     H 6148   0.073   1.475   9.608 -0.3304  0.1700 -0.8632
  408TMC3    H1 6149   4.487   1.200   9.532 -0.2509  2.2295 -0.6437
  408TMC3    H2 6150   0.075   1.084   9.783 -1.5087  1.6429  2.7702
  408TMC3    C7 6151   4.584   1.003   9.686 -0.0749 -1.0119  0.2332
  408TMC3    C8 6152   0.206   1.311   9.791 -0.8468 -0.4203 -0.0038
  408TMC3    O1 6153   4.670   0.919   9.708 -0.3860 -0.3287 -0.1428
  408TMC3    O2 6154   0.237   1.211   9.862 -0.2070  0.1678  0.5149
  409MPD2     C 6155   4.163   2.587  16.874 -0.1193  0.6296  0.7783
  409MPD2    C1 6156   4.196   2.651  16.989 -0.3890 -0.5250 -0.3811
  409MPD2    C2 6157   4.184   2.792  17.007 -0.0655  0.3054  0.7192
  409MPD2    C3 6158   4.134   2.869  16.898  0.4847  0.3161 -0.2481
  409MPD2    C4 6159   4.097   2.801  16.788  0.1131 -0.1185 -0.1387
  409MPD2    C5 6160   4.109   2.664  16.777 -0.5568 -0.1694  0.5814
  409MPD2     H 6161   4.215   2.846  17.096 -0.9474 -0.5722  1.5555
  409MPD2    H1 6162   4.045   2.849  16.706 -0.8541  1.0306  1.1328
  409MPD2    H2 6163   4.159   2.480  16.853 -3.2501  0.9778 -0.3725
  409MPD2    H3 6164   4.066   2.616  16.690 -0.3208  2.1080 -0.8059
  409MPD2     N 6165   4.105   3.007  16.909 -0.4576  0.0473 -0.4585
  409MPD2    H5 6166   4.066   3.049  16.825 -1.6798 -0.3231 -0.0660
  409MPD2    N1 6167   4.245   2.574  17.101  0.3084 -0.7311 -0.1994
  409MPD2    H7 6168   4.282   2.624  17.181 -0.7515 -0.6536  0.2423
  410TMC3    C1 6169   4.129   3.227  16.962 -0.4624 -0.0522  0.0436
  410TMC3    C2 6170   4.206   3.302  17.046 -0.1516 -0.8835  0.4663
  410TMC3    C3 6171   4.310   3.373  16.987  0.4021  1.0401  0.4238
  410TMC3    C4 6172   4.147   3.231  16.821  0.7513  0.3327 -0.0545
  410TMC3    C5 6173   4.228   3.325  16.771  0.0680 -0.0225  0.5520
  410TMC3    C6 6174   4.315   3.391  16.854  0.4563 -0.4341 -0.4319
  410TMC3     C 6175   4.138   3.087  17.016  0.6716  0.2355 -0.1362
  410TMC3     O 6176   4.193   3.074  17.125 -0.9992  0.6176 -0.3478
  410TMC3     H 6177   4.182   3.292  17.151 -0.0614  0.2953  0.5901
  410TMC3    H1 6178   4.080   3.171  16.761  1.3224 -2.7681  2.4208
  410TMC3    H2 6179   4.393   3.452  16.811 -0.2632  0.1574 -0.8871
  410TMC3    C7 6180   4.232   3.342  16.627 -0.5865 -0.1731 -0.3624
  410TMC3    C8 6181   4.441   3.354  17.039 -0.5307  0.1345  0.1876
  410TMC3    O1 6182   4.139   3.288  16.574  0.0016  0.9425  0.1163
  410TMC3    O2 6183   4.539   3.422  17.004 -0.1342 -0.3431  0.0452
  411MPD2     C 6184   4.224   4.673  15.038 -0.8064 -0.0421 -0.1916
  411MPD2    C1 6185   4.181   4.589  14.947 -0.2810  0.3751  0.4210
  411MPD2    C2 6186   4.265   4.545  14.842 -0.4941  0.0092 -0.3313
  411MPD2    C3 6187   4.397   4.596  14.836 -0.3670 -0.2337 -0.0141
  411MPD2    C4 6188   4.440   4.674  14.937  0.4647 -0.1648  0.2524
  411MPD2    C5 6189   4.350   4.725  15.026  0.5585 -0.5748  0.4943
  411MPD2     H 6190   4.229   4.484  14.760 -1.2866 -1.4572  1.1202
  411MPD2    H1 6191   4.544   4.702  14.947 -0.0349  1.8359 -0.0215
  411MPD2    H2 6192   4.160   4.708  15.119 -1.6787 -0.4874 -0.6970
  411MPD2    H3 6193   4.399   0.048  15.102 -0.0518 -1.5490  1.6667
  411MPD2     N 6194   4.494   4.546  14.744  0.2204 -0.2481 -1.1735
  411MPD2    H5 6195   4.592   4.557  14.770 -0.0587 -0.3741 -0.0786
  411MPD2    N1 6196   4.058   4.526  14.969  0.5594 -0.2611 -1.1779
  411MPD2    H7 6197   4.006   4.558  15.051  2.4812 -0.4410  0.1191
  412TMC3    C1 6198   4.583   4.368  14.612 -0.7647  0.1418  0.8411
  412TMC3    C2 6199   4.602   4.283  14.720 -0.0643 -0.7586 -0.3757
  412TMC3    C3 6200   4.646   4.155  14.690 -0.4600 -0.1299 -0.0784
  412TMC3    C4 6201   4.603   4.320  14.484  0.3232 -0.0387  0.0172
  412TMC3    C5 6202   4.648   4.198  14.466  0.3651 -0.2815  0.3708
  412TMC3    C6 6203   4.671   4.106  14.565  0.8077  0.3090 -0.0103
  412TMC3     C 6204   4.470   4.465  14.635 -0.7564  0.0110  0.4291
  412TMC3     O 6205   4.377   4.455  14.557  0.4296 -0.5213 -0.2050
  412TMC3     H 6206   4.561   4.320  14.813  0.8580  0.3571 -0.4134
  412TMC3    H1 6207   4.585   4.399  14.412  0.8178  0.6661  0.6665
  412TMC3    H2 6208   4.705   4.007  14.536  1.8380  0.2991  1.2575
  412TMC3    C7 6209   4.580   4.124  14.362  0.6379 -0.3586 -0.0479
  412TMC3    C8 6210   4.569   4.065  14.767  0.2719 -0.4866 -0.3652
  412TMC3    O1 6211   4.540   4.013  14.396  0.4553 -0.3515 -0.3725
  412TMC3    O2 6212   4.557   4.072  14.890  0.4164  0.9655  0.1425
  413MPD2     C 6213   0.934   2.120  16.052 -0.5946 -0.0307  0.6203
  413MPD2    C1 6214   0.995   2.097  15.930  0.1946  0.8141 -0.3278
  413MPD2    C2 6215   1.126   2.049  15.921  0.5235  0.0671  0.1209
  413MPD2    C3 6216   1.189   2.014  16.039  0.6291  0.0367 -0.8084
  413MPD2    C4 6217   1.143   2.053  16.166  0.4473  0.4109  0.2502
  413MPD2    C5 6218   1.012   2.100  16.165  0.6563 -0.4418  0.1589
  413MPD2     H 6219   1.169   2.036  15.823 -2.1365  0.0317 -1.0190
  413MPD2    H1 6220   1.194   2.043  16.261 -0.1290 -3.4660  0.1712
  413MPD2    H2 6221   0.830   2.148  16.063  0.3832  3.5797  0.3706
  413MPD2    H3 6222   0.975   2.128  16.263  1.0923  0.6636  0.0135
  413MPD2     N 6223   1.304   1.928  16.028  0.1859 -0.7539  0.0579
  413MPD2    H5 6224   1.321   1.896  15.933 -1.4208  1.2449 -0.9074
  413MPD2    N1 6225   0.923   2.127  15.813  0.2609 -0.0540 -0.2680
  413MPD2    H7 6226   0.843   2.189  15.816 -1.1447 -1.7768 -1.9622
  414TMC3    C1 6227   1.451   1.765  16.099 -0.4704  0.4551 -0.2034
  414TMC3    C2 6228   1.452   1.665  16.185  0.6499 -0.1581 -0.4767
  414TMC3    C3 6229   1.476   1.539  16.127 -1.0934  0.2342  0.2975
  414TMC3    C4 6230   1.488   1.753  15.968 -0.0360 -0.3704 -0.3723
  414TMC3    C5 6231   1.506   1.631  15.915  0.3879  0.3770 -0.3695
  414TMC3    C6 6232   1.495   1.518  15.995 -0.3879 -0.2626 -0.2992
  414TMC3     C 6233   1.371   1.874  16.134 -0.1946  0.5991  0.2653
  414TMC3     O 6234   1.376   1.894  16.257  0.1390 -0.2572  0.1164
  414TMC3     H 6235   1.424   1.681  16.288  3.2084  2.9409 -0.2400
  414TMC3    H1 6236   1.497   1.846  15.912 -0.9372 -0.2593 -0.3416
  414TMC3    H2 6237   1.491   1.421  15.947  0.4450 -1.5765  2.3037
  414TMC3    C7 6238   1.595   1.609  15.802  0.4012  0.0729 -0.1834
  414TMC3    C8 6239   1.551   1.457  16.211 -0.0604  0.6023  0.0397
  414TMC3    O1 6240   1.653   1.500  15.804  0.2301  0.1142  0.1685
  414TMC3    O2 6241   1.509   1.426  16.321 -0.1823 -0.1752 -0.0402
  415TMC3    C1 6242   2.260   3.812  10.438 -0.2089  0.1603 -0.0436
  415TMC3    C2 6243   2.344   3.848  10.330 -0.1976  0.1923  1.0044
  415TMC3    C3 6244   2.308   3.795  10.208  0.6379  0.0810  0.5606
  415TMC3    C4 6245   2.170   3.703  10.426  0.4004  0.3940 -0.9509
  415TMC3    C5 6246   2.139   3.658  10.307  0.4098  0.0002  0.2644
  415TMC3    C6 6247   2.201   3.707  10.200  0.1669  0.7625 -0.1251
  415TMC3     C 6248   2.257   3.883  10.566  0.0828  0.6568  0.8223
  415TMC3     O 6249   2.213   3.818  10.662  0.4117  0.0821  0.5146
  415TMC3     H 6250   2.436   3.902  10.348  0.7722 -0.2305 -2.6757
  415TMC3    H1 6251   2.117   3.673  10.516  1.8444  0.4638 -0.0732
  415TMC3    H2 6252   2.180   3.664  10.103  0.1524  1.7725 -0.5682
  415TMC3    C7 6253   2.040   3.555  10.278 -0.4651  1.0953  0.3851
  415TMC3    C8 6254   2.389   3.819  10.086 -0.2931 -0.6831  0.4425
  415TMC3    O1 6255   2.020   3.519  10.165  0.1917  0.4050  0.7340
  415TMC3    O2 6256   2.339   3.770   9.981  0.6198 -0.2019  0.2527
  416MPD2     C 6257   2.953   2.626  12.185  0.5324 -0.2766 -0.5312
  416MPD2    C1 6258   2.990   2.710  12.080 -0.4945  0.3653 -0.5992
  416MPD2    C2 6259   3.013   2.647  11.962 -0.7852  0.4070  0.7855
  416MPD2    C3 6260   3.000   2.509  11.952 -1.2530  0.4301 -0.0891
  416MPD2    C4 6261   2.964   2.427  12.050  0.0585 -0.2686 -0.0985
  416MPD2    C5 6262   2.937   2.488  12.173  0.3072  0.3348  0.0407
  416MPD2     H 6263   3.048   2.704  11.877 -0.1859 -1.9507 -0.5405
  416MPD2    H1 6264   2.956   2.320  12.036 -0.6527 -0.1162 -0.8458
  416MPD2    H2 6265   2.947   2.659  12.288  0.6497  0.9612 -0.9160
  416MPD2    H3 6266   2.916   2.421  12.255  1.8491 -0.9609 -0.6220
  416MPD2     N 6267   3.012   2.442  11.826  0.0195 -0.1505  0.1988
  416MPD2    H5 6268   3.016   2.340  11.833 -1.2430 -0.2886 -1.1008
  416MPD2    N1 6269   2.990   2.855  12.099 -0.0567  0.2081  0.4751
  416MPD2    H7 6270   2.982   2.896  12.191 -1.1643  2.2558 -0.5118
  417TMC3    C1 6271   2.990   3.081  12.037  0.2015  0.0025  0.6271
  417TMC3    C2 6272   3.032   3.118  12.160 -0.4242  0.1094  0.5715
  417TMC3    C3 6273   3.023   3.249  12.199 -0.3994 -0.3392  0.3917
  417TMC3    C4 6274   2.945   3.175  11.948 -0.2438  0.2125  0.0370
  417TMC3    C5 6275   2.924   3.300  12.002 -0.3198  0.1487  0.1862
  417TMC3    C6 6276   2.966   3.344  12.119  0.1303  0.4112 -0.7309
  417TMC3     C 6277   2.992   2.943  11.988 -0.7214 -0.7090  0.3487
  417TMC3     O 6278   2.997   2.922  11.870 -0.2981 -0.1506 -0.5023
  417TMC3     H 6279   3.091   3.040  12.207  0.0793  0.0020 -0.2454
  417TMC3    H1 6280   2.915   3.139  11.850  0.0188 -1.7812  0.6776
  417TMC3    H2 6281   2.972   3.449  12.144 -0.6742  0.2382  0.2059
  417TMC3    C7 6282   2.834   3.387  11.927 -0.1689  0.2043 -0.0525
  417TMC3    C8 6283   3.066   3.287  12.336  0.8512 -0.7758 -0.3724
  417TMC3    O1 6284   2.879   3.501  11.902  0.6108 -0.8250  0.4502
  417TMC3    O2 6285   3.018   3.395  12.370  0.5875 -0.4198 -0.1948
  418TMC3    C1 6286   2.307   0.075   0.674 -0.0465  0.6566 -0.2099
  418TMC3    C2 6287   2.170   0.076   0.660 -0.1460 -0.2503 -0.3429
  418TMC3    C3 6288   2.110   4.697   0.686 -0.0147 -0.6595 -0.0870
  418TMC3    C4 6289   2.380   4.699   0.715  0.1318 -0.0971  1.1166
  418TMC3    C5 6290   2.302   4.600   0.776 -0.4739 -0.3776  0.1302
  418TMC3    C6 6291   2.172   4.583   0.738 -0.1523  0.4408 -0.8589
  418TMC3     C 6292   2.377   0.167   0.586  0.3899  0.7773 -0.5385
  418TMC3     O 6293   2.339   0.279   0.572 -0.0006 -0.1869 -0.3193
  418TMC3     H 6294   2.119   0.161   0.616  0.5745  1.6967  2.6301
  418TMC3    H1 6295   2.487   4.713   0.730  0.1513 -1.8266  2.5951
  418TMC3    H2 6296   2.114   4.495   0.766 -0.8379  1.6445  1.5391
  418TMC3    C7 6297   2.359   4.486   0.845  0.1494 -0.1908 -0.2081
  418TMC3    C8 6298   2.005   4.672   0.594  0.1107 -0.0743 -0.3013
  418TMC3    O1 6299   2.304   4.376   0.835 -0.5806 -0.5643  0.5033
  418TMC3    O2 6300   1.944   0.027   0.551 -0.3687  0.5497 -0.5247
  419MPD2     C 6301   0.943   3.315  12.176  0.3286  0.0911 -0.2188
  419MPD2    C1 6302   0.879   3.433  12.218 -0.7803  0.4461  0.1061
  419MPD2    C2 6303   0.816   3.432  12.340 -0.0823 -0.3853  0.7876
  419MPD2    C3 6304   0.828   3.328  12.430  0.8761 -0.3915 -0.4748
  419MPD2    C4 6305   0.905   3.218  12.395 -0.5406 -0.4767 -0.5262
  419MPD2    C5 6306   0.957   3.216  12.271 -0.6116 -0.2930 -0.6611
  419MPD2     H 6307   0.752   3.511  12.377 -0.8330 -0.1782 -0.9813
  419MPD2    H1 6308   0.919   3.135  12.463 -0.8950  1.2840  1.6710
  419MPD2    H2 6309   0.990   3.297  12.081  1.6465  0.4367  0.3756
  419MPD2    H3 6310   1.017   3.131  12.239  0.3350  0.3952 -0.7067
  419MPD2     N 6311   0.763   3.345  12.550 -0.2774 -0.1181  0.8759
  419MPD2    H5 6312   0.705   3.429  12.557 -0.2965 -0.0314 -0.3123
  419MPD2    N1 6313   0.862   3.546  12.140  0.6936 -0.3972  0.0240
  419MPD2    H7 6314   0.797   3.615  12.176  0.0616 -1.1093  0.2597
  420TMC3    C1 6315   0.693   3.320  12.768  0.3128 -0.2404 -0.0309
  420TMC3    C2 6316   0.628   3.441  12.748 -0.4299  0.4610  0.0680
  420TMC3    C3 6317   0.610   3.516  12.857 -0.5696 -0.4312 -0.6791
  420TMC3    C4 6318   0.757   3.294  12.889 -0.3671  0.9354 -0.4546
  420TMC3    C5 6319   0.732   3.380  12.993  0.2940  0.4597 -0.1788
  420TMC3    C6 6320   0.654   3.487  12.982  0.4789 -0.1999  0.8998
  420TMC3     C 6321   0.762   3.257  12.654 -0.7677 -0.8023  0.1819
  420TMC3     O 6322   0.814   3.153  12.674 -1.0641  0.1986 -0.0223
  420TMC3     H 6323   0.581   3.475  12.656  0.1807  2.0031  0.3319
  420TMC3    H1 6324   0.814   3.203  12.902 -1.5717  0.2830  0.3698
  420TMC3    H2 6325   0.619   3.534  13.073 -0.9437 -1.3944  0.9733
  420TMC3    C7 6326   0.783   3.344  13.119  0.8482 -0.7515  0.1858
  420TMC3    C8 6327   0.554   3.648  12.842 -0.3136  0.3475 -0.4532
  420TMC3    O1 6328   0.785   3.222  13.144  0.2349  0.0787 -0.4103
  420TMC3    O2 6329   0.471   3.661  12.761  0.1368  0.2008 -0.1016
  421TMC3    C1 6330   2.682   4.285  13.944  0.0544  0.0075 -0.7280
  421TMC3    C2 6331   2.659   4.416  13.975 -0.2342  0.7548 -0.0447
  421TMC3    C3 6332   2.768   4.487  14.015  0.0634 -0.1157  0.3731
  421TMC3    C4 6333   2.807   4.230  13.954 -0.4435  0.5791 -0.0139
  421TMC3    C5 6334   2.918   4.308  13.981  0.5269 -0.6047 -0.5098
  421TMC3    C6 6335   2.896   4.440  14.021 -0.6469 -0.2434 -0.0156
  421TMC3     C 6336   2.577   4.207  13.872  0.1815 -0.2771 -0.0482
  421TMC3     O 6337   2.611   4.111  13.809 -0.0762 -0.1689 -0.0998
  421TMC3     H 6338   2.568   4.464  13.939 -1.3719  0.8312  2.9434
  421TMC3    H1 6339   2.820   4.122  13.948  2.1645  0.7736  2.2544
  421TMC3    H2 6340   2.982   4.501  14.046 -1.0646  0.5246 -0.4765
  421TMC3    C7 6341   3.051   4.261  13.978 -0.1136 -1.1447  0.1122
  421TMC3    C8 6342   2.764   4.628  14.019  0.2802  0.2833 -0.5745
  421TMC3    O1 6343   3.134   4.327  14.039 -0.3112  0.9382 -0.4465
  421TMC3    O2 6344   2.871   4.691  14.023 -0.1443 -0.1775 -0.5287
  422TMC3    C1 6345   4.335   1.296  12.558 -0.1777  0.7896  0.5915
  422TMC3    C2 6346   4.270   1.392  12.494  0.0383  0.5838 -0.1623
  422TMC3    C3 6347   4.175   1.465  12.559  0.6229 -0.4174 -0.3341
  422TMC3    C4 6348   4.303   1.262  12.685  0.6233  0.3036  0.1742
  422TMC3    C5 6349   4.188   1.321  12.736  0.3391 -0.1283  0.3337
  422TMC3    C6 6350   4.115   1.421  12.678  0.6316 -0.3958  0.1381
  422TMC3     C 6351   4.468   1.265  12.504  0.6050  0.1818 -0.3022
  422TMC3     O 6352   4.495   1.301  12.390 -0.5575  0.0099 -1.0101
  422TMC3     H 6353   4.314   1.434  12.404 -1.4237  1.0866 -0.6400
  422TMC3    H1 6354   4.345   1.177  12.737  1.9042  0.9710  0.2230
  422TMC3    H2 6355   4.056   1.486  12.742  1.1884 -0.8088  1.0817
  422TMC3    C7 6356   4.155   1.283  12.869  0.1316 -0.6097  0.0874
  422TMC3    C8 6357   4.191   1.609  12.541  0.6757 -0.4478  0.5439
  422TMC3    O1 6358   4.242   1.243  12.945  0.1667  0.6645  0.5219
  422TMC3    O2 6359   4.297   1.657  12.501  0.0498  0.1638 -0.6569
  423MPD2     C 6360   0.516   2.308   1.075 -0.1944  0.1017  0.4045
  423MPD2    C1 6361   0.601   2.206   1.111  0.7612 -0.1463  0.1954
  423MPD2    C2 6362   0.663   2.133   1.005  0.4805 -0.0295 -0.7528
  423MPD2    C3 6363   0.637   2.178   0.874  0.0116 -0.6112  0.1481
  423MPD2    C4 6364   0.562   2.286   0.840 -0.1075 -0.3297  0.4676
  423MPD2    C5 6365   0.498   2.348   0.944 -0.0636  0.3072  0.4663
  423MPD2     H 6366   0.733   2.058   1.038  1.6212  1.7785  0.9518
  423MPD2    H1 6367   0.548   2.321   0.738  1.3615  0.6313  0.6007
  423MPD2    H2 6368   0.460   2.371   1.143  0.4994  2.4651 -1.2145
  423MPD2    H3 6369   0.437   2.436   0.928  1.9658  1.4954 -0.8408
  423MPD2     N 6370   0.696   2.110   0.767  0.0231  0.2937  0.2051
  423MPD2    H5 6371   0.675   2.138   0.672 -1.5430 -0.7880  0.2514
  423MPD2    N1 6372   0.623   2.168   1.246 -0.2869  0.3652 -0.2827
  423MPD2    H7 6373   0.672   2.080   1.262 -1.6413 -0.6548 -1.7299
  424TMC3    C1 6374   0.617   2.161   1.475  0.2640  0.2611  0.1675
  424TMC3    C2 6375   0.749   2.119   1.469  0.1532  0.0155  0.4111
  424TMC3    C3 6376   0.774   1.998   1.531 -1.0456  0.0813 -0.2902
  424TMC3    C4 6377   0.529   2.120   1.571  0.2021 -0.0740 -0.3347
  424TMC3    C5 6378   0.566   2.015   1.646  0.0509  0.3018  0.1310
  424TMC3    C6 6379   0.683   1.946   1.623 -0.4626  0.3422 -0.1232
  424TMC3     C 6380   0.559   2.221   1.359  0.6733  0.3108  0.3654
  424TMC3     O 6381   0.465   2.300   1.362  0.1784  0.2670 -0.5276
  424TMC3     H 6382   0.813   2.151   1.387 -0.1506 -0.9243 -0.1914
  424TMC3    H1 6383   0.432   2.168   1.567  1.1720  1.7181 -1.7408
  424TMC3    H2 6384   0.704   1.863   1.690  1.1747  2.2133  1.6933
  424TMC3    C7 6385   0.464   1.943   1.726 -0.2600  0.0994  0.1235
  424TMC3    C8 6386   0.896   1.935   1.491  0.4752 -0.4167 -0.4477
  424TMC3    O1 6387   0.490   1.828   1.744 -0.2067  0.0212 -0.3399
  424TMC3    O2 6388   0.971   1.998   1.417 -0.1729  0.4813  0.1358
  425MPD2     C 6389   0.377   1.600  17.654  0.1344 -0.2378 -0.1092
  425MPD2    C1 6390   0.314   1.564  17.536 -0.2776  0.6789  0.8519
  425MPD2    C2 6391   0.188   1.610  17.510 -0.7255  0.0976 -0.4723
  425MPD2    C3 6392   0.126   1.691  17.604 -1.1418  0.4728  0.3042
  425MPD2    C4 6393   0.189   1.727  17.719 -0.3481  0.0496 -0.3468
  425MPD2    C5 6394   0.313   1.679  17.740  0.0627  0.3651 -0.0213
  425MPD2     H 6395   0.131   1.569  17.428 -1.0935  1.0308 -0.6881
  425MPD2    H1 6396   0.146   1.792   0.048 -0.2573  0.2777 -0.4912
  425MPD2    H2 6397   0.475   1.562  17.680  0.3331  0.5793  0.3150
  425MPD2    H3 6398   0.367   1.719   0.078  0.8752  2.0850 -1.3474
  425MPD2     N 6399   4.732   1.724  17.585  0.7347 -0.4837  0.2482
  425MPD2    H5 6400   4.692   1.670  17.509 -1.1563 -0.0605  0.9307
  425MPD2    N1 6401   0.375   1.474  17.454 -0.4633  0.4738 -0.0545
  425MPD2    H7 6402   0.467   1.440  17.482 -0.7893 -0.7019 -0.4001
  426TMC3    C1 6403   0.352   1.297  17.308 -0.2130  0.0330 -0.3938
  426TMC3    C2 6404   0.358   1.271  17.175 -0.0589 -0.2981 -0.0475
  426TMC3    C3 6405   0.383   1.140  17.144 -0.2466 -0.0378 -0.1432
  426TMC3    C4 6406   0.361   1.206  17.407  0.3851 -0.1538  0.3143
  426TMC3    C5 6407   0.397   1.082  17.364 -0.2097  0.2135 -0.1808
  426TMC3    C6 6408   0.412   1.044  17.238 -0.8567  0.1922 -0.2129
  426TMC3     C 6409   0.319   1.433  17.338 -0.5160  0.0526 -0.8580
  426TMC3     O 6410   0.263   1.497  17.250 -0.4899 -0.7736  0.4272
  426TMC3     H 6411   0.373   1.348  17.100  1.4702  1.3805  1.9921
  426TMC3    H1 6412   0.366   1.230  17.512  0.1524 -2.8613  0.9418
  426TMC3    H2 6413   0.419   0.938  17.218 -0.6195  0.4921 -1.6962
  426TMC3    C7 6414   0.407   0.976  17.459 -0.4047 -0.0401  0.1922
  426TMC3    C8 6415   0.362   1.083  17.011  0.2027 -0.7319  0.3364
  426TMC3    O1 6416   0.464   0.873  17.428 -0.3485 -0.1023 -0.0711
  426TMC3    O2 6417   0.391   0.967  16.981  0.1499 -0.5906 -0.5834
  427MPD2     C 6418   3.479   3.887  14.945  0.2166 -0.2690 -1.0574
  427MPD2    C1 6419   3.463   3.870  15.080  0.4279 -0.4380  0.0584
  427MPD2    C2 6420   3.334   3.876  15.136  0.3628  0.0006 -0.5001
  427MPD2    C3 6421   3.225   3.904  15.056  0.7485 -0.1421  0.2450
  427MPD2    C4 6422   3.241   3.912  14.920 -0.1973 -0.5583  0.4457
  427MPD2    C5 6423   3.368   3.897  14.863  0.0702  0.1520  0.5107
  427MPD2     H 6424   3.326   3.848  15.240 -0.2621 -1.7178 -1.0131
  427MPD2    H1 6425   3.158   3.930  14.853  0.7174  1.0226 -0.2715
  427MPD2    H2 6426   3.577   3.878  14.901  0.2237  1.7750 -1.4554
  427MPD2    H3 6427   3.382   3.898  14.755 -1.5517  1.1116  0.3081
  427MPD2     N 6428   3.091   3.889  15.106  0.0238  0.0568  0.0410
  427MPD2    H5 6429   3.012   3.900  15.043 -0.4843  1.7286  0.9677
  427MPD2    N1 6430   3.574   3.830  15.163  0.7519 -0.3412 -0.1968
  427MPD2    H7 6431   3.544   3.803  15.256  0.4605 -0.7984 -0.4261
  428TMC3    C1 6432   3.767   3.717  15.210  0.1419 -0.1622  0.4811
  428TMC3    C2 6433   3.697   3.605  15.250 -0.5017 -0.9030  0.0852
  428TMC3    C3 6434   3.770   3.512  15.312  0.4025  0.3827  0.4104
  428TMC3    C4 6435   3.902   3.727  15.218  0.7848  0.0624 -0.0233
  428TMC3    C5 6436   3.972   3.630  15.279 -0.2581  0.0605  0.3337
  428TMC3    C6 6437   3.902   3.513  15.316 -0.1026 -0.1346 -0.0208
  428TMC3     C 6438   3.702   3.815  15.123 -0.3423 -1.1755 -0.5554
  428TMC3     O 6439   3.759   3.873  15.029 -0.3082 -0.1185  0.3729
  428TMC3     H 6440   3.598   3.587  15.208 -0.2329  0.0963 -0.9813
  428TMC3    H1 6441   3.957   3.809  15.172 -0.7836  1.1734  0.0699
  428TMC3    H2 6442   3.946   3.436  15.379 -0.2146  0.7472  1.1378
  428TMC3    C7 6443   4.099   3.650  15.343  0.2197 -0.1962  0.2183
  428TMC3    C8 6444   3.707   3.379  15.336 -0.0373  0.1875 -0.1730
  428TMC3    O1 6445   4.104   3.581  15.443  0.1420 -0.2849  0.2895
  428TMC3    O2 6446   3.777   3.281  15.331 -0.2805 -0.4576 -0.9196
  429MPD2     C 6447   4.394   3.627   0.011  0.2212  0.2350  0.0802
  429MPD2    C1 6448   4.502   3.572  17.698  0.1164  0.5070 -0.6853
  429MPD2    C2 6449   4.556   3.637  17.593 -0.3810  0.9854 -0.5743
  429MPD2    C3 6450   4.511   3.759  17.550 -0.0397  0.6623 -0.0038
  429MPD2    C4 6451   4.413   3.819  17.622  0.4557 -0.2658 -0.7247
  429MPD2    C5 6452   4.351   3.748  17.722 -0.7620 -0.3753 -0.7767
  429MPD2     H 6453   4.641   3.596  17.540 -2.1602 -0.2927 -2.4506
  429MPD2    H1 6454   4.394   3.925  17.609  0.5855 -0.2400 -0.7017
  429MPD2    H2 6455   4.348   3.586   0.100 -0.2005 -2.8240 -1.5569
  429MPD2    H3 6456   4.269   3.797   0.027  1.8039  0.6339  2.2924
  429MPD2     N 6457   4.581   3.826  17.441  0.4192  0.2686 -0.0802
  429MPD2    H5 6458   4.657   3.780  17.391 -0.5949 -2.0506  0.5439
  429MPD2    N1 6459   4.553   3.448  17.737 -0.0751  0.6244 -0.2005
  429MPD2    H7 6460   4.633   3.415  17.684  0.2308  1.0331  0.0092
  430TMC3    C1 6461   4.661   4.010  17.311 -0.7588  0.0884 -0.8939
  430TMC3    C2 6462   4.635   4.105  17.216  0.7239  0.5854  0.3403
  430TMC3    C3 6463   0.011   4.142  17.143 -0.1247 -0.4530 -0.4263
  430TMC3    C4 6464   0.049   3.949  17.326  1.2984 -0.6254  0.4091
  430TMC3    C5 6465   0.150   3.979  17.239  0.0828 -0.1972  0.2546
  430TMC3    C6 6466   0.135   4.089  17.163  0.0729 -0.1637 -0.2808
  430TMC3     C 6467   4.554   3.959  17.394  0.3541  0.7204 -1.2429
  430TMC3     O 6468   4.471   4.039  17.420  0.7916  0.5080  0.0551
  430TMC3     H 6469   4.538   4.153  17.204 -0.7106 -2.4715 -0.4098
  430TMC3    H1 6470   0.064   3.873  17.402  1.7130  2.9288  3.8990
  430TMC3    H2 6471   0.220   4.120  17.103 -0.3579  2.9184  0.6676
  430TMC3    C7 6472   0.170   3.863  17.155 -0.6840  0.5863 -0.3990
  430TMC3    C8 6473   4.724   4.221  17.019  0.1750 -0.0777 -0.0391
  430TMC3    O1 6474   0.152   3.755  17.215  0.1093 -0.7543  0.0346
  430TMC3    O2 6475   0.081   4.243  16.946 -0.6919  0.3764  0.0672
  431MPD2     C 6476   0.851   3.904  12.704  1.2630  0.2339  0.4391
  431MPD2    C1 6477   0.893   4.018  12.646 -0.8122  0.3077 -0.1375
  431MPD2    C2 6478   0.907   4.004  12.511  0.7614 -0.2080 -0.1854
  431MPD2    C3 6479   0.880   3.891  12.439  0.3531 -0.1944  0.2887
  431MPD2    C4 6480   0.846   3.772  12.505  0.3572 -0.3444  0.1319
  431MPD2    C5 6481   0.830   3.781  12.641 -0.4138 -0.6520  0.1114
  431MPD2     H 6482   0.942   4.095  12.463 -0.4484  0.4087  0.1079
  431MPD2    H1 6483   0.868   3.672  12.467 -0.6867 -0.6735  0.4040
  431MPD2    H2 6484   0.837   3.902  12.812  1.1552  1.1592  0.4396
  431MPD2    H3 6485   0.806   3.691  12.696 -0.2116  0.9019  2.7658
  431MPD2     N 6486   0.900   3.877  12.302 -0.4081 -0.1197  1.0463
  431MPD2    H5 6487   0.897   3.783  12.264 -0.7027  1.0738 -1.9734
  431MPD2    N1 6488   0.924   4.140  12.708 -0.4071  0.0513 -1.1736
  431MPD2    H7 6489   0.948   4.221  12.653  2.4570 -1.3553 -2.0050
  432TMC3    C1 6490   0.947   3.924  12.083 -0.3543  0.1544 -0.5414
  432TMC3    C2 6491   1.067   3.965  12.028 -0.2842  0.2419  0.3790
  432TMC3    C3 6492   1.142   3.865  11.961  0.0483 -0.1837 -0.5861
  432TMC3    C4 6493   0.899   3.802  12.072 -0.4884 -0.5423  0.1638
  432TMC3    C5 6494   0.973   3.711  11.999  0.0575  0.6709 -0.4633
  432TMC3    C6 6495   1.091   3.737  11.939  0.1564  0.1201 -0.6949
  432TMC3     C 6496   0.921   3.980  12.215  0.6027 -0.7845  0.4662
  432TMC3     O 6497   0.982   4.088  12.246  0.0089  0.1859  0.3684
  432TMC3     H 6498   1.100   4.067  12.041  1.9344 -0.4411  0.1433
  432TMC3    H1 6499   0.805   3.769  12.113 -1.6716  0.8515 -1.4024
  432TMC3    H2 6500   1.134   3.667  11.869  3.7854  1.5287  0.1359
  432TMC3    C7 6501   0.946   3.569  12.028 -0.2733  0.1894  0.6730
  432TMC3    C8 6502   1.275   3.895  11.922  0.2263 -0.1362  0.0797
  432TMC3    O1 6503   1.031   3.496  11.976  0.1109 -0.0021  0.4522
  432TMC3    O2 6504   1.326   3.822  11.838 -0.3633  0.5781  0.0137
  433MPD2     C 6505   4.211   2.184  10.632  0.3889 -0.1827  0.1695
  433MPD2    C1 6506   4.296   2.100  10.696 -0.4568  0.2298  0.1050
  433MPD2    C2 6507   4.333   2.137  10.823  0.4741  0.3210 -0.2369
  433MPD2    C3 6508   4.295   2.258  10.882  0.2851 -0.3031  0.3661
  433MPD2    C4 6509   4.209   2.337  10.816 -0.3865 -0.0881 -0.0574
  433MPD2    C5 6510   4.161   2.294  10.700  0.1774 -0.8179 -0.0383
  433MPD2     H 6511   4.411   2.091  10.883  0.4056  2.4539  1.4699
  433MPD2    H1 6512   4.173   2.430  10.860  0.6270  0.1801  0.2044
  433MPD2    H2 6513   4.170   2.159  10.534  0.2976 -1.6026  0.5625
  433MPD2    H3 6514   4.089   2.347  10.638 -1.1152 -1.9708  0.4604
  433MPD2     N 6515   4.359   2.289  11.006 -0.0949  0.2226 -0.1433
  433MPD2    H5 6516   4.408   2.214  11.054  0.4492  0.6200 -0.0760
  433MPD2    N1 6517   4.341   1.987  10.629  0.6993  0.0440  0.1042
  433MPD2    H7 6518   4.313   1.974  10.532 -0.9264 -0.8409  0.6816
  434TMC3    C1 6519   4.471   1.778  10.618 -0.0661 -0.0478  0.3271
  434TMC3    C2 6520   4.571   1.727  10.696 -0.5190 -0.1268 -0.1112
  434TMC3    C3 6521   4.585   1.594  10.722 -1.2780 -0.7741  0.0490
  434TMC3    C4 6522   4.372   1.696  10.584 -0.7359 -0.1801  0.5272
  434TMC3    C5 6523   4.385   1.560  10.606 -0.1444 -0.1557 -0.3538
  434TMC3    C6 6524   4.485   1.501  10.681 -0.2212 -0.1478  0.3602
  434TMC3     C 6525   4.425   1.895  10.687 -0.1752  0.5892  0.2546
  434TMC3     O 6526   4.450   1.892  10.810 -0.3752  0.1943 -0.0211
  434TMC3     H 6527   4.654   1.794  10.719 -1.0093 -0.2934  2.2085
  434TMC3    H1 6528   4.287   1.738  10.531 -0.8879 -0.3858  0.6113
  434TMC3    H2 6529   4.497   1.393  10.684  0.2429 -0.1696 -1.7828
  434TMC3    C7 6530   4.269   1.483  10.578  0.1933 -0.7390  0.3297
  434TMC3    C8 6531   4.703   1.553  10.799 -0.3135 -0.1960 -0.4877
  434TMC3    O1 6532   4.182   1.536  10.509  0.6136 -0.4836  0.5162
  434TMC3    O2 6533   0.057   1.635  10.807 -0.3878 -0.4215  0.8746
  435MPD2     C 6534   1.940   2.197  15.567 -0.2508  0.1204 -0.0721
  435MPD2    C1 6535   1.873   2.207  15.686 -0.7574 -0.7020  0.5791
  435MPD2    C2 6536   1.942   2.180  15.805 -0.4935  0.0081 -1.0494
  435MPD2    C3 6537   2.067   2.125  15.803  0.0720 -1.4345 -0.7874
  435MPD2    C4 6538   2.130   2.113  15.684  0.0934  0.3212 -0.4196
  435MPD2    C5 6539   2.065   2.151  15.566  0.2648 -0.4700 -0.2477
  435MPD2     H 6540   1.897   2.197  15.902 -0.1419 -0.8210 -0.7357
  435MPD2    H1 6541   2.232   2.078  15.678 -0.0930 -0.2094 -0.4358
  435MPD2    H2 6542   1.894   2.224  15.473 -1.5175 -2.5346 -0.1893
  435MPD2    H3 6543   2.108   2.135  15.467 -2.4618  0.7779 -1.6314
  435MPD2     N 6544   2.123   2.098  15.927 -0.6309 -0.5436 -0.5912
  435MPD2    H5 6545   2.066   2.128  16.006  2.7800 -0.0804  1.7200
  435MPD2    N1 6546   1.740   2.257  15.700 -0.3272 -0.0835  0.6670
  435MPD2    H7 6547   1.696   2.240  15.791  0.3152 -1.9078  0.6371
  436TMC3    C1 6548   1.368   2.379  15.818 -0.3633 -0.0625  0.9092
  436TMC3    C2 6549   1.498   2.357  15.785  0.4249 -0.2058 -0.0056
  436TMC3    C3 6550   1.521   2.312  15.660  0.2264 -0.2989 -0.2630
  436TMC3    C4 6551   1.263   2.350  15.741 -0.3717  0.3676  0.2520
  436TMC3    C5 6552   1.292   2.285  15.623  0.2883  0.5283 -0.3843
  436TMC3    C6 6553   1.419   2.277  15.579  0.1816  0.0390  0.0484
  436TMC3     C 6554   1.343   2.448  15.947 -0.3503  0.1572  0.4310
  436TMC3     O 6555   1.443   2.504  15.998 -0.0689 -0.0754  0.6097
  436TMC3     H 6556   1.582   2.400  15.837  0.4288 -1.6275  1.1550
  436TMC3    H1 6557   1.161   2.375  15.769  0.0624 -0.3713  2.5666
  436TMC3    H2 6558   1.443   2.242  15.479  0.4484 -0.7271  0.3858
  436TMC3    C7 6559   1.186   2.291  15.520  0.3417 -0.2221 -1.1915
  436TMC3    C8 6560   1.656   2.301  15.611 -0.5558 -0.7890 -0.7468
  436TMC3    O1 6561   1.114   2.388  15.532 -0.0121  0.0214  0.2358
  436TMC3    O2 6562   1.682   2.334  15.497  0.4778  0.3633  0.0863
  437TMC3    C1 6563   4.520   4.498  13.155  0.0199  0.3115  0.6695
  437TMC3    C2 6564   4.431   4.544  13.249  0.1788  0.1045 -0.4168
  437TMC3    C3 6565   4.415   4.678  13.262 -0.1950 -0.2416 -0.0234
  437TMC3    C4 6566   4.595   4.588  13.080 -0.8885 -0.2103  0.1166
  437TMC3    C5 6567   4.569   4.718  13.094  0.8999  0.6090 -0.4641
  437TMC3    C6 6568   4.476   0.034  13.186 -0.0763  0.2952 -0.5884
  437TMC3     C 6569   4.534   4.360  13.118 -0.1878 -0.5797  0.1644
  437TMC3     O 6570   4.648   4.328  13.094  0.0215  0.2204  0.0326
  437TMC3     H 6571   4.375   4.482  13.318 -1.4376  2.1500  0.1063
  437TMC3    H1 6572   4.659   4.537  13.009 -2.7554  0.3225 -1.9093
  437TMC3    H2 6573   4.446   0.139  13.189  3.4323  1.2307  1.4649
  437TMC3    C7 6574   4.642   0.077  13.009 -0.5078 -0.6192 -0.2921
  437TMC3    C8 6575   4.325   4.720  13.364 -0.2821 -0.2179  0.0388
  437TMC3    O1 6576   4.609   0.195  13.006 -0.5299 -0.1790  0.1259
  437TMC3    O2 6577   4.233   4.642  13.375 -0.6784 -0.2751  0.6845
  438MPD2     C 6578   2.782   0.346  16.878 -0.2760  0.3920 -0.4484
  438MPD2    C1 6579   2.852   0.258  16.956 -0.0411 -0.4650  0.1697
  438MPD2    C2 6580   2.821   0.241  17.089  0.1710 -0.4386  0.1233
  438MPD2    C3 6581   2.725   0.320  17.152 -0.2759 -0.4540  0.0360
  438MPD2    C4 6582   2.660   0.417  17.076 -0.4449 -0.1693 -0.3642
  438MPD2    C5 6583   2.689   0.421  16.942  0.3294 -0.5030  0.0743
  438MPD2     H 6584   2.887   0.192  17.160 -0.8889 -0.5745  1.0141
  438MPD2    H1 6585   2.583   0.485  17.111 -2.5273 -3.1314  0.8075
  438MPD2    H2 6586   2.813   0.378  16.780 -2.0283  1.7290 -0.5623
  438MPD2    H3 6587   2.629   0.491  16.885  0.4487  1.4805  2.4027
  438MPD2     N 6588   2.688   0.317  17.287  0.2451  0.0701  0.2721
  438MPD2    H5 6589   2.612   0.377  17.315  1.4020  0.5069  2.5054
  438MPD2    N1 6590   2.964   0.186  16.910  0.6245  0.5114  0.1383
  438MPD2    H7 6591   3.017   0.129  16.975  1.4513  2.7432  1.4313
  439TMC3    C1 6592   3.110   0.074  16.775  0.6023  0.2677 -0.3564
  439TMC3    C2 6593   3.127   0.010  16.658  0.6907 -0.7163 -0.0974
  439TMC3    C3 6594   3.233   4.660  16.657 -0.4387  0.3267  0.0117
  439TMC3    C4 6595   3.200   0.056  16.879 -0.8193 -0.0561 -0.0779
  439TMC3    C5 6596   3.310   4.715  16.860  0.0849  0.1534 -0.4364
  439TMC3    C6 6597   3.326   4.645  16.746  0.1421 -0.1441  0.0555
  439TMC3     C 6598   2.999   0.170  16.780 -0.3405  0.0013  0.4568
  439TMC3     O 6599   2.940   0.200  16.679 -0.2486 -0.1471 -0.5797
  439TMC3     H 6600   3.045   0.019  16.588  0.2411 -1.0758  0.3776
  439TMC3    H1 6601   3.197   0.106  16.975  0.6536  1.4019 -0.7931
  439TMC3    H2 6602   3.398   4.565  16.738 -2.1444 -1.9579 -2.1209
  439TMC3    C7 6603   3.420   4.735  16.950  0.3503 -0.3416  0.0757
  439TMC3    C8 6604   3.204   4.543  16.578  0.3594  0.9282  0.3165
  439TMC3    O1 6605   3.394   0.054  17.055  0.3892 -0.3473  0.6258
  439TMC3    O2 6606   3.293   4.483  16.515  0.2815  0.3966  0.4011
  440MPD2     C 6607   1.570   0.936  15.469 -0.9833  0.2085 -1.1135
  440MPD2    C1 6608   1.636   1.053  15.480 -0.2498  0.0204  0.5225
  440MPD2    C2 6609   1.770   1.043  15.518  0.8901  1.3840  0.2118
  440MPD2    C3 6610   1.831   0.922  15.537 -0.1605 -0.6279 -0.3994
  440MPD2    C4 6611   1.757   0.810  15.529  0.3517  0.5556  0.3246
  440MPD2    C5 6612   1.630   0.817  15.496  0.2020  0.6972  0.3998
  440MPD2     H 6613   1.820   1.139  15.522  0.1064  1.8735 -1.7300
  440MPD2    H1 6614   1.798   0.713  15.556 -2.4751 -0.7222 -0.0400
  440MPD2    H2 6615   1.471   0.923  15.426 -2.0478  1.4153  0.9733
  440MPD2    H3 6616   1.566   0.729  15.491  1.5702 -0.2425 -0.7433
  440MPD2     N 6617   1.961   0.908  15.587  0.4186 -0.1938  0.6045
  440MPD2    H5 6618   1.991   0.811  15.598  0.0284 -0.1413  2.2027
  440MPD2    N1 6619   1.569   1.180  15.472 -0.1572  0.4101 -0.2190
  440MPD2    H7 6620   1.625   1.264  15.476  1.5186 -0.6923 -0.3674
  441TMC3    C1 6621   2.138   0.973  15.717  0.0061 -0.3989 -0.1177
  441TMC3    C2 6622   2.155   1.064  15.819 -0.1779  0.0142 -0.2857
  441TMC3    C3 6623   2.206   1.013  15.934 -0.1509  0.7703  0.4687
  441TMC3    C4 6624   2.190   0.847  15.720  0.8767  1.0730  0.5721
  441TMC3    C5 6625   2.251   0.807  15.834 -0.1641  0.2697 -0.2811
  441TMC3    C6 6626   2.256   0.890  15.945 -0.0175  0.3346 -0.1658
  441TMC3     C 6627   2.039   1.012  15.624  0.3819  0.8906 -0.5641
  441TMC3     O 6628   2.032   1.132  15.602  0.4706 -0.4485 -0.2522
  441TMC3     H 6629   2.112   1.163  15.811 -1.7440 -0.6327  0.0109
  441TMC3    H1 6630   2.172   0.777  15.639 -0.1515 -0.6105  2.2637
  441TMC3    H2 6631   2.319   0.870  16.031  0.4475  0.9783 -0.3595
  441TMC3    C7 6632   2.244   0.661  15.857 -0.5049  0.7324 -0.3338
  441TMC3    C8 6633   2.145   1.045  16.066 -0.6557 -0.4852 -0.2105
  441TMC3    O1 6634   2.216   0.594  15.757 -0.4683  0.1726  0.5374
  441TMC3    O2 6635   2.152   0.951  16.141  0.1096  0.3425 -0.0249
  442MPD2     C 6636   4.731   1.451  16.078 -0.1323 -0.6868  0.4978
  442MPD2    C1 6637   4.691   1.392  16.195  0.3807  0.7282 -1.1677
  442MPD2    C2 6638   4.713   1.256  16.206 -0.2520 -0.6466  0.3807
  442MPD2    C3 6639   0.038   1.179  16.110  0.2368 -0.3606 -0.0234
  442MPD2    C4 6640   0.084   1.245  15.998 -0.6671 -0.5887 -0.4883
  442MPD2    C5 6641   0.055   1.376  15.982  0.3544  0.9951  0.3495
  442MPD2     H 6642   4.666   1.215  16.295  0.8098  0.2767  1.3541
  442MPD2    H1 6643   0.137   1.200  15.915  0.4027 -0.4613  0.1229
  442MPD2    H2 6644   4.733   1.558  16.061  0.1335 -0.0750  4.2378
  442MPD2    H3 6645   0.098   1.422  15.893  1.7234  1.3834  1.2064
  442MPD2     N 6646   0.059   1.039  16.114  0.0472 -0.1515  0.2675
  442MPD2    H5 6647   0.107   0.992  16.038  0.7224 -1.4924  1.5085
  442MPD2    N1 6648   4.629   1.470  16.298  0.4181 -0.3265 -0.1893
  442MPD2    H7 6649   4.586   1.422  16.375 -0.2426  0.4861 -0.0488
  443TMC3    C1 6650   4.542   1.658  16.400 -0.2273 -0.1900 -0.4135
  443TMC3    C2 6651   4.453   1.747  16.356 -0.0725 -0.1432  0.7842
  443TMC3    C3 6652   4.359   1.785  16.443 -0.3535 -0.5955 -0.2090
  443TMC3    C4 6653   4.550   1.603  16.526  0.1803  0.4394 -0.1171
  443TMC3    C5 6654   4.459   1.656  16.621 -0.1448  0.7418  0.5036
  443TMC3    C6 6655   4.367   1.749  16.579  0.0304  0.3012  0.1158
  443TMC3     C 6656   4.613   1.608  16.289 -0.1286 -0.0309  0.1680
  443TMC3     O 6657   4.637   1.688  16.200  0.0660 -0.2141 -0.0490
  443TMC3     H 6658   4.476   1.800  16.264  2.7401  0.5246  1.8597
  443TMC3    H1 6659   4.621   1.526  16.556 -0.1820  0.1941  0.1133
  443TMC3    H2 6660   4.285   1.779  16.644 -2.3525 -2.4985 -1.5952
  443TMC3    C7 6661   4.429   1.569  16.740 -0.3687 -0.7060  0.5356
  443TMC3    C8 6662   4.253   1.879  16.409  0.4490  0.8509 -0.3470
  443TMC3    O1 6663   4.493   1.470  16.768 -0.4160  0.5018  0.4417
  443TMC3    O2 6664   4.205   1.941  16.503  0.6641  0.1757  0.0430
  444MPD2     C 6665   0.007   0.790  16.952 -0.4970  0.1926 -0.1698
  444MPD2    C1 6666   4.681   0.671  16.979 -0.1953 -0.2410  0.4642
  444MPD2    C2 6667   4.721   0.555  16.923  0.4428  0.3038 -0.9892
  444MPD2    C3 6668   0.094   0.550  16.844  0.1105  0.1315 -0.5869
  444MPD2    C4 6669   0.158   0.661  16.815  0.2502 -0.8391  0.3009
  444MPD2    C5 6670   0.112   0.780  16.865  0.0656  0.0659 -0.7138
  444MPD2     H 6671   4.667   0.464  16.946  0.1317  0.7632  0.1114
  444MPD2    H1 6672   0.239   0.664  16.743 -0.9136 -2.7531 -1.0667
  444MPD2    H2 6673   4.723   0.879  17.011 -0.2137  0.0259  0.1856
  444MPD2    H3 6674   0.170   0.870  16.850 -0.5209  0.4938 -0.4240
  444MPD2     N 6675   0.130   0.430  16.789  0.5932 -0.3653 -0.1193
  444MPD2    H5 6676   0.061   0.356  16.779 -2.5889  2.1181  3.5045
  444MPD2    N1 6677   4.574   0.667  17.071 -0.0048 -0.8355  0.6694
  444MPD2    H7 6678   4.547   0.577  17.110 -1.1485 -0.3058  1.1242
  445TMC3    C1 6679   0.260   0.261  16.683  0.4511 -0.2284 -0.7031
  445TMC3    C2 6680   0.154   0.212  16.607 -0.0591  0.1134  0.1964
  445TMC3    C3 6681   0.158   0.081  16.571 -0.0594  0.4708 -0.0589
  445TMC3    C4 6682   0.358   0.180  16.719  0.2622  0.1802  0.0748
  445TMC3    C5 6683   0.352   0.051  16.694  0.2206  0.2797  0.1379
  445TMC3    C6 6684   0.250   4.732  16.617  0.2193 -0.5268 -0.2152
  445TMC3     C 6685   0.249   0.399  16.725 -0.6023  0.2259  0.0633
  445TMC3     O 6686   0.351   0.469  16.720 -0.5674 -0.4678 -0.7508
  445TMC3     H 6687   0.063   0.270  16.594 -0.1630 -0.0080  0.3916
  445TMC3    H1 6688   0.445   0.222  16.767 -1.8413  0.1321  3.9196
  445TMC3    H2 6689   0.257   4.636  16.568 -0.5692 -1.0419  0.6955
  445TMC3    C7 6690   0.466   4.699  16.716  1.0315 -0.0378 -0.6877
  445TMC3    C8 6691   0.059   0.018  16.486  0.2217  0.2719 -0.4610
  445TMC3    O1 6692   0.573   0.015  16.751  0.1009 -0.0938  0.2280
  445TMC3    O2 6693   0.007   4.645  16.517 -0.6428  0.1178 -0.2689
  446MPD2     C 6694   4.300   1.444  11.167  0.3410  0.1805  0.1002
  446MPD2    C1 6695   4.261   1.528  11.073 -0.0817 -0.2158  0.2749
  446MPD2    C2 6696   4.353   1.618  11.027 -0.5941  0.1550  0.0752
  446MPD2    C3 6697   4.478   1.639  11.078 -0.0562 -0.3316  0.0302
  446MPD2    C4 6698   4.509   1.558  11.181 -0.1331  0.5074 -0.0967
  446MPD2    C5 6699   4.427   1.454  11.219  0.3398  0.4581 -0.2778
  446MPD2     H 6700   4.325   1.675  10.939 -1.4137  2.6970  1.9731
  446MPD2    H1 6701   4.611   1.545  11.214 -0.4842 -1.8693  0.0394
  446MPD2    H2 6702   4.244   1.357  11.200  1.0470 -0.0098  0.8138
  446MPD2    H3 6703   4.462   1.380  11.290  1.8050  0.7159 -0.7153
  446MPD2     N 6704   4.562   1.744  11.035  0.0008  0.0476  0.2597
  446MPD2    H5 6705   4.531   1.793  10.952  2.6499 -1.5067 -1.6520
  446MPD2    N1 6706   4.132   1.525  11.017  0.0967 -0.6172 -0.0113
  446MPD2    H7 6707   4.121   1.580  10.933 -3.2758  0.2140  0.9567
  447TMC3    C1 6708   0.039   1.863  11.034 -0.2798  0.3130 -0.8596
  447TMC3    C2 6709   0.014   1.945  10.928 -0.3049  0.3528  0.5517
  447TMC3    C3 6710   0.122   1.975  10.850  0.6736 -0.4621  0.1117
  447TMC3    C4 6711   0.164   1.811  11.051  0.2811 -0.2379 -0.2503
  447TMC3    C5 6712   0.267   1.851  10.981  0.6624 -0.4830 -0.2057
  447TMC3    C6 6713   0.249   1.939  10.875 -0.7066 -0.3946  0.0151
  447TMC3     C 6714   4.679   1.784  11.104 -0.0513 -0.4311 -0.2831
  447TMC3     O 6715   4.713   1.740  11.213 -0.2835  0.0775 -0.3439
  447TMC3     H 6716   4.650   1.979  10.914  0.7596  3.0284 -0.5535
  447TMC3    H1 6717   0.168   1.726  11.118  0.6704  0.0169  0.0450
  447TMC3    H2 6718   0.333   1.950  10.808 -0.9438  0.3627 -0.1631
  447TMC3    C7 6719   0.393   1.781  11.002 -0.8353 -0.4654  0.3842
  447TMC3    C8 6720   0.100   2.045  10.727  0.3795  0.1385  0.1279
  447TMC3    O1 6721   0.389   1.665  11.049  0.1971 -0.0149 -0.0514
  447TMC3    O2 6722   4.729   2.027  10.673  0.2180 -0.1303  0.1093
  448TMC3    C1 6723   2.711   1.445  17.067 -0.1510  0.3552  0.6917
  448TMC3    C2 6724   2.706   1.317  17.027  0.5369 -0.7111 -0.0028
  448TMC3    C3 6725   2.810   1.239  17.053  1.0724  0.2397  0.1857
  448TMC3    C4 6726   2.810   1.482  17.147 -0.0290 -0.1631  0.2856
  448TMC3    C5 6727   2.905   1.398  17.184  0.3498 -0.5383 -0.7153
  448TMC3    C6 6728   2.913   1.276  17.134 -1.0248  0.2601  0.1005
  448TMC3     C 6729   2.587   1.526  17.065 -0.6600 -0.1841 -0.9645
  448TMC3     O 6730   2.477   1.461  17.061  0.2366 -0.1402  0.0103
  448TMC3     H 6731   2.612   1.287  16.982 -1.8163  3.7725  1.9450
  448TMC3    H1 6732   2.811   1.572  17.207  1.6949  0.9240 -1.3683
  448TMC3    H2 6733   2.997   1.210  17.155  1.4451  2.9979 -1.1128
  448TMC3    C7 6734   3.016   1.441  17.263 -0.3772 -0.5571 -0.5039
  448TMC3    C8 6735   2.822   1.106  16.993  0.2108 -0.4841  0.4651
  448TMC3    O1 6736   3.045   1.558  17.258  0.2706 -0.1153  0.1749
  448TMC3    O2 6737   2.920   1.048  17.032  0.0527  0.0175  0.1306
  449MPD2     C 6738   4.302   0.508  14.253 -0.0377  0.0967  0.8332
  449MPD2    C1 6739   4.219   0.421  14.185  0.3202 -0.3819  0.0710
  449MPD2    C2 6740   4.185   0.299  14.240  0.0253 -0.1834  0.3234
  449MPD2    C3 6741   4.228   0.266  14.368 -0.2557 -0.3791 -0.2440
  449MPD2    C4 6742   4.310   0.354  14.440 -0.5178  0.2350 -0.0648
  449MPD2    C5 6743   4.343   0.480  14.381 -0.5647  0.0551  0.5792
  449MPD2     H 6744   4.109   0.233  14.201  0.7970 -0.4862 -0.6644
  449MPD2    H1 6745   4.353   0.332  14.537  0.2804  0.0242 -0.4661
  449MPD2    H2 6746   4.348   0.594  14.206 -1.4097  0.3231 -0.1077
  449MPD2    H3 6747   4.414   0.548  14.427  1.0911 -0.4961 -1.1353
  449MPD2     N 6748   4.202   0.135  14.415  0.7119 -0.1854  0.4987
  449MPD2    H5 6749   4.136   0.083  14.358  1.4304 -1.3674  0.7277
  449MPD2    N1 6750   4.163   0.459  14.061 -0.2972  0.3491 -0.2635
  449MPD2    H7 6751   4.082   0.404  14.036  1.4745 -3.0259  1.3511
  450TMC3    C1 6752   4.096   0.568  13.878  0.6672 -0.1703 -0.2151
  450TMC3    C2 6753   4.136   0.552  13.745  0.2580  0.3650  0.4731
  450TMC3    C3 6754   4.056   0.459  13.672  0.5357 -0.3883 -0.3640
  450TMC3    C4 6755   3.980   0.506  13.926 -0.0194  0.8934 -0.3637
  450TMC3    C5 6756   3.902   0.426  13.847 -0.5049  0.3203 -0.6278
  450TMC3    C6 6757   3.943   0.400  13.720  0.0048 -0.2856  0.6014
  450TMC3     C 6758   4.193   0.561  13.982  0.1195 -0.0373  0.0719
  450TMC3     O 6759   4.284   0.635  13.978  0.2306 -0.7033 -0.1785
  450TMC3     H 6760   4.223   0.600  13.702  0.7865 -1.2528 -0.2439
  450TMC3    H1 6761   3.936   0.561  14.008 -0.3127 -0.2742  0.2705
  450TMC3    H2 6762   3.894   0.324  13.659 -2.9006  1.7060  0.4516
  450TMC3    C7 6763   3.871   0.308  13.931  0.1493 -0.4580  0.8436
  450TMC3    C8 6764   4.062   0.469  13.532 -0.0708 -0.3229 -0.7788
  450TMC3    O1 6765   3.927   0.309  14.041  0.2129 -0.3215 -0.4404
  450TMC3    O2 6766   3.958   0.462  13.466  0.0521 -0.5282 -0.3783
  451MPD2     C 6767   1.195   3.091   1.605 -0.3102 -0.2312  0.4288
  451MPD2    C1 6768   1.170   3.080   1.468 -0.1634  0.0805  0.3267
  451MPD2    C2 6769   1.200   2.961   1.408 -0.5357 -0.2834 -0.0793
  451MPD2    C3 6770   1.232   2.853   1.482  0.4999  0.1933 -0.4470
  451MPD2    C4 6771   1.251   2.861   1.614 -0.6875 -0.5204 -0.5560
  451MPD2    C5 6772   1.230   2.979   1.679 -0.2949 -0.2040 -0.1981
  451MPD2     H 6773   1.176   2.951   1.302 -0.3617 -1.6201  0.0057
  451MPD2    H1 6774   1.275   2.773   1.673 -0.5614 -0.9984 -1.3318
  451MPD2    H2 6775   1.157   3.183   1.648  0.9088  1.1946 -1.5454
  451MPD2    H3 6776   1.242   2.981   1.787  0.5104 -1.9205 -0.2586
  451MPD2     N 6777   1.229   2.725   1.428 -0.2770 -0.0613  0.3683
  451MPD2    H5 6778   1.206   2.647   1.488 -1.3112  0.6097  0.8346
  451MPD2    N1 6779   1.122   3.190   1.395  0.3636 -0.7978  0.1225
  451MPD2    H7 6780   1.112   3.278   1.444 -0.4253  0.3807 -2.1957
  452TMC3    C1 6781   1.196   2.576   1.256 -0.2553 -0.0181  0.1631
  452TMC3    C2 6782   1.079   2.522   1.310 -0.5713  0.5420 -0.2175
  452TMC3    C3 6783   0.994   2.439   1.237  0.7332  0.9223 -0.3242
  452TMC3    C4 6784   1.222   2.553   1.125 -0.6352 -0.0877  0.3519
  452TMC3    C5 6785   1.142   2.471   1.052  0.1802  0.0264 -0.1058
  452TMC3    C6 6786   1.025   2.413   1.105  0.3984 -0.2710 -0.3441
  452TMC3     C 6787   1.238   2.709   1.293  0.0735  0.3956 -0.2709
  452TMC3     O 6788   1.278   2.781   1.202  0.0114  0.0641  0.5476
  452TMC3     H 6789   1.042   2.555   1.406 -0.6213  1.0891 -0.4232
  452TMC3    H1 6790   1.305   2.597   1.071 -1.3188  0.0833 -0.5613
  452TMC3    H2 6791   0.948   2.373   1.040  2.1047 -2.7489 -0.8224
  452TMC3    C7 6792   1.133   2.506   0.910 -0.2305 -0.0005  0.5956
  452TMC3    C8 6793   0.850   2.458   1.267  0.5014 -0.1447  0.6670
  452TMC3    O1 6794   1.162   2.622   0.868  0.7794  0.0036  0.0001
  452TMC3    O2 6795   0.781   2.488   1.171  0.1738 -0.6387 -0.5962
  453TMC3    C1 6796   1.854   0.505  11.823  0.1767  0.1270  0.6092
  453TMC3    C2 6797   1.728   0.475  11.875 -0.1410  0.0184  0.4020
  453TMC3    C3 6798   1.639   0.402  11.795  0.0598  0.2470 -0.5867
  453TMC3    C4 6799   1.893   0.444  11.705 -0.1098  0.1047  0.2406
  453TMC3    C5 6800   1.803   0.370  11.636  0.5757  0.2983 -0.2848
  453TMC3    C6 6801   1.675   0.342  11.678  0.1240 -0.0705 -0.1650
  453TMC3     C 6802   1.960   0.560  11.902  0.6764  0.0968 -0.1331
  453TMC3     O 6803   2.074   0.528  11.877 -0.2992 -0.8078  0.2235
  453TMC3     H 6804   1.695   0.519  11.969 -0.8138 -1.7300  0.9945
  453TMC3    H1 6805   1.996   0.447  11.671 -0.5745  0.6482 -1.1114
  453TMC3    H2 6806   1.599   0.290  11.621  0.2927 -1.2955  0.7540
  453TMC3    C7 6807   1.852   0.310  11.511 -0.2455 -0.1607  0.3842
  453TMC3    C8 6808   1.515   0.349  11.858  0.0040  0.3612  0.5541
  453TMC3    O1 6809   1.969   0.333  11.491  0.3642  0.1098  0.2718
  453TMC3    O2 6810   1.427   0.322  11.778  0.0885 -0.3290 -0.4044
  454MPD2     C 6811   0.827   0.102  16.489 -0.9183 -0.1815  0.0834
  454MPD2    C1 6812   0.835   0.160  16.365 -0.1791  0.3426  0.1981
  454MPD2    C2 6813   0.840   0.296  16.354 -0.9989  0.1560  1.1754
  454MPD2    C3 6814   0.822   0.378  16.469  0.3530  0.3180  0.0570
  454MPD2    C4 6815   0.811   0.316  16.587  0.5049  0.8111  0.2837
  454MPD2    C5 6816   0.823   0.183  16.600 -0.5308  0.6414  0.4192
  454MPD2     H 6817   0.862   0.335  16.255 -0.1878 -1.0893  0.8595
  454MPD2    H1 6818   0.800   0.373  16.678  1.6753  1.8105 -0.2049
  454MPD2    H2 6819   0.833   4.733  16.508 -1.8997 -0.0896  0.8916
  454MPD2    H3 6820   0.816   0.143  16.701 -0.2654 -0.0665  0.1588
  454MPD2     N 6821   0.817   0.524  16.463 -0.0576  0.4853  0.3105
  454MPD2    H5 6822   0.763   0.562  16.540 -0.2480  0.4756  0.1830
  454MPD2    N1 6823   0.845   0.086  16.244 -0.2746 -0.5701 -0.5769
  454MPD2    H7 6824   0.866   0.145  16.165  0.3312 -0.1569 -0.1119
  455TMC3    C1 6825   0.712   0.687  16.331  0.1861 -0.4101 -0.0956
  455TMC3    C2 6826   0.669   0.758  16.443 -0.5125 -0.6617  0.6351
  455TMC3    C3 6827   0.535   0.786  16.442 -0.0518 -1.2618  0.4440
  455TMC3    C4 6828   0.631   0.638  16.230  0.6296  0.6580 -1.0945
  455TMC3    C5 6829   0.498   0.651  16.258  0.3766 -0.7027  0.5660
  455TMC3    C6 6830   0.449   0.735  16.349 -0.1979  0.0752 -0.0577
  455TMC3     C 6831   0.828   0.593  16.343  0.0624 -0.4948  0.1217
  455TMC3     O 6832   0.881   0.558  16.242  0.3822  0.2282  0.1739
  455TMC3     H 6833   0.732   0.801  16.520  0.2124 -1.3061  0.3985
  455TMC3    H1 6834   0.664   0.565  16.157 -0.7760 -0.4488 -0.6089
  455TMC3    H2 6835   0.341   0.734  16.358 -0.3357  0.6137 -1.6873
  455TMC3    C7 6836   0.425   0.528  16.237 -0.6108 -0.8735 -0.5336
  455TMC3    C8 6837   0.479   0.867  16.549 -0.3231  0.2969 -0.0378
  455TMC3    O1 6838   0.306   0.545  16.231 -0.2168 -0.4246 -0.2434
  455TMC3    O2 6839   0.535   0.861  16.653 -0.7269  0.8111  1.0894
  456MPD2     C 6840   3.556   4.717  16.374 -0.4045  0.7969  0.0246
  456MPD2    C1 6841   3.641   0.062  16.446  0.2470  0.0597 -0.5369
  456MPD2    C2 6842   3.592   0.171  16.511  0.6752  0.2314 -0.1830
  456MPD2    C3 6843   3.461   0.193  16.508  0.3776 -0.1717 -0.3975
  456MPD2    C4 6844   3.375   0.117  16.428 -0.3281  0.1247 -0.3403
  456MPD2    C5 6845   3.426   0.008  16.360  0.3150  0.6186  0.3406
  456MPD2     H 6846   3.654   0.237  16.571  1.3960 -1.1764  0.6113
  456MPD2    H1 6847   3.270   0.137  16.409 -0.3011  3.7981  3.5232
  456MPD2    H2 6848   3.579   4.613  16.352 -0.4722  0.7656  0.0999
  456MPD2    H3 6849   3.363   4.682  16.298  1.2284 -0.2310  0.2782
  456MPD2     N 6850   3.409   0.293  16.588 -0.1899  0.0607  0.0417
  456MPD2    H5 6851   3.478   0.336  16.648 -0.2866  0.2521  0.0169
  456MPD2    N1 6852   3.769   0.016  16.463 -0.2653 -0.0194 -0.7656
  456MPD2    H7 6853   3.788   4.655  16.445  1.4711 -0.0961  1.5693
  457TMC3    C1 6854   3.250   0.414  16.712  0.0564 -0.7905  0.5393
  457TMC3    C2 6855   3.127   0.481  16.715 -0.4433  0.2628  0.4364
  457TMC3    C3 6856   3.094   0.521  16.840  0.8943  0.4458  0.6057
  457TMC3    C4 6857   3.318   0.384  16.825  0.0685  0.3716  0.0341
  457TMC3    C5 6858   3.272   0.418  16.949  0.1842 -0.7547  0.3594
  457TMC3    C6 6859   3.153   0.489  16.957  0.5190 -0.4062 -0.4992
  457TMC3     C 6860   3.277   0.347  16.584  0.3102  0.2552  0.1464
  457TMC3     O 6861   3.194   0.351  16.492 -0.0539  0.0948  0.0977
  457TMC3     H 6862   3.083   0.515  16.622  2.1231 -0.7476 -1.1498
  457TMC3    H1 6863   3.421   0.350  16.823  0.6199  1.9888  1.0509
  457TMC3    H2 6864   3.119   0.528  17.051  1.8451  0.4926 -0.3849
  457TMC3    C7 6865   3.333   0.365  17.067 -0.1884  0.2567  0.0127
  457TMC3    C8 6866   3.001   0.638  16.858  0.1261 -0.0863  0.8645
  457TMC3    O1 6867   3.259   0.349  17.167 -0.0857 -0.0114  0.1952
  457TMC3    O2 6868   2.995   0.688  16.970 -0.1769 -0.8112  0.8130
  458MPD2     C 6869   0.320   0.233  12.774 -0.8498 -0.0562  0.9402
  458MPD2    C1 6870   0.358   0.133  12.859 -0.1458 -0.0613  0.1804
  458MPD2    C2 6871   0.262   0.071  12.932  0.3097  0.0084  0.1538
  458MPD2    C3 6872   0.126   0.104  12.918 -0.1469 -0.7991  0.0558
  458MPD2    C4 6873   0.089   0.206  12.823  0.6617  0.6347  0.1952
  458MPD2    C5 6874   0.186   0.267  12.749  0.6285 -0.2386 -0.1802
  458MPD2     H 6875   0.293   4.720  12.988 -1.7997 -2.7561 -3.0018
  458MPD2    H1 6876   4.726   0.241  12.803  0.8133  0.0223 -1.5775
  458MPD2    H2 6877   0.392   0.282  12.709  0.2495 -0.1149  2.1101
  458MPD2    H3 6878   0.161   0.352  12.686  1.5563 -0.8259 -1.3242
  458MPD2     N 6879   0.030   0.029  12.985 -0.1726 -0.4022 -0.0156
  458MPD2    H5 6880   0.059   4.681  13.032 -0.9202 -0.5162  0.2393
  458MPD2    N1 6881   0.498   0.120  12.875 -0.7370  0.4416 -0.2598
  458MPD2    H7 6882   0.568   0.171  12.821  0.0104 -0.9405 -0.5954
  459TMC3    C1 6883   0.697   0.062  12.975 -0.7197  0.0926  0.4167
  459TMC3    C2 6884   0.758   0.182  12.941  0.1193 -0.3090  0.2549
  459TMC3    C3 6885   0.889   0.195  12.988  0.8162  0.7063 -0.4431
  459TMC3    C4 6886   0.757   4.702  13.052 -0.1418 -0.1638  0.2234
  459TMC3    C5 6887   0.878   4.725  13.106  0.3879 -0.5885  0.1301
  459TMC3    C6 6888   0.947   0.102  13.074  0.2577 -0.3172  0.2386
  459TMC3     C 6889   0.553   0.049  12.971 -0.3559  0.7348  0.2386
  459TMC3     O 6890   0.511   4.700  13.051 -0.3460 -0.0970  0.4697
  459TMC3     H 6891   0.709   0.264  12.890  0.8748 -1.4020 -2.2489
  459TMC3    H1 6892   0.703   4.610  13.074  2.7941 -1.5100  1.8728
  459TMC3    H2 6893   1.048   0.120  13.110 -0.0920  0.2817  0.9215
  459TMC3    C7 6894   0.937   4.636  13.199 -0.5149  0.5217 -0.0072
  459TMC3    C8 6895   0.979   0.267  12.896 -0.7530 -0.0785 -0.0247
  459TMC3    O1 6896   0.886   4.528  13.205 -0.0648 -0.4492  0.1084
  459TMC3    O2 6897   1.094   0.262  12.929  0.0944 -0.3810  0.5246
  460MPD2     C 6898   0.322   2.285  10.568  0.0123 -0.0000  0.4256
  460MPD2    C1 6899   0.215   2.198  10.577 -0.3364  0.1364  0.2547
  460MPD2    C2 6900   0.131   2.197  10.464  0.1635  0.0061  0.2460
  460MPD2    C3 6901   0.149   2.274  10.354  0.0061 -0.6794 -0.1961
  460MPD2    C4 6902   0.248   2.366  10.355 -0.2662  0.4198  0.4661
  460MPD2    C5 6903   0.334   2.374  10.466  0.6306  0.0848  0.2769
  460MPD2     H 6904   0.047   2.129  10.473 -0.1049  0.4081  0.7525
  460MPD2    H1 6905   0.270   2.429  10.269  0.0823  1.0846  1.0383
  460MPD2    H2 6906   0.386   2.295  10.655  0.0158  0.7916  0.3271
  460MPD2    H3 6907   0.423   2.436  10.467 -0.5322  1.7863 -2.0706
  460MPD2     N 6908   0.052   2.262  10.252 -0.0393 -0.6548 -0.5783
  460MPD2    H5 6909   0.002   2.174  10.250 -1.2012 -0.0011 -0.4343
  460MPD2    N1 6910   0.203   2.125  10.695  0.5283  0.3052  0.0082
  460MPD2    H7 6911   0.283   2.142  10.756  1.4155 -2.3572 -0.3930
  461TMC3    C1 6912   4.669   2.323  10.061  0.2329  0.1047  0.6325
  461TMC3    C2 6913   4.653   2.194  10.011  0.2301 -0.0868  0.3269
  461TMC3    C3 6914   4.564   2.178   9.912  0.1093 -0.5546 -0.3121
  461TMC3    C4 6915   4.609   2.434  10.012 -0.1326  0.3162 -0.1825
  461TMC3    C5 6916   4.507   2.401   9.929  1.0365  0.2044 -0.2114
  461TMC3    C6 6917   4.475   2.282   9.873 -0.5162 -0.3221  0.1509
  461TMC3     C 6918   0.048   2.347  10.144 -0.6425  0.1396 -0.1469
  461TMC3     O 6919   0.099   2.459  10.128 -0.0225 -0.4598  0.3977
  461TMC3     H 6920   4.715   2.108  10.032  1.2065  0.7079  0.6625
  461TMC3    H1 6921   4.632   2.533  10.047  3.0622 -0.5583  0.1690
  461TMC3    H2 6922   4.397   2.270   9.798  1.0680 -0.7204 -1.4210
  461TMC3    C7 6923   4.403   2.505   9.908 -0.7103 -0.2425 -0.3671
  461TMC3    C8 6924   4.573   2.051   9.833  0.4787 -0.5434 -0.1989
  461TMC3    O1 6925   4.327   2.488   9.814  0.2200  0.2646  0.0272
  461TMC3    O2 6926   4.621   1.955   9.892  0.1827 -0.2722  0.1632
  462TMC3    C1 6927   0.448   3.406   0.329  0.3153  0.3197  0.5175
  462TMC3    C2 6928   0.555   3.327   0.364  0.5718 -0.8366  0.0981
  462TMC3    C3 6929   0.547   3.249   0.472  0.5304 -0.1146 -0.0652
  462TMC3    C4 6930   0.331   3.380   0.392 -0.5721  0.1391 -0.4188
  462TMC3    C5 6931   0.318   3.289   0.495 -0.0100  0.6212  0.3785
  462TMC3    C6 6932   0.429   3.225   0.547 -0.2908  0.7568  0.4774
  462TMC3     C 6933   0.479   3.481   0.207  0.3413  0.3375 -0.6585
  462TMC3     O 6934   0.587   3.526   0.177  0.1846  0.1810 -0.2444
  462TMC3     H 6935   0.641   3.330   0.298 -0.8928  0.5970 -1.7447
  462TMC3    H1 6936   0.245   3.433   0.351 -0.1417  1.1808  0.0399
  462TMC3    H2 6937   0.413   3.133   0.603 -0.6821  0.3798 -0.2494
  462TMC3    C7 6938   0.196   3.215   0.509 -0.2244  0.9585 -0.6927
  462TMC3    C8 6939   0.638   3.141   0.483 -0.3175 -0.0222 -0.6347
  462TMC3    O1 6940   0.203   3.096   0.490 -0.0423  0.2944 -0.0994
  462TMC3    O2 6941   0.652   3.090   0.589 -0.0082  0.2567  0.4712
  463MPD2     C 6942   1.672   1.249   1.494 -0.1272 -0.6258  0.3718
  463MPD2    C1 6943   1.612   1.124   1.480  0.4808  0.1697 -0.6598
  463MPD2    C2 6944   1.679   1.010   1.523  0.4301  0.4242  0.0085
  463MPD2    C3 6945   1.808   1.025   1.572 -0.0353  0.9516  0.0329
  463MPD2    C4 6946   1.867   1.144   1.586 -0.3190 -0.6067  1.0915
  463MPD2    C5 6947   1.803   1.257   1.545 -0.7341 -0.3785  0.3791
  463MPD2     H 6948   1.635   0.912   1.505  1.0292  0.4259 -1.4915
  463MPD2    H1 6949   1.962   1.150   1.638  0.4243 -0.7752 -0.2506
  463MPD2    H2 6950   1.631   1.346   1.467  1.6194 -0.6270 -2.3088
  463MPD2    H3 6951   1.845   1.357   1.550  1.6874 -1.4215  1.1914
  463MPD2     N 6952   1.883   0.918   1.633 -0.5903  0.1059  0.4450
  463MPD2    H5 6953   1.971   0.940   1.678 -0.4207 -0.7917  0.5593
  463MPD2    N1 6954   1.477   1.105   1.434  0.0713 -0.2139 -0.1295
  463MPD2    H7 6955   1.442   1.010   1.427 -0.5977 -0.0887  1.6343
  464TMC3    C1 6956   1.260   1.145   1.351 -0.2837  0.8461  0.1607
  464TMC3    C2 6957   1.157   1.235   1.352  0.3387 -0.2391  0.0947
  464TMC3    C3 6958   1.025   1.190   1.346  0.0322 -0.3170  0.5019
  464TMC3    C4 6959   1.233   1.009   1.359  0.4001 -0.5160 -0.4810
  464TMC3    C5 6960   1.103   0.966   1.362  0.2428 -0.4276 -0.0448
  464TMC3    C6 6961   1.000   1.055   1.351  0.7453  1.0407 -0.2702
  464TMC3     C 6962   1.388   1.206   1.401 -0.3999  1.1069  0.0722
  464TMC3     O 6963   1.408   1.327   1.398  0.3705 -0.6669 -0.0015
  464TMC3     H 6964   1.180   1.341   1.347  1.5502 -0.5066 -0.0311
  464TMC3    H1 6965   1.309   0.933   1.367  0.1995 -0.6477  0.1287
  464TMC3    H2 6966   0.896   1.026   1.342  0.7280  1.0731 -0.1800
  464TMC3    C7 6967   1.090   0.822   1.373  0.4368  0.3105 -0.0325
  464TMC3    C8 6968   0.917   1.284   1.331  0.3355  0.2312 -0.2125
  464TMC3    O1 6969   1.194   0.754   1.370 -0.0041 -0.2780  0.5388
  464TMC3    O2 6970   0.808   1.248   1.376 -0.1510 -0.5764  0.2636
  465MPD2     C 6971   2.383   0.131  17.141  0.5580 -0.2859 -0.2985
  465MPD2    C1 6972   2.270   0.131  17.217 -0.0879 -0.1798 -0.1009
  465MPD2    C2 6973   2.171   0.227  17.204 -0.5951  0.8184  0.1567
  465MPD2    C3 6974   2.182   0.333  17.120  0.2331  0.2181 -0.5178
  465MPD2    C4 6975   2.300   0.340  17.045  0.7211 -0.4374 -0.6328
  465MPD2    C5 6976   2.393   0.236  17.051  0.0575 -0.5537  0.2015
  465MPD2     H 6977   2.079   0.221  17.260 -1.6342  0.8358 -1.5581
  465MPD2    H1 6978   2.310   0.416  16.969 -0.6099 -0.8633 -1.2450
  465MPD2    H2 6979   2.464   0.059  17.145  1.6388  1.0827  2.0485
  465MPD2    H3 6980   2.472   0.241  16.978  0.7019  0.8670  0.9836
  465MPD2     N 6981   2.082   0.432  17.122 -0.2480 -0.8097 -0.2418
  465MPD2    H5 6982   1.992   0.406  17.160 -0.0181 -0.2554  0.6801
  465MPD2    N1 6983   2.241   0.039  17.323  0.0119 -0.1381 -0.1796
  465MPD2    H7 6984   2.148   0.045  17.365 -0.2093  0.8815 -0.8224
  466TMC3    C1 6985   1.797   0.732  17.223  0.0985  0.8783  0.9007
  466TMC3    C2 6986   1.800   0.839  17.138 -0.1780  0.1523  0.4766
  466TMC3    C3 6987   1.883   0.851  17.032 -0.0460  0.1740  0.0899
  466TMC3    C4 6988   1.885   0.624  17.198  0.2873 -0.3597 -0.0399
  466TMC3    C5 6989   1.966   0.641  17.093 -0.3624  0.9027  0.1158
  466TMC3    C6 6990   1.974   0.758  17.019 -0.0524 -0.6407  0.2823
  466TMC3     C 6991   1.712   0.729  17.340 -0.2118  0.0510  0.0415
  466TMC3     O 6992   1.680   0.843  17.378 -0.4585 -0.4176  0.7697
  466TMC3     H 6993   1.713   0.903  17.149 -1.1096 -1.1297  0.6493
  466TMC3    H1 6994   1.912   0.553  17.275 -1.0645 -1.8401 -0.9405
  466TMC3    H2 6995   2.035   0.759  16.929 -1.0968 -1.3000 -0.4484
  466TMC3    C7 6996   2.092   0.558  17.078 -0.9756 -0.2075 -0.7352
  466TMC3    C8 6997   1.878   0.959  16.939 -0.0187  0.6554 -0.2603
  466TMC3    O1 6998   2.190   0.603  17.018  0.3325  0.7297 -0.0302
  466TMC3    O2 6999   1.969   0.961  16.855  0.2237 -0.0049  0.9866
  467TMC3    C1 7000   3.093   3.554  13.888 -0.1307 -0.3321  0.1445
  467TMC3    C2 7001   3.020   3.514  13.779  0.3155 -0.0081 -0.0625
  467TMC3    C3 7002   2.902   3.579  13.753  0.2732 -0.7043 -0.2227
  467TMC3    C4 7003   3.049   3.645  13.983  0.0590  0.4266 -0.3213
  467TMC3    C5 7004   2.924   3.685  13.961 -0.0604  0.1259  0.1951
  467TMC3    C6 7005   2.845   3.650  13.855 -0.9688 -0.0687  0.2725
  467TMC3     C 7006   3.236   3.520  13.904  0.0991  0.3902  0.9601
  467TMC3     O 7007   3.306   3.583  13.981  0.3091 -0.1586  0.4861
  467TMC3     H 7008   3.068   3.456  13.702  0.3714 -1.0498  0.7604
  467TMC3    H1 7009   3.112   3.673  14.067  2.7525  0.1195 -2.2345
  467TMC3    H2 7010   2.766   3.722  13.836 -1.0692 -0.1422  0.4080
  467TMC3    C7 7011   2.877   3.787  14.047  0.7518  0.4599  0.3478
  467TMC3    C8 7012   2.911   3.665  13.633 -0.4158 -0.2092  0.1184
  467TMC3    O1 7013   2.960   3.845  14.113  0.0148  0.0371 -0.7595
  467TMC3    O2 7014   2.847   3.767  13.631 -0.4088  0.1811 -0.0214
  468MPD2     C 7015   1.274   2.299  11.110 -0.5539  0.9411  0.1624
  468MPD2    C1 7016   1.415   2.316  11.109  0.4939 -0.7101 -0.1722
  468MPD2    C2 7017   1.492   2.221  11.042  0.2077 -0.3637 -0.4783
  468MPD2    C3 7018   1.437   2.104  10.995  0.4969 -0.4969 -0.0252
  468MPD2    C4 7019   1.304   2.082  11.013 -0.4090 -0.7485  0.6976
  468MPD2    C5 7020   1.220   2.183  11.056  0.5269  0.7931  0.4235
  468MPD2     H 7021   1.600   2.228  11.043  0.1312  0.9437 -2.9679
  468MPD2    H1 7022   1.252   1.990  10.987  0.1615 -0.7086 -0.5653
  468MPD2    H2 7023   1.195   2.367  11.140  0.4788  2.7083 -1.0952
  468MPD2    H3 7024   1.113   2.170  11.073  1.0641 -2.5824  1.2954
  468MPD2     N 7025   1.518   2.002  10.935 -0.0931 -0.3589 -0.5399
  468MPD2    H5 7026   1.471   1.918  10.904 -1.9548  1.1203 -1.7441
  468MPD2    N1 7027   1.475   2.431  11.161 -0.1045 -0.4111 -0.0753
  468MPD2    H7 7028   1.577   2.427  11.162 -0.0690  0.4535 -2.4498
  469TMC3    C1 7029   1.512   2.624  11.280  0.5574  0.2536 -0.0616
  469TMC3    C2 7030   1.636   2.594  11.240  0.3170 -0.4472 -0.3195
  469TMC3    C3 7031   1.725   2.558  11.337  0.6354 -1.1399  0.3646
  469TMC3    C4 7032   1.482   2.638  11.416  0.6163  0.1734  0.5068
  469TMC3    C5 7033   1.575   2.615  11.510 -0.2622 -0.5758  0.1066
  469TMC3    C6 7034   1.700   2.565  11.473  0.6940 -0.3215  0.6688
  469TMC3     C 7035   1.412   2.543  11.213 -0.1997 -0.2257 -0.0695
  469TMC3     O 7036   1.290   2.578  11.209 -0.2119  0.0424  0.1404
  469TMC3     H 7037   1.661   2.593  11.135  0.6157 -0.7522 -0.2463
  469TMC3    H1 7038   1.381   2.657  11.451  0.5245  1.8118 -0.6409
  469TMC3    H2 7039   1.773   2.522  11.541  0.6727  1.0690  1.5595
  469TMC3    C7 7040   1.530   2.637  11.646  0.5750  0.1986 -0.3226
  469TMC3    C8 7041   1.848   2.497  11.284 -0.2036 -0.3205 -0.1143
  469TMC3    O1 7042   1.406   2.632  11.661  0.6596  0.4690 -0.1748
  469TMC3    O2 7043   1.841   2.449  11.171  0.4577 -0.3218  0.0075
  470TMC3    C1 7044   4.186   2.525   1.007 -0.6142  0.8074  0.0389
  470TMC3    C2 7045   4.272   2.631   1.001 -0.1825  0.0659  0.5698
  470TMC3    C3 7046   4.321   2.679   1.115 -0.3821  0.1128 -0.4807
  470TMC3    C4 7047   4.164   2.454   1.121 -0.8916  0.1809 -0.1418
  470TMC3    C5 7048   4.224   2.500   1.237  0.0007  0.1278  0.0662
  470TMC3    C6 7049   4.296   2.617   1.234 -0.5100 -0.0916  0.0112
  470TMC3     C 7050   4.111   2.513   0.880 -0.1984  0.0044 -0.3809
  470TMC3     O 7051   4.163   2.560   0.780  0.9683 -0.8552 -0.3845
  470TMC3     H 7052   4.290   2.683   0.908  2.5335 -0.7629  0.6206
  470TMC3    H1 7053   4.079   2.388   1.134 -2.1684  1.3154 -2.7870
  470TMC3    H2 7054   4.355   2.645   1.320 -1.0889 -0.5342  0.5482
  470TMC3    C7 7055   4.186   2.429   1.362 -0.4560  0.3990 -0.2402
  470TMC3    C8 7056   4.376   2.811   1.122  0.4717  0.5534  0.0573
  470TMC3    O1 7057   4.165   2.310   1.349  0.3514 -0.2005 -0.1229
  470TMC3    O2 7058   4.367   2.877   1.224  0.1153 -0.0574 -0.6007
  471MPD2     C 7059   4.421   4.309  16.605 -0.4859  0.0087 -0.1980
  471MPD2    C1 7060   4.551   4.268  16.609 -0.2058  0.1199  0.1725
  471MPD2    C2 7061   4.615   4.250  16.727  0.5482 -0.3456 -0.4845
  471MPD2    C3 7062   4.545   4.275  16.852 -0.1820 -0.7150 -0.1580
  471MPD2    C4 7063   4.409   4.311  16.843  0.7381  0.3594  0.5792
  471MPD2    C5 7064   4.348   4.317  16.722  0.0159  0.2068 -0.0919
  471MPD2     H 7065   4.713   4.202  16.727 -0.1728 -1.8140 -0.1242
  471MPD2    H1 7066   4.354   4.335  16.933  0.2385  0.3156  0.2862
  471MPD2    H2 7067   4.373   4.328  16.510  1.1777  0.6382 -0.9100
  471MPD2    H3 7068   4.242   4.340  16.714 -0.0356  0.0903  0.2876
  471MPD2     N 7069   4.593   4.237  16.983 -0.6610 -0.2962  0.1435
  471MPD2    H5 7070   4.529   4.202  17.054  0.3847  0.5381  1.4937
  471MPD2    N1 7071   4.618   4.222  16.492 -0.2877 -0.4550 -0.7942
  471MPD2    H7 7072   4.706   4.174  16.507 -0.9310 -0.6331  2.4373
  472TMC3    C1 7073   4.649   4.126  16.280  0.5369 -0.1856  0.0041
  472TMC3    C2 7074   4.617   4.137  16.151 -0.8632 -0.1093 -0.4488
  472TMC3    C3 7075   4.626   4.029  16.069 -0.1851  0.3430 -0.2095
  472TMC3    C4 7076   4.679   4.001  16.333  1.1418 -0.2629  0.1124
  472TMC3    C5 7077   4.675   3.892  16.256  0.4647  0.0291  0.3653
  472TMC3    C6 7078   4.647   3.905  16.116 -0.3007  1.1122 -0.2179
  472TMC3     C 7079   4.572   4.222  16.363  1.0933 -0.6314  0.2499
  472TMC3     O 7080   4.490   4.291  16.302  0.4135 -0.1588 -0.4441
  472TMC3     H 7081   4.582   4.234  16.115 -2.6497 -0.4782  0.2685
  472TMC3    H1 7082   4.691   3.984  16.439  0.3769  1.7302  0.5092
  472TMC3    H2 7083   4.648   3.822  16.046 -1.9536 -0.8576  2.0917
  472TMC3    C7 7084   4.619   3.774  16.322  0.4758 -0.0795 -0.6171
  472TMC3    C8 7085   4.500   4.026  16.002 -0.2685 -0.1465  0.8312
  472TMC3    O1 7086   4.610   3.774  16.445  0.0855 -0.7585  0.8348
  472TMC3    O2 7087   4.500   4.056  15.884 -0.0939 -0.4637  0.1119
  473MPD2     C 7088   4.055   1.474  14.029 -0.1105  0.4197  0.1627
  473MPD2    C1 7089   4.080   1.510  13.897 -0.4007  0.1606  0.3806
  473MPD2    C2 7090   4.175   1.605  13.865  0.0852 -1.1249  0.1641
  473MPD2    C3 7091   4.241   1.671  13.967  0.3945  0.1709  0.8141
  473MPD2    C4 7092   4.214   1.630  14.097  0.2366  0.2372  0.0510
  473MPD2    C5 7093   4.126   1.538  14.128 -0.2959 -0.4912 -0.1173
  473MPD2     H 7094   4.196   1.625  13.760 -3.1168 -2.2932 -0.6889
  473MPD2    H1 7095   4.275   1.660  14.182 -1.4167  2.2624  0.5222
  473MPD2    H2 7096   3.991   1.394  14.062 -1.8458  1.5439 -0.4879
  473MPD2    H3 7097   4.099   1.510  14.229  1.1387 -1.2258  0.0573
  473MPD2     N 7098   4.337   1.772  13.946  0.8734  0.3320  0.3302
  473MPD2    H5 7099   4.367   1.826  14.027 -1.0649  0.1612  1.1615
  473MPD2    N1 7100   4.008   1.456  13.786 -0.5237 -0.1105 -0.1531
  473MPD2    H7 7101   4.050   1.471  13.695  1.2055 -1.1112  0.4842
  474TMC3    C1 7102   4.496   1.920  13.851 -0.8418 -0.6333  0.5616
  474TMC3    C2 7103   4.465   2.028  13.775 -0.8015  0.0558 -0.4728
  474TMC3    C3 7104   4.480   2.154  13.832 -0.4201  0.7298 -0.2152
  474TMC3    C4 7105   4.547   1.932  13.976 -0.4593 -0.6998  0.2626
  474TMC3    C5 7106   4.559   2.054  14.030  0.6084  0.1250  0.2564
  474TMC3    C6 7107   4.526   2.167  13.963  0.4200  0.3752  0.5104
  474TMC3     C 7108   4.400   1.811  13.832  0.1933 -0.2452  0.1415
  474TMC3     O 7109   4.383   1.765  13.720  0.1262  0.5184  0.0208
  474TMC3     H 7110   4.428   2.015  13.674  0.1636 -0.1204 -0.8052
  474TMC3    H1 7111   4.572   1.848  14.040 -0.4558 -0.3986  0.6580
  474TMC3    H2 7112   4.515   2.259  14.019 -2.4616  0.2823  0.0849
  474TMC3    C7 7113   4.486   2.045  14.157  0.6387 -0.5742  0.3239
  474TMC3    C8 7114   4.422   2.263  13.762 -0.2531 -0.2126  0.3096
  474TMC3    O1 7115   4.424   1.943  14.164  0.3753  0.2453 -0.3412
  474TMC3    O2 7116   4.359   2.234  13.662  0.5718 -0.1437  0.1585
  475MPD2     C 7117   2.331   4.548  11.411 -0.7759 -0.1931 -0.1248
  475MPD2    C1 7118   2.421   4.605  11.319 -0.8905  0.6007 -0.2601
  475MPD2    C2 7119   2.369   4.606  11.188  0.6664 -0.1269 -0.0274
  475MPD2    C3 7120   2.237   4.567  11.147 -0.1394  0.0800  0.6797
  475MPD2    C4 7121   2.167   4.497  11.241 -0.0365  0.6232 -0.7494
  475MPD2    C5 7122   2.210   4.487  11.369 -0.3186 -0.2321 -0.6379
  475MPD2     H 7123   2.422   4.660  11.111  1.5491 -1.7997 -0.5934
  475MPD2    H1 7124   2.072   4.451  11.217 -0.8837  2.2035 -0.4088
  475MPD2    H2 7125   2.367   4.526  11.510 -2.3037 -1.7807  0.0779
  475MPD2    H3 7126   2.158   4.420  11.436 -2.2308  0.2603 -1.6029
  475MPD2     N 7127   2.200   4.592  11.012 -0.2072  0.5927  0.0197
  475MPD2    H5 7128   2.262   4.648  10.954  0.3415 -1.6139 -1.4917
  475MPD2    N1 7129   2.542   4.659  11.365 -0.2677  0.4667 -0.4979
  475MPD2    H7 7130   2.569   4.658  11.463 -0.8735 -0.8006 -0.3444
  476TMC3    C1 7131   2.746   0.039  11.361 -0.8136 -1.3608 -0.2874
  476TMC3    C2 7132   2.866   0.062  11.304  0.2359 -0.0912 -0.4137
  476TMC3    C3 7133   2.958   0.138  11.364  0.2017 -0.2018 -0.0916
  476TMC3    C4 7134   2.718   0.087  11.487  1.0637 -0.0311 -0.0440
  476TMC3    C5 7135   2.806   0.178  11.545 -0.8922 -0.0564 -0.5197
  476TMC3    C6 7136   2.925   0.208  11.476  0.2708 -0.4767 -0.9295
  476TMC3     C 7137   2.647   4.701  11.283 -0.5511 -0.2081 -0.2459
  476TMC3     O 7138   2.662   4.694  11.163 -0.1233  0.0165 -0.2899
  476TMC3     H 7139   2.888   0.016  11.209 -1.3885  0.6253 -1.1326
  476TMC3    H1 7140   2.623   0.080  11.539  1.5442  1.5121  1.0380
  476TMC3    H2 7141   2.999   0.272  11.523 -3.0238  0.7498  2.5471
  476TMC3    C7 7142   2.742   0.282  11.622  0.4844  0.4174  0.1184
  476TMC3    C8 7143   3.072   0.181  11.289 -0.3772 -0.5441 -0.2192
  476TMC3    O1 7144   2.651   0.251  11.695  0.2150  0.1886  0.6177
  476TMC3    O2 7145   3.142   0.269  11.336 -0.5614 -0.7923 -0.2792
  477MPD2     C 7146   0.760   1.691  11.892 -0.1653  1.0579  0.0813
  477MPD2    C1 7147   0.738   1.569  11.830 -0.8963  0.0888  0.3955
  477MPD2    C2 7148   0.738   1.453  11.900  0.4916 -0.4581 -1.4040
  477MPD2    C3 7149   0.755   1.460  12.036  0.9120  1.0142  0.1356
  477MPD2    C4 7150   0.757   1.584  12.100 -0.0068  0.0538  0.0018
  477MPD2    C5 7151   0.759   1.703  12.029 -0.2338  0.9183 -0.2938
  477MPD2     H 7152   0.739   1.352  11.859 -1.8179 -0.0967 -2.3317
  477MPD2    H1 7153   0.763   1.595  12.208 -0.5507 -0.7886  0.1167
  477MPD2    H2 7154   0.749   1.783  11.834  0.9932 -0.5086 -2.6197
  477MPD2    H3 7155   0.768   1.797  12.082 -0.3225 -0.6190  2.4526
  477MPD2     N 7156   0.777   1.339  12.107  0.0882  0.1391  0.0542
  477MPD2    H5 7157   0.785   1.259  12.044 -0.3441 -1.5735  2.1423
  477MPD2    N1 7158   0.726   1.580  11.691 -0.3099 -1.3055 -0.2483
  477MPD2    H7 7159   0.726   1.674  11.652 -1.0761 -1.5868 -0.9397
  478TMC3    C1 7160   0.675   1.526  11.466  0.0539 -0.6557 -0.1825
  478TMC3    C2 7161   0.668   1.663  11.460 -0.1112  0.6367  0.3679
  478TMC3    C3 7162   0.552   1.716  11.405 -0.0256  0.3174 -0.1844
  478TMC3    C4 7163   0.577   1.448  11.411  0.0657 -0.0563 -0.3620
  478TMC3    C5 7164   0.469   1.501  11.355 -0.1002  0.0492  0.1889
  478TMC3    C6 7165   0.448   1.638  11.354  0.0331 -0.6843  0.0281
  478TMC3     C 7166   0.715   1.476  11.597  0.8137 -0.5004  0.3664
  478TMC3     O 7167   0.710   1.353  11.615  0.1706  0.3012  0.4610
  478TMC3     H 7168   0.753   1.720  11.495 -0.9246  2.1037 -0.0538
  478TMC3    H1 7169   0.602   1.345  11.392 -0.2688 -0.0132 -1.0450
  478TMC3    H2 7170   0.358   1.678  11.310  1.0029 -0.8808 -2.1215
  478TMC3    C7 7171   0.370   1.404  11.306 -0.8022  0.3838 -0.1020
  478TMC3    C8 7172   0.548   1.863  11.411  0.1275  0.2056 -0.0522
  478TMC3    O1 7173   0.357   1.300  11.370 -0.1990 -0.0280  0.1795
  478TMC3    O2 7174   0.651   1.928  11.435 -0.5765  0.6557  0.0382
  479MPD2     C 7175   4.329   3.936  15.328 -1.0704  0.4404 -0.6129
  479MPD2    C1 7176   4.283   3.812  15.374  0.3793 -0.9852 -0.1479
  479MPD2    C2 7177   4.327   3.762  15.495 -0.3362 -0.0307  0.0376
  479MPD2    C3 7178   4.394   3.848  15.580  0.5202 -0.0194  0.4157
  479MPD2    C4 7179   4.424   3.977  15.536 -0.1349  0.3673 -0.0070
  479MPD2    C5 7180   4.405   4.013  15.408  0.2072  0.1617 -1.1551
  479MPD2     H 7181   4.315   3.658  15.525  0.1898 -0.3734 -0.9608
  479MPD2    H1 7182   4.463   4.060  15.594 -0.1638 -0.3941  1.1008
  479MPD2    H2 7183   4.312   3.971  15.227 -2.3347 -0.6905 -0.7994
  479MPD2    H3 7184   4.442   4.109  15.377 -0.1808  0.4416 -0.7485
  479MPD2     N 7185   4.429   3.818  15.720 -0.5421 -0.2619 -0.2158
  479MPD2    H5 7186   4.464   3.894  15.777 -0.9973 -0.6155  0.5380
  479MPD2    N1 7187   4.172   3.765  15.308 -0.5068 -0.3985 -0.2367
  479MPD2    H7 7188   4.139   3.834  15.242  0.1551 -0.4498 -0.6221
  480TMC3    C1 7189   4.125   3.455  15.834 -0.2846  1.3119  0.3483
  480TMC3    C2 7190   4.012   3.499  15.778 -0.1436 -0.2778 -0.5026
  480TMC3    C3 7191   4.027   3.626  15.728  0.0804 -0.5030 -0.3947
  480TMC3    C4 7192   4.247   3.520  15.835  0.6042 -0.4780 -0.2822
  480TMC3    C5 7193   4.254   3.649  15.784  0.0939 -0.5672 -0.6117
  480TMC3    C6 7194   4.140   3.706  15.748 -0.5700 -0.0000 -0.0585
  480TMC3     C 7195   4.115   3.321  15.891 -0.0935  0.2185  0.6192
  480TMC3     O 7196   4.218   3.250  15.895  0.2671 -0.2751  0.3118
  480TMC3     H 7197   3.930   3.431  15.764  0.1845 -0.4924 -1.3908
  480TMC3    H1 7198   4.332   3.470  15.879  0.2949 -1.9249 -1.3630
  480TMC3    H2 7199   4.138   3.810  15.719 -4.0351 -1.0124 -3.5543
  480TMC3    C7 7200   4.378   3.718  15.806  0.3374  0.3929  0.0963
  480TMC3    C8 7201   3.898   3.698  15.708  0.1492  0.4275  0.4903
  480TMC3    O1 7202   4.431   3.698  15.914  0.4781  0.0442 -0.0624
  480TMC3    O2 7203   3.809   3.647  15.776 -0.1471 -0.3077  0.3053
  481MPD2     C 7204   1.246   3.027  14.239  0.1225  0.0228  0.3371
  481MPD2    C1 7205   1.121   2.985  14.247  0.2936  0.4279  0.6168
  481MPD2    C2 7206   1.070   2.969  14.373  0.0670  0.2623 -0.2060
  481MPD2    C3 7207   1.152   2.987  14.485 -0.5977  0.2737 -0.5617
  481MPD2    C4 7208   1.281   3.041  14.470 -0.1673 -0.3681  0.5090
  481MPD2    C5 7209   1.318   3.070  14.345  0.4228  0.3862 -0.0692
  481MPD2     H 7210   0.966   2.940  14.386  0.4843 -1.6061 -1.0277
  481MPD2    H1 7211   1.336   3.073  14.557 -1.0844  0.2442  0.8593
  481MPD2    H2 7212   1.296   3.060  14.148 -0.1404 -1.9987 -0.5411
  481MPD2    H3 7213   1.416   3.111  14.322  0.1542  1.6424  1.0068
  481MPD2     N 7214   1.118   2.960  14.623 -0.1008 -0.2776  0.3826
  481MPD2    H5 7215   1.189   2.992  14.688  1.8803 -1.3389 -1.2412
  481MPD2    N1 7216   1.045   2.993  14.130 -0.0790 -0.3692  0.3456
  481MPD2    H7 7217   1.092   3.027  14.047 -2.3072  2.3059  0.1740
  482TMC3    C1 7218   0.884   2.956  13.975  0.7221 -0.3267 -0.4014
  482TMC3    C2 7219   0.795   2.862  13.920  0.5972  0.0913 -0.2498
  482TMC3    C3 7220   0.710   2.897  13.819  0.2406  1.0126 -0.3954
  482TMC3    C4 7221   0.883   3.084  13.935  0.0924 -0.2893  0.0829
  482TMC3    C5 7222   0.810   3.105  13.819 -0.3368 -0.6289 -0.4002
  482TMC3    C6 7223   0.737   3.021  13.750 -0.4656 -0.1106  0.3654
  482TMC3     C 7224   0.927   2.931  14.109 -0.1157  0.3204  0.1545
  482TMC3     O 7225   0.871   2.843  14.176  0.2169  0.4627  0.1696
  482TMC3     H 7226   0.782   2.765  13.966  1.9034  1.0245  2.1170
  482TMC3    H1 7227   0.938   3.162  13.987 -0.5997  2.0129 -2.6495
  482TMC3    H2 7228   0.688   3.042  13.655  3.2891  0.4607 -1.4305
  482TMC3    C7 7229   0.853   3.225  13.751  0.2345 -0.2740  0.4804
  482TMC3    C8 7230   0.612   2.801  13.770 -0.1919 -0.2536 -0.5106
  482TMC3    O1 7231   0.905   3.308  13.823 -0.5695 -0.0099  0.0176
  482TMC3    O2 7232   0.617   2.692  13.826  0.8008 -0.8403  0.4063
  483TMC3    C1 7233   4.023   1.732   0.926  0.3246 -0.2338  0.5778
  483TMC3    C2 7234   4.107   1.836   0.901 -0.1118  0.4682 -0.2627
  483TMC3    C3 7235   4.151   1.905   1.009  0.2976 -0.3276 -0.2412
  483TMC3    C4 7236   4.003   1.685   1.056 -0.8611  0.1819  0.2512
  483TMC3    C5 7237   4.056   1.762   1.154  0.2709  0.9110  0.6232
  483TMC3    C6 7238   4.126   1.871   1.138  0.7169  0.2360  0.3319
  483TMC3     C 7239   3.953   1.670   0.815 -0.2424 -0.1411 -0.0037
  483TMC3     O 7240   3.925   1.552   0.819  0.8411 -0.1874  0.1985
  483TMC3     H 7241   4.141   1.857   0.800  0.5681 -1.0757 -0.3498
  483TMC3    H1 7242   3.935   1.603   1.076  1.7724 -2.3693 -1.3054
  483TMC3    H2 7243   4.163   1.933   1.219 -2.8866  1.8640  0.7398
  483TMC3    C7 7244   4.098   1.671   1.264 -0.8251 -0.2241  0.4490
  483TMC3    C8 7245   4.210   2.035   0.982  0.2078  0.3355  0.3165
  483TMC3    O1 7246   4.033   1.564   1.264 -0.5197 -0.0896 -0.5956
  483TMC3    O2 7247   4.158   2.092   0.887  0.4859 -0.1826 -0.4289
  484MPD2     C 7248   0.945   0.426  12.564  0.2034  0.1574 -0.4350
  484MPD2    C1 7249   1.009   0.362  12.669  0.7536 -0.7191  0.1905
  484MPD2    C2 7250   1.151   0.369  12.659  0.4391  0.1272 -0.8469
  484MPD2    C3 7251   1.219   0.426  12.557 -1.1276 -0.1819 -0.2040
  484MPD2    C4 7252   1.147   0.499  12.463 -0.1954  0.2537 -0.2354
  484MPD2    C5 7253   1.010   0.493  12.463 -0.6336 -0.7652 -0.1192
  484MPD2     H 7254   1.203   0.318  12.740  0.3070  1.2782 -0.0282
  484MPD2    H1 7255   1.193   0.532  12.370  0.3309 -0.7026 -0.3151
  484MPD2    H2 7256   0.837   0.434  12.560  0.2314 -0.2329 -1.8680
  484MPD2    H3 7257   0.964   0.538  12.375 -3.2540 -0.6042  1.3232
  484MPD2     N 7258   1.365   0.423  12.550  0.0241 -0.6684 -0.1045
  484MPD2    H5 7259   1.416   0.478  12.482 -0.7251  0.2874  0.0999
  484MPD2    N1 7260   0.934   0.294  12.770  0.0292  0.2220 -0.1496
  484MPD2    H7 7261   0.834   0.290  12.752 -0.5018  1.7167  2.4074
  485TMC3    C1 7262   1.590   0.396  12.616 -0.6491 -0.0745  0.6767
  485TMC3    C2 7263   1.678   0.406  12.722  0.3882  0.1106 -0.2849
  485TMC3    C3 7264   1.802   0.448  12.683  0.4284 -0.0545  0.5029
  485TMC3    C4 7265   1.619   0.417  12.482 -0.0292 -0.2147 -0.4881
  485TMC3    C5 7266   1.743   0.466  12.453 -0.2402  0.1770  0.0642
  485TMC3    C6 7267   1.833   0.493  12.557  0.0468 -0.1413 -0.0384
  485TMC3     C 7268   1.449   0.374  12.647 -0.1981  0.1313  0.1297
  485TMC3     O 7269   1.429   0.315  12.751  0.2056  0.3359  0.5312
  485TMC3     H 7270   1.646   0.372  12.820  1.7628 -2.2649 -0.6608
  485TMC3    H1 7271   1.553   0.384  12.403  0.5625  0.6279 -1.3531
  485TMC3    H2 7272   1.924   0.551  12.544  0.6328 -1.0434 -0.0228
  485TMC3    C7 7273   1.812   0.407  12.338 -0.1808 -0.2576  0.5316
  485TMC3    C8 7274   1.909   0.365  12.730 -0.0158  0.8234  0.6071
  485TMC3    O1 7275   1.755   0.387  12.232  0.1026  0.0546 -0.6718
  485TMC3    O2 7276   2.007   0.373  12.661  0.3531  0.3691 -0.4662
  486MPD2     C 7277   3.835   3.615  13.184  0.1580  0.1856  0.2584
  486MPD2    C1 7278   3.722   3.540  13.151 -0.1277  0.1138  0.6140
  486MPD2    C2 7279   3.614   3.604  13.098 -0.4399 -0.2826  0.6874
  486MPD2    C3 7280   3.608   3.743  13.089  0.3265 -0.0764  0.0928
  486MPD2    C4 7281   3.711   3.816  13.141 -0.7236  0.4971  0.0611
  486MPD2    C5 7282   3.824   3.753  13.185 -0.0548 -0.7765  0.2742
  486MPD2     H 7283   3.528   3.548  13.063  0.0087  0.1452 -1.1481
  486MPD2    H1 7284   3.705   3.925  13.146 -1.0010  0.4262  1.2911
  486MPD2    H2 7285   3.927   3.569  13.216  0.8444  1.0953 -0.4124
  486MPD2    H3 7286   3.911   3.808  13.219  0.0483 -1.5835  1.3123
  486MPD2     N 7287   3.490   3.798  13.026  0.0398  0.2114 -0.0832
  486MPD2    H5 7288   3.426   3.726  12.992  1.3847 -1.3507  0.6587
  486MPD2    N1 7289   3.722   3.401  13.176 -0.1979  0.3787 -0.3513
  486MPD2    H7 7290   3.815   3.366  13.198 -0.1884  1.6962  1.6731
  487TMC3    C1 7291   3.646   3.185  13.231 -0.6923  0.3843  0.3648
  487TMC3    C2 7292   3.536   3.120  13.257  0.3551  0.5951  0.4832
  487TMC3    C3 7293   3.519   3.073  13.382  0.1744 -0.3673  0.1412
  487TMC3    C4 7294   3.744   3.199  13.323  0.1388 -0.9510  0.2775
  487TMC3    C5 7295   3.737   3.136  13.444  0.7346  0.1315 -0.3236
  487TMC3    C6 7296   3.620   3.076  13.476 -0.7676 -0.2641 -0.2762
  487TMC3     C 7297   3.616   3.313  13.157 -0.3552 -0.5483 -0.8414
  487TMC3     O 7298   3.511   3.319  13.094  0.3110 -0.6366 -0.0128
  487TMC3     H 7299   3.467   3.116  13.173 -3.1454  0.5916  3.3513
  487TMC3    H1 7300   3.845   3.235  13.307 -0.1513  1.0031  2.8633
  487TMC3    H2 7301   3.603   3.042  13.577 -0.8954  1.1385  0.1794
  487TMC3    C7 7302   3.823   3.177  13.552  0.0599  0.2704 -0.7429
  487TMC3    C8 7303   3.407   2.988  13.405  0.3505  0.1515 -0.3817
  487TMC3    O1 7304   3.897   3.273  13.543 -0.2354 -0.7301  0.2483
  487TMC3    O2 7305   3.368   2.958  13.520  0.1160  0.1574 -0.0538
  488MPD2     C 7306   4.202   0.691  16.365  0.6422  0.1787 -0.4011
  488MPD2    C1 7307   4.221   0.825  16.396  0.4026  0.2602 -0.3082
  488MPD2    C2 7308   4.185   0.868  16.524  0.1510 -0.4144 -0.2268
  488MPD2    C3 7309   4.135   0.778  16.612  0.7425  0.1093 -0.4683
  488MPD2    C4 7310   4.147   0.646  16.589 -0.4769  0.7103  0.1915
  488MPD2    C5 7311   4.164   0.604  16.458  0.1248 -0.3306 -0.2945
  488MPD2     H 7312   4.186   0.975  16.541 -0.8113 -0.6845  1.5414
  488MPD2    H1 7313   4.110   0.573  16.660 -1.8290  1.5237  0.3102
  488MPD2    H2 7314   4.215   0.650  16.266 -0.9112  0.3932 -0.6988
  488MPD2    H3 7315   4.135   0.504  16.427  0.4948 -0.7497  0.7378
  488MPD2     N 7316   4.095   0.830  16.742  0.5259 -0.2920 -0.1025
  488MPD2    H5 7317   4.114   0.929  16.758  1.3045 -0.3964 -0.4362
  488MPD2    N1 7318   4.244   0.929  16.303  0.0469  0.6221  0.2306
  488MPD2    H7 7319   4.205   1.019  16.331 -0.5845 -0.4215  2.7230
  489TMC3    C1 7320   4.068   0.836  16.970  0.1984  0.5528 -0.0555
  489TMC3    C2 7321   4.150   0.944  16.968 -0.0751 -0.6030 -0.0523
  489TMC3    C3 7322   4.095   1.063  17.004  0.0832  1.0144 -0.2027
  489TMC3    C4 7323   3.955   0.835  17.043  1.4689  0.4173  0.3791
  489TMC3    C5 7324   3.909   0.950  17.091 -0.0347  0.5439 -0.3913
  489TMC3    C6 7325   3.972   1.068  17.071  0.1607  0.1891  0.1581
  489TMC3     C 7326   4.064   0.753  16.855 -0.0811 -0.6660 -0.2297
  489TMC3     O 7327   4.010   0.641  16.866 -0.3078 -0.1790  0.2458
  489TMC3     H 7328   4.244   0.940  16.915 -0.0010 -1.0575  0.1113
  489TMC3    H1 7329   3.899   0.742  17.039  0.8668  0.6284  3.8008
  489TMC3    H2 7330   3.917   1.160  17.090 -1.8493 -0.3030 -3.3102
  489TMC3    C7 7331   3.775   0.954  17.147 -0.8798 -0.4124  0.0180
  489TMC3    C8 7332   4.166   1.189  16.975 -0.6355 -0.7488 -0.5629
  489TMC3    O1 7333   3.717   1.064  17.163  1.2386 -0.3388  0.2034
  489TMC3    O2 7334   4.260   1.178  16.894  0.2817 -0.2460  0.1445
  490MPD2     C 7335   0.565   4.227  17.603  0.0790  0.7352 -0.6033
  490MPD2    C1 7336   0.482   4.215  17.711 -0.2606  0.3516  0.0916
  490MPD2    C2 7337   0.529   4.223   0.093 -0.8113 -0.6282  0.3531
  490MPD2    C3 7338   0.660   4.247   0.108  0.2251 -1.0724  0.1451
  490MPD2    C4 7339   0.742   4.260   0.004 -0.1483 -0.5225  0.0494
  490MPD2    C5 7340   0.696   4.258  17.628  0.1947  0.1527 -0.1147
  490MPD2     H 7341   0.459   4.211   0.175 -1.0498 -1.5623  0.0034
  490MPD2    H1 7342   0.847   4.286   0.016 -0.0461 -0.2990 -1.3463
  490MPD2    H2 7343   0.538   4.202  17.501  0.3254 -0.7125 -0.3183
  490MPD2    H3 7344   0.761   4.267  17.541 -0.5687  0.7784 -0.6219
  490MPD2     N 7345   0.708   4.264   0.238 -0.4715 -0.1823  0.4902
  490MPD2    H5 7346   0.810   4.272   0.235 -0.6792  1.6970 -1.5507
  490MPD2    N1 7347   0.338   4.210  17.696  0.0591 -0.6329 -0.4205
  490MPD2    H7 7348   0.277   4.201   0.029 -0.0730  1.1896 -0.3297
  491TMC3    C1 7349   0.135   4.214  17.605 -0.1814  0.1730  0.0224
  491TMC3    C2 7350   0.086   4.122  17.693 -0.4426  0.3662  0.1429
  491TMC3    C3 7351   4.687   4.126  17.721  1.2109 -0.2422 -0.5360
  491TMC3    C4 7352   0.055   4.291  17.519  0.2230 -0.3800  0.4242
  491TMC3    C5 7353   4.661   4.284  17.547  0.2326  0.7508  0.1070
  491TMC3    C6 7354   4.603   4.202  17.641  0.2719 -0.5195  0.1733
  491TMC3     C 7355   0.273   4.218  17.578  0.8364  0.7331  0.1231
  491TMC3     O 7356   0.298   4.250  17.463  0.1946 -0.0282 -0.1283
  491TMC3     H 7357   0.147   4.053   0.003 -0.2360  1.0790  0.7848
  491TMC3    H1 7358   0.104   4.357  17.449  1.1140  0.0376  1.4326
  491TMC3    H2 7359   4.496   4.203  17.654  0.6358  1.6709  2.7756
  491TMC3    C7 7360   4.562   4.372  17.488 -0.7334 -0.3107  0.3941
  491TMC3    C8 7361   4.617   4.053   0.087  0.2748  0.3302  0.6264
  491TMC3    O1 7362   4.457   4.377  17.555 -0.0592 -0.0139  0.1551
  491TMC3    O2 7363   4.516   4.108   0.128 -0.2096 -0.1351  0.5872
  492MPD2     C 7364   0.305   4.409  11.315 -0.2728  0.4400 -0.2404
  492MPD2    C1 7365   0.165   4.420  11.298 -0.3323 -0.0905  0.4065
  492MPD2    C2 7366   0.083   4.344  11.373  0.4725 -0.3331  0.0008
  492MPD2    C3 7367   0.133   4.267  11.482 -0.0703  0.5257  0.1935
  492MPD2    C4 7368   0.272   4.266  11.497  0.1543  0.1987 -0.3077
  492MPD2    C5 7369   0.357   4.330  11.413 -0.3379  0.5617  1.1618
  492MPD2     H 7370   4.712   4.343  11.361  0.2796  5.2512  0.9366
  492MPD2    H1 7371   0.326   4.219  11.579  2.7690  1.2207 -1.4412
  492MPD2    H2 7372   0.371   4.461  11.245  2.8869 -0.1542  2.2903
  492MPD2    H3 7373   0.464   4.315  11.423 -0.2360  1.2548  1.1362
  492MPD2     N 7374   0.047   4.197  11.569  0.1196 -0.1151 -0.0113
  492MPD2    H5 7375   0.099   4.143  11.638  1.1437  1.2480  0.2699
  492MPD2    N1 7376   0.125   4.516  11.198 -0.3492 -0.2561  0.6767
  492MPD2    H7 7377   0.196   4.576  11.158  0.1658  0.5768  2.8226
  493TMC3    C1 7378   4.713   4.674  11.100  0.1381  0.7049  0.3627
  493TMC3    C2 7379   0.079   0.027  11.091  0.7312  0.2829  0.5047
  493TMC3    C3 7380   0.064   0.130  11.000 -0.0100 -0.3134  0.8667
  493TMC3    C4 7381   4.593   4.697  11.034  0.4203  0.1159 -0.6139
  493TMC3    C5 7382   4.585   0.060  10.941 -0.2491 -0.3067  0.4866
  493TMC3    C6 7383   4.690   0.146  10.927  0.8925 -0.0296  0.4434
  493TMC3     C 7384   4.731   4.550  11.160 -0.7716  0.5173 -0.5701
  493TMC3     O 7385   4.633   4.484  11.188 -0.0695 -0.1769  0.1093
  493TMC3     H 7386   0.170   0.029  11.150  0.3109  0.7988  1.1391
  493TMC3    H1 7387   4.514   4.625  11.046 -0.0192  0.3710 -2.0270
  493TMC3    H2 7388   4.680   0.221  10.850 -0.7191 -0.5751  0.1283
  493TMC3    C7 7389   4.452   0.113  10.913 -0.3550 -0.2917  0.1098
  493TMC3    C8 7390   0.187   0.167  10.934  0.2520 -0.4736  0.8767
  493TMC3    O1 7391   4.449   0.204  10.835 -0.0460 -0.0307  0.1847
  493TMC3    O2 7392   0.292   0.124  10.981 -0.1395  0.1725  0.1532
  494TMC3    C1 7393   0.319   1.779   0.684  0.2958  0.2582  0.6161
  494TMC3    C2 7394   0.341   1.643   0.688 -0.0153 -0.2843 -0.5742
  494TMC3    C3 7395   0.424   1.587   0.600  0.6745  0.8545  0.7884
  494TMC3    C4 7396   0.375   1.854   0.580 -0.2492 -0.1884  0.4917
  494TMC3    C5 7397   0.461   1.796   0.494 -0.6317 -0.2976 -0.9463
  494TMC3    C6 7398   0.485   1.661   0.510 -0.6774 -0.0504  1.0172
  494TMC3     C 7399   0.247   1.829   0.796  0.2959  0.0177 -0.3369
  494TMC3     O 7400   0.214   1.745   0.876  0.4036  0.1386 -0.0354
  494TMC3     H 7401   0.316   1.594   0.781  0.2872  0.7805  0.0751
  494TMC3    H1 7402   0.386   1.961   0.586  2.1050 -0.3296 -1.2189
  494TMC3    H2 7403   0.548   1.602   0.444 -1.8709 -0.7787  0.5308
  494TMC3    C7 7404   0.476   1.845   0.362  0.2232  0.6865  0.2762
  494TMC3    C8 7405   0.475   1.455   0.632 -0.7840 -0.5659  0.4395
  494TMC3    O1 7406   0.500   1.763   0.276 -0.1144 -0.5748  0.4575
  494TMC3    O2 7407   0.590   1.427   0.605  0.4423 -0.6982  0.9145
  495TMC3    C1 7408   3.883   4.383  14.941  0.3955 -0.2560 -0.2237
  495TMC3    C2 7409   3.795   4.337  14.847 -0.3583 -1.1530  0.0213
  495TMC3    C3 7410   3.704   4.244  14.887 -0.1765 -0.2397 -0.5625
  495TMC3    C4 7411   3.884   4.338  15.073  0.0388  0.0692 -0.7640
  495TMC3    C5 7412   3.790   4.243  15.102 -0.0946 -0.8918 -0.2600
  495TMC3    C6 7413   3.693   4.197  15.017 -0.7829  0.2720  0.0450
  495TMC3     C 7414   4.006   4.430  14.886  0.8787 -0.0777 -0.5330
  495TMC3     O 7415   4.047   4.372  14.786 -0.3428 -0.7527  0.0070
  495TMC3     H 7416   3.814   4.348  14.741  1.7606  0.9714  0.6346
  495TMC3    H1 7417   3.965   4.355  15.142  1.6756 -1.1507 -2.3958
  495TMC3    H2 7418   3.627   4.115  15.042  1.0432 -1.4440 -0.7754
  495TMC3    C7 7419   3.817   4.163  15.223  0.2653  0.7786  0.1577
  495TMC3    C8 7420   3.655   4.166  14.780 -0.0098  0.3205  0.3590
  495TMC3    O1 7421   3.929   4.123  15.251 -0.4422 -0.2905 -0.2887
  495TMC3    O2 7422   3.555   4.203  14.721  0.3467  0.0428  0.6253
  496MPD2     C 7423   1.334   3.930  15.759 -0.6375  0.2979 -0.0146
  496MPD2    C1 7424   1.296   3.805  15.718  0.2757  0.1970  0.4348
  496MPD2    C2 7425   1.181   3.745  15.773  0.0703 -0.5106 -0.1763
  496MPD2    C3 7426   1.103   3.811  15.866  0.2208 -0.3835 -0.4623
  496MPD2    C4 7427   1.140   3.940  15.902 -0.0534  0.8945 -0.7726
  496MPD2    C5 7428   1.254   3.998  15.843  0.0613 -0.4274 -0.1269
  496MPD2     H 7429   1.155   3.641  15.757  0.7449 -0.7536  0.3270
  496MPD2    H1 7430   1.085   3.998  15.975 -0.2832 -0.8000  0.4140
  496MPD2    H2 7431   1.420   3.987  15.726  0.9947 -1.7244  0.7961
  496MPD2    H3 7432   1.284   4.098  15.871  0.9231 -1.1957  1.7125
  496MPD2     N 7433   0.992   3.736  15.915  0.0872 -0.2989  0.8212
  496MPD2    H5 7434   0.978   3.650  15.864  0.4262  0.4984 -0.6171
  496MPD2    N1 7435   1.388   3.745  15.633  0.7128 -0.1297 -0.3121
  496MPD2    H7 7436   1.465   3.801  15.596 -0.1765  0.2939 -1.5001
  497TMC3    C1 7437   0.814   3.671  16.037  0.4343  0.1343  0.2729
  497TMC3    C2 7438   0.758   3.655  15.911 -0.1682  0.2650  0.0993
  497TMC3    C3 7439   0.721   3.531  15.871 -0.0204 -0.0219 -0.1263
  497TMC3    C4 7440   0.843   3.566  16.112  0.4023  0.4092 -0.8436
  497TMC3    C5 7441   0.811   3.443  16.070  0.0720  0.4980  0.2918
  497TMC3    C6 7442   0.744   3.420  15.949 -0.4563 -0.1633 -0.1835
  497TMC3     C 7443   0.923   3.766  16.029 -0.7329  0.4304 -0.4672
  497TMC3     O 7444   0.954   3.842  16.122  0.3170 -0.8965  0.7108
  497TMC3     H 7445   0.751   3.737  15.840 -0.8913  0.3591  0.2776
  497TMC3    H1 7446   0.878   3.583  16.213 -1.2416 -2.8432  0.2422
  497TMC3    H2 7447   0.736   3.321  15.905  4.0878 -0.3031 -0.6352
  497TMC3    C7 7448   0.837   3.320  16.152 -0.0917 -0.6973 -0.6760
  497TMC3    C8 7449   0.726   3.516  15.727 -0.0943 -0.1313  0.3387
  497TMC3    O1 7450   0.756   3.227  16.135 -0.2967  0.0249 -0.1649
  497TMC3    O2 7451   0.793   3.597  15.660 -0.0069  0.0438  0.8818
  498MPD2     C 7452   2.668   4.143   9.804 -0.1792  0.0595 -0.4294
  498MPD2    C1 7453   2.670   4.190   9.933 -0.1752  0.0304  0.5397
  498MPD2    C2 7454   2.601   4.116  10.027 -0.9754 -0.7297 -0.1673
  498MPD2    C3 7455   2.535   3.998   9.998  0.0993  0.3384 -0.0655
  498MPD2    C4 7456   2.547   3.949   9.869  0.2364 -0.2562  0.1292
  498MPD2    C5 7457   2.622   4.021   9.778  0.5289 -0.4510  0.4922
  498MPD2     H 7458   2.588   4.162  10.124 -0.2142 -2.3660  0.7019
  498MPD2    H1 7459   2.522   3.847   9.841  2.0732 -1.5180  3.1017
  498MPD2    H2 7460   2.701   4.196   9.715  3.2645  1.7682  1.8573
  498MPD2    H3 7461   2.612   3.976   9.680  1.4576 -3.5994  1.8493
  498MPD2     N 7462   2.471   3.932  10.100  0.1158 -0.1946 -0.5232
  498MPD2    H5 7463   2.464   3.987  10.185  0.8169 -0.2052 -0.4580
  498MPD2    N1 7464   2.713   4.323   9.968 -0.1203 -0.1181  0.3366
  498MPD2    H7 7465   2.689   4.348  10.063 -1.5450  1.3341 -0.4167
  499TMC3    C1 7466   2.851   4.520   9.955 -0.1506  0.4276 -0.3436
  499TMC3    C2 7467   2.847   4.543  10.090  0.5652  0.8890 -0.1100
  499TMC3    C3 7468   2.901   4.660  10.130 -0.0863  0.3138 -0.0544
  499TMC3    C4 7469   2.897   4.611   9.861 -0.3740 -0.2556  0.0856
  499TMC3    C5 7470   2.949   4.729   9.907  0.6924  0.2797  0.2669
  499TMC3    C6 7471   2.949   0.019  10.041 -0.1841 -0.2058 -0.0138
  499TMC3     C 7472   2.802   4.399   9.888  0.2579 -0.0231  0.5276
  499TMC3     O 7473   2.845   4.370   9.779 -0.7573 -0.1965 -0.3797
  499TMC3     H 7474   2.820   4.471  10.166  0.9581 -0.3926 -1.1814
  499TMC3    H1 7475   2.916   4.576   9.760 -1.4375 -0.8330  0.0897
  499TMC3    H2 7476   2.974   0.119  10.074 -0.8073  0.0859 -0.4224
  499TMC3    C7 7477   2.957   0.105   9.818  0.6336  0.6160 -0.6775
  499TMC3    C8 7478   2.891   4.693  10.275 -1.4748  0.0825  0.4494
  499TMC3    O1 7479   3.028   0.194   9.857  0.0383 -0.1679  0.6241
  499TMC3    O2 7480   2.818   4.629  10.349  0.4499 -0.2544 -0.2643
  500MPD2     C 7481   3.615   0.593  11.239 -0.5538 -0.3007  0.0110
  500MPD2    C1 7482   3.675   0.681  11.151  0.1192 -0.6735 -0.0746
  500MPD2    C2 7483   3.597   0.726  11.047  0.5363 -0.5673 -0.5130
  500MPD2    C3 7484   3.472   0.668  11.025  0.3005 -0.6685  0.2577
  500MPD2    C4 7485   3.414   0.585  11.114 -0.0158 -0.2369  0.7128
  500MPD2    C5 7486   3.484   0.554  11.221  0.5259  0.4828  0.6394
  500MPD2     H 7487   3.633   0.796  10.972 -0.8397  3.3038  2.4839
  500MPD2    H1 7488   3.311   0.553  11.111 -0.1820  0.4890 -1.7050
  500MPD2    H2 7489   3.666   0.541  11.319  1.8153 -3.3932 -3.5514
  500MPD2    H3 7490   3.436   0.484  11.289  1.1028 -1.5629 -1.0722
  500MPD2     N 7491   3.411   0.688  10.903  0.6839 -0.6226  0.1589
  500MPD2    H5 7492   3.312   0.666  10.892  0.2226  1.7330 -0.2087
  500MPD2    N1 7493   3.808   0.719  11.167  0.2403 -0.1567  0.3592
  500MPD2    H7 7494   3.843   0.775  11.090  0.0683 -0.8844 -0.2478
  501TMC3    C1 7495   4.026   0.755  11.233 -0.5423  1.1007 -0.6600
  501TMC3    C2 7496   4.040   0.845  11.124  0.1910  0.1481  0.3196
  501TMC3    C3 7497   4.168   0.877  11.076  0.5138 -0.1713  0.0453
  501TMC3    C4 7498   4.141   0.708  11.292  0.0709  0.1844  0.3549
  501TMC3    C5 7499   4.263   0.741  11.241 -0.7025  0.6422  0.2784
  501TMC3    C6 7500   4.275   0.821  11.131  0.0904 -0.0871 -0.5994
  501TMC3     C 7501   3.897   0.706  11.270  0.3538 -0.6631  0.2551
  501TMC3     O 7502   3.880   0.666  11.384  0.4785 -0.3075 -0.1813
  501TMC3     H 7503   3.956   0.899  11.082 -0.8650 -0.3977  1.7449
  501TMC3    H1 7504   4.130   0.643  11.378 -0.6849  0.3758  0.3986
  501TMC3    H2 7505   4.375   0.835  11.090  0.5388  1.6827  1.1131
  501TMC3    C7 7506   4.383   0.674  11.289  0.1052  0.1134 -0.2341
  501TMC3    C8 7507   4.184   0.967  10.955 -0.2242 -0.9155 -0.4292
  501TMC3    O1 7508   4.371   0.580  11.364 -0.0593 -0.1962 -0.3755
  501TMC3    O2 7509   4.300   1.003  10.939  0.1643 -0.3752 -0.1933
  502TMC3    C1 7510   3.683   0.223  15.702  0.2876 -0.1797  0.3335
  502TMC3    C2 7511   3.708   0.239  15.569  0.5118  0.3946 -0.4279
  502TMC3    C3 7512   3.597   0.212  15.493 -0.5382 -0.3246 -0.5233
  502TMC3    C4 7513   3.553   0.199  15.748 -0.1204 -0.4150 -0.0367
  502TMC3    C5 7514   3.447   0.173  15.665 -0.3105 -0.0897 -0.2426
  502TMC3    C6 7515   3.472   0.175  15.528  0.1366  0.3051  0.1883
  502TMC3     C 7516   3.785   0.165  15.779  0.0583  0.3218  0.2856
  502TMC3     O 7517   3.905   0.197  15.759  0.1011  0.0838 -0.2736
  502TMC3     H 7518   3.796   0.281  15.523  1.9065 -3.2786 -1.1138
  502TMC3    H1 7519   3.516   0.203  15.850  0.1991 -1.9118  0.1476
  502TMC3    H2 7520   3.389   0.149  15.464 -0.1329 -0.5960  0.9032
  502TMC3    C7 7521   3.374   0.058  15.711 -0.7406 -0.2627  0.3478
  502TMC3    C8 7522   3.608   0.249  15.351 -0.2410 -0.4280 -0.4256
  502TMC3    O1 7523   3.414   4.714  15.789 -0.2941  0.1751  0.1493
  502TMC3    O2 7524   3.692   0.337  15.324  0.0025  0.1435 -1.0131
  503MPD2     C 7525   0.782   0.462  17.269  0.5447  0.3260 -0.5712
  503MPD2    C1 7526   0.842   0.508  17.384 -0.4130  0.8925  0.1048
  503MPD2    C2 7527   0.936   0.430  17.453 -1.1197  0.5004  0.0180
  503MPD2    C3 7528   0.973   0.308  17.406  0.0405 -0.1665  0.0443
  503MPD2    C4 7529   0.905   0.260  17.295 -1.1819 -0.6178  0.6877
  503MPD2    C5 7530   0.813   0.334  17.232 -0.5207  0.3352 -0.1602
  503MPD2     H 7531   0.983   0.474  17.541 -0.1108 -2.4378  0.9436
  503MPD2    H1 7532   0.915   0.155  17.270 -1.0992 -1.3366  3.8460
  503MPD2    H2 7533   0.701   0.515  17.221 -1.0439 -0.9146  0.7629
  503MPD2    H3 7534   0.753   0.281  17.159 -0.4998  1.9507 -1.3523
  503MPD2     N 7535   1.066   0.226  17.481 -0.4712 -0.3030  0.2652
  503MPD2    H5 7536   1.075   0.253  17.578  0.4674  3.5365 -0.8990
  503MPD2    N1 7537   0.803   0.634  17.424  0.1237  0.0447  0.5219
  503MPD2    H7 7538   0.720   0.672  17.378  1.1983  3.4106  1.3328
  504TMC3    C1 7539   1.201   0.056  17.548 -0.3502 -0.2621  0.7430
  504TMC3    C2 7540   1.167   0.033  17.680 -0.4329  0.0209  0.1024
  504TMC3    C3 7541   1.254   4.703   0.015 -0.6918 -0.6049 -0.2927
  504TMC3    C4 7542   1.322   0.009  17.505  0.0951  0.1419 -0.2401
  504TMC3    C5 7543   1.402   4.685  17.590  0.3762  0.0059  0.1106
  504TMC3    C6 7544   1.380   4.655  17.720 -0.2226 -0.6398  0.4917
  504TMC3     C 7545   1.123   0.107  17.445 -0.0345  0.5096 -0.5346
  504TMC3     O 7546   1.128   0.064  17.329  0.6890  0.4263  0.0818
  504TMC3     H 7547   1.076   0.079  17.716 -1.2971 -0.9873 -0.7753
  504TMC3    H1 7548   1.357   0.033  17.405  1.1504  1.2840  0.4148
  504TMC3    H2 7549   1.447   4.614   0.048 -2.2635 -0.4876  2.3992
  504TMC3    C7 7550   1.527   4.640  17.535 -0.3399 -0.4344  0.4446
  504TMC3    C8 7551   1.232   4.708   0.154 -1.0788  0.2624 -0.0803
  504TMC3    O1 7552   1.576   4.706  17.446  0.4359 -0.1627 -0.4480
  504TMC3    O2 7553   1.178   0.075   0.201 -0.1329 -0.3172  0.4868
  505MPD2     C 7554   1.404   3.873  10.756 -0.9768  0.5927  0.2891
  505MPD2    C1 7555   1.421   3.807  10.880 -0.0397  0.3722 -0.1636
  505MPD2    C2 7556   1.506   3.860  10.970 -0.5956  0.1098  0.3998
  505MPD2    C3 7557   1.564   3.985  10.955  0.7690 -0.5061 -0.0641
  505MPD2    C4 7558   1.543   4.046  10.833  0.3063  0.0656  0.4712
  505MPD2    C5 7559   1.464   3.991  10.733 -0.6204 -0.2547  0.8549
  505MPD2     H 7560   1.545   3.813  11.059  1.9511  1.5997  0.0660
  505MPD2    H1 7561   1.588   4.143  10.814  0.4857 -0.2424 -0.7013
  505MPD2    H2 7562   1.338   3.831  10.680 -1.3418  1.7347 -0.0215
  505MPD2    H3 7563   1.461   4.038  10.636  1.1970  0.7269  1.2728
  505MPD2     N 7564   1.651   4.038  11.053  0.2606  0.0117  0.7840
  505MPD2    H5 7565   1.667   3.974  11.131  1.5274 -0.5001  0.1061
  505MPD2    N1 7566   1.381   3.672  10.903  0.1235 -0.0060  0.4622
  505MPD2    H7 7567   1.427   3.631  10.983  1.7901  0.0747 -0.4467
  506TMC3    C1 7568   1.320   3.444  10.881 -0.2275 -0.1891 -0.1151
  506TMC3    C2 7569   1.351   3.356  10.785  0.2352  0.7284 -0.0302
  506TMC3    C3 7570   1.464   3.280  10.796  0.3443 -0.6249  0.3719
  506TMC3    C4 7571   1.384   3.439  10.999 -0.0384  0.6706 -0.1922
  506TMC3    C5 7572   1.500   3.365  11.005  0.1738 -0.2178 -0.0071
  506TMC3    C6 7573   1.549   3.285  10.902 -0.1317  0.0447  1.0580
  506TMC3     C 7574   1.300   3.587  10.832  0.0113  0.9685 -0.2291
  506TMC3     O 7575   1.245   3.606  10.725 -0.9476 -0.4018  0.0033
  506TMC3     H 7576   1.296   3.367  10.693 -4.1353 -0.8024  2.4083
  506TMC3    H1 7577   1.359   3.493  11.090 -0.7309  0.2615 -0.1400
  506TMC3    H2 7578   1.655   3.264  10.892 -0.2507 -1.5596  3.1285
  506TMC3    C7 7579   1.601   3.429  11.092  0.1506 -0.2510  0.3392
  506TMC3    C8 7580   1.514   3.247  10.660 -0.3235  0.4160  0.8274
  506TMC3    O1 7581   1.564   3.540  11.130  0.0346  0.0200 -0.3822
  506TMC3    O2 7582   1.432   3.192  10.587 -0.0773 -0.6931 -0.0102
  507TMC3    C1 7583   1.621   0.147  14.701  0.5325 -0.0311 -0.7763
  507TMC3    C2 7584   1.703   0.119  14.596 -0.2650  0.3333 -0.3565
  507TMC3    C3 7585   1.832   0.091  14.631  0.2645 -0.1589 -0.4573
  507TMC3    C4 7586   1.656   0.128  14.832 -0.5259 -0.2557  0.2031
  507TMC3    C5 7587   1.787   0.081  14.858 -0.0461  0.4150  0.3910
  507TMC3    C6 7588   1.872   0.054  14.754  0.1102  0.3859  0.3763
  507TMC3     C 7589   1.495   0.232  14.676  0.5119 -0.9205  0.4215
  507TMC3     O 7590   1.450   0.286  14.776 -0.0899  0.2356  0.6308
  507TMC3     H 7591   1.680   0.152  14.496  0.9272  1.8713 -0.1203
  507TMC3    H1 7592   1.589   0.165  14.908 -0.2460 -0.2287  0.4349
  507TMC3    H2 7593   1.975   0.025  14.774  0.6885  2.1822  0.0187
  507TMC3    C7 7594   1.856   0.147  14.966 -0.0819  1.3162 -0.3855
  507TMC3    C8 7595   1.916   0.195  14.583 -0.1219  0.1821 -0.0902
  507TMC3    O1 7596   1.977   0.160  14.954 -0.1192  0.5478 -0.1691
  507TMC3    O2 7597   1.903   0.224  14.463  0.1004 -0.0881 -0.1895
  508MPD2     C 7598   2.701   2.384  16.077 -0.0696 -0.0377  0.4620
  508MPD2    C1 7599   2.838   2.383  16.074  0.2487  0.0341 -0.2048
  508MPD2    C2 7600   2.894   2.422  15.953 -0.3479  0.0641 -0.2245
  508MPD2    C3 7601   2.814   2.472  15.851 -0.2268  0.6606  0.1276
  508MPD2    C4 7602   2.675   2.475  15.866  0.1904  0.7743  0.5713
  508MPD2    C5 7603   2.618   2.432  15.981  0.3105  0.0230  0.6876
  508MPD2     H 7604   3.001   2.443  15.955 -0.0343 -1.5071 -0.6692
  508MPD2    H1 7605   2.613   2.506  15.783 -2.3507  1.0629  2.5853
  508MPD2    H2 7606   2.644   2.378  16.169  0.3177 -1.1041  0.6275
  508MPD2    H3 7607   2.513   2.429  16.006  0.4679  4.2773  1.8598
  508MPD2     N 7608   2.877   2.511  15.725 -0.7116  0.4749 -0.2750
  508MPD2    H5 7609   2.976   2.495  15.711 -1.0612 -3.0507  1.0461
  508MPD2    N1 7610   2.902   2.335  16.196 -0.3142 -0.9106 -0.0066
  508MPD2    H7 7611   2.847   2.305  16.275 -0.9342  1.0948  0.3165
  509TMC3    C1 7612   2.897   2.864  15.438  0.1515 -0.1306 -0.0925
  509TMC3    C2 7613   3.018   2.903  15.485  0.3535 -0.7012  0.4771
  509TMC3    C3 7614   3.070   2.823  15.582  0.8319  0.6466  0.1883
  509TMC3    C4 7615   2.852   2.739  15.454  0.2146  0.1930 -0.8044
  509TMC3    C5 7616   2.912   2.658  15.549 -0.3912  0.4551  0.0060
  509TMC3    C6 7617   3.026   2.701  15.613  0.1875 -0.3512  0.3178
  509TMC3     C 7618   2.832   2.938  15.332 -1.1931  0.1212 -0.4256
  509TMC3     O 7619   2.760   2.878  15.253 -0.5206  0.1998  1.1257
  509TMC3     H 7620   3.059   3.002  15.466  1.1448 -1.2143 -0.4646
  509TMC3    H1 7621   2.761   2.700  15.411 -2.1143  2.7658  1.8032
  509TMC3    H2 7622   3.071   2.647  15.696 -0.0280  1.1458  1.4015
  509TMC3    C7 7623   2.814   2.593  15.635  0.5918 -0.1899  0.9995
  509TMC3    C8 7624   3.191   2.864  15.655 -0.8717  0.8034  0.4656
  509TMC3    O1 7625   2.701   2.637  15.638 -0.8647 -0.3134 -0.6707
  509TMC3    O2 7626   3.265   2.775  15.695 -0.3450 -0.6440  0.1131
  510MPD2     C 7627   1.059   4.256  15.022 -0.0368 -0.6353 -0.3330
  510MPD2    C1 7628   1.063   4.118  15.025 -0.0811  0.3358 -0.3341
  510MPD2    C2 7629   1.176   4.058  14.974  0.1311 -0.0690  0.2062
  510MPD2    C3 7630   1.277   4.125  14.909 -0.3623 -0.1562  0.2613
  510MPD2    C4 7631   1.270   4.264  14.898 -0.4635  0.6473 -0.5000
  510MPD2    C5 7632   1.161   4.322  14.953 -0.6900 -1.1697  0.0784
  510MPD2     H 7633   1.187   3.951  14.977  1.1027  0.1010  2.4126
  510MPD2    H1 7634   1.347   4.316  14.841  0.9022  2.1266  2.7154
  510MPD2    H2 7635   0.968   4.311  15.044 -1.0311 -1.1775 -3.0018
  510MPD2    H3 7636   1.143   4.428  14.938  0.3501 -0.8512  1.0858
  510MPD2     N 7637   1.380   4.041  14.860 -0.4245 -0.0932  0.6597
  510MPD2    H5 7638   1.378   3.941  14.877  2.0175 -0.3516 -0.6519
  510MPD2    N1 7639   0.957   4.052  15.093  0.6074  0.0089 -0.4308
  510MPD2    H7 7640   0.889   4.113  15.138  0.3570 -1.2396  0.8965
  511TMC3    C1 7641   0.817   3.875  15.154  0.1065 -0.1703 -0.3364
  511TMC3    C2 7642   0.738   3.937  15.252  0.2925 -0.6725 -0.0183
  511TMC3    C3 7643   0.603   3.911  15.262  0.3847  0.5337 -0.1360
  511TMC3    C4 7644   0.763   3.786  15.065 -0.0422 -0.0873 -0.3691
  511TMC3    C5 7645   0.629   3.765  15.074  0.2880  0.7276 -0.1690
  511TMC3    C6 7646   0.544   3.819  15.171  0.0649  0.6576 -0.1069
  511TMC3     C 7647   0.944   3.913  15.099  0.4760 -0.1100  0.1653
  511TMC3     O 7648   1.013   3.826  15.046  0.1180 -0.1755  0.3040
  511TMC3     H 7649   0.790   3.998  15.325  1.1171 -0.6453 -0.6307
  511TMC3    H1 7650   0.808   3.749  14.974 -0.9758 -0.0877 -0.8260
  511TMC3    H2 7651   0.436   3.807  15.167 -0.0467  2.0685 -1.2903
  511TMC3    C7 7652   0.578   3.673  14.966  0.3328  0.2313 -0.1935
  511TMC3    C8 7653   0.521   3.981  15.360 -0.2860 -0.0787  0.0910
  511TMC3    O1 7654   0.636   3.675  14.858  0.2392 -0.7593 -0.7584
  511TMC3    O2 7655   0.563   4.084  15.401  0.8777  0.1651 -0.4759
  512TMC3    C1 7656   0.138   3.521  12.396 -0.9123 -0.8298 -0.2305
  512TMC3    C2 7657   0.083   3.507  12.519  0.2020  0.5347 -0.2183
  512TMC3    C3 7658   0.018   3.391  12.547  0.2486  0.5651  0.1803
  512TMC3    C4 7659   0.138   3.432  12.299 -0.1681 -0.2012 -0.3894
  512TMC3    C5 7660   0.092   3.311  12.337 -0.8432  1.1229  0.2320
  512TMC3    C6 7661   0.018   3.290  12.451  0.4206  0.0137  0.1278
  512TMC3     C 7662   0.182   3.651  12.352 -0.1703  0.3204  0.0737
  512TMC3     O 7663   0.171   3.682  12.234  0.5427  0.0640  0.4418
  512TMC3     H 7664   0.075   3.601  12.573 -0.7014  1.1306 -1.3898
  512TMC3    H1 7665   0.196   3.449  12.209 -0.1302  1.3943 -0.0582
  512TMC3    H2 7666   4.691   3.203  12.461 -1.4196  1.4769  0.9969
  512TMC3    C7 7667   0.114   3.200  12.237 -0.1464  0.6272  0.0932
  512TMC3    C8 7668   4.716   3.350  12.682 -0.0110 -0.4638 -0.1639
  512TMC3    O1 7669   0.137   3.222  12.120 -1.0545 -0.3683 -0.4938
  512TMC3    O2 7670   4.644   3.249  12.685 -0.2770 -0.0434 -0.2678
  513MPD2     C 7671   1.569   3.967  13.553 -0.0321  0.4509 -0.1428
  513MPD2    C1 7672   1.553   3.835  13.529 -0.4873 -0.3836 -0.5913
  513MPD2    C2 7673   1.655   3.746  13.552  0.5479 -0.0565 -0.1445
  513MPD2    C3 7674   1.758   3.788  13.629 -0.8245 -0.8307  0.0579
  513MPD2    C4 7675   1.766   3.915  13.676 -0.0682  0.1377  0.4921
  513MPD2    C5 7676   1.674   4.006  13.634 -0.5564  0.3527 -0.7708
  513MPD2     H 7677   1.661   3.648  13.505 -1.3424 -0.9043  1.3477
  513MPD2    H1 7678   1.836   3.948  13.752 -0.2791  0.6688  0.4558
  513MPD2    H2 7679   1.499   4.039  13.510 -0.3490 -1.2106 -2.4044
  513MPD2    H3 7680   1.675   4.106  13.676 -0.2904  0.2673 -0.5735
  513MPD2     N 7681   1.849   3.688  13.663 -0.7718 -0.0859  0.4357
  513MPD2    H5 7682   1.826   3.602  13.614  0.9672 -0.6179  0.5683
  513MPD2    N1 7683   1.432   3.798  13.465  0.0148 -0.0898  0.2921
  513MPD2    H7 7684   1.370   3.876  13.443 -0.2855 -0.1765  0.8483
  514TMC3    C1 7685   1.263   3.651  13.373 -0.0263 -0.3529  0.2361
  514TMC3    C2 7686   1.270   3.676  13.238  0.2767 -0.4958  0.7194
  514TMC3    C3 7687   1.220   3.583  13.154  0.0853 -0.0174  0.7036
  514TMC3    C4 7688   1.214   3.536  13.420 -0.6132 -0.1125 -0.8886
  514TMC3    C5 7689   1.169   3.440  13.327 -0.2182  1.1215 -0.4101
  514TMC3    C6 7690   1.159   3.465  13.195  0.4086 -0.3305  0.4478
  514TMC3     C 7691   1.388   3.670  13.444 -0.6643 -0.8202 -0.2792
  514TMC3     O 7692   1.446   3.560  13.462 -0.1671 -0.3231 -0.0668
  514TMC3     H 7693   1.324   3.765  13.209  0.4030 -0.6056  0.6130
  514TMC3    H1 7694   1.213   3.521  13.527 -0.7337  0.1702 -0.8480
  514TMC3    H2 7695   1.117   3.391  13.127 -0.5387 -1.1218  1.8907
  514TMC3    C7 7696   1.207   3.309  13.361  0.1924 -0.3132  0.8166
  514TMC3    C8 7697   1.225   3.605  13.013 -0.2449  0.2974  0.1973
  514TMC3    O1 7698   1.158   3.211  13.307  0.2501  0.2241  0.3634
  514TMC3    O2 7699   1.146   3.541  12.948  0.0771 -0.4159 -0.2734
  515MPD2     C 7700   4.631   0.554  14.624 -0.1634  0.1768  0.9955
  515MPD2    C1 7701   4.597   0.512  14.753  1.0052 -0.9256 -0.3080
  515MPD2    C2 7702   4.703   0.486  14.842  0.0993  0.3233 -0.3115
  515MPD2    C3 7703   0.096   0.475  14.790  0.4853 -1.0160 -0.3421
  515MPD2    C4 7704   0.122   0.510  14.654  0.0733  0.1048  0.3742
  515MPD2    C5 7705   0.017   0.559  14.569 -0.2380 -0.4476 -0.7420
  515MPD2     H 7706   4.690   0.464  14.947  0.6567  0.4071 -0.2279
  515MPD2    H1 7707   0.223   0.505  14.615  0.9345 -1.7655  2.8111
  515MPD2    H2 7708   4.552   0.582  14.555  0.4515 -0.3528  0.0650
  515MPD2    H3 7709   0.025   0.590  14.466  0.1184  0.5372 -0.4164
  515MPD2     N 7710   0.205   0.432  14.871  0.0375 -0.5874 -0.4609
  515MPD2    H5 7711   0.300   0.437  14.838  0.4004  0.0189  0.6982
  515MPD2    N1 7712   4.460   0.502  14.791  0.0863 -0.2635  0.3435
  515MPD2    H7 7713   4.392   0.531  14.721 -2.0065 -2.3269  1.5231
  516TMC3    C1 7714   4.266   0.434  14.902  0.9078  0.0786  0.3765
  516TMC3    C2 7715   4.204   0.432  14.781  0.0785  0.3861  0.1721
  516TMC3    C3 7716   4.081   0.375  14.775 -0.1190 -0.0255 -0.6682
  516TMC3    C4 7717   4.206   0.376  15.011 -0.4549  0.0758  0.4629
  516TMC3    C5 7718   4.080   0.316  14.999  0.4671 -0.4365  0.0151
  516TMC3    C6 7719   4.018   0.325  14.882 -0.1638  0.5461  0.1705
  516TMC3     C 7720   4.409   0.455  14.910  0.3504 -0.5464 -0.1005
  516TMC3     O 7721   4.467   0.417  15.013  0.7728 -0.3267  0.2496
  516TMC3     H 7722   4.258   0.447  14.688 -1.0084 -1.8555 -0.8121
  516TMC3    H1 7723   4.263   0.362  15.103  0.8217  2.7170  0.0790
  516TMC3    H2 7724   3.913   0.297  14.873 -0.0600 -0.0217  0.7558
  516TMC3    C7 7725   4.040   0.216  15.092 -0.0337  0.4338 -0.0664
  516TMC3    C8 7726   3.992   0.399  14.668 -0.2830  0.0801  0.5581
  516TMC3    O1 7727   4.107   0.210  15.193  0.5679 -0.1214 -0.0774
  516TMC3    O2 7728   3.895   0.324  14.660  0.4146  0.0923 -0.2621
  517MPD2     C 7729   4.064   2.251  17.700 -0.7208 -0.0055  0.9572
  517MPD2    C1 7730   4.184   2.206   0.008  0.6966 -0.3104 -0.0277
  517MPD2    C2 7731   4.234   2.271   0.123 -0.6276 -0.1743  0.0004
  517MPD2    C3 7732   4.170   2.382   0.167  0.0168  0.6397 -0.1176
  517MPD2    C4 7733   4.048   2.416   0.117  0.3364 -0.2204 -0.3682
  517MPD2    C5 7734   3.994   2.351   0.011 -0.1378  0.1654 -0.3078
  517MPD2     H 7735   4.333   2.239   0.155 -0.9440 -0.2164  0.9432
  517MPD2    H1 7736   3.989   2.501   0.150  1.4615  0.8426 -1.0858
  517MPD2    H2 7737   4.032   2.208  17.606  0.9301 -1.4814  1.0715
  517MPD2    H3 7738   3.906   2.395  17.714 -0.7564  0.0023  0.7751
  517MPD2     N 7739   4.223   2.477   0.266  0.6212  0.7886 -0.0395
  517MPD2    H5 7740   4.164   2.555   0.292  1.0453  0.6936  1.2325
  517MPD2    N1 7741   4.251   2.087  17.716  0.5774 -0.2354 -0.1220
  517MPD2    H7 7742   4.327   2.057   0.030  1.0572  0.5182 -0.3572
  518TMC3    C1 7743   4.298   1.886  17.606 -0.0366 -0.1005 -0.4613
  518TMC3    C2 7744   4.246   1.766  17.571  0.0705  0.4068  0.5640
  518TMC3    C3 7745   4.325   1.655  17.561 -0.4182 -0.0171 -0.1333
  518TMC3    C4 7746   4.431   1.897  17.639  0.4586 -0.5630  0.3640
  518TMC3    C5 7747   4.508   1.785  17.623 -0.0034  0.0308  0.6870
  518TMC3    C6 7748   4.459   1.659  17.591  0.3615 -0.0024 -0.4329
  518TMC3     C 7749   4.209   2.001  17.621 -0.5699 -0.2136 -0.5377
  518TMC3     O 7750   4.097   1.992  17.571 -0.4684 -0.5465  0.3918
  518TMC3     H 7751   4.141   1.761  17.545 -0.0667  3.1370  0.6073
  518TMC3    H1 7752   4.479   1.987  17.677  0.6208 -1.3087  1.9229
  518TMC3    H2 7753   4.524   1.573  17.597 -0.3738 -0.3643  2.8358
  518TMC3    C7 7754   4.643   1.792  17.671 -0.3313  0.3981  0.5863
  518TMC3    C8 7755   4.283   1.523  17.518 -0.6698  0.0010 -0.2074
  518TMC3    O1 7756   4.665   1.871   0.011  0.0015  0.3354  0.0909
  518TMC3    O2 7757   4.371   1.453  17.469 -0.1771  0.0235 -0.6387
  519MPD2     C 7758   0.834   0.454  14.671 -0.3717 -0.0906 -0.1318
  519MPD2    C1 7759   0.754   0.419  14.564 -0.1481 -0.0263 -0.2925
  519MPD2    C2 7760   0.781   0.299  14.509  0.2256 -0.9426 -0.5795
  519MPD2    C3 7761   0.893   0.227  14.549  0.2860  1.2084  0.1390
  519MPD2    C4 7762   0.968   0.278  14.651 -0.8220 -0.4999 -0.7196
  519MPD2    C5 7763   0.931   0.381  14.722 -1.4267 -0.0559 -0.2040
  519MPD2     H 7764   0.724   0.249  14.431 -2.2652 -0.8264  1.1917
  519MPD2    H1 7765   1.052   0.219  14.686 -2.0914 -0.7301  1.9244
  519MPD2    H2 7766   0.816   0.552  14.713 -0.1663  0.6340 -1.7518
  519MPD2    H3 7767   0.988   0.416  14.807 -0.6657 -0.3443 -0.5896
  519MPD2     N 7768   0.945   0.111  14.486  0.3973  0.1893 -0.1061
  519MPD2    H5 7769   1.037   0.076  14.511 -0.7265 -1.3829  1.8438
  519MPD2    N1 7770   0.637   0.495  14.520  0.3801  0.1230 -0.2115
  519MPD2    H7 7771   0.633   0.596  14.524  2.3996  0.2148 -0.3244
  520TMC3    C1 7772   0.964   4.707  14.300  1.1827  0.3555  0.1443
  520TMC3    C2 7773   0.919   4.713  14.167  0.1500 -0.7490  0.4235
  520TMC3    C3 7774   1.015   4.691  14.071 -0.4745 -0.2818  0.3892
  520TMC3    C4 7775   1.090   4.679  14.335  0.3104 -0.4650 -0.2562
  520TMC3    C5 7776   1.183   4.660  14.232 -0.5854 -0.1187 -0.3708
  520TMC3    C6 7777   1.145   4.667  14.101 -0.3255  0.4300  0.1217
  520TMC3     C 7778   0.880   0.057  14.375 -0.0300  0.2962  0.2306
  520TMC3     O 7779   0.761   0.057  14.348 -0.1794  0.1238  0.3535
  520TMC3     H 7780   0.819   0.014  14.148  0.5249 -0.5659 -1.2378
  520TMC3    H1 7781   1.125   4.671  14.437 -1.3939  3.0110  0.6109
  520TMC3    H2 7782   1.219   4.664  14.023  1.0405 -1.3016  1.4850
  520TMC3    C7 7783   1.313   4.605  14.266  0.6505  0.5866  0.5365
  520TMC3    C8 7784   0.985   4.729  13.937  0.1970 -0.5605 -0.3027
  520TMC3    O1 7785   1.320   4.541  14.369 -0.0340  0.3775  0.7012
  520TMC3    O2 7786   1.075   0.028  13.865 -0.4721  0.4894  0.0807
  521MPD2     C 7787   2.045   2.828  17.624  0.2492 -0.5641 -0.0798
  521MPD2    C1 7788   2.009   2.797  17.497 -0.1617  0.0237 -0.3590
  521MPD2    C2 7789   2.085   2.844  17.391 -0.4428 -0.8921 -0.4560
  521MPD2    C3 7790   2.204   2.921  17.416 -0.0399 -0.6365 -0.5051
  521MPD2    C4 7791   2.238   2.957  17.547  0.5543  0.0279  0.3362
  521MPD2    C5 7792   2.149   2.917  17.645 -0.1917 -0.1427 -0.2007
  521MPD2     H 7793   2.051   2.831  17.289  1.8823 -1.2080 -1.1945
  521MPD2    H1 7794   2.329   3.010  17.572  0.5377  0.3980 -0.3927
  521MPD2    H2 7795   1.989   2.790  17.709  0.1583 -1.8464 -0.7154
  521MPD2    H3 7796   2.179   2.939  17.747 -0.3613 -2.0256  0.2629
  521MPD2     N 7797   2.271   2.971  17.302 -0.1868  0.6486  0.1947
  521MPD2    H5 7798   2.218   2.965  17.215 -0.9355  0.1505  0.6862
  521MPD2    N1 7799   1.888   2.717  17.484  0.6654 -0.9312  0.1455
  521MPD2    H7 7800   1.855   2.668  17.567 -0.0431  2.1840  1.7011
  522TMC3    C1 7801   2.466   3.013  17.175  0.3596  1.0656 -0.5604
  522TMC3    C2 7802   2.599   3.017  17.174 -0.5210  0.6557  0.8012
  522TMC3    C3 7803   2.653   2.968  17.060  0.5681 -0.2717  0.6239
  522TMC3    C4 7804   2.392   2.985  17.060  0.0593  0.9433  0.1322
  522TMC3    C5 7805   2.458   2.958  16.939 -0.3757  0.4662 -0.1783
  522TMC3    C6 7806   2.592   2.937  16.945 -0.3040  0.2308 -0.9254
  522TMC3     C 7807   2.405   3.006  17.305  0.3367 -0.2361 -0.1795
  522TMC3     O 7808   2.482   3.014  17.401  0.0770 -0.4624 -1.0284
  522TMC3     H 7809   2.652   3.038  17.266  2.6346  1.1821 -1.1247
  522TMC3    H1 7810   2.284   2.996  17.061 -0.0865 -0.3700 -0.9640
  522TMC3    H2 7811   2.643   2.894  16.859  0.4037 -1.5137  0.3609
  522TMC3    C7 7812   2.402   2.857  16.848  0.3308  0.3769 -0.2530
  522TMC3    C8 7813   2.777   2.890  17.088  0.5987 -0.5522 -0.1680
  522TMC3    O1 7814   2.470   2.759  16.833 -0.3502 -0.1143  0.3462
  522TMC3    O2 7815   2.833   2.916  17.193  0.1176 -0.1473 -0.6844
  523MPD2     C 7816   4.333   2.808  10.113 -0.4290  0.3691 -0.0524
  523MPD2    C1 7817   4.322   2.721  10.006 -0.5168 -0.0326 -0.3377
  523MPD2    C2 7818   4.247   2.757   9.899  0.1622 -0.3706  0.3236
  523MPD2    C3 7819   4.180   2.875   9.904 -0.3305  0.4925 -0.8391
  523MPD2    C4 7820   4.193   2.962  10.005  0.7177 -0.2489 -0.1972
  523MPD2    C5 7821   4.273   2.934  10.112  0.5399  0.0311 -0.2565
  523MPD2     H 7822   4.238   2.686   9.817 -1.0858  0.8128 -0.5618
  523MPD2    H1 7823   4.136   3.053   9.992 -1.4562 -1.2295  2.7502
  523MPD2    H2 7824   4.406   2.789  10.191 -0.1766  2.2658  0.1834
  523MPD2    H3 7825   4.279   3.007  10.193 -1.4458  1.1175 -1.0923
  523MPD2     N 7826   4.092   2.911   9.803  0.5871  0.6608  0.3617
  523MPD2    H5 7827   4.048   3.002   9.809 -0.1661  0.4083 -1.3088
  523MPD2    N1 7828   4.402   2.603  10.003  0.0416  0.5508  0.3683
  523MPD2    H7 7829   4.461   2.590  10.084  1.8730  0.6718 -0.9286
  524TMC3    C1 7830   3.969   2.918   9.610 -0.5625  0.0030  0.5530
  524TMC3    C2 7831   3.868   2.866   9.529 -0.3482 -0.1741 -0.2576
  524TMC3    C3 7832   3.772   2.957   9.483  0.6263 -0.5407  0.2073
  524TMC3    C4 7833   3.987   3.053   9.615  0.5775 -0.0872  0.3789
  524TMC3    C5 7834   3.889   3.139   9.563 -0.4015 -0.6862 -0.5155
  524TMC3    C6 7835   3.776   3.091   9.506 -0.0051  0.4609  0.7042
  524TMC3     C 7836   4.043   2.831   9.701  0.9427  0.0051 -0.0657
  524TMC3     O 7837   4.062   2.711   9.671  0.2296  0.1036 -0.6092
  524TMC3     H 7838   3.838   2.765   9.554  0.6507 -0.5400 -0.5496
  524TMC3    H1 7839   4.083   3.094   9.646  1.3356  0.0217 -2.1071
  524TMC3    H2 7840   3.699   3.157   9.468  0.9892  1.3744  0.2937
  524TMC3    C7 7841   3.895   3.277   9.624  0.4210  0.5275 -0.0452
  524TMC3    C8 7842   3.666   2.916   9.393  0.0020  0.4120 -0.5314
  524TMC3    O1 7843   3.984   3.301   9.705  0.4126  0.0286 -1.1065
  524TMC3    O2 7844   3.569   2.988   9.376  0.0023  0.1405  0.2025
  525MPD2     C 7845   2.275   4.621  14.689  0.8672 -0.8406  0.1215
  525MPD2    C1 7846   2.393   4.634  14.758  0.3327 -0.6443 -0.7599
  525MPD2    C2 7847   2.488   4.732  14.716  0.6309  0.3465  0.5574
  525MPD2    C3 7848   2.448   0.093  14.625 -0.0901 -0.3961 -0.0001
  525MPD2    C4 7849   2.331   0.078  14.554 -0.2977  0.0764 -0.4956
  525MPD2    C5 7850   2.249   4.713  14.590 -0.1736  0.3179  1.0186
  525MPD2     H 7851   2.579   4.733  14.775  0.0564  0.3632  1.4432
  525MPD2    H1 7852   2.287   0.137  14.474 -0.7762 -2.1081 -1.8290
  525MPD2    H2 7853   2.199   4.552  14.725  0.6761 -0.8473 -0.3011
  525MPD2    H3 7854   2.152   4.710  14.543  0.3378 -0.8316  0.0587
  525MPD2     N 7855   2.525   0.212  14.610 -0.3500  0.6083  0.0621
  525MPD2    H5 7856   2.592   0.223  14.685  1.1370  2.5767 -1.5358
  525MPD2    N1 7857   2.434   4.552  14.871 -0.2013  0.1808 -0.4819
  525MPD2    H7 7858   2.532   4.558  14.896  0.0992 -0.8731 -1.3570
  526TMC3    C1 7859   2.444   4.362  15.009  0.6727  0.1740 -0.3029
  526TMC3    C2 7860   2.383   4.307  15.121 -0.0317  0.6225 -0.2439
  526TMC3    C3 7861   2.462   4.253  15.218 -0.6922 -0.5628 -1.0381
  526TMC3    C4 7862   2.580   4.348  14.980 -0.7128  0.0599 -0.8090
  526TMC3    C5 7863   2.648   4.295  15.081 -0.0627 -0.4032  0.8007
  526TMC3    C6 7864   2.596   4.251  15.197  0.2441  0.2466 -0.0397
  526TMC3     C 7865   2.361   4.458  14.933 -0.2480  0.1340  0.3698
  526TMC3     O 7866   2.238   4.444  14.925 -0.5796 -0.7390  0.1185
  526TMC3     H 7867   2.279   4.325  15.147  0.2029  1.7191 -0.0366
  526TMC3    H1 7868   2.617   4.377  14.883  3.0904 -0.4015  0.5220
  526TMC3    H2 7869   2.667   4.214  15.270  0.6610  0.4484 -0.3400
  526TMC3    C7 7870   2.784   4.258  15.055 -0.2722 -0.6014 -0.0145
  526TMC3    C8 7871   2.417   4.233  15.357  0.9749  0.6784 -0.3954
  526TMC3    O1 7872   2.868   4.246  15.145  0.1520 -0.0247 -0.1282
  526TMC3    O2 7873   2.503   4.213  15.442  0.1849 -0.5941  0.2507
  527MPD2     C 7874   4.699   1.872   1.832 -0.4350 -0.1651 -0.4929
  527MPD2    C1 7875   4.737   2.007   1.834  0.4121 -0.4130 -0.3709
  527MPD2    C2 7876   0.125   2.049   1.812 -0.4348  0.1158 -1.1106
  527MPD2    C3 7877   0.232   1.965   1.796 -0.6167  0.1095  0.2000
  527MPD2    C4 7878   0.201   1.825   1.796 -0.3935 -0.6741 -0.0489
  527MPD2    C5 7879   0.069   1.787   1.816 -0.8487 -0.2360 -0.5201
  527MPD2     H 7880   0.144   2.156   1.804  0.0333  0.1418  0.2484
  527MPD2    H1 7881   0.273   1.743   1.796 -1.4751 -1.6264  0.9764
  527MPD2    H2 7882   4.600   1.832   1.852 -0.3885 -0.2322 -0.3992
  527MPD2    H3 7883   0.054   1.679   1.818  1.0775 -0.5097 -0.6505
  527MPD2     N 7884   0.358   2.021   1.762  0.0704  0.0462 -0.0529
  527MPD2    H5 7885   0.361   2.122   1.747  1.1897 -0.1200 -0.8984
  527MPD2    N1 7886   4.637   2.102   1.845  0.1005 -0.2560  0.4064
  527MPD2    H7 7887   4.678   2.195   1.840 -3.0466  1.1657  1.1967
  528TMC3    C1 7888   4.441   2.214   1.867  0.1667 -0.8459 -0.1840
  528TMC3    C2 7889   4.488   2.320   1.789 -0.6418 -0.6543 -0.4245
  528TMC3    C3 7890   4.440   2.448   1.808  0.5465 -1.1378  0.6270
  528TMC3    C4 7891   4.334   2.243   1.951  0.5033 -0.3817 -0.1734
  528TMC3    C5 7892   4.313   2.374   1.989  0.3251  1.0238  0.3106
  528TMC3    C6 7893   4.358   2.480   1.913  0.0166  0.3566  0.8053
  528TMC3     C 7894   4.507   2.085   1.865 -0.0638  0.2573  0.7569
  528TMC3     O 7895   4.441   1.987   1.891 -0.0654 -0.4804 -0.0490
  528TMC3     H 7896   4.559   2.302   1.710 -0.7159 -0.1057 -0.6187
  528TMC3    H1 7897   4.285   2.163   2.005 -0.2519  0.1501 -0.0601
  528TMC3    H2 7898   4.324   2.581   1.934 -1.3868  0.0986 -0.2145
  528TMC3    C7 7899   4.213   2.404   2.083  0.5583  0.1588  0.1191
  528TMC3    C8 7900   4.492   2.552   1.722 -0.0057  0.7338  0.0590
  528TMC3    O1 7901   4.130   2.314   2.094  0.1761 -0.4229  0.0050
  528TMC3    O2 7902   4.577   2.521   1.644  0.2552  0.9502  0.3365
  529MPD2     C 7903   3.700   1.177   0.666 -0.1061  0.2401 -0.1133
  529MPD2    C1 7904   3.715   1.045   0.645 -0.6932 -0.5815 -0.7677
  529MPD2    C2 7905   3.696   0.990   0.519  0.0046  0.5242  0.0481
  529MPD2    C3 7906   3.638   1.070   0.422 -0.2334 -0.0529  0.1144
  529MPD2    C4 7907   3.618   1.207   0.447  0.1856 -0.1570  0.0755
  529MPD2    C5 7908   3.647   1.261   0.569 -0.6089  0.1257  0.0058
  529MPD2     H 7909   3.714   0.884   0.502  0.8314  0.3839  1.8001
  529MPD2    H1 7910   3.582   1.272   0.368 -0.4184 -0.7414 -0.1301
  529MPD2    H2 7911   3.706   1.214   0.768  3.4895  0.7777 -0.5056
  529MPD2    H3 7912   3.636   1.367   0.591  1.4005  0.0448  1.3689
  529MPD2     N 7913   3.590   1.013   0.303 -0.5144  0.0940  0.0165
  529MPD2    H5 7914   3.557   1.070   0.226 -1.2304 -1.4200 -0.7883
  529MPD2    N1 7915   3.747   0.954   0.746  0.2780  0.4335 -0.1177
  529MPD2    H7 7916   3.769   0.858   0.720 -1.7196  0.7919 -3.0871
  530TMC3    C1 7917   3.786   0.861   0.962 -0.5059  0.3309  0.6757
  530TMC3    C2 7918   3.839   0.879   1.083  0.3811  0.2508 -1.2546
  530TMC3    C3 7919   3.879   0.766   1.148  0.5659 -1.0038 -0.2462
  530TMC3    C4 7920   3.740   0.735   0.922 -0.5818 -0.7673  0.2064
  530TMC3    C5 7921   3.767   0.626   1.007  0.5466 -0.3097  0.0894
  530TMC3    C6 7922   3.856   0.638   1.105  1.0982 -0.1317  0.7522
  530TMC3     C 7923   3.774   0.980   0.876  0.0577  0.2616 -0.5567
  530TMC3     O 7924   3.804   1.084   0.936 -0.3677 -0.4393  0.2604
  530TMC3     H 7925   3.857   0.974   1.130  0.7578 -0.1215 -0.6518
  530TMC3    H1 7926   3.679   0.733   0.832  0.8590  3.6336 -0.9150
  530TMC3    H2 7927   3.868   0.548   1.164 -0.0251  0.0822  1.3286
  530TMC3    C7 7928   3.712   0.493   0.980  0.5785 -0.3788 -0.2296
  530TMC3    C8 7929   3.947   0.787   1.275 -0.2321  0.4754  0.2382
  530TMC3    O1 7930   3.773   0.397   1.030  0.6574  0.1322  0.0834
  530TMC3    O2 7931   3.911   0.884   1.343  0.7615 -0.6930  0.5887
  531MPD2     C 7932   1.595   3.030  13.551  0.0545  0.4053  0.9077
  531MPD2    C1 7933   1.622   3.163  13.561  0.2123  0.1209 -0.3230
  531MPD2    C2 7934   1.531   3.251  13.510  0.6406 -0.4560 -0.1211
  531MPD2    C3 7935   1.409   3.212  13.475 -0.2465  0.1838 -0.6531
  531MPD2    C4 7936   1.380   3.081  13.460  0.3302  0.0185  0.2858
  531MPD2    C5 7937   1.478   2.992  13.498 -0.0132 -0.7456 -0.1877
  531MPD2     H 7938   1.549   3.358  13.520  0.8676 -0.3808 -1.3536
  531MPD2    H1 7939   1.285   3.051  13.418  0.5456 -0.1189 -0.1062
  531MPD2    H2 7940   1.667   2.952  13.572 -1.4864 -0.8426  1.5927
  531MPD2    H3 7941   1.455   2.886  13.497  0.9890 -0.9524 -0.5500
  531MPD2     N 7942   1.329   3.317  13.426  0.1116  0.3471  0.3442
  531MPD2    H5 7943   1.362   3.413  13.435  1.6820 -0.2051  0.4068
  531MPD2    N1 7944   1.748   3.206  13.614 -0.5981  0.0620  0.2244
  531MPD2    H7 7945   1.813   3.136  13.650 -2.5273 -1.8845 -0.0333
  532TMC3    C1 7946   1.930   3.351  13.645  0.2566 -0.2560  0.4049
  532TMC3    C2 7947   1.977   3.479  13.629 -0.4871 -0.1140 -0.6405
  532TMC3    C3 7948   2.013   3.555  13.734 -0.3827  0.3311 -0.4255
  532TMC3    C4 7949   1.956   3.295  13.769 -0.1637  0.0555  0.6812
  532TMC3    C5 7950   2.020   3.367  13.868  0.6464 -0.5132 -0.1179
  532TMC3    C6 7951   2.050   3.498  13.853 -0.3812  0.0860  0.4300
  532TMC3     C 7952   1.798   3.332  13.587 -0.0320 -0.5466 -0.3342
  532TMC3     O 7953   1.750   3.436  13.542 -0.0896  0.0128 -0.5010
  532TMC3     H 7954   1.965   3.518  13.528  1.3593  1.8958 -0.0747
  532TMC3    H1 7955   1.930   3.191  13.783  0.6574 -0.3359 -0.7367
  532TMC3    H2 7956   2.086   3.560  13.935  2.2065  0.2895 -0.8627
  532TMC3    C7 7957   2.090   3.299  13.974  0.6953  0.2916 -0.6244
  532TMC3    C8 7958   1.954   3.688  13.750  0.2120  0.4106 -0.8822
  532TMC3    O1 7959   2.146   3.367  14.060  0.2351  0.0483 -0.3459
  532TMC3    O2 7960   1.997   3.777  13.823 -0.3604 -0.6030  0.0434
  533TMC3    C1 7961   2.555   0.437  14.564 -0.0705  0.4318  0.2665
  533TMC3    C2 7962   2.678   0.474  14.522  0.8146 -0.1889 -0.1890
  533TMC3    C3 7963   2.746   0.549  14.612  0.5034 -0.0276 -0.0465
  533TMC3    C4 7964   2.506   0.463  14.687  0.4829  0.1499  0.2430
  533TMC3    C5 7965   2.590   0.515  14.783  0.3012 -0.5726 -0.9479
  533TMC3    C6 7966   2.710   0.567  14.745  0.1513  0.4161 -0.6629
  533TMC3     C 7967   2.504   0.307  14.517 -0.8763 -0.1395  0.2483
  533TMC3     O 7968   2.444   0.302  14.414 -0.6385  0.1785 -0.6115
  533TMC3     H 7969   2.701   0.472  14.416  0.3147  1.4413 -0.3321
  533TMC3    H1 7970   2.411   0.413  14.699 -0.3444  1.0377 -2.4686
  533TMC3    H2 7971   2.774   0.627  14.809  1.9453 -2.9598  0.6667
  533TMC3    C7 7972   2.552   0.488  14.920  0.0543 -0.7691  0.0231
  533TMC3    C8 7973   2.866   0.612  14.562  0.4208  0.3238 -0.0644
  533TMC3    O1 7974   2.454   0.418  14.945 -0.3116  0.5786 -0.0858
  533TMC3    O2 7975   2.924   0.561  14.470 -0.2785 -0.1064  0.4900
  534MPD2     C 7976   0.986   0.554   1.351  0.2817 -0.3483  0.1159
  534MPD2    C1 7977   0.915   0.662   1.390 -0.7551 -0.2047 -0.2277
  534MPD2    C2 7978   0.781   0.648   1.420  0.1584 -0.0228 -0.3571
  534MPD2    C3 7979   0.721   0.520   1.416 -0.4853  0.1863 -0.3931
  534MPD2    C4 7980   0.796   0.413   1.381 -0.5466  0.1193  0.0044
  534MPD2    C5 7981   0.931   0.433   1.350  0.6451 -0.3085  0.3555
  534MPD2     H 7982   0.724   0.732   1.459  1.6813 -0.3576  2.5829
  534MPD2    H1 7983   0.752   0.314   1.383 -1.0399  0.3266 -0.5528
  534MPD2    H2 7984   1.089   0.559   1.317  1.1109 -0.6547  2.6092
  534MPD2    H3 7985   0.999   0.351   1.328  1.0116  0.5311 -1.6266
  534MPD2     N 7986   0.583   0.512   1.449 -0.0859  0.0903  0.2137
  534MPD2    H5 7987   0.537   0.599   1.471  0.5681  1.1890 -2.7177
  534MPD2    N1 7988   0.965   0.789   1.397 -0.1180 -0.2383 -0.5783
  534MPD2    H7 7989   0.897   0.864   1.404  0.3934  0.2397 -0.7480
  535TMC3    C1 7990   0.374   0.419   1.496  0.4803  0.1193  0.1555
  535TMC3    C2 7991   0.284   0.318   1.478  0.1637  0.1604  0.3001
  535TMC3    C3 7992   0.152   0.336   1.503  0.3407 -0.8424  0.2185
  535TMC3    C4 7993   0.338   0.541   1.549 -0.5270  0.5341  0.6115
  535TMC3    C5 7994   0.208   0.559   1.571 -0.3231 -0.0176 -0.9529
  535TMC3    C6 7995   0.113   0.461   1.548  0.6250 -0.0306  0.7049
  535TMC3     C 7996   0.510   0.394   1.462  0.0259  0.5091  0.6183
  535TMC3     O 7997   0.544   0.278   1.445 -0.0801 -0.0482 -0.4827
  535TMC3     H 7998   0.325   0.232   1.426  2.9611  1.9684 -0.4880
  535TMC3    H1 7999   0.409   0.620   1.571 -2.2538  1.9362  1.1380
  535TMC3    H2 8000   0.010   0.485   1.574 -0.2353 -0.8432 -1.9500
  535TMC3    C7 8001   0.169   0.688   1.510  0.0414 -0.1199  0.2361
  535TMC3    C8 8002   0.054   0.285   1.411  0.3729 -0.0127  0.5993
  535TMC3    O1 8003   0.162   0.794   1.570 -0.2997 -0.0048 -0.0777
  535TMC3    O2 8004   4.688   0.353   1.404 -0.6660  0.5935 -0.0599
  536MPD2     C 8005   3.292   4.336  17.035 -0.0615  0.4273  0.7297
  536MPD2    C1 8006   3.428   4.322  16.995 -0.7322 -0.8620 -0.1935
  536MPD2    C2 8007   3.451   4.289  16.860 -0.2551  0.2516 -0.2782
  536MPD2    C3 8008   3.344   4.257  16.772 -1.0295  0.6398 -0.1370
  536MPD2    C4 8009   3.220   4.262  16.818 -0.7081 -0.4429 -0.4245
  536MPD2    C5 8010   3.193   4.302  16.949  0.2650 -0.3472 -0.0477
  536MPD2     H 8011   3.555   4.282  16.832  0.0242 -0.5919  0.9571
  536MPD2    H1 8012   3.135   4.223  16.761 -2.1998  1.4446  0.5135
  536MPD2    H2 8013   3.265   4.359  17.138 -1.6411  0.4121  0.3224
  536MPD2    H3 8014   3.087   4.297  16.972  0.2612 -2.5056 -0.5368
  536MPD2     N 8015   3.361   4.215  16.637  0.7513 -0.0526  0.5621
  536MPD2    H5 8016   3.272   4.205  16.590 -0.2719  2.1107  2.0228
  536MPD2    N1 8017   3.525   4.362  17.093  0.0983  0.0798 -0.3119
  536MPD2    H7 8018   3.501   4.370  17.191  0.0338 -2.2669 -0.1220
  537TMC3    C1 8019   3.738   4.384  17.188 -0.1055 -0.2123  0.5336
  537TMC3    C2 8020   3.858   4.451  17.195 -0.0035  0.3853  0.3907
  537TMC3    C3 8021   3.934   4.418  17.297  0.5000 -0.1701  0.3699
  537TMC3    C4 8022   3.704   4.285  17.282  0.3004 -0.6039 -0.0274
  537TMC3    C5 8023   3.779   4.268  17.398  0.0413  0.5394 -0.1385
  537TMC3    C6 8024   3.902   4.329  17.404 -0.4020 -0.1102  0.0316
  537TMC3     C 8025   3.654   4.391  17.067 -0.5808 -0.0104 -0.3241
  537TMC3     O 8026   3.701   4.428  16.958  0.0044 -0.1107  0.1196
  537TMC3     H 8027   3.878   4.521  17.114  2.0627 -0.3930  0.2383
  537TMC3    H1 8028   3.614   4.227  17.267 -0.8822  1.1036  0.4591
  537TMC3    H2 8029   3.967   4.312  17.489 -0.0751  2.4618  0.2924
  537TMC3    C7 8030   3.754   4.144  17.466 -0.1003  0.3464 -0.8815
  537TMC3    C8 8031   4.076   4.452  17.311  0.0826 -0.0249  0.0413
  537TMC3    O1 8032   3.851   4.079  17.507  0.3062 -0.6070  0.2312
  537TMC3    O2 8033   4.115   4.472  17.426  0.1285 -0.0540  0.3385
  538TMC3    C1 8034   0.426   2.485  11.216 -0.5439 -0.5252  0.6067
  538TMC3    C2 8035   0.474   2.372  11.164 -0.1090 -0.5792 -0.7313
  538TMC3    C3 8036   0.389   2.302  11.085  0.4173  0.0591  0.7885
  538TMC3    C4 8037   0.307   2.539  11.182  0.1118  0.2100  0.3067
  538TMC3    C5 8038   0.227   2.472  11.097 -0.6999 -0.4015 -0.3923
  538TMC3    C6 8039   0.268   2.351  11.044  0.5519 -0.7003 -0.5272
  538TMC3     C 8040   0.500   2.579  11.314  0.0610  0.2049  0.1204
  538TMC3     O 8041   0.436   2.671  11.355 -0.1855 -0.1846  0.1893
  538TMC3     H 8042   0.564   2.324  11.199 -0.5094 -2.5444 -2.3751
  538TMC3    H1 8043   0.264   2.632  11.218 -0.8532 -0.5258  1.0582
  538TMC3    H2 8044   0.212   2.299  10.966 -1.1374  0.1548  0.1212
  538TMC3    C7 8045   0.102   2.528  11.055 -0.0509  0.0259 -0.0915
  538TMC3    C8 8046   0.467   2.247  10.977  0.2705  0.0518 -0.2533
  538TMC3    O1 8047   0.035   2.604  11.128 -0.8647 -0.3870  0.5278
  538TMC3    O2 8048   0.410   2.180  10.892 -0.8211  0.1141 -0.4346
  539MPD2     C 8049   0.481   2.141  11.504  0.2022 -0.1280 -0.4350
  539MPD2    C1 8050   0.390   2.055  11.434  0.0987 -0.5460  0.0326
  539MPD2    C2 8051   0.269   2.104  11.402 -0.0135 -0.0291  0.0250
  539MPD2    C3 8052   0.237   2.236  11.419 -0.2708  0.4190  0.3111
  539MPD2    C4 8053   0.322   2.323  11.485  0.0733  0.1287 -0.0823
  539MPD2    C5 8054   0.447   2.273  11.519 -0.9265  0.1026 -0.4092
  539MPD2     H 8055   0.193   2.041  11.357  0.5589 -1.5196  1.1642
  539MPD2    H1 8056   0.302   2.424  11.520  0.4440  1.1363 -2.8059
  539MPD2    H2 8057   0.577   2.110  11.542 -0.3811 -0.2267  0.9440
  539MPD2    H3 8058   0.519   2.342  11.561  0.2040 -2.8445  2.5000
  539MPD2     N 8059   0.112   2.296  11.384  0.2608 -0.6492  0.0953
  539MPD2    H5 8060   0.087   2.378  11.437 -0.5499 -0.9511  0.1758
  539MPD2    N1 8061   0.421   1.917  11.401  0.1352 -0.1579  0.0062
  539MPD2    H7 8062   0.348   1.856  11.366 -0.4881 -0.6127  2.1122
  540TMC3    C1 8063   4.626   2.312  11.303 -0.0209 -0.0889 -0.1429
  540TMC3    C2 8064   4.561   2.320  11.184 -0.3822 -0.1191  0.1431
  540TMC3    C3 8065   4.450   2.400  11.184 -0.0303  0.1872  0.2923
  540TMC3    C4 8066   4.589   2.381  11.415 -0.2643  0.6007 -0.6267
  540TMC3    C5 8067   4.477   2.461  11.406  0.0556  0.9521 -0.5174
  540TMC3    C6 8068   4.419   2.482  11.289  0.5115  0.2718 -0.6464
  540TMC3     C 8069   0.017   2.243  11.299 -0.0504  0.9419 -0.1564
  540TMC3     O 8070   0.031   2.168  11.204 -0.2125 -1.1081  0.2409
  540TMC3     H 8071   4.587   2.259  11.098  2.9381  0.0468  1.0293
  540TMC3    H1 8072   4.640   2.373  11.511  0.0630  2.6928 -0.6288
  540TMC3    H2 8073   4.341   2.556  11.286 -1.1950 -1.5500 -1.6188
  540TMC3    C7 8074   4.409   2.489  11.528  0.7586 -0.5831  1.1285
  540TMC3    C8 8075   4.349   2.403  11.078  0.2990 -0.6046  0.0248
  540TMC3    O1 8076   4.424   2.413  11.624  0.0966 -0.0958  0.0988
  540TMC3    O2 8077   4.287   2.507  11.077 -0.5404  0.2307 -0.1917
  541MPD2     C 8078   2.589   3.260  13.692  0.0512 -0.1439 -0.0552
  541MPD2    C1 8079   2.631   3.191  13.581  0.2151  0.3473  0.4035
  541MPD2    C2 8080   2.673   3.259  13.466 -0.3025 -0.5841  0.7414
  541MPD2    C3 8081   2.678   3.400  13.462 -0.7012  0.5181 -0.2185
  541MPD2    C4 8082   2.644   3.465  13.572 -0.0211  0.2625 -0.0954
  541MPD2    C5 8083   2.600   3.400  13.684 -0.4119 -0.2555  0.7211
  541MPD2     H 8084   2.706   3.195  13.385  0.4595 -0.7460  1.1790
  541MPD2    H1 8085   2.641   3.574  13.573  0.6043  0.2691  1.0066
  541MPD2    H2 8086   2.541   3.210  13.776  0.5880  0.7799  0.8075
  541MPD2    H3 8087   2.562   3.462  13.764 -0.0916  0.4573  0.3174
  541MPD2     N 8088   2.720   3.470  13.351 -0.0587 -0.3633  0.2371
  541MPD2    H5 8089   2.721   3.571  13.361 -1.3839 -0.4306  1.0376
  541MPD2    N1 8090   2.630   3.049  13.573  0.8824  0.6642  0.2137
  541MPD2    H7 8091   2.679   3.013  13.492 -1.4549  0.1902 -0.9895
  542TMC3    C1 8092   2.820   3.508  13.138 -0.2893  1.7748 -0.0004
  542TMC3    C2 8093   2.927   3.473  13.062 -0.2909 -0.3176  0.2463
  542TMC3    C3 8094   2.941   3.534  12.941 -0.0797  0.4356 -0.3121
  542TMC3    C4 8095   2.728   3.611  13.110  0.0186 -0.2985 -0.3561
  542TMC3    C5 8096   2.761   3.676  12.998 -0.2977  1.2390  0.5742
  542TMC3    C6 8097   2.858   3.638  12.905 -0.2911  0.6883 -0.2607
  542TMC3     C 8098   2.793   3.419  13.248 -0.0180 -0.3467 -0.3764
  542TMC3     O 8099   2.833   3.306  13.221 -0.0549  0.3522 -0.2292
  542TMC3     H 8100   2.984   3.384  13.088 -1.9342 -1.1522  0.9831
  542TMC3    H1 8101   2.667   3.654  13.190 -0.6884 -0.8244 -0.6133
  542TMC3    H2 8102   2.870   3.692  12.811  3.2086 -1.7352 -1.2058
  542TMC3    C7 8103   2.667   3.765  12.951 -0.3527  0.1412  0.4758
  542TMC3    C8 8104   2.980   3.454  12.823  0.5073 -0.0916 -0.1077
  542TMC3    O1 8105   2.697   3.862  12.880 -0.1978 -0.4823 -1.0872
  542TMC3    O2 8106   2.920   3.470  12.720  0.1179  0.2109  0.4130
  543TMC3    C1 8107   2.651   0.227  17.506  0.6111 -0.0144  0.3761
  543TMC3    C2 8108   2.695   0.136  17.601 -0.4546 -0.2814 -0.3302
  543TMC3    C3 8109   2.606   0.078  17.678  0.0228  0.3492  0.6237
  543TMC3    C4 8110   2.522   0.271  17.503  0.0843 -0.0650 -0.3613
  543TMC3    C5 8111   2.441   0.224  17.599  0.7376 -0.0711 -0.1129
  543TMC3    C6 8112   2.476   0.114  17.678 -0.0564 -0.1744 -1.0738
  543TMC3     C 8113   2.720   0.218  17.380  0.1440  0.2660 -0.5724
  543TMC3     O 8114   2.808   0.130  17.372 -0.2473  0.6717 -0.0198
  543TMC3     H 8115   2.798   0.103  17.609  0.0655  1.5539  0.6475
  543TMC3    H1 8116   2.482   0.325  17.418  0.3616  1.1872  0.2990
  543TMC3    H2 8117   2.395   0.064  17.728  1.6871 -0.1368  1.8025
  543TMC3    C7 8118   2.313   0.285  17.618 -0.4383 -0.6418 -0.5928
  543TMC3    C8 8119   2.627   4.674  17.672 -0.1403  1.0176 -0.2140
  543TMC3    O1 8120   2.223   0.211  17.660 -0.2109 -0.2598  0.2548
  543TMC3    O2 8121   2.691   4.630  17.578  0.2481  0.4955  0.2518
  544MPD2     C 8122   2.598   4.200   0.123 -0.2288 -0.0926  0.3243
  544MPD2    C1 8123   2.669   4.243   0.019  0.1385 -0.1467 -0.5822
  544MPD2    C2 8124   2.665   4.381  17.728  0.4461 -0.3776  0.0067
  544MPD2    C3 8125   2.579   4.465   0.049  0.3892  0.4084 -0.1196
  544MPD2    C4 8126   2.492   4.419   0.142 -0.4715  0.5508 -0.3892
  544MPD2    C5 8127   2.507   4.287   0.182 -0.5199 -0.3356  0.0010
  544MPD2     H 8128   2.734   4.424  17.657 -1.5216  0.9052 -1.1379
  544MPD2    H1 8129   2.436   4.497   0.193 -0.0360  0.8487 -0.3693
  544MPD2    H2 8130   2.608   4.106   0.176  1.3019 -0.3266 -0.3673
  544MPD2    H3 8131   2.444   4.256   0.265  0.2895  0.3426  0.8646
  544MPD2     N 8132   2.560   4.600   0.021  0.2616  0.3134 -0.0061
  544MPD2    H5 8133   2.500   4.657   0.079 -0.0287  0.7485 -0.7348
  544MPD2    N1 8134   2.755   4.156  17.705  0.1820 -0.0123  0.6869
  544MPD2    H7 8135   2.755   4.064   0.000  0.3227 -0.5569 -0.5021
  545TMC3    C1 8136   2.909   4.071  17.558  0.6436  0.2781 -0.5970
  545TMC3    C2 8137   3.024   4.093  17.489 -0.5514  0.8580  0.5554
  545TMC3    C3 8138   3.103   3.984  17.446  0.3143 -0.4932  0.4671
  545TMC3    C4 8139   2.877   3.946  17.602  0.5330 -0.0346 -0.6972
  545TMC3    C5 8140   2.946   3.846  17.545 -0.0652 -0.0431 -0.1622
  545TMC3    C6 8141   3.057   3.859  17.467 -0.4100  1.1161  0.0449
  545TMC3     C 8142   2.838   4.189  17.601  0.5500  0.5297 -0.2603
  545TMC3     O 8143   2.854   4.290  17.537  0.1990  0.5341 -0.6105
  545TMC3     H 8144   3.057   4.194  17.465  1.1510 -0.4165 -2.5446
  545TMC3    H1 8145   2.784   3.925  17.653  1.2319  0.5363  0.7909
  545TMC3    H2 8146   3.106   3.768  17.435 -0.9438  0.4685  1.0704
  545TMC3    C7 8147   2.968   3.722  17.631 -0.3122  0.3632 -0.2138
  545TMC3    C8 8148   3.209   4.014  17.354 -0.1343  0.2997  0.1993
  545TMC3    O1 8149   3.073   3.661  17.632 -0.9116 -0.7328  0.3964
  545TMC3    O2 8150   3.220   4.125  17.306 -0.3708  0.2407 -0.5017
  546MPD2     C 8151   4.435   4.727  17.485 -0.5643 -0.7741 -0.2191
  546MPD2    C1 8152   4.325   0.053  17.530  0.5476  0.0401  0.3378
  546MPD2    C2 8153   4.324   0.189  17.511  0.1488 -0.2110 -0.0444
  546MPD2    C3 8154   4.427   0.263  17.456  0.1209 -0.5521 -0.1354
  546MPD2    C4 8155   4.532   0.190  17.405 -0.5741  0.2100  0.2099
  546MPD2    C5 8156   4.539   0.054  17.422 -0.3531  0.1102 -0.1134
  546MPD2     H 8157   4.234   0.242  17.541 -0.2387 -1.1821  0.5161
  546MPD2    H1 8158   4.613   0.243  17.356  0.2860 -2.7197 -1.5527
  546MPD2    H2 8159   4.433   4.621  17.507 -2.3763 -0.2480  2.1214
  546MPD2    H3 8160   4.625   0.000  17.382  0.2393  2.2682 -1.7190
  546MPD2     N 8161   4.418   0.403  17.431 -0.0872  0.2057 -0.1314
  546MPD2    H5 8162   4.487   0.448  17.371  0.7042  0.1062  0.7041
  546MPD2    N1 8163   4.223   4.716  17.589  0.3046  0.5817  0.3362
  546MPD2    H7 8164   4.205   4.621  17.559  3.2959  0.4144 -0.9045
  547TMC3    C1 8165   4.003   4.706  17.635 -0.1643 -0.2636  0.0876
  547TMC3    C2 8166   3.936   0.007  17.522 -0.7249 -0.1312  0.2696
  547TMC3    C3 8167   3.813   4.686  17.500 -1.0024 -0.3203 -0.2092
  547TMC3    C4 8168   3.960   4.598  17.712  0.5773 -0.0792 -0.2092
  547TMC3    C5 8169   3.838   4.536  17.677 -0.0144 -0.4500  0.3658
  547TMC3    C6 8170   3.768   4.585  17.573 -0.1190 -0.2018  0.1587
  547TMC3     C 8171   4.126   0.036  17.665 -0.3931  0.2220 -0.0870
  547TMC3     O 8172   4.116   0.139  17.728 -0.0544 -0.6411 -0.2888
  547TMC3     H 8173   3.972   0.097  17.472 -0.6521  0.1483  0.8251
  547TMC3    H1 8174   4.023   4.563   0.046  0.6336  2.3793  0.8121
  547TMC3    H2 8175   3.680   4.532  17.538  1.1869 -1.1028 -1.7713
  547TMC3    C7 8176   3.806   4.406  17.735  0.0259 -0.3967  0.6039
  547TMC3    C8 8177   3.753   4.716  17.365  0.5082 -0.5492  0.0524
  547TMC3    O1 8178   3.685   4.385  17.738  0.4302  0.3064  0.6066
  547TMC3    O2 8179   3.633   4.697  17.360 -0.3418 -0.1397 -0.0993
  548MPD2     C 8180   3.558   0.411  13.178 -0.2301  0.0045 -0.5529
  548MPD2    C1 8181   3.491   0.312  13.114  0.4622  0.9649 -0.5879
  548MPD2    C2 8182   3.561   0.224  13.036 -0.4760  0.1482 -0.4264
  548MPD2    C3 8183   3.698   0.245  13.008 -0.3244  0.0387  0.1317
  548MPD2    C4 8184   3.763   0.353  13.067 -0.4655 -0.6203 -0.0003
  548MPD2    C5 8185   3.696   0.425  13.167  0.0900 -0.9722  0.7014
  548MPD2     H 8186   3.512   0.138  12.994 -0.2264 -1.2491  2.1041
  548MPD2    H1 8187   3.866   0.382  13.049 -1.2174  0.7093 -2.2354
  548MPD2    H2 8188   3.509   0.476  13.249  0.2524 -0.8560  0.5765
  548MPD2    H3 8189   3.754   0.499  13.221 -1.3606  0.4262  0.3326
  548MPD2     N 8190   3.759   0.169  12.909 -0.1472 -0.1856  0.2071
  548MPD2    H5 8191   3.694   0.106  12.862 -1.3126  2.5140 -1.7643
  548MPD2    N1 8192   3.347   0.308  13.118 -0.5879 -0.4172  0.3839
  548MPD2    H7 8193   3.305   0.388  13.164  0.3189  1.5525 -2.2322
  549TMC3    C1 8194   3.115   0.228  13.085  0.2610 -0.4089 -0.9707
  549TMC3    C2 8195   3.065   0.356  13.080  0.1530 -0.2729 -0.2854
  549TMC3    C3 8196   2.929   0.372  13.053  0.3419 -0.4953 -0.0114
  549TMC3    C4 8197   3.034   0.117  13.064 -0.2610 -0.0472  0.4687
  549TMC3    C5 8198   2.899   0.139  13.043  1.0628  0.3712 -0.9055
  549TMC3    C6 8199   2.848   0.264  13.033  0.1779 -1.0332 -0.2883
  549TMC3     C 8200   3.260   0.199  13.092  0.5626  0.0781  0.0615
  549TMC3     O 8201   3.291   0.080  13.070  0.7629  0.2979  0.6108
  549TMC3     H 8202   3.132   0.439  13.100 -1.8201  1.3037 -0.2386
  549TMC3    H1 8203   3.073   0.019  13.088 -1.2754  0.5061  4.3201
  549TMC3    H2 8204   2.740   0.273  13.034  0.0224 -2.6746 -1.4990
  549TMC3    C7 8205   2.804   0.034  13.025  1.1809 -0.2056  0.1285
  549TMC3    C8 8206   2.875   0.483  12.981  0.2701  0.7567 -0.0746
  549TMC3    O1 8207   2.690   0.069  13.000 -0.2194  0.1256 -0.5060
  549TMC3    O2 8208   2.770   0.465  12.922 -0.6704  0.0577 -0.4812
  550TMC3    C1 8209   2.208   3.117  12.583  0.2332  0.4268 -0.6348
  550TMC3    C2 8210   2.230   3.107  12.718 -0.0523  0.5442 -0.6643
  550TMC3    C3 8211   2.301   3.208  12.790 -0.0342 -0.1077 -0.0219
  550TMC3    C4 8212   2.266   3.212  12.508 -0.1828 -0.4828 -0.5721
  550TMC3    C5 8213   2.339   3.303  12.577 -0.7610 -0.3282 -0.0431
  550TMC3    C6 8214   2.360   3.302  12.712 -0.2168  0.0143  0.2076
  550TMC3     C 8215   2.093   3.054  12.531  0.1385  0.6382 -0.3217
  550TMC3     O 8216   2.008   3.025  12.620 -0.4379 -0.2418  0.0731
  550TMC3     H 8217   2.185   3.023  12.769 -1.3501  2.2153  0.9211
  550TMC3    H1 8218   2.251   3.233  12.403 -0.5987  2.7783  0.1578
  550TMC3    H2 8219   2.408   3.389  12.754 -0.8778 -0.0946  1.1908
  550TMC3    C7 8220   2.328   3.431  12.527  1.0621  0.0150 -0.3041
  550TMC3    C8 8221   2.237   3.263  12.902 -0.4096 -0.4153  0.2054
  550TMC3    O1 8222   2.221   3.452  12.470  0.0830 -0.0026  0.1697
  550TMC3    O2 8223   2.257   3.382  12.912  0.0954  0.2313 -0.7364
  551TMC3    C1 8224   4.588   1.169  13.719  0.0109  0.2614 -0.4652
  551TMC3    C2 8225   4.682   1.199  13.621 -0.2581  0.4342 -0.2280
  551TMC3    C3 8226   0.063   1.251  13.665  0.3509  0.6555 -0.0665
  551TMC3    C4 8227   4.610   1.186  13.857  0.6052  0.1908  0.1026
  551TMC3    C5 8228   0.003   1.219  13.890  0.1651 -0.1514  0.3212
  551TMC3    C6 8229   0.096   1.265  13.801 -0.3220  0.4559  0.4865
  551TMC3     C 8230   4.485   1.078  13.663 -0.4185 -1.1460 -0.1074
  551TMC3     O 8231   4.500   1.031  13.553 -0.9300  0.8590 -0.5304
  551TMC3     H 8232   4.669   1.163  13.520  0.5077  1.1887 -0.6025
  551TMC3    H1 8233   4.541   1.160  13.936 -0.9135  1.0872 -0.9501
  551TMC3    H2 8234   0.189   1.298  13.847 -0.1003  3.0071 -1.7940
  551TMC3    C7 8235   0.025   1.273  14.023 -0.1220  0.1670 -0.1879
  551TMC3    C8 8236   0.174   1.272  13.576  0.3022 -0.5499 -0.1899
  551TMC3    O1 8237   0.118   1.230  14.092  0.6192  0.0418 -0.5057
  551TMC3    O2 8238   0.293   1.260  13.609  0.3018 -0.5146  0.1613
  552MPD2     C 8239   2.077   3.265  14.343 -0.2199 -0.0873 -0.3003
  552MPD2    C1 8240   2.063   3.124  14.353 -0.2728 -0.7578  0.8977
  552MPD2    C2 8241   2.157   3.051  14.418  0.1647 -1.0443  0.3108
  552MPD2    C3 8242   2.274   3.106  14.475 -0.1898  0.0298  0.1633
  552MPD2    C4 8243   2.296   3.238  14.445  0.2283  0.2666  0.6391
  552MPD2    C5 8244   2.201   3.318  14.383 -0.3902 -0.4997 -0.2847
  552MPD2     H 8245   2.137   2.947  14.437 -1.5681 -1.0938 -1.7689
  552MPD2    H1 8246   2.393   3.281  14.467  1.6666 -0.7353 -3.8293
  552MPD2    H2 8247   2.006   3.336  14.303 -1.4225 -0.7112  0.7248
  552MPD2    H3 8248   2.227   3.423  14.376  0.6361 -0.6330  1.3258
  552MPD2     N 8249   2.361   3.045  14.566  0.0864 -0.5001 -0.7388
  552MPD2    H5 8250   2.427   3.110  14.607 -0.7217 -0.2852  0.2296
  552MPD2    N1 8251   1.947   3.054  14.303  0.3803 -0.4598  0.2682
  552MPD2    H7 8252   1.927   2.961  14.339 -3.6055 -1.2728 -3.9158
  553TMC3    C1 8253   1.753   3.036  14.169 -0.3006  0.1084 -0.7965
  553TMC3    C2 8254   1.685   3.071  14.063 -0.0488  0.4817  0.6392
  553TMC3    C3 8255   1.577   2.993  14.023 -0.4160  0.1615 -0.4616
  553TMC3    C4 8256   1.707   2.940  14.255  0.6511 -0.2125 -0.6967
  553TMC3    C5 8257   1.594   2.874  14.220 -0.0355 -0.1390 -0.3237
  553TMC3    C6 8258   1.521   2.903  14.107 -0.0214  0.3956  0.9086
  553TMC3     C 8259   1.867   3.116  14.209 -0.8002 -0.1051  0.3344
  553TMC3     O 8260   1.865   3.226  14.154 -0.0282 -0.1268 -0.2144
  553TMC3     H 8261   1.722   3.145  13.993  1.1085  0.9922  1.7990
  553TMC3    H1 8262   1.758   2.924  14.350 -1.8578 -0.6866  0.5646
  553TMC3    H2 8263   1.444   2.834  14.074  3.8063 -3.4302 -0.0579
  553TMC3    C7 8264   1.572   2.748  14.284 -0.4326 -0.1515 -0.6485
  553TMC3    C8 8265   1.610   2.928  13.901 -0.0114 -0.3871  0.6352
  553TMC3    O1 8266   1.459   2.703  14.281 -0.2697 -0.3322  0.0723
  553TMC3    O2 8267   1.718   2.962  13.859 -0.0763 -0.1583 -0.0157
  554TMC3    C1 8268   4.136   1.739  11.406  0.0720 -1.0688 -0.2305
  554TMC3    C2 8269   4.019   1.690  11.375  0.6381 -0.8498  0.0714
  554TMC3    C3 8270   3.913   1.772  11.344  0.1371 -0.8892 -0.0675
  554TMC3    C4 8271   4.157   1.872  11.401  0.8393 -0.3108  0.2296
  554TMC3    C5 8272   4.050   1.957  11.374  0.3632  0.1925  0.3873
  554TMC3    C6 8273   3.923   1.906  11.353  0.7867  0.4000 -0.0957
  554TMC3     C 8274   4.245   1.652  11.458  0.2095  0.1243  0.1160
  554TMC3     O 8275   4.363   1.681  11.452 -0.0272  0.0542 -0.0953
  554TMC3     H 8276   4.008   1.586  11.347 -1.3981 -1.5695  3.6014
  554TMC3    H1 8277   4.259   1.903  11.422  0.6973 -0.9298  1.8395
  554TMC3    H2 8278   3.837   1.967  11.332  0.7331  0.5222  0.4967
  554TMC3    C7 8279   4.075   2.093  11.394  0.1836  0.1234 -0.3342
  554TMC3    C8 8280   3.848   1.748  11.226 -0.0717  0.4153  0.2012
  554TMC3    O1 8281   4.184   2.136  11.368 -0.0703  0.3556 -0.2378
  554TMC3    O2 8282   3.856   1.842  11.144 -0.4385 -0.6258  0.2351
  555TMC3    C1 8283   2.788   1.689  15.192 -0.0955  0.7555  0.9081
  555TMC3    C2 8284   2.787   1.803  15.255 -0.3287 -0.5387 -0.0443
  555TMC3    C3 8285   2.767   1.801  15.388 -0.0203  0.2088  0.0345
  555TMC3    C4 8286   2.775   1.565  15.251  0.0843 -0.4559  0.5297
  555TMC3    C5 8287   2.753   1.562  15.383  0.1192  0.2863 -0.3188
  555TMC3    C6 8288   2.747   1.680  15.455  0.1017 -0.0782  0.2569
  555TMC3     C 8289   2.816   1.697  15.050  0.3432  0.2893  0.3511
  555TMC3     O 8290   2.883   1.792  15.015  0.6136  0.1599 -0.6569
  555TMC3     H 8291   2.800   1.897  15.202  0.8847 -0.6902 -0.0110
  555TMC3    H1 8292   2.781   1.479  15.186 -2.4189 -0.7530  0.6923
  555TMC3    H2 8293   2.719   1.674  15.560  0.9695 -0.5281  0.4662
  555TMC3    C7 8294   2.797   1.443  15.456  0.2758  0.2672  0.1735
  555TMC3    C8 8295   2.809   1.911  15.471 -0.2372  0.2391  0.4263
  555TMC3    O1 8296   2.737   1.431  15.561 -0.1421 -0.3913  0.3028
  555TMC3    O2 8297   2.772   2.020  15.440 -0.1256  0.0034  0.2126
  556MPD2     C 8298   1.382   3.128  11.231  0.3101 -0.2160  0.4158
  556MPD2    C1 8299   1.259   3.112  11.172  0.1275 -1.2242 -0.4703
  556MPD2    C2 8300   1.243   3.013  11.078 -0.8690 -0.4200 -0.4014
  556MPD2    C3 8301   1.348   2.940  11.021  0.4219 -0.0661 -1.0500
  556MPD2    C4 8302   1.471   2.966  11.075  0.0889  0.0900  0.1003
  556MPD2    C5 8303   1.482   3.045  11.185 -0.5243 -0.8709  0.5570
  556MPD2     H 8304   1.147   2.999  11.031 -1.5552 -1.5842  1.3697
  556MPD2    H1 8305   1.560   2.916  11.039  0.1571 -0.9061  1.6812
  556MPD2    H2 8306   1.409   3.206  11.301  0.9392 -2.0523  2.2068
  556MPD2    H3 8307   1.581   3.041  11.229 -0.0492 -1.8602 -0.5945
  556MPD2     N 8308   1.327   2.838  10.931  0.3220  0.1219 -0.1175
  556MPD2    H5 8309   1.229   2.811  10.928  0.2421  0.3642  0.3857
  556MPD2    N1 8310   1.144   3.182  11.218  0.8123  0.1397  0.2761
  556MPD2    H7 8311   1.056   3.153  11.176 -0.3977 -0.4000  3.1543
  557TMC3    C1 8312   1.361   2.672  10.769 -0.2944 -0.3615 -0.6826
  557TMC3    C2 8313   1.417   2.638  10.645 -0.4675  0.0330  0.4280
  557TMC3    C3 8314   1.331   2.564  10.564  0.0046 -0.2696 -0.2222
  557TMC3    C4 8315   1.242   2.629  10.818 -0.2261  0.1783 -0.3876
  557TMC3    C5 8316   1.171   2.540  10.737  0.0899  0.8676 -0.7987
  557TMC3    C6 8317   1.213   2.514  10.609 -0.2487  0.4112 -0.2564
  557TMC3     C 8318   1.407   2.795  10.830 -0.0568  0.4207  0.4713
  557TMC3     O 8319   1.512   2.845  10.792 -0.4578 -0.1123 -0.2183
  557TMC3     H 8320   1.503   2.692  10.605  0.1034 -1.9255 -0.9812
  557TMC3    H1 8321   1.205   2.644  10.920  1.3630  1.9201 -0.0779
  557TMC3    H2 8322   1.140   2.467  10.546  0.0544  0.2581 -0.4936
  557TMC3    C7 8323   1.039   2.500  10.790 -0.2927 -0.6686 -0.3055
  557TMC3    C8 8324   1.367   2.543  10.431  0.3140  0.0586 -0.0767
  557TMC3    O1 8325   0.987   2.559  10.887 -0.3199  0.4828  0.2404
  557TMC3    O2 8326   1.448   2.618  10.379 -0.3478 -0.3873  0.4742
  558TMC3    C1 8327   3.380   0.760  10.683 -0.8099  0.5023  0.6277
  558TMC3    C2 8328   3.259   0.817  10.704 -0.9669  0.4235  0.0484
  558TMC3    C3 8329   3.195   0.859  10.588 -0.2518  0.5181  1.1669
  558TMC3    C4 8330   3.434   0.732  10.557 -0.2751 -0.1776 -0.6508
  558TMC3    C5 8331   3.356   0.757  10.442 -0.1504  0.2800 -0.1241
  558TMC3    C6 8332   3.241   0.827  10.462 -0.1621  0.6172  0.0899
  558TMC3     C 8333   3.473   0.731  10.790  0.0782 -0.5679  0.4814
  558TMC3     O 8334   3.588   0.758  10.759 -0.3222  0.3375  0.6326
  558TMC3     H 8335   3.209   0.818  10.800 -0.9839  2.2649  0.0291
  558TMC3    H1 8336   3.530   0.683  10.548 -0.1848 -0.6231  2.6920
  558TMC3    H2 8337   3.187   0.867  10.377  0.4279  2.2237  0.4570
  558TMC3    C7 8338   3.433   0.773  10.319 -0.3808 -0.3469 -0.5148
  558TMC3    C8 8339   3.067   0.925  10.593 -0.0085 -0.1615  0.2190
  558TMC3    O1 8340   3.550   0.795  10.340 -0.1228 -0.1557  0.6802
  558TMC3    O2 8341   2.990   0.915  10.494 -0.0861  0.0419 -0.9219
  559MPD2     C 8342   3.371   1.607  10.369  0.6734  0.4731  0.0411
  559MPD2    C1 8343   3.319   1.525  10.467 -0.2129  0.2614  0.3875
  559MPD2    C2 8344   3.404   1.461  10.549 -0.4867  0.5942 -0.3073
  559MPD2    C3 8345   3.539   1.487  10.538 -0.3108  0.5120 -0.0131
  559MPD2    C4 8346   3.592   1.563  10.431 -0.3949  0.7564  0.2655
  559MPD2    C5 8347   3.505   1.623  10.350  0.1065 -0.0314 -0.0633
  559MPD2     H 8348   3.373   1.408  10.638 -0.7292  0.2930 -0.5727
  559MPD2    H1 8349   3.697   1.586  10.424 -0.2767  0.5345  1.3662
  559MPD2    H2 8350   3.306   1.661  10.301  0.3516 -0.1887 -0.1835
  559MPD2    H3 8351   3.550   1.699  10.288 -0.8301  1.5720  1.1948
  559MPD2     N 8352   3.612   1.429  10.642 -0.4635  0.0661 -0.0539
  559MPD2    H5 8353   3.555   1.369  10.701 -0.8738  0.7103  0.2010
  559MPD2    N1 8354   3.183   1.527  10.488  0.0095 -0.7871 -0.6017
  559MPD2    H7 8355   3.123   1.601  10.455 -1.3821 -2.6628 -2.3164
  560TMC3    C1 8356   3.799   1.391  10.790 -0.3015  0.4088  0.1380
  560TMC3    C2 8357   3.708   1.305  10.849 -0.4117 -0.3776  0.3820
  560TMC3    C3 8358   3.719   1.293  10.980 -0.1091 -0.3350 -0.3639
  560TMC3    C4 8359   3.912   1.449  10.846  0.0438  0.2977  0.3417
  560TMC3    C5 8360   3.913   1.432  10.984  0.1027  1.1055  0.6662
  560TMC3    C6 8361   3.819   1.354  11.049  0.0284 -0.2479  0.3574
  560TMC3     C 8362   3.745   1.457  10.672  0.4538 -0.7821 -0.3378
  560TMC3     O 8363   3.820   1.532  10.615  0.1165 -0.1612  0.3909
  560TMC3     H 8364   3.623   1.261  10.799  0.6405  0.5866 -2.3135
  560TMC3    H1 8365   3.974   1.523  10.798  0.6749  0.0669  0.7918
  560TMC3    H2 8366   3.819   1.349  11.157 -1.3540 -1.1284  0.3145
  560TMC3    C7 8367   4.033   1.451  11.061  0.1551  0.0433 -0.2057
  560TMC3    C8 8368   3.614   1.221  11.045  0.0088 -0.0235 -0.4670
  560TMC3    O1 8369   4.024   1.396  11.172  0.0931  0.4476  0.1764
  560TMC3    O2 8370   3.508   1.205  10.988  0.2928  0.4476  0.2894
  561TMC3    C1 8371   1.885   1.017  11.682 -0.5941 -0.6644  0.1189
  561TMC3    C2 8372   1.843   0.957  11.800  0.1138 -0.4705 -0.3674
  561TMC3    C3 8373   1.724   0.999  11.857 -0.3999  0.0626 -0.1122
  561TMC3    C4 8374   1.827   1.131  11.633  0.2248 -0.3641 -0.2692
  561TMC3    C5 8375   1.721   1.185  11.705  0.4028  0.3261 -0.0206
  561TMC3    C6 8376   1.666   1.118  11.816 -0.3731  0.4725 -0.2658
  561TMC3     C 8377   1.997   0.954  11.616  0.1782 -0.2072  0.4221
  561TMC3     O 8378   2.063   0.867  11.675 -0.2557 -0.1207 -0.2856
  561TMC3     H 8379   1.885   0.865  11.841  1.2671  0.1516 -0.1421
  561TMC3    H1 8380   1.848   1.166  11.532  1.6048 -0.7007 -0.0912
  561TMC3    H2 8381   1.577   1.156  11.865 -0.7368  0.9562 -1.2874
  561TMC3    C7 8382   1.622   1.259  11.632 -0.9398  0.0115 -0.0390
  561TMC3    C8 8383   1.639   0.898  11.913  0.4832  0.2538  0.4222
  561TMC3    O1 8384   1.513   1.278  11.688 -0.2353 -0.5679 -0.1782
  561TMC3    O2 8385   1.679   0.783  11.933  0.5715 -0.2968 -0.0416
  562TMC3    C1 8386   2.643   2.365  16.780 -0.3965  0.3090 -0.1804
  562TMC3    C2 8387   2.604   2.473  16.707  0.5446 -0.4318 -0.2339
  562TMC3    C3 8388   2.549   2.457  16.579 -0.7200 -0.3827  0.1141
  562TMC3    C4 8389   2.624   2.242  16.724  0.6494 -0.0532  0.5438
  562TMC3    C5 8390   2.562   2.228  16.605 -0.5179  0.6388 -0.3295
  562TMC3    C6 8391   2.524   2.333  16.528  0.1844  0.1370 -0.7381
  562TMC3     C 8392   2.663   2.387  16.924 -0.0278 -0.5842  0.4536
  562TMC3     O 8393   2.727   2.304  16.990  0.7674  0.0451  0.1745
  562TMC3     H 8394   2.631   2.575  16.735 -0.6200 -0.3950  0.7644
  562TMC3    H1 8395   2.657   2.153  16.777 -0.2133  0.0533  1.2368
  562TMC3    H2 8396   2.480   2.309  16.431 -2.0935  1.2656  0.0070
  562TMC3    C7 8397   2.498   2.098  16.586  0.0300 -0.0247  0.4978
  562TMC3    C8 8398   2.514   2.578  16.499 -0.2018  0.9485  0.5101
  562TMC3    O1 8399   2.378   2.112  16.546 -0.2639 -0.3575  0.0358
  562TMC3    O2 8400   2.582   2.674  16.535 -0.5364  0.7123  0.1045
  563MPD2     C 8401   0.049   3.248  15.753 -0.4991 -0.6525 -0.6712
  563MPD2    C1 8402   0.056   3.258  15.892  0.0507 -0.2431 -0.0732
  563MPD2    C2 8403   0.176   3.231  15.960  0.0151  0.1983 -0.0411
  563MPD2    C3 8404   0.287   3.200  15.889  0.1425 -0.7017  0.0302
  563MPD2    C4 8405   0.284   3.203  15.749  0.7507 -0.3780  0.3024
  563MPD2    C5 8406   0.163   3.228  15.684 -0.0314  0.2991 -1.0754
  563MPD2     H 8407   0.166   3.220  16.067  1.8735  0.1249  0.1251
  563MPD2    H1 8408   0.364   3.158  15.691  0.9699  1.2908 -0.6998
  563MPD2    H2 8409   4.693   3.256  15.698 -2.2540 -1.5424  2.1817
  563MPD2    H3 8410   0.157   3.208  15.578  0.6446  1.7088 -1.3769
  563MPD2     N 8411   0.400   3.162  15.968 -0.1798  1.0990  0.0414
  563MPD2    H5 8412   0.382   3.127  16.061 -0.6236  1.1086 -0.0408
  563MPD2    N1 8413   4.674   3.283  15.966 -0.4661  0.8034  0.2543
  563MPD2    H7 8414   4.588   3.267  15.915 -0.4314 -1.5537  0.9059
  564TMC3    C1 8415   4.564   3.225  16.166 -0.6127  0.3597 -0.3137
  564TMC3    C2 8416   4.474   3.170  16.086  0.2270  0.0947 -0.0208
  564TMC3    C3 8417   4.399   3.060  16.119  0.6981  0.1446 -0.7220
  564TMC3    C4 8418   4.602   3.161  16.282 -0.1705 -0.1502 -0.0609
  564TMC3    C5 8419   4.552   3.041  16.312 -0.2933  0.3228  1.2602
  564TMC3    C6 8420   4.441   2.994  16.235 -0.1374 -0.4427  0.1164
  564TMC3     C 8421   4.669   3.306  16.104  0.6319  0.3099  0.4766
  564TMC3     O 8422   0.021   3.351  16.179 -0.1310 -0.1583  0.0955
  564TMC3     H 8423   4.446   3.218  15.993  1.8650 -2.2343 -1.7510
  564TMC3    H1 8424   4.682   3.201  16.344  1.1692  0.3637 -2.1311
  564TMC3    H2 8425   4.395   2.904  16.274  1.5439 -0.8899  1.0711
  564TMC3    C7 8426   4.651   2.936  16.313  0.3860  0.5618 -0.7743
  564TMC3    C8 8427   4.379   2.974  15.999 -0.8137 -0.9530 -0.2564
  564TMC3    O1 8428   4.731   2.935  16.404 -0.2053  0.3035  0.9172
  564TMC3    O2 8429   4.309   2.871  16.015  0.4441 -0.2608 -0.0115
  565TMC3    C1 8430   0.717   0.195  11.608  0.0992 -0.8967 -0.6403
  565TMC3    C2 8431   0.749   0.069  11.579 -0.5598 -0.9660  0.4242
  565TMC3    C3 8432   0.657   4.702  11.608  0.0470 -0.1542 -0.6544
  565TMC3    C4 8433   0.591   0.226  11.659 -0.3843 -0.1236  0.3748
  565TMC3    C5 8434   0.499   0.128  11.677 -0.8160 -0.3471  0.1578
  565TMC3    C6 8435   0.536   4.735  11.658  0.2682 -0.6357  0.2488
  565TMC3     C 8436   0.789   0.294  11.532 -0.3124 -1.0591  0.4019
  565TMC3     O 8437   0.879   0.258  11.460  0.0073 -0.3797  0.3996
  565TMC3     H 8438   0.851   0.043  11.551 -0.7386 -1.9662  0.6976
  565TMC3    H1 8439   0.578   0.330  11.688 -1.4262  0.0822 -0.7998
  565TMC3    H2 8440   0.467   4.661  11.697 -0.8001  0.5754  0.6808
  565TMC3    C7 8441   0.379   0.157  11.752  0.5290  0.0576  0.1401
  565TMC3    C8 8442   0.676   4.572  11.555  0.1157 -0.2691  0.7713
  565TMC3    O1 8443   0.325   0.060  11.803 -0.6156 -0.0831 -0.6950
  565TMC3    O2 8444   0.616   4.483  11.616  0.3026 -0.4894 -0.5182
  566MPD2     C 8445   1.994   1.042  14.760 -0.1644 -0.5230  0.0895
  566MPD2    C1 8446   2.060   1.047  14.640  0.1620 -0.2815  0.2476
  566MPD2    C2 8447   1.986   1.047  14.525  0.8201 -0.0608 -0.3177
  566MPD2    C3 8448   1.845   1.031  14.530  0.1712  0.5294  0.0622
  566MPD2    C4 8449   1.780   1.020  14.651 -0.1181 -0.3343  0.2129
  566MPD2    C5 8450   1.858   1.028  14.764  0.3981  0.1394  0.1086
  566MPD2     H 8451   2.030   1.067  14.427 -0.8695  1.5191 -0.7591
  566MPD2    H1 8452   1.672   1.013  14.653  0.0424 -1.7233  4.0118
  566MPD2    H2 8453   2.056   1.044  14.849  0.1643  0.9327 -0.1674
  566MPD2    H3 8454   1.804   1.032  14.858 -0.8557 -1.4562 -0.5625
  566MPD2     N 8455   1.780   1.025  14.409  0.2331 -0.0441  0.3900
  566MPD2    H5 8456   1.840   1.030  14.327  1.7760 -2.2647  1.3864
  566MPD2    N1 8457   2.204   1.065  14.645 -0.2846  0.0733  0.1895
  566MPD2    H7 8458   2.244   1.091  14.734  0.7623  0.8304 -0.4919
  567TMC3    C1 8459   2.421   1.090  14.550 -0.2007 -0.3796 -1.2924
  567TMC3    C2 8460   2.488   1.131  14.430  0.1621  0.1937  0.3053
  567TMC3    C3 8461   2.594   1.212  14.437  0.7298 -0.8319 -0.0528
  567TMC3    C4 8462   2.477   1.116  14.672 -0.2824  0.1238  0.2218
  567TMC3    C5 8463   2.598   1.189  14.670 -0.1871  0.6735  0.1841
  567TMC3    C6 8464   2.662   1.232  14.557 -0.4235  0.4746 -0.6263
  567TMC3     C 8465   2.281   1.040  14.533  0.4922 -0.0495  0.4955
  567TMC3     O 8466   2.250   1.002  14.419  0.3787 -0.3852 -0.1201
  567TMC3     H 8467   2.439   1.108  14.336  0.8770  1.3095 -0.3435
  567TMC3    H1 8468   2.437   1.065  14.760 -0.8196 -0.1990 -0.2120
  567TMC3    H2 8469   2.748   1.298  14.565  0.0667 -0.3680  1.1432
  567TMC3    C7 8470   2.679   1.173  14.788  0.0249  0.8633 -0.7094
  567TMC3    C8 8471   2.619   1.295  14.322  0.3315  0.6924  0.4610
  567TMC3    O1 8472   2.801   1.172  14.765 -0.3963 -1.0988 -0.1331
  567TMC3    O2 8473   2.554   1.281  14.221 -0.3920 -0.6626  0.0507
  568MPD2     C 8474   0.607   2.019  16.428 -0.3134 -0.3128 -0.0372
  568MPD2    C1 8475   0.481   2.008  16.482 -0.5664  0.6798  0.1049
  568MPD2    C2 8476   0.374   2.071  16.414 -0.4019 -0.1883  0.3777
  568MPD2    C3 8477   0.400   2.147  16.298  0.5342  0.7082  0.3177
  568MPD2    C4 8478   0.524   2.141  16.236  0.2602  0.8363  0.1319
  568MPD2    C5 8479   0.625   2.079  16.306  0.2236 -0.0069  0.3895
  568MPD2     H 8480   0.277   2.080  16.460 -0.7637  0.6586 -0.5518
  568MPD2    H1 8481   0.542   2.182  16.137  3.2632 -2.3714 -0.6543
  568MPD2    H2 8482   0.691   1.972  16.478 -1.7114 -3.1692 -0.3721
  568MPD2    H3 8483   0.726   2.077  16.266  0.8167  2.5657  1.7419
  568MPD2     N 8484   0.286   2.209  16.228  0.4360 -0.6098  0.5840
  568MPD2    H5 8485   0.192   2.199  16.265 -0.0185 -1.0199 -0.6442
  568MPD2    N1 8486   0.462   1.926  16.594 -0.2075  0.3054 -1.2127
  568MPD2    H7 8487   0.542   1.872  16.626 -1.2879 -0.9498 -0.6475
  569TMC3    C1 8488   0.165   2.343  16.080 -0.0054  0.8619 -0.0164
  569TMC3    C2 8489   0.058   2.354  16.172  0.4439  0.1061  0.1132
  569TMC3    C3 8490   4.679   2.392  16.114  0.8976  0.3982 -0.3312
  569TMC3    C4 8491   0.154   2.373  15.946 -0.4456 -0.1737 -0.3302
  569TMC3    C5 8492   0.026   2.408  15.905  0.0991  0.1760 -0.2573
  569TMC3    C6 8493   4.657   2.403  15.983 -0.4246  0.5125 -0.2922
  569TMC3     C 8494   0.293   2.279  16.111  0.3766  0.3974 -0.2323
  569TMC3     O 8495   0.383   2.303  16.034 -0.0604 -0.2192  0.1620
  569TMC3     H 8496   0.072   2.313  16.271 -1.4724  0.2344  0.4331
  569TMC3    H1 8497   0.240   2.374  15.881  0.3102  0.8892  0.6820
  569TMC3    H2 8498   4.554   2.417  15.952 -0.0617  1.1526 -1.2047
  569TMC3    C7 8499   0.024   2.510  15.815  0.4766  0.2012 -0.3252
  569TMC3    C8 8500   4.584   2.476  16.191 -0.1615 -0.4898  0.5069
  569TMC3    O1 8501   0.091   2.492  15.714 -0.0424 -0.2526  0.3210
  569TMC3    O2 8502   4.492   2.524  16.129  0.4928 -0.1293  0.5404
  570TMC3    C1 8503   4.339   1.032  16.113  0.7640 -0.1613  0.5615
  570TMC3    C2 8504   4.401   1.014  15.989 -0.2389 -0.1851 -0.9695
  570TMC3    C3 8505   4.428   1.129  15.917  0.7318 -0.4864  0.2734
  570TMC3    C4 8506   4.308   1.159  16.161 -0.5085  0.6039  0.2803
  570TMC3    C5 8507   4.331   1.264  16.085  0.1096  0.2710  0.6986
  570TMC3    C6 8508   4.388   1.253  15.959 -0.3848 -0.3185  0.4067
  570TMC3     C 8509   4.301   0.914  16.179 -0.3621  1.2471  0.3607
  570TMC3     O 8510   4.332   0.811  16.120  0.1729 -0.2375 -0.3529
  570TMC3     H 8511   4.362   0.932  15.930  0.3803 -0.6669 -0.7116
  570TMC3    H1 8512   4.269   1.177  16.261  2.8965 -3.9045  2.4501
  570TMC3    H2 8513   4.404   1.336  15.891  1.3142 -0.5222  0.5541
  570TMC3    C7 8514   4.297   1.395  16.137  0.0605  0.2051 -0.1541
  570TMC3    C8 8515   4.542   1.113  15.820 -0.3630  0.2546 -0.2806
  570TMC3    O1 8516   4.274   1.406  16.258 -0.7658  0.3233 -0.3135
  570TMC3    O2 8517   4.574   1.213  15.758  0.2636 -0.4862  0.0485
  571MPD2     C 8518   1.619   1.795   0.611  0.4582 -0.0585  0.6168
  571MPD2    C1 8519   1.670   1.890   0.525 -0.1459  0.0677 -0.1959
  571MPD2    C2 8520   1.743   1.999   0.574  0.2991 -0.0156  0.4537
  571MPD2    C3 8521   1.762   2.020   0.708  0.6509 -0.2992 -0.5961
  571MPD2    C4 8522   1.705   1.924   0.796 -0.4145 -0.0071 -0.5948
  571MPD2    C5 8523   1.637   1.813   0.743 -0.0371  0.0691  0.8541
  571MPD2     H 8524   1.802   2.061   0.507 -1.9749  1.7109  0.0761
  571MPD2    H1 8525   1.716   1.938   0.903  0.0924 -0.2823 -0.6099
  571MPD2    H2 8526   1.585   1.699   0.575 -3.7374  1.0583  1.6112
  571MPD2    H3 8527   1.583   1.740   0.803 -2.2543  1.2460  0.3113
  571MPD2     N 8528   1.819   2.136   0.770  0.9157  0.0297  0.3559
  571MPD2    H5 8529   1.833   2.137   0.870  2.0987 -0.5066  0.1993
  571MPD2    N1 8530   1.669   1.861   0.389  0.6615  0.2318 -0.4702
  571MPD2    H7 8531   1.626   1.780   0.345  0.7187  0.4680 -0.9599
  572TMC3    C1 8532   1.934   2.346   0.771 -0.0493  0.7217  0.3386
  572TMC3    C2 8533   2.038   2.313   0.859 -0.4915  0.0501  0.0090
  572TMC3    C3 8534   2.143   2.407   0.870 -1.1032 -0.4610  0.3020
  572TMC3    C4 8535   1.950   2.453   0.693 -0.2061 -0.3251 -1.4113
  572TMC3    C5 8536   2.056   2.542   0.702  0.2595  0.4567  0.0114
  572TMC3    C6 8537   2.152   2.520   0.791 -0.1422 -0.2774 -0.4884
  572TMC3     C 8538   1.875   2.238   0.696  0.0053  0.6803 -0.2417
  572TMC3     O 8539   1.878   2.258   0.576  0.1837  0.2452 -0.3676
  572TMC3     H 8540   2.048   2.211   0.894  0.2217 -0.1830 -0.8644
  572TMC3    H1 8541   1.875   2.482   0.621 -0.3011  1.7397 -0.4926
  572TMC3    H2 8542   2.247   2.572   0.784 -0.4436  0.3667  0.1226
  572TMC3    C7 8543   2.052   2.656   0.614 -0.1840  0.1575  1.1085
  572TMC3    C8 8544   2.271   2.365   0.939  0.3967 -0.0313 -0.2041
  572TMC3    O1 8545   1.982   2.653   0.515 -0.3180 -0.5811  0.1039
  572TMC3    O2 8546   2.377   2.420   0.917  0.1505 -0.2258 -0.0532
  573MPD2     C 8547   3.055   2.703   0.922 -0.1896 -0.4726 -0.3715
  573MPD2    C1 8548   3.162   2.783   0.940  0.3283  0.4865  0.1763
  573MPD2    C2 8549   3.220   2.844   0.833 -0.3717  0.6627 -0.1104
  573MPD2    C3 8550   3.174   2.819   0.707 -0.6746 -0.1570  0.9461
  573MPD2    C4 8551   3.061   2.740   0.687  0.1729 -0.2749  1.0390
  573MPD2    C5 8552   3.007   2.675   0.794  0.3679  0.1699 -0.1045
  573MPD2     H 8553   3.311   2.901   0.851 -0.9392  1.0137  1.6035
  573MPD2    H1 8554   3.019   2.731   0.588 -0.5743  1.5047  1.1953
  573MPD2    H2 8555   3.019   2.644   1.006 -1.4831  0.7191 -0.0988
  573MPD2    H3 8556   2.920   2.612   0.776  0.6134  0.3219 -1.7441
  573MPD2     N 8557   3.226   2.886   0.595 -0.4986  0.6923  0.0811
  573MPD2    H5 8558   3.184   2.869   0.504 -2.9418 -0.5084  1.4244
  573MPD2    N1 8559   3.202   2.804   1.073  0.3445  0.0183 -0.0548
  573MPD2    H7 8560   3.143   2.769   1.148 -0.1248 -0.2093 -0.5379
  574TMC3    C1 8561   3.308   3.072   0.469 -0.6421 -1.3737 -0.2959
  574TMC3    C2 8562   3.203   3.061   0.385 -0.6733 -0.4384  0.2030
  574TMC3    C3 8563   3.190   3.155   0.283  0.2812  0.0700 -0.3818
  574TMC3    C4 8564   3.414   3.161   0.453  0.4126 -0.0255  0.2162
  574TMC3    C5 8565   3.403   3.244   0.338 -0.0958 -0.3508  0.0032
  574TMC3    C6 8566   3.289   3.247   0.261  0.1804  0.7590 -0.2961
  574TMC3     C 8567   3.310   2.988   0.592 -0.1451  0.4130  0.0003
  574TMC3     O 8568   3.368   3.044   0.686  0.8972  0.0926 -0.9327
  574TMC3     H 8569   3.116   2.997   0.397 -1.4006  0.6438  0.6622
  574TMC3    H1 8570   3.502   3.166   0.516  0.5672  1.2153 -0.0957
  574TMC3    H2 8571   3.280   3.317   0.179 -0.7190  1.7971  0.6788
  574TMC3    C7 8572   3.496   3.349   0.306 -0.1738  0.3017 -0.3573
  574TMC3    C8 8573   3.060   3.216   0.287  0.8975 -0.3982  0.0661
  574TMC3    O1 8574   3.462   3.433   0.224  0.3591  0.6893  0.2910
  574TMC3    O2 8575   2.987   3.191   0.380 -0.1133 -0.1199 -0.7293
  575TMC3    C1 8576   0.553   3.703  11.444  0.6908 -0.1746  0.3907
  575TMC3    C2 8577   0.633   3.626  11.362 -0.3088  0.3940  0.2203
  575TMC3    C3 8578   0.730   3.693  11.294 -0.0955  0.4685  0.0547
  575TMC3    C4 8579   0.572   3.832  11.469  0.2400  0.3607  0.6978
  575TMC3    C5 8580   0.677   3.889  11.406  0.3143  0.5450 -0.4261
  575TMC3    C6 8581   0.753   3.830  11.307 -0.0504  0.0511 -0.0718
  575TMC3     C 8582   0.485   3.631  11.548 -1.0495 -0.0079  0.1151
  575TMC3     O 8583   0.506   3.511  11.550 -0.0116  0.4142  0.2373
  575TMC3     H 8584   0.605   3.523  11.349 -0.8834  0.6616 -0.6611
  575TMC3    H1 8585   0.522   3.894  11.542 -1.9521 -0.3684 -0.1911
  575TMC3    H2 8586   0.821   3.880  11.239  2.0591  0.3349  2.2628
  575TMC3    C7 8587   0.705   4.028  11.437  0.0210  0.2739 -0.3491
  575TMC3    C8 8588   0.812   3.631  11.197 -0.3421 -0.4144  0.1701
  575TMC3    O1 8589   0.615   4.088  11.491 -0.0716  0.2414  1.2891
  575TMC3    O2 8590   0.924   3.677  11.188 -0.0106  0.4999  0.4002
  576MPD2     C 8591   0.603   0.940  12.855  0.6453 -0.5149  0.1917
  576MPD2    C1 8592   0.546   1.022  12.759 -0.3757  0.1119  0.4753
  576MPD2    C2 8593   0.431   1.086  12.794 -0.1520  0.6716  0.0844
  576MPD2    C3 8594   0.358   1.059  12.903 -1.1282  0.1391 -0.0593
  576MPD2    C4 8595   0.418   0.977  12.993  1.0027 -0.1314 -0.4076
  576MPD2    C5 8596   0.537   0.914  12.971 -0.3558 -0.3628  0.4671
  576MPD2     H 8597   0.394   1.156  12.719  1.2470 -0.5032 -1.7047
  576MPD2    H1 8598   0.373   0.964  13.091  3.0792  0.5946  0.6297
  576MPD2    H2 8599   0.692   0.881  12.839 -0.1614 -1.1628 -1.8973
  576MPD2    H3 8600   0.577   0.842  13.041  2.8271  0.0960 -0.8868
  576MPD2     N 8601   0.234   1.120  12.913  0.0139  0.2744  0.8699
  576MPD2    H5 8602   0.206   1.184  12.839 -0.8069  0.1265  1.0489
  576MPD2    N1 8603   0.607   1.048  12.632  0.2451 -0.1055 -0.9913
  576MPD2    H7 8604   0.558   1.118  12.577 -4.5763  0.0244  3.4380
  577TMC3    C1 8605   0.739   1.027  12.439  0.7592  0.3922  0.0077
  577TMC3    C2 8606   0.807   0.941  12.363  0.6563 -0.3377  0.0445
  577TMC3    C3 8607   0.865   0.979  12.242  0.4967  0.0821  0.4492
  577TMC3    C4 8608   0.720   1.148  12.399 -0.0066 -0.0462 -0.1700
  577TMC3    C5 8609   0.786   1.183  12.280 -0.4402  0.1254 -0.5393
  577TMC3    C6 8610   0.857   1.103  12.194 -0.6608 -0.4667  0.0579
  577TMC3     C 8611   0.714   0.978  12.579  0.3048 -0.2518 -0.6095
  577TMC3     O 8612   0.765   0.876  12.618  0.2966  0.0079  0.2813
  577TMC3     H 8613   0.798   0.836  12.389 -0.4826 -0.7602 -2.0192
  577TMC3    H1 8614   0.689   1.224  12.470 -1.4794  0.5935 -1.4991
  577TMC3    H2 8615   0.905   1.126  12.100 -1.0694  0.6559  0.1270
  577TMC3    C7 8616   0.767   1.323  12.242 -0.5336 -0.2662 -0.7973
  577TMC3    C8 8617   0.969   0.887  12.201  0.6565  0.2817 -0.0086
  577TMC3    O1 8618   0.763   1.405  12.332 -0.5922 -0.1588  0.2599
  577TMC3    O2 8619   0.959   0.772  12.247  0.4297  0.3607  0.3268
  578MPD2     C 8620   4.116   0.962   0.816  0.8945 -0.0083 -0.1872
  578MPD2    C1 8621   4.072   0.884   0.711 -0.2916 -0.6713  0.4064
  578MPD2    C2 8622   4.064   0.748   0.735 -0.1287  0.2671 -0.5226
  578MPD2    C3 8623   4.096   0.694   0.858 -0.5572  0.3060  0.5666
  578MPD2    C4 8624   4.140   0.776   0.958 -0.6237 -0.1027 -0.4985
  578MPD2    C5 8625   4.147   0.910   0.937  0.1286  0.0713  0.1259
  578MPD2     H 8626   4.023   0.683   0.659 -1.6268  1.8197 -1.0234
  578MPD2    H1 8627   4.180   0.741   1.053  0.3029  2.1046 -0.0783
  578MPD2    H2 8628   4.115   1.069   0.802  2.6583 -0.2558 -2.1013
  578MPD2    H3 8629   4.172   0.969   1.024  1.4283 -2.1643  1.2627
  578MPD2     N 8630   4.095   0.553   0.870 -0.1243  0.6594 -0.7023
  578MPD2    H5 8631   4.073   0.503   0.784 -2.9589  1.1783 -0.2699
  578MPD2    N1 8632   4.055   0.947   0.587  0.0482 -0.3118 -0.2653
  578MPD2    H7 8633   4.077   1.046   0.590 -0.3130 -0.1957 -1.1775
  579TMC3    C1 8634   4.114   0.332   0.956 -0.2481  0.2626 -0.9190
  579TMC3    C2 8635   4.197   0.251   1.019 -0.1475 -0.1948  0.4600
  579TMC3    C3 8636   4.189   0.119   0.998  0.4830  0.7501  0.0895
  579TMC3    C4 8637   4.027   0.286   0.860 -0.3685 -0.0451 -1.0564
  579TMC3    C5 8638   4.028   0.156   0.836 -0.4761 -0.5840 -0.0461
  579TMC3    C6 8639   4.103   0.068   0.907  0.1172 -0.2683  0.0899
  579TMC3     C 8640   4.115   0.474   0.980  0.0710 -0.0429 -0.1981
  579TMC3     O 8641   4.142   0.515   1.091  0.1938  0.0951  1.0844
  579TMC3     H 8642   4.230   0.287   1.116 -0.8903  1.2848  0.1663
  579TMC3    H1 8643   3.954   0.348   0.811 -1.7795 -1.0242 -0.1773
  579TMC3    H2 8644   4.099   4.698   0.893  4.6706 -0.4103 -0.2131
  579TMC3    C7 8645   3.915   0.093   0.776  0.0451 -0.2357  0.0541
  579TMC3    C8 8646   4.309   0.041   1.042  0.0698 -0.7315  0.3471
  579TMC3    O1 8647   3.872   0.155   0.680  0.1941  0.4869 -0.5909
  579TMC3    O2 8648   4.295   4.664   1.009  0.3209  0.3291 -1.1049
  580TMC3    C1 8649   2.911   0.202  12.646  0.5950  0.0506 -0.2191
  580TMC3    C2 8650   3.020   0.284  12.678  0.3683  0.2274  0.5483
  580TMC3    C3 8651   3.126   0.218  12.734 -0.3396 -0.0784  0.4187
  580TMC3    C4 8652   2.901   0.071  12.681  0.6787  0.3591 -0.0658
  580TMC3    C5 8653   3.018   0.013  12.730  0.4817 -0.0792  0.8334
  580TMC3    C6 8654   3.129   0.086  12.753 -0.7092  0.4198 -0.1859
  580TMC3     C 8655   2.800   0.261  12.569 -0.0790 -1.1779 -0.6400
  580TMC3     O 8656   2.689   0.227  12.600 -0.1560  0.1336 -0.0289
  580TMC3     H 8657   3.013   0.391  12.663 -0.5367  0.1255  0.2141
  580TMC3    H1 8658   2.810   0.013  12.685  0.1287  1.1503 -0.9682
  580TMC3    H2 8659   3.219   0.037  12.788 -0.8463  1.5373  1.6934
  580TMC3    C7 8660   3.043   4.604  12.710  0.0108  0.0860 -0.7073
  580TMC3    C8 8661   3.254   0.290  12.730 -0.4695  0.3307 -0.2622
  580TMC3    O1 8662   3.138   4.560  12.773  0.2088  0.5450  0.4183
  580TMC3    O2 8663   3.276   0.383  12.806  0.6702  0.0947  0.2953
  581MPD2     C 8664   1.451   4.538  14.787  0.0720 -0.6323 -0.3990
  581MPD2    C1 8665   1.423   4.546  14.925 -0.3039 -0.2991  0.1122
  581MPD2    C2 8666   1.326   4.636  14.966  0.6838 -0.2334 -0.0658
  581MPD2    C3 8667   1.241   4.700  14.878 -0.0551  0.0438  0.0647
  581MPD2    C4 8668   1.260   4.682  14.744 -0.5489  0.4901  0.6075
  581MPD2    C5 8669   1.366   4.609  14.706 -0.1186 -0.7988 -1.1176
  581MPD2     H 8670   1.309   4.638  15.073  0.4769  0.8713 -0.1155
  581MPD2    H1 8671   1.206   4.727  14.662  0.1658 -0.0717 -0.1682
  581MPD2    H2 8672   1.524   4.473  14.740  2.1273 -0.2778  2.3509
  581MPD2    H3 8673   1.378   4.606  14.598 -0.7006 -1.0741 -1.1742
  581MPD2     N 8674   1.123   0.023  14.926 -0.3931  0.2365  0.4247
  581MPD2    H5 8675   1.116   0.045  15.025 -0.7871  0.3896  0.3625
  581MPD2    N1 8676   1.498   4.466  15.012 -0.2069 -0.2278 -0.1713
  581MPD2    H7 8677   1.552   4.388  14.978 -1.7305 -1.5480  0.4354
  582TMC3    C1 8678   1.548   4.361  15.220 -0.1602  0.3309  0.1037
  582TMC3    C2 8679   1.572   4.387  15.351  1.0485  0.2452 -0.5247
  582TMC3    C3 8680   1.601   4.283  15.435 -0.2573 -0.1295  0.2188
  582TMC3    C4 8681   1.543   4.230  15.174  0.7020 -0.7460  0.7182
  582TMC3    C5 8682   1.564   4.131  15.259 -0.5902  0.5597 -0.1260
  582TMC3    C6 8683   1.591   4.155  15.390 -0.8678  0.0444  0.4094
  582TMC3     C 8684   1.485   4.464  15.150 -0.2132 -0.2658 -0.2395
  582TMC3     O 8685   1.442   4.553  15.221  0.1428 -1.0049  0.2972
  582TMC3     H 8686   1.552   4.484  15.395 -1.3879 -0.0682 -0.9440
  582TMC3    H1 8687   1.530   4.206  15.070  0.3844 -1.3989  0.9077
  582TMC3    H2 8688   1.608   4.080  15.466  4.5518 -0.4544 -1.2639
  582TMC3    C7 8689   1.457   4.026  15.258  0.2460 -0.2079  0.0438
  582TMC3    C8 8690   1.546   4.289  15.557 -0.7202  0.4858 -0.1879
  582TMC3    O1 8691   1.441   3.956  15.161 -0.5818  0.4538 -0.5914
  582TMC3    O2 8692   1.423   4.307  15.558  0.2876  0.1285  0.5379
  583MPD2     C 8693   1.115   1.370  16.935  0.1324 -1.0297  0.6386
  583MPD2    C1 8694   1.090   1.486  16.861  0.4091  0.1124  0.0385
  583MPD2    C2 8695   0.991   1.570  16.905  0.3734  0.5990 -0.0237
  583MPD2    C3 8696   0.941   1.559  17.034 -0.0175  0.2400 -0.2988
  583MPD2    C4 8697   0.970   1.445  17.107 -0.0270 -0.4303  0.2402
  583MPD2    C5 8698   1.054   1.355  17.061  0.1362 -0.2009  0.3328
  583MPD2     H 8699   0.966   1.653  16.840 -0.6575  0.1231 -0.2349
  583MPD2    H1 8700   0.916   1.433  17.200  0.1383 -0.5096  0.3274
  583MPD2    H2 8701   1.182   1.290  16.905  2.3939  1.4688 -0.9545
  583MPD2    H3 8702   1.079   1.267  17.120  1.7273  1.1930  1.7479
  583MPD2     N 8703   0.859   1.661  17.091  0.9301  0.0228 -0.0462
  583MPD2    H5 8704   0.861   1.751  17.044 -2.0763 -1.3320 -2.6890
  583MPD2    N1 8705   1.155   1.517  16.739  0.2139  0.0051 -0.0916
  583MPD2    H7 8706   1.117   1.599  16.691  2.2911  1.5416  0.9279
  584TMC3    C1 8707   0.778   1.789  17.274 -0.6668  0.7723  0.4063
  584TMC3    C2 8708   0.814   1.907  17.211  0.4231  0.5261 -0.5630
  584TMC3    C3 8709   0.808   2.021  17.281  0.3144  0.0095 -0.6645
  584TMC3    C4 8710   0.708   1.788  17.396  0.4203  0.7245  0.0647
  584TMC3    C5 8711   0.704   1.908  17.468 -0.3145  0.2279 -0.8112
  584TMC3    C6 8712   0.757   2.021  17.408 -0.0071  0.4132  0.2753
  584TMC3     C 8713   0.788   1.658  17.213  0.1324 -0.2263  0.2360
  584TMC3     O 8714   0.738   1.558  17.262 -0.2320  0.5483  0.1667
  584TMC3     H 8715   0.848   1.918  17.108 -0.4499 -0.7538 -0.9886
  584TMC3    H1 8716   0.683   1.695  17.445 -1.4181  0.7472 -0.8415
  584TMC3    H2 8717   0.773   2.112  17.466 -0.8005  0.3297  0.6350
  584TMC3    C7 8718   0.645   1.914  17.601  0.7321  0.3391 -1.0788
  584TMC3    C8 8719   0.901   2.121  17.241 -0.2990 -0.8368  0.4485
  584TMC3    O1 8720   0.667   1.816  17.670 -0.3537  0.0282  0.1263
  584TMC3    O2 8721   1.012   2.080  17.206 -0.0523  0.4150 -0.4979
  585MPD2     C 8722   0.101   0.005   0.483  0.0916 -0.6779  0.1843
  585MPD2    C1 8723   0.209   0.088   0.534 -0.3065 -0.1987 -0.1472
  585MPD2    C2 8724   0.333   0.030   0.541  1.0049  0.1382  0.5356
  585MPD2    C3 8725   0.347   4.630   0.512  0.0807 -1.0181 -0.3998
  585MPD2    C4 8726   0.240   4.555   0.461  0.1348 -0.0509  0.1851
  585MPD2    C5 8727   0.114   4.614   0.451  0.4241 -0.1126  0.1553
  585MPD2     H 8728   0.420   0.087   0.572  0.1814  1.0858  1.1111
  585MPD2    H1 8729   0.252   4.450   0.438  1.3772  0.4104 -1.3317
  585MPD2    H2 8730   0.000   0.045   0.475  0.3017 -0.4202 -1.0596
  585MPD2    H3 8731   0.032   4.551   0.418  1.1981 -0.8880 -0.2733
  585MPD2     N 8732   0.473   4.556   0.533 -0.2609 -0.2109 -0.2277
  585MPD2    H5 8733   0.465   4.455   0.530 -1.0720 -0.1932  1.1408
  585MPD2    N1 8734   0.179   0.226   0.554 -0.0348  0.3078  0.0350
  585MPD2    H7 8735   0.088   0.251   0.518 -0.0362  2.1473  1.2961
  586TMC3    C1 8736   0.693   4.516   0.582  0.1699  0.4855  0.1060
  586TMC3    C2 8737   0.808   4.558   0.518 -0.8015 -0.7128  0.9381
  586TMC3    C3 8738   0.880   4.479   0.433 -0.5402  0.1146  0.1527
  586TMC3    C4 8739   0.638   4.394   0.548  0.1408 -0.6658 -0.5202
  586TMC3    C5 8740   0.718   4.314   0.465  0.1727 -0.1713 -0.4858
  586TMC3    C6 8741   0.838   4.348   0.416  0.0635  0.2872  0.1291
  586TMC3     C 8742   0.589   4.613   0.570 -0.5901  0.3357  0.4345
  586TMC3     O 8743   0.617   4.731   0.586  0.1684 -0.1682  0.3269
  586TMC3     H 8744   0.849   4.653   0.550  0.9641 -0.7121 -1.3265
  586TMC3    H1 8745   0.563   4.350   0.612  0.8384 -1.1128 -0.0159
  586TMC3    H2 8746   0.897   4.266   0.378 -0.6826 -0.9157  1.5668
  586TMC3    C7 8747   0.636   4.280   0.358 -0.1546 -0.1560  0.0483
  586TMC3    C8 8748   0.928   4.527   0.304 -0.3914  0.4625 -0.1430
  586TMC3    O1 8749   0.519   4.314   0.367 -0.0271 -0.0712 -0.0739
  586TMC3    O2 8750   0.972   4.438   0.228  0.1598  0.2258 -0.0992
  587TMC3    C1 8751   2.549   3.655  16.376 -0.5256 -0.3989 -0.6127
  587TMC3    C2 8752   2.592   3.765  16.444 -0.6565 -0.0773 -0.0721
  587TMC3    C3 8753   2.704   3.741  16.518  0.0012 -1.3150  0.2237
  587TMC3    C4 8754   2.597   3.528  16.378 -1.0304 -0.4064 -0.0764
  587TMC3    C5 8755   2.713   3.516  16.453 -0.0260 -0.4880 -0.9783
  587TMC3    C6 8756   2.768   3.620  16.524  1.1321  0.5534  0.5242
  587TMC3     C 8757   2.428   3.685  16.298 -0.4447 -0.3095  0.1182
  587TMC3     O 8758   2.409   3.797  16.245  0.6385 -0.3880  0.0842
  587TMC3     H 8759   2.558   3.865  16.417 -0.5177 -0.6379 -2.3557
  587TMC3    H1 8760   2.561   3.456  16.305  1.0490 -0.9875 -0.5466
  587TMC3    H2 8761   2.866   3.618  16.570  2.2387 -0.1031 -1.8588
  587TMC3    C7 8762   2.797   3.399  16.421  0.0618 -0.0650 -1.3612
  587TMC3    C8 8763   2.742   3.844  16.615  0.3181 -0.6899 -0.0139
  587TMC3    O1 8764   2.739   3.316  16.347  0.0790  0.0967 -0.2313
  587TMC3    O2 8765   2.845   3.835  16.679 -0.1370  0.8471  0.2070
  588TMC3    C1 8766   0.224   1.853   9.841  0.7468  0.2121 -0.0905
  588TMC3    C2 8767   0.125   1.753   9.845  0.3534 -0.3782  0.2700
  588TMC3    C3 8768   0.095   1.698   9.960  0.4301 -0.1766  0.4460
  588TMC3    C4 8769   0.283   1.891   9.962 -0.7394  0.3460 -0.0661
  588TMC3    C5 8770   0.238   1.831  10.083 -0.3033 -0.1511 -0.1351
  588TMC3    C6 8771   0.145   1.730  10.085  0.6068 -0.3786  0.4567
  588TMC3     C 8772   0.268   1.896   9.714 -0.1258 -0.5273 -0.0737
  588TMC3     O 8773   0.238   1.834   9.613  0.0053 -0.8265 -0.3725
  588TMC3     H 8774   0.089   1.715   9.750 -0.3092 -1.1565  0.8354
  588TMC3    H1 8775   0.363   1.964   9.953 -0.3427 -0.2119 -1.0510
  588TMC3    H2 8776   0.108   1.682  10.175 -0.4975 -0.4834 -0.0476
  588TMC3    C7 8777   0.299   1.874  10.202 -0.0037  0.0057  0.3440
  588TMC3    C8 8778   0.025   1.575   9.954 -0.1091  0.2598 -0.3876
  588TMC3    O1 8779   0.308   1.795  10.293 -0.3141 -1.2618 -0.0530
  588TMC3    O2 8780   4.695   1.554   9.855 -0.0612  0.3145  0.5483
  589TMC3    C1 8781   4.390   3.647   1.346  0.1376 -0.6949 -0.4400
  589TMC3    C2 8782   4.509   3.712   1.374  0.1563 -0.1822 -0.0835
  589TMC3    C3 8783   4.622   3.644   1.331  0.9252  0.6573 -0.6117
  589TMC3    C4 8784   4.375   3.535   1.267 -0.3445  1.0661  0.2794
  589TMC3    C5 8785   4.493   3.471   1.228 -0.4427  0.2250  0.2447
  589TMC3    C6 8786   4.617   3.519   1.261  1.1010  0.6404  0.0864
  589TMC3     C 8787   4.263   3.722   1.360  0.3169 -0.7840  0.0281
  589TMC3     O 8788   4.166   3.690   1.297  0.0785 -0.0047 -0.6152
  589TMC3     H 8789   4.519   3.808   1.424 -0.9971 -0.9921  1.6728
  589TMC3    H1 8790   4.277   3.496   1.245  0.2748 -0.6398  0.5252
  589TMC3    H2 8791   4.709   3.466   1.239  0.1055 -1.1939  0.2990
  589TMC3    C7 8792   4.481   3.334   1.185 -0.9432  0.1857 -0.1308
  589TMC3    C8 8793   4.736   3.666   1.414  0.6136  0.1012 -0.7551
  589TMC3    O1 8794   4.386   3.270   1.227 -0.0826 -0.6006 -0.0880
  589TMC3    O2 8795   4.731   3.741   1.512 -0.2812 -0.3810 -0.9489
  590MPD2     C 8796   3.650   2.065  16.509  0.0065  0.4430  0.7816
  590MPD2    C1 8797   3.593   2.161  16.427 -0.1848 -0.1816  0.1707
  590MPD2    C2 8798   3.677   2.233  16.343  0.1242 -0.0273  0.7945
  590MPD2    C3 8799   3.812   2.201  16.328  0.5230 -0.0004 -0.0204
  590MPD2    C4 8800   3.862   2.105  16.413  0.1192  0.5853 -0.3583
  590MPD2    C5 8801   3.782   2.036  16.499  0.0887  0.2139 -0.5783
  590MPD2     H 8802   3.636   2.316  16.286 -0.2141 -2.2767 -2.2138
  590MPD2    H1 8803   3.967   2.080  16.424 -0.6770 -2.8464 -0.7801
  590MPD2    H2 8804   3.604   2.000  16.583  1.3666 -1.3875  0.0209
  590MPD2    H3 8805   3.827   1.963  16.565 -1.4360  1.0108  1.3220
  590MPD2     N 8806   3.897   2.279  16.238 -0.1646  0.1043  0.5507
  590MPD2    H5 8807   3.848   2.359  16.198 -0.5468 -0.9461 -1.0621
  590MPD2    N1 8808   3.459   2.208  16.435  0.2659 -0.0960 -0.0895
  590MPD2    H7 8809   3.424   2.278  16.370  0.9252  0.7282  0.4385
  591TMC3    C1 8810   4.090   2.386  16.175  0.8636  0.0666  0.0098
  591TMC3    C2 8811   4.176   2.374  16.074  1.1535  0.3431  0.6176
  591TMC3    C3 8812   4.205   2.484  16.002  0.7496  0.0251  0.3943
  591TMC3    C4 8813   4.032   2.504  16.207  0.0623  0.4242  0.1158
  591TMC3    C5 8814   4.060   2.611  16.136  0.0559  0.0273  0.6357
  591TMC3    C6 8815   4.155   2.610  16.032  0.5734 -0.5421 -0.0247
  591TMC3     C 8816   4.032   2.266  16.234  0.2545 -0.0973  0.1605
  591TMC3     O 8817   4.103   2.173  16.261 -0.1233 -0.3154 -0.0111
  591TMC3     H 8818   4.215   2.281  16.033  0.3233 -0.7582  2.3418
  591TMC3    H1 8819   3.958   2.503  16.286  1.2347 -1.1256  1.1924
  591TMC3    H2 8820   4.157   2.693  15.962 -0.3529 -1.4908 -1.1668
  591TMC3    C7 8821   4.000   2.739  16.180 -0.1424  0.1314  0.3742
  591TMC3    C8 8822   4.282   2.459  15.879 -0.0402  0.0273 -0.1311
  591TMC3    O1 8823   3.926   2.731  16.275  0.0471 -0.1149 -0.5359
  591TMC3    O2 8824   4.324   2.344  15.857 -0.1382 -0.1682 -0.0445
  592MPD2     C 8825   4.049   4.250  11.772 -0.4110 -0.1455  0.2186
  592MPD2    C1 8826   4.040   4.306  11.899 -0.2537 -0.4724 -0.3991
  592MPD2    C2 8827   3.937   4.271  11.980  0.0280 -0.2235 -0.5134
  592MPD2    C3 8828   3.829   4.198  11.939  0.0738  0.0942  0.7982
  592MPD2    C4 8829   3.824   4.176  11.804 -0.1086  0.1950 -0.4727
  592MPD2    C5 8830   3.932   4.199  11.719 -0.7868 -0.2400  0.8374
  592MPD2     H 8831   3.944   4.291  12.087  2.0848  0.2673 -0.7573
  592MPD2    H1 8832   3.743   4.129  11.749  0.7460 -1.0227 -0.7075
  592MPD2    H2 8833   4.133   4.269  11.706  0.4297  3.3409  2.3092
  592MPD2    H3 8834   3.944   4.164  11.617  0.5751  4.5063 -0.6396
  592MPD2     N 8835   3.735   4.147  12.031  0.3790  0.2339 -0.1245
  592MPD2    H5 8836   3.754   4.175  12.127 -2.6785  1.7385  0.0429
  592MPD2    N1 8837   4.142   4.395  11.945  0.1626  0.2985 -0.3626
  592MPD2    H7 8838   4.221   4.402  11.881  0.9519  1.6544  0.7734
  593TMC3    C1 8839   4.257   4.550  12.083 -0.0850  1.2735  0.0835
  593TMC3    C2 8840   4.230   4.663  12.146  0.1324 -0.0858 -0.8012
  593TMC3    C3 8841   4.338   0.007  12.185 -0.2836  0.4910 -0.7923
  593TMC3    C4 8842   4.379   4.499  12.060 -0.0802  0.2493 -0.5572
  593TMC3    C5 8843   4.482   4.574  12.117 -0.8600  0.5403  0.3131
  593TMC3    C6 8844   4.470   4.702  12.174 -0.4894  0.3981 -0.4689
  593TMC3     C 8845   4.138   4.468  12.061 -0.4502 -0.3116  0.2972
  593TMC3     O 8846   4.038   4.496  12.127  0.1763 -0.1266  0.3024
  593TMC3     H 8847   4.130   4.701  12.163  0.2630  0.3492 -0.9972
  593TMC3    H1 8848   4.389   4.396  12.026 -4.2058 -0.3294  0.0456
  593TMC3    H2 8849   4.558   0.011  12.217  0.2106  0.8132 -2.3450
  593TMC3    C7 8850   4.601   4.569  12.033 -0.2067  0.4188  0.2402
  593TMC3    C8 8851   4.304   0.146  12.187  0.0485 -0.4909 -0.9959
  593TMC3    O1 8852   4.662   4.673  12.001  0.1157 -0.4532  0.8935
  593TMC3    O2 8853   4.197   0.183  12.137 -0.1434  0.8180 -0.5159
  594MPD2     C 8854   3.045   3.051  14.661 -0.1787  0.0678 -1.1038
  594MPD2    C1 8855   2.928   3.118  14.650  0.9453  0.2673 -0.2594
  594MPD2    C2 8856   2.926   3.244  14.585 -0.2245 -0.2742 -0.0108
  594MPD2    C3 8857   3.042   3.314  14.563  0.0876  0.6306  0.4038
  594MPD2    C4 8858   3.160   3.248  14.589 -0.0483 -0.8547 -0.1095
  594MPD2    C5 8859   3.161   3.114  14.620 -0.6664  0.2230  0.1215
  594MPD2     H 8860   2.839   3.307  14.568 -1.1853 -0.8386  2.9769
  594MPD2    H1 8861   3.256   3.288  14.558 -0.3469  0.5322  0.7794
  594MPD2    H2 8862   3.054   2.949  14.697 -1.6087  0.1276 -0.5899
  594MPD2    H3 8863   3.256   3.061  14.617  0.5573  2.4753 -0.6255
  594MPD2     N 8864   3.036   3.445  14.516  0.1660  0.5934 -0.0651
  594MPD2    H5 8865   2.946   3.483  14.486  0.8511  1.3495 -1.1578
  594MPD2    N1 8866   2.806   3.065  14.692 -0.3501  0.1239  0.4301
  594MPD2    H7 8867   2.729   3.117  14.651 -0.9315 -1.6889 -0.7748
  595TMC3    C1 8868   3.247   3.833  14.367 -0.5454 -0.8214  0.9059
  595TMC3    C2 8869   3.245   3.704  14.405 -0.2995 -0.1446 -0.3622
  595TMC3    C3 8870   3.126   3.655  14.447  0.8024  0.0313  0.0621
  595TMC3    C4 8871   3.136   3.910  14.373 -0.5630  0.4313  0.7949
  595TMC3    C5 8872   3.024   3.861  14.429 -0.0741  0.4684  0.2693
  595TMC3    C6 8873   3.008   3.723  14.461 -0.9124 -0.4412  0.4317
  595TMC3     C 8874   3.366   3.909  14.408  0.3716 -0.0741 -0.5276
  595TMC3     O 8875   3.345   4.018  14.457  0.5124 -0.3009 -0.3396
  595TMC3     H 8876   3.329   3.637  14.392  1.0266  2.0373 -2.8568
  595TMC3    H1 8877   3.150   4.006  14.326  0.9942 -0.2469 -0.1508
  595TMC3    H2 8878   2.924   3.686  14.519 -2.8251  0.4447 -1.7990
  595TMC3    C7 8879   2.971   3.942  14.528 -0.5606 -0.0848 -0.5722
  595TMC3    C8 8880   3.144   3.525  14.511  0.4344  0.2874  0.0221
  595TMC3    O1 8881   2.875   3.906  14.598 -0.3707 -0.1538  0.1646
  595TMC3    O2 8882   3.257   3.510  14.553  0.3030  0.1077  0.2314
  596MPD2     C 8883   1.818   1.494  17.264 -0.4949 -0.0283 -0.1428
  596MPD2    C1 8884   1.790   1.597  17.183 -0.4712 -0.0038 -0.4949
  596MPD2    C2 8885   1.865   1.630  17.070  0.5141 -0.6140  0.5180
  596MPD2    C3 8886   1.951   1.533  17.024  0.3071  0.6216  0.1199
  596MPD2    C4 8887   1.982   1.423  17.102 -0.1292 -0.9116 -0.2207
  596MPD2    C5 8888   1.914   1.406  17.220  0.3830  0.3598  0.3673
  596MPD2     H 8889   1.848   1.717  17.008  2.0681 -1.5871 -1.2673
  596MPD2    H1 8890   2.046   1.346  17.060  2.3348  0.8825  0.2588
  596MPD2    H2 8891   1.774   1.471  17.360  0.3640 -1.9615 -0.2112
  596MPD2    H3 8892   1.939   1.323  17.284 -3.0100 -0.2938  0.8402
  596MPD2     N 8893   1.993   1.526  16.891 -0.2622 -0.8236  0.3307
  596MPD2    H5 8894   2.055   1.448  16.872  0.8593 -0.7291  3.4367
  596MPD2    N1 8895   1.682   1.687  17.200  0.6603 -0.3573 -0.2441
  596MPD2    H7 8896   1.671   1.761  17.133 -0.6532 -2.0546 -1.8994
  597TMC3    C1 8897   1.520   1.806  17.343 -0.2543 -0.7667 -0.6016
  597TMC3    C2 8898   1.531   1.913  17.260 -0.2491  0.0395  0.4609
  597TMC3    C3 8899   1.457   2.025  17.279 -0.6171 -0.3197  0.2977
  597TMC3    C4 8900   1.445   1.813  17.460 -0.6494 -0.0097 -0.0731
  597TMC3    C5 8901   1.383   1.934  17.479  0.2001 -1.0172 -0.3300
  597TMC3    C6 8902   1.382   2.037  17.390  0.7039  0.2869 -0.4699
  597TMC3     C 8903   1.603   1.690  17.317 -0.2842 -0.8100  0.1614
  597TMC3     O 8904   1.597   1.617  17.414 -0.1077  0.2555 -0.6164
  597TMC3     H 8905   1.575   1.905  17.161 -0.9583 -1.7874  0.2844
  597TMC3    H1 8906   1.434   1.726  17.524 -1.0951 -0.3870 -0.6687
  597TMC3    H2 8907   1.344   2.135  17.417 -0.7666 -1.2414  3.0114
  597TMC3    C7 8908   1.281   1.926  17.584  0.1064  0.2216 -0.0597
  597TMC3    C8 8909   1.485   2.149  17.204  0.3094  0.1267  0.1143
  597TMC3    O1 8910   1.296   1.849  17.681  0.2861  0.5126 -0.2786
  597TMC3    O2 8911   1.399   2.232  17.217 -0.2628 -0.4677  0.7644
  598TMC3    C1 8912   4.622   2.953  15.053  0.2290  0.1480 -0.2422
  598TMC3    C2 8913   4.514   2.913  14.982  1.0137 -0.0962 -0.1064
  598TMC3    C3 8914   4.476   2.983  14.871 -0.5092  0.4339 -0.1020
  598TMC3    C4 8915   4.697   3.063  15.013 -0.1479  0.1511 -0.1678
  598TMC3    C5 8916   4.646   3.143  14.916  0.1866 -0.2502  0.4538
  598TMC3    C6 8917   4.545   3.103  14.835  0.5020  0.3191  0.2431
  598TMC3     C 8918   4.654   2.864  15.165  0.2582  0.0130 -0.2747
  598TMC3     O 8919   4.573   2.788  15.217  0.0101 -0.1939 -0.1852
  598TMC3     H 8920   4.454   2.829  15.016 -1.2400  1.7238  0.4045
  598TMC3    H1 8921   0.037   3.104  15.077 -0.9538  0.4606  0.6240
  598TMC3    H2 8922   4.513   3.174  14.760 -0.1450 -0.9191 -0.6454
  598TMC3    C7 8923   4.731   3.246  14.855 -0.3876 -0.1815  0.0873
  598TMC3    C8 8924   4.402   2.908  14.766 -0.1937  0.3596  0.0471
  598TMC3    O1 8925   4.672   3.312  14.770 -0.0726 -0.4778  0.5809
  598TMC3    O2 8926   4.336   2.809  14.798  0.1817 -0.0445  0.5245
  599MPD2     C 8927   0.643   0.499  15.875  0.1343  0.4047  0.1861
  599MPD2    C1 8928   0.540   0.406  15.893 -0.5596 -0.5796 -0.6249
  599MPD2    C2 8929   0.411   0.444  15.902  0.5597  0.0352  0.3390
  599MPD2    C3 8930   0.379   0.576  15.897  0.4794 -0.2237  0.2951
  599MPD2    C4 8931   0.483   0.670  15.869  0.2082  0.9463 -0.2232
  599MPD2    C5 8932   0.611   0.628  15.861 -0.0237  0.0592  0.3899
  599MPD2     H 8933   0.332   0.373  15.921  0.9753 -0.3268  0.7206
  599MPD2    H1 8934   0.463   0.776  15.872 -0.9684  0.7441 -0.9060
  599MPD2    H2 8935   0.745   0.463  15.875 -0.8345 -2.3170  0.9285
  599MPD2    H3 8936   0.686   0.704  15.847 -0.6040  0.2871 -1.4916
  599MPD2     N 8937   0.254   0.627  15.933  0.2212 -0.2183 -0.1538
  599MPD2    H5 8938   0.258   0.728  15.945 -1.6414  0.0321 -1.7631
  599MPD2    N1 8939   0.575   0.266  15.907  0.0146 -0.1622 -0.0719
  599MPD2    H7 8940   0.673   0.248  15.924  0.3873 -1.0534 -3.2428
  600TMC3    C1 8941   0.030   0.630  16.019  0.3078 -0.3699  1.1098
  600TMC3    C2 8942   4.677   0.552  16.089 -0.0389 -0.3136  0.4597
  600TMC3    C3 8943   4.608   0.603  16.195 -0.0918 -0.1251  0.0286
  600TMC3    C4 8944   0.062   0.756  16.060  0.5391  0.7431 -0.1942
  600TMC3    C5 8945   4.721   0.809  16.160 -0.1344  0.1526 -0.2144
  600TMC3    C6 8946   4.625   0.733  16.230  0.6984  0.7092 -0.5677
  600TMC3     C 8947   0.140   0.550  15.963 -0.6174 -0.6007  0.0934
  600TMC3     O 8948   0.123   0.434  15.926 -0.5273 -0.1099 -0.4543
  600TMC3     H 8949   4.677   0.445  16.074 -1.8795 -0.0846 -1.0712
  600TMC3    H1 8950   0.139   0.814  16.009 -0.4798  1.0228 -1.4073
  600TMC3    H2 8951   4.549   0.781  16.290 -0.1137 -0.5743 -0.5789
  600TMC3    C7 8952   4.729   0.954  16.197  0.5873 -0.0557  0.1855
  600TMC3    C8 8953   4.530   0.531  16.286  0.2903  0.1342  0.2769
  600TMC3    O1 8954   4.647   0.974  16.289 -0.1349  0.0154  0.1161
  600TMC3    O2 8955   4.484   0.423  16.245 -0.4885  0.3314  0.3517
  601MPD2     C 8956   2.227   3.141   0.496 -0.1126 -0.0118  0.1354
  601MPD2    C1 8957   2.139   3.055   0.431 -0.0972  0.4911 -0.2628
  601MPD2    C2 8958   2.104   2.927   0.475  0.3163  0.0327  0.4696
  601MPD2    C3 8959   2.157   2.882   0.592  0.2713 -0.5504 -0.1236
  601MPD2    C4 8960   2.242   2.968   0.655  0.0874 -0.0853 -0.1189
  601MPD2    C5 8961   2.274   3.089   0.613  0.1566  0.3280  0.0281
  601MPD2     H 8962   2.028   2.866   0.428  0.1194  0.7277 -0.1155
  601MPD2    H1 8963   2.300   2.930   0.738  1.2097  1.3232 -0.2457
  601MPD2    H2 8964   2.246   3.245   0.475  0.7482 -0.5649 -1.7966
  601MPD2    H3 8965   2.344   3.150   0.668 -1.6824  0.2187  2.4576
  601MPD2     N 8966   2.126   2.763   0.660  0.1176 -0.5730  0.1824
  601MPD2    H5 8967   2.181   2.736   0.741  1.9594 -1.0079 -1.2331
  601MPD2    N1 8968   2.079   3.089   0.305 -0.7112  0.4752 -0.0071
  601MPD2    H7 8969   2.022   3.015   0.266 -1.5067  0.6455  0.8463
  602TMC3    C1 8970   2.017   3.236   0.131  0.1418 -0.6775 -0.6064
  602TMC3    C2 8971   2.066   3.335   0.055  0.2503  0.3018 -0.0329
  602TMC3    C3 8972   2.026   3.333  17.670 -0.0270  0.0553 -0.8037
  602TMC3    C4 8973   1.929   3.143   0.084 -0.1640  0.0457  0.2747
  602TMC3    C5 8974   1.901   3.138  17.703 -0.1399  0.2900 -0.0126
  602TMC3    C6 8975   1.948   3.238  17.621 -0.3744  0.9447 -0.5358
  602TMC3     C 8976   2.096   3.213   0.251 -0.1523  0.3038  0.2887
  602TMC3     O 8977   2.173   3.300   0.276 -0.4918  0.0244  0.2029
  602TMC3     H 8978   2.131   3.412   0.095  0.4666 -1.6171  3.2482
  602TMC3    H1 8979   1.883   3.076   0.156  0.5823 -1.7424 -0.9134
  602TMC3    H2 8980   1.922   3.238  17.516  1.9521 -0.4530 -1.1124
  602TMC3    C7 8981   1.760   3.120  17.703 -0.2506  0.4947  0.3527
  602TMC3    C8 8982   1.966   3.454  17.627 -0.1940 -0.2611 -0.2383
  602TMC3    O1 8983   1.714   3.016  17.745 -0.0983 -0.0180 -0.7059
  602TMC3    O2 8984   1.851   3.446  17.595  0.3049  0.0528  0.2274
  603TMC3    C1 8985   0.536   4.044  11.049 -0.8840  0.2059  0.5836
  603TMC3    C2 8986   0.448   3.965  11.115  0.2395  0.6801 -0.7240
  603TMC3    C3 8987   0.329   4.024  11.150 -0.1365 -0.2632 -0.1920
  603TMC3    C4 8988   0.500   4.169  10.997 -0.1161 -0.4975  0.4279
  603TMC3    C5 8989   0.374   4.217  11.024  0.4684  0.6968 -0.6214
  603TMC3    C6 8990   0.284   4.147  11.102 -0.1783 -0.4928 -0.6762
  603TMC3     C 8991   0.661   3.986  11.010  0.2142 -0.3658  0.2968
  603TMC3     O 8992   0.673   3.865  11.016  0.3631  0.4010 -0.1506
  603TMC3     H 8993   0.486   3.882  11.173  2.0384  1.4855 -0.7416
  603TMC3    H1 8994   0.574   4.234  10.952  0.4627 -1.4676 -0.0425
  603TMC3    H2 8995   0.187   4.191  11.126  0.8092  0.4259  1.6407
  603TMC3    C7 8996   0.339   4.338  10.948  0.4965  0.4986 -0.0058
  603TMC3    C8 8997   0.244   3.943  11.223  0.0685  0.1170  0.0929
  603TMC3    O1 8998   0.438   4.394  10.902 -0.0643 -0.0877 -0.3838
  603TMC3    O2 8999   0.302   3.853  11.286 -0.0439 -0.4170  0.8136
  604MPD2     C 9000   1.023   2.677  16.285  0.3867 -0.3887  0.6930
  604MPD2    C1 9001   0.963   2.571  16.236  0.6089 -0.7666 -0.4812
  604MPD2    C2 9002   1.030   2.485  16.150 -0.5036 -0.5536 -0.8253
  604MPD2    C3 9003   1.159   2.516  16.097  0.1225  0.0505  0.3616
  604MPD2    C4 9004   1.214   2.629  16.154  0.2347 -0.3557  0.4262
  604MPD2    C5 9005   1.143   2.711  16.234  1.1073  0.6050  0.2146
  604MPD2     H 9006   0.998   2.385  16.121  0.7234 -1.4318  0.8643
  604MPD2    H1 9007   1.314   2.653  16.120 -0.0754 -1.4306 -1.2713
  604MPD2    H2 9008   0.967   2.743  16.350  2.2786  2.2569 -0.3726
  604MPD2    H3 9009   1.188   2.804  16.267 -1.3842  1.9256 -0.1097
  604MPD2     N 9010   1.220   2.431  15.999 -0.0990  0.5312 -0.4925
  604MPD2    H5 9011   1.164   2.353  15.964 -0.5681  0.1521  1.1074
  604MPD2    N1 9012   0.829   2.543  16.285  0.5791 -0.2906 -0.0953
  604MPD2    H7 9013   0.776   2.620  16.323 -2.0826 -2.2051  0.1007
  605TMC3    C1 9014   0.654   2.415  16.351  0.4783  0.0919 -0.4842
  605TMC3    C2 9015   0.698   2.446  16.476 -0.5552 -0.1162 -0.2499
  605TMC3    C3 9016   0.621   2.510  16.563 -0.8620 -0.2831  0.6558
  605TMC3    C4 9017   0.531   2.460  16.309  0.1712 -0.2831  0.1927
  605TMC3    C5 9018   0.455   2.526  16.400  0.1903  0.1878  0.5089
  605TMC3    C6 9019   0.502   2.563  16.526 -0.7966 -0.4687 -0.3918
  605TMC3     C 9020   0.760   2.428  16.255 -0.1509 -0.1494 -0.0171
  605TMC3     O 9021   0.793   2.329  16.193 -0.2727 -0.1748  0.4045
  605TMC3     H 9022   0.790   2.403  16.515 -1.7557 -2.3214  0.0889
  605TMC3    H1 9023   0.492   2.427  16.214  0.5769 -0.2420  0.0149
  605TMC3    H2 9024   0.449   2.625  16.597  2.3017 -1.1444  2.5412
  605TMC3    C7 9025   0.336   2.591  16.366 -0.2321 -0.1299 -0.1122
  605TMC3    C8 9026   0.696   2.581  16.671  0.1397  0.1033 -0.5255
  605TMC3    O1 9027   0.267   2.627  16.456  0.0126  0.1047  0.3387
  605TMC3    O2 9028   0.640   2.626  16.769  0.3423 -0.4721 -0.5024
  606TMC3    C1 9029   2.424   1.136  17.693  0.5569  0.1372 -1.0795
  606TMC3    C2 9030   2.534   1.053  17.688 -0.2838  0.4970 -1.1785
  606TMC3    C3 9031   2.569   1.001   0.064  0.1809 -0.5659  0.1773
  606TMC3    C4 9032   2.353   1.153   0.054 -0.3395  0.3206 -0.3411
  606TMC3    C5 9033   2.389   1.098   0.171  0.7095 -0.3084  1.1747
  606TMC3    C6 9034   2.505   1.029   0.184 -0.1441 -0.4063 -0.9692
  606TMC3     C 9035   2.409   1.222  17.578 -0.5275  0.2188  0.1868
  606TMC3     O 9036   2.466   1.182  17.477 -0.0628 -0.0415  0.9203
  606TMC3     H 9037   2.586   1.028  17.597  1.5399 -2.8059  0.7519
  606TMC3    H1 9038   2.267   1.218   0.067 -1.0193 -0.6122 -0.1839
  606TMC3    H2 9039   2.536   0.994   0.282  2.1394  2.4923 -0.6314
  606TMC3    C7 9040   2.309   1.118   0.291 -0.6079 -0.4516  0.3216
  606TMC3    C8 9041   2.688   0.925   0.059 -0.0073  0.1240  0.5750
  606TMC3    O1 9042   2.359   1.123   0.402 -0.2436  0.4251  0.0064
  606TMC3    O2 9043   2.770   0.952  17.714 -0.0297  0.3045  0.2189
  607MPD2     C 9044   3.986   3.894  11.844 -0.7797 -0.2324 -0.1274
  607MPD2    C1 9045   4.078   3.949  11.932  0.3086 -0.0887  0.0911
  607MPD2    C2 9046   4.065   3.951  12.070 -0.8638 -0.5494  0.4996
  607MPD2    C3 9047   3.974   3.871  12.134 -0.6840  0.5760  0.3437
  607MPD2    C4 9048   3.883   3.810  12.047  0.8384  0.6565 -0.4584
  607MPD2    C5 9049   3.884   3.824  11.913 -0.0860 -0.8066  0.1562
  607MPD2     H 9050   4.150   3.990  12.126 -2.0324  0.6547  1.4305
  607MPD2    H1 9051   3.812   3.735  12.080 -0.5985  2.8793  1.4809
  607MPD2    H2 9052   3.990   3.881  11.737 -1.6913 -0.1666 -0.1679
  607MPD2    H3 9053   3.809   3.766  11.860 -0.1758 -1.6986  1.2656
  607MPD2     N 9054   3.981   3.849  12.274 -0.5286 -0.2400 -0.2307
  607MPD2    H5 9055   4.058   3.892  12.324  0.9026 -2.3549 -0.6203
  607MPD2    N1 9056   4.203   3.988  11.887 -0.3375  0.0341  0.8516
  607MPD2    H7 9057   4.258   4.027  11.962 -0.1131 -1.5773  1.5382
  608TMC3    C1 9058   4.398   4.004  11.769  0.6370  0.5169  0.5485
  608TMC3    C2 9059   4.466   3.970  11.884  0.5233  0.0397 -0.3107
  608TMC3    C3 9060   4.601   4.007  11.893  0.0233  1.0758  0.0438
  608TMC3    C4 9061   4.460   4.088  11.674  0.3145 -0.1459  0.3234
  608TMC3    C5 9062   4.591   4.130  11.683 -0.2158  0.6529  0.2513
  608TMC3    C6 9063   4.668   4.088  11.795 -0.6109  0.0669  0.7945
  608TMC3     C 9064   4.256   3.983  11.759  0.3007 -0.2084  0.4717
  608TMC3     O 9065   4.205   3.959  11.649 -0.0657 -0.0644 -0.4290
  608TMC3     H 9066   4.430   3.898  11.957  0.6966 -0.7477 -1.0026
  608TMC3    H1 9067   4.405   4.109  11.583  0.9848  0.0443 -0.0304
  608TMC3    H2 9068   0.035   4.116  11.805  0.3156 -2.9002 -0.4562
  608TMC3    C7 9069   4.649   4.208  11.579 -0.6506  0.4282  0.7433
  608TMC3    C8 9070   4.658   4.001  12.025 -0.7976 -0.6693  0.1876
  608TMC3    O1 9071   4.560   4.260  11.510 -0.1548  0.2818 -0.1082
  608TMC3    O2 9072   0.039   3.995  12.044  0.3002  0.0574 -0.6225
  609TMC3    C1 9073   3.099   3.122   9.620  0.2815  0.5610  0.5608
  609TMC3    C2 9074   3.053   3.076   9.497  0.6680 -0.3644  0.2517
  609TMC3    C3 9075   3.137   2.992   9.421  0.3194 -0.6514 -0.0574
  609TMC3    C4 9076   3.212   3.065   9.681 -0.2765 -0.1079 -0.5633
  609TMC3    C5 9077   3.275   2.971   9.604  0.1944  0.0801 -0.0985
  609TMC3    C6 9078   3.251   2.935   9.473  0.2836  0.5934 -0.7772
  609TMC3     C 9079   3.008   3.191   9.713 -0.3412 -0.1169  0.2159
  609TMC3     O 9080   3.047   3.190   9.829 -0.5400 -0.2631  0.2454
  609TMC3     H 9081   2.955   3.097   9.454  1.0380  2.8601  1.0352
  609TMC3    H1 9082   3.232   3.077   9.787  2.9963 -0.1973 -1.1737
  609TMC3    H2 9083   3.303   2.856   9.421  2.4823  1.1269  0.6424
  609TMC3    C7 9084   3.388   2.900   9.665  0.1693  0.1329 -0.9161
  609TMC3    C8 9085   3.108   2.955   9.287 -0.2843  0.6918  0.0362
  609TMC3    O1 9086   3.443   2.973   9.748 -0.3175 -0.4360 -0.0541
  609TMC3    O2 9087   3.159   2.850   9.244 -0.1228  0.0723 -0.6560
  610TMC3    C1 9088   4.622   4.191  12.674  0.2022 -0.3244 -0.2483
  610TMC3    C2 9089   4.681   4.277  12.581 -0.2191 -0.4331  0.1319
  610TMC3    C3 9090   0.077   4.262  12.554 -0.3182  0.1451  0.4249
  610TMC3    C4 9091   4.693   4.100  12.750  0.1405 -0.0568  0.6404
  610TMC3    C5 9092   0.093   4.102  12.721  0.6771  0.2427  0.8017
  610TMC3    C6 9093   0.151   4.173  12.620  1.0079  0.1595  0.2223
  610TMC3     C 9094   4.494   4.226  12.731 -0.4407  0.3173 -0.4499
  610TMC3     O 9095   4.421   4.136  12.774 -0.3496  0.2878 -0.2210
  610TMC3     H 9096   4.616   4.335  12.517  1.8034  0.4816 -1.0685
  610TMC3    H1 9097   4.648   4.035  12.825  3.3618 -1.1516  1.6354
  610TMC3    H2 9098   0.251   4.145  12.589  1.2461  0.0086  1.1247
  610TMC3    C7 9099   0.180   4.016  12.802 -0.1435  0.1492 -0.3945
  610TMC3    C8 9100   0.116   4.329  12.434  0.3633  0.2594 -0.2968
  610TMC3    O1 9101   0.138   3.905  12.829 -0.2485  0.2665 -0.0999
  610TMC3    O2 9102   0.024   4.358  12.360 -0.4417  0.5144 -0.1424
  611MPD2     C 9103   4.051   3.945  11.004  0.5878  0.1791 -0.1639
  611MPD2    C1 9104   3.999   3.944  10.874  0.4223  0.0206 -0.3441
  611MPD2    C2 9105   4.046   4.035  10.778  0.8184  0.1739  0.0764
  611MPD2    C3 9106   4.146   4.131  10.813 -0.5319 -1.1211 -0.5053
  611MPD2    C4 9107   4.189   4.131  10.944 -0.0200  0.0912  0.6576
  611MPD2    C5 9108   4.154   4.034  11.034  0.6465 -0.4815  0.3928
  611MPD2     H 9109   4.005   4.032  10.677 -1.0619  2.6135  0.7863
  611MPD2    H1 9110   4.268   4.203  10.961 -0.6870  0.6128  1.5802
  611MPD2    H2 9111   4.016   3.872  11.075  0.0553 -0.7236 -1.3617
  611MPD2    H3 9112   4.190   4.035  11.136  0.2719  0.2507  0.5135
  611MPD2     N 9113   4.206   4.233  10.730  0.2911 -0.6341 -0.7190
  611MPD2    H5 9114   4.282   4.281  10.777 -0.2098 -1.2074  0.6697
  611MPD2    N1 9115   3.901   3.848  10.845 -0.2819  0.7087 -0.3601
  611MPD2    H7 9116   3.879   3.781  10.918  2.1204  0.3598  0.0498
  612TMC3    C1 9117   4.236   4.382  10.540 -0.3893  0.5988  0.1949
  612TMC3    C2 9118   4.333   4.448  10.621 -0.3220 -0.2980  0.4449
  612TMC3    C3 9119   4.372   4.574  10.583  0.0833  0.0320  0.3819
  612TMC3    C4 9120   4.183   4.440  10.433 -0.2564  0.1578  0.1261
  612TMC3    C5 9121   4.223   4.568  10.401  0.5427  0.2971 -0.0640
  612TMC3    C6 9122   4.325   4.631  10.470  0.2031  1.1015 -0.1257
  612TMC3     C 9123   4.166   4.266  10.600  0.4341 -0.3783  0.3415
  612TMC3     O 9124   4.075   4.221  10.532  0.1007  0.2017 -0.2999
  612TMC3     H 9125   4.365   4.395  10.710  2.3411 -2.1586 -1.6319
  612TMC3    H1 9126   4.098   4.397  10.381  0.2347  0.7157 -1.1236
  612TMC3    H2 9127   4.353   4.735  10.457 -0.3374  1.5703  2.3972
  612TMC3    C7 9128   4.172   4.625  10.278  0.4653 -0.3808  0.5209
  612TMC3    C8 9129   4.494   4.630  10.626 -0.3695  0.0592  0.6769
  612TMC3    O1 9130   4.080   4.568  10.217 -0.4271  0.1479 -0.1595
  612TMC3    O2 9131   4.527   0.002  10.588  0.2116 -0.1942  0.2790
  613MPD2     C 9132   3.628   1.633  16.704 -0.2495  0.1359  0.4119
  613MPD2    C1 9133   3.535   1.675  16.614 -0.7177 -0.3690  0.4035
  613MPD2    C2 9134   3.405   1.629  16.628 -0.3345  0.0049 -0.2590
  613MPD2    C3 9135   3.367   1.542  16.726  0.1886 -0.9632 -0.6470
  613MPD2    C4 9136   3.462   1.507  16.814  0.9344  0.0649 -0.2472
  613MPD2    C5 9137   3.588   1.551  16.805 -0.1087 -0.2621  0.3551
  613MPD2     H 9138   3.330   1.650  16.552 -0.3031  0.0245 -0.2843
  613MPD2    H1 9139   3.437   1.451  16.903  0.5765 -0.8814 -0.9447
  613MPD2    H2 9140   3.728   1.674  16.690 -1.4381  2.3646 -1.5530
  613MPD2    H3 9141   3.656   1.526  16.887  0.0693 -1.9601 -0.3098
  613MPD2     N 9142   3.232   1.490  16.723  0.1427  0.3950  0.7061
  613MPD2    H5 9143   3.182   1.501  16.636 -1.1791 -1.0205  1.2862
  613MPD2    N1 9144   3.577   1.733  16.495  0.2358 -0.8643 -0.4508
  613MPD2    H7 9145   3.673   1.731  16.462  0.3223 -1.2912 -0.1652
  614TMC3    C1 9146   3.532   1.810  16.267 -0.3677  0.1862 -0.4255
  614TMC3    C2 9147   3.547   1.687  16.211  0.6469 -0.4446  0.5297
  614TMC3    C3 9148   3.488   1.654  16.094 -0.1518 -0.2639 -0.1035
  614TMC3    C4 9149   3.473   1.907  16.196 -0.1206 -0.6041 -0.2860
  614TMC3    C5 9150   3.419   1.873  16.072  0.4508  0.5774 -0.3224
  614TMC3    C6 9151   3.424   1.750  16.022  0.0423  0.0190 -0.8502
  614TMC3     C 9152   3.491   1.803  16.409 -0.5144  0.9754 -0.0430
  614TMC3     O 9153   3.373   1.834  16.427 -0.5118  0.5233  0.0397
  614TMC3     H 9154   3.590   1.606  16.269  1.0392 -0.4955  0.1627
  614TMC3    H1 9155   3.456   2.006  16.236  0.8255  0.0094 -1.3980
  614TMC3    H2 9156   3.380   1.722  15.927  0.5839 -1.1382 -0.7706
  614TMC3    C7 9157   3.326   1.967  16.003 -0.0973  0.1375  0.2120
  614TMC3    C8 9158   3.421   1.521  16.112 -0.1594 -0.7690  0.0853
  614TMC3    O1 9159   3.318   2.083  16.043 -0.4235  0.0985  0.8981
  614TMC3    O2 9160   3.447   1.458  16.213  0.5597  0.0951 -0.0199
  615MPD2     C 9161   2.958   3.099  15.927  0.6503 -0.1366 -0.2451
  615MPD2    C1 9162   2.842   3.168  15.895  0.2381  0.0230 -0.3986
  615MPD2    C2 9163   2.741   3.100  15.831 -0.6691 -0.2370 -0.0612
  615MPD2    C3 9164   2.753   2.961  15.805  0.1602 -0.2675  1.0154
  615MPD2    C4 9165   2.860   2.892  15.860  0.1531  0.0728 -0.1492
  615MPD2    C5 9166   2.965   2.965  15.910  0.4560 -0.5743 -0.3411
  615MPD2     H 9167   2.654   3.156  15.799  0.6240  0.2175 -2.7672
  615MPD2    H1 9168   2.867   2.785  15.848 -0.0502  0.0523 -0.0671
  615MPD2    H2 9169   3.045   3.156  15.956  1.6349 -0.9962 -1.5396
  615MPD2    H3 9170   3.051   2.915  15.953 -0.2613 -1.0349  0.5625
  615MPD2     N 9171   2.655   2.904  15.719 -0.2487 -0.2399 -0.4186
  615MPD2    H5 9172   2.655   2.803  15.709  0.0747 -0.3485  0.6514
  615MPD2    N1 9173   2.817   3.306  15.921 -0.1496  0.5233 -0.2601
  615MPD2    H7 9174   2.729   3.353  15.902  0.2911  1.3039 -0.3292
  616TMC3    C1 9175   2.829   3.517  16.032  0.1628  0.9059  0.0095
  616TMC3    C2 9176   2.890   3.587  16.129 -0.1831  0.2301 -0.3707
  616TMC3    C3 9177   2.865   3.719  16.124 -0.5965  0.4143 -0.1111
  616TMC3    C4 9178   2.758   3.576  15.929  0.4211  0.6601 -0.6084
  616TMC3    C5 9179   2.730   3.710  15.935 -0.2815 -0.2153 -0.4941
  616TMC3    C6 9180   2.786   3.783  16.035  0.3683 -0.1606 -0.0915
  616TMC3     C 9181   2.891   3.383  16.007 -0.1934 -0.4255  0.0553
  616TMC3     O 9182   3.000   3.365  16.062 -0.5735  0.2276  0.4025
  616TMC3     H 9183   2.942   3.547  16.215  0.1481  0.9287 -0.2440
  616TMC3    H1 9184   2.725   3.513  15.848 -1.1118  1.2403 -0.4353
  616TMC3    H2 9185   2.774   3.890  16.048  1.1737 -0.1133  0.3041
  616TMC3    C7 9186   2.616   3.763  15.867  0.4269 -1.0813 -0.1887
  616TMC3    C8 9187   2.929   3.796  16.225 -0.3176 -0.2883 -0.4362
  616TMC3    O1 9188   2.593   3.885  15.881 -0.5107 -0.2128 -0.4051
  616TMC3    O2 9189   2.871   3.895  16.258 -0.5052  0.0576  0.0189
  617MPD2     C 9190   0.616   1.499  14.042 -0.1991  0.1075  0.0835
  617MPD2    C1 9191   0.671   1.414  14.138  0.7617  0.6192 -0.6888
  617MPD2    C2 9192   0.590   1.334  14.214  0.4065 -0.1413 -0.3798
  617MPD2    C3 9193   0.453   1.337  14.205  0.3051 -0.6733  0.2673
  617MPD2    C4 9194   0.395   1.421  14.108 -0.1865  0.2510 -0.5067
  617MPD2    C5 9195   0.477   1.497  14.027  0.5312  0.5528 -0.6241
  617MPD2     H 9196   0.637   1.270  14.288  2.6118 -0.4342 -2.0079
  617MPD2    H1 9197   0.287   1.427  14.092 -0.1172  0.3273 -0.9652
  617MPD2    H2 9198   0.678   1.558  13.974 -0.5750  1.5695  1.0157
  617MPD2    H3 9199   0.433   1.561  13.952 -1.9064  0.0700  0.3877
  617MPD2     N 9200   0.370   1.260  14.288  0.1992 -0.0043 -1.0141
  617MPD2    H5 9201   0.270   1.254  14.269  0.2704  0.3722 -1.4826
  617MPD2    N1 9202   0.813   1.419  14.159 -0.0409 -0.1681 -0.0390
  617MPD2    H7 9203   0.865   1.483  14.099  2.7643 -1.4700  1.0334
  618TMC3    C1 9204   1.030   1.361  14.231  0.2577 -0.7766 -0.2519
  618TMC3    C2 9205   1.108   1.278  14.310 -1.0677 -0.9102  0.2387
  618TMC3    C3 9206   1.233   1.238  14.275  0.0952  0.2273 -0.1929
  618TMC3    C4 9207   1.085   1.399  14.111  0.0614 -0.2200 -0.5484
  618TMC3    C5 9208   1.202   1.349  14.068  0.9915  0.1188  0.5269
  618TMC3    C6 9209   1.279   1.270  14.151  0.9429 -0.0185  0.1935
  618TMC3     C 9210   0.890   1.359  14.255  0.7147  0.4512  0.3859
  618TMC3     O 9211   0.855   1.315  14.359 -0.5103 -0.2450 -0.1796
  618TMC3     H 9212   1.064   1.262  14.408  2.4458  0.3474  2.0334
  618TMC3    H1 9213   1.025   1.454  14.039  0.7692  1.6627  0.2963
  618TMC3    H2 9214   1.370   1.220  14.121  0.7577  0.7574 -1.6739
  618TMC3    C7 9215   1.229   1.338  13.927 -0.0651 -0.1528 -0.2694
  618TMC3    C8 9216   1.257   1.106  14.333 -0.2164 -0.2189 -0.0419
  618TMC3    O1 9217   1.132   1.342  13.850  0.0230 -0.4965 -0.1043
  618TMC3    O2 9218   1.230   1.086  14.453 -0.3130  0.3245 -0.4772
  619MPD2     C 9219   1.909   2.023  14.134 -0.2788  0.5770  0.2400
  619MPD2    C1 9220   1.923   2.147  14.081  0.4277  0.4168  0.6498
  619MPD2    C2 9221   1.821   2.237  14.092 -0.5011  0.1996 -0.4148
  619MPD2    C3 9222   1.701   2.195  14.149 -0.1768 -0.1860  0.1162
  619MPD2    C4 9223   1.680   2.061  14.193  0.1929  0.3168 -0.3571
  619MPD2    C5 9224   1.793   1.981  14.194 -0.3486 -0.1799  0.1899
  619MPD2     H 9225   1.834   2.340  14.061  0.4687  1.2674  3.4986
  619MPD2    H1 9226   1.593   2.005  14.224  0.7590  0.5712  1.6776
  619MPD2    H2 9227   1.992   1.952  14.136 -0.4173  0.3608 -1.5416
  619MPD2    H3 9228   1.781   1.885  14.242  0.0449 -0.2353  0.1768
  619MPD2     N 9229   1.586   2.275  14.147 -0.3086  0.1623  0.2710
  619MPD2    H5 9230   1.508   2.239  14.201 -0.3877  1.2963  0.8984
  619MPD2    N1 9231   2.038   2.178  14.009  0.5196 -0.3936 -0.8453
  619MPD2    H7 9232   2.101   2.114  13.962  0.5554 -1.6568  0.9398
  620TMC3    C1 9233   2.158   2.330  13.875  0.4216 -0.0231  0.0862
  620TMC3    C2 9234   2.077   2.296  13.770  0.8138 -0.3677 -0.2637
  620TMC3    C3 9235   2.049   2.395  13.672 -0.2238 -0.0506 -0.1330
  620TMC3    C4 9236   2.212   2.453  13.883 -0.2173 -0.6161  0.2739
  620TMC3    C5 9237   2.182   2.547  13.787  0.3057  0.8894 -0.3506
  620TMC3    C6 9238   2.109   2.514  13.676  0.1430  0.2667 -0.1979
  620TMC3     C 9239   2.084   2.310  13.995 -0.0113 -0.8748  0.7046
  620TMC3     O 9240   2.058   2.411  14.063 -0.4370 -0.0338 -0.0057
  620TMC3     H 9241   2.020   2.204  13.768 -1.1464  0.8461 -0.0818
  620TMC3    H1 9242   2.263   2.478  13.975  0.4187 -2.0818  0.3071
  620TMC3    H2 9243   2.080   2.580  13.596 -0.4584  0.0273 -0.1760
  620TMC3    C7 9244   2.170   2.684  13.825  0.5015 -0.2449  0.5567
  620TMC3    C8 9245   1.899   2.405  13.637  0.0670 -0.0427 -0.2279
  620TMC3    O1 9246   2.098   2.753  13.752 -0.1304  0.1739  0.5694
  620TMC3    O2 9247   1.830   2.305  13.647 -0.2140  0.1105  0.3901
  621MPD2     C 9248   2.545   2.601  10.063  0.1635 -0.1565  0.4768
  621MPD2    C1 9249   2.671   2.551  10.095 -0.3175  0.7524 -0.5507
  621MPD2    C2 9250   2.767   2.637  10.130  0.3193  0.8895  0.0619
  621MPD2    C3 9251   2.742   2.774  10.131  0.1539  0.4681 -0.2010
  621MPD2    C4 9252   2.615   2.825  10.099 -0.3732 -0.0746 -0.6615
  621MPD2    C5 9253   2.518   2.734  10.067 -0.1330 -0.0437  0.3915
  621MPD2     H 9254   2.870   2.603  10.137  0.3055  0.6467 -0.8357
  621MPD2    H1 9255   2.591   2.930  10.112  0.4922  0.0425  0.0676
  621MPD2    H2 9256   2.458   2.537  10.047  0.9345 -0.9472 -0.5588
  621MPD2    H3 9257   2.420   2.775  10.047  0.2320  1.4449  1.6421
  621MPD2     N 9258   2.846   2.866  10.166  0.2589  0.5681 -0.5435
  621MPD2    H5 9259   2.932   2.821  10.197 -0.2781 -0.1093 -0.0254
  621MPD2    N1 9260   2.700   2.409  10.107 -0.3450 -0.2759 -0.0857
  621MPD2    H7 9261   2.774   2.380  10.169 -0.7240  1.0060  0.9805
  622TMC3    C1 9262   2.693   2.185  10.060  0.3102  0.3976  0.4339
  622TMC3    C2 9263   2.740   2.160  10.193 -0.5297  0.5705  0.3585
  622TMC3    C3 9264   2.779   2.030  10.218  0.5901  0.1928 -0.2758
  622TMC3    C4 9265   2.670   2.093   9.962 -0.4112 -0.1685 -0.3111
  622TMC3    C5 9266   2.715   1.969   9.995  0.7032 -0.4335 -0.7238
  622TMC3    C6 9267   2.773   1.938  10.117 -0.4804 -0.4879 -0.4310
  622TMC3     C 9268   2.639   2.314  10.030 -0.0665  0.8098 -0.2755
  622TMC3     O 9269   2.560   2.322   9.937  0.4999  0.1434 -0.1125
  622TMC3     H 9270   2.738   2.238  10.269 -1.7792 -0.2418  1.1597
  622TMC3    H1 9271   2.614   2.108   9.870  1.4552 -0.9745 -1.5901
  622TMC3    H2 9272   2.817   1.841  10.137  1.3644  0.5804  0.6961
  622TMC3    C7 9273   2.682   1.854   9.908  0.4548 -0.5921  0.0502
  622TMC3    C8 9274   2.743   1.976  10.343 -0.0850 -1.1110  0.0577
  622TMC3    O1 9275   2.750   1.756   9.932  0.3578 -0.3263 -0.1155
  622TMC3    O2 9276   2.788   1.864  10.363 -0.2880 -0.5482  0.5594
  623MPD2     C 9277   1.215   3.146  15.872 -0.4862 -0.9007 -0.1232
  623MPD2    C1 9278   1.152   3.046  15.936 -0.1265  0.0871 -0.0000
  623MPD2    C2 9279   1.232   2.964  16.016 -0.2076 -0.1426  0.0138
  623MPD2    C3 9280   1.357   3.005  16.059 -0.3217  0.1483 -0.4120
  623MPD2    C4 9281   1.421   3.112  16.004  0.3164 -0.4036  0.2925
  623MPD2    C5 9282   1.348   3.176  15.907  0.3675  0.0449 -0.0911
  623MPD2     H 9283   1.194   2.869  16.052  1.3249 -1.0681 -0.7852
  623MPD2    H1 9284   1.528   3.125  15.997 -0.0920  2.3605 -0.9993
  623MPD2    H2 9285   1.166   3.210  15.799  1.0713 -0.5525 -0.8668
  623MPD2    H3 9286   1.391   3.261  15.855  1.8345  0.2196  1.4145
  623MPD2     N 9287   1.417   2.931  16.170  0.0692  0.0587  0.2320
  623MPD2    H5 9288   1.363   2.853  16.206  0.4114  0.2672  1.2017
  623MPD2    N1 9289   1.012   3.023  15.923  0.1898 -0.0657 -0.0587
  623MPD2    H7 9290   0.952   3.098  15.891 -2.1826 -2.0736 -0.3129
  624TMC3    C1 9291   1.657   2.881  16.573  0.1108  0.4165 -0.4114
  624TMC3    C2 9292   1.553   2.802  16.623 -0.2162 -0.1971 -0.3266
  624TMC3    C3 9293   1.459   2.764  16.532 -0.2581 -1.1537 -0.3381
  624TMC3    C4 9294   1.652   2.930  16.444 -0.4175 -0.4386 -0.3236
  624TMC3    C5 9295   1.549   2.887  16.362  0.0278 -0.7043  0.7045
  624TMC3    C6 9296   1.465   2.796  16.398  0.7485  0.0725 -0.4856
  624TMC3     C 9297   1.792   2.879  16.632  0.7215 -0.5736 -0.4437
  624TMC3     O 9298   1.863   2.971  16.594  0.4428 -0.0959 -0.0667
  624TMC3     H 9299   1.550   2.788  16.730 -1.6740  0.0524 -0.3344
  624TMC3    H1 9300   1.733   2.989  16.402  0.2568 -2.1503 -1.4408
  624TMC3    H2 9301   1.394   2.746  16.332 -0.1207  1.5156 -0.6438
  624TMC3    C7 9302   1.536   2.951  16.235  0.0054  0.6091  0.0123
  624TMC3    C8 9303   1.335   2.708  16.575  0.4279 -0.9339  0.1181
  624TMC3    O1 9304   1.618   3.035  16.197  0.2597 -0.1118 -0.3299
  624TMC3    O2 9305   1.296   2.614  16.510 -0.1321  0.6617 -0.1610
  625MPD2     C 9306   2.039   3.702   0.572  0.2378  0.4315 -0.4091
  625MPD2    C1 9307   2.079   3.821   0.634  0.7007 -0.3221 -0.1763
  625MPD2    C2 9308   2.200   3.818   0.698 -0.0148  0.0978 -0.1350
  625MPD2    C3 9309   2.282   3.709   0.706 -0.2331  0.0758 -0.1894
  625MPD2    C4 9310   2.228   3.593   0.658 -0.0644 -0.6281 -0.0170
  625MPD2    C5 9311   2.110   3.586   0.586  0.6521  0.2451  0.1187
  625MPD2     H 9312   2.227   3.915   0.739  0.0306 -0.6525  1.6081
  625MPD2    H1 9313   2.278   3.501   0.683 -0.9985 -0.8171  1.1605
  625MPD2    H2 9314   1.947   3.700   0.515  1.9858  0.5985 -3.2536
  625MPD2    H3 9315   2.090   3.494   0.531  1.4624 -0.0824  0.3725
  625MPD2     N 9316   2.404   3.723   0.769 -0.2034 -0.3551 -0.3268
  625MPD2    H5 9317   2.418   3.818   0.801  0.3781 -0.6134  0.1741
  625MPD2    N1 9318   1.994   3.939   0.636  0.5240  0.3580 -1.0031
  625MPD2    H7 9319   2.029   4.014   0.694  0.3030 -0.5346  0.3044
  626TMC3    C1 9320   1.808   4.073   0.638 -0.7916  0.2416 -0.1521
  626TMC3    C2 9321   1.684   4.113   0.591 -0.0375 -0.6260  0.2605
  626TMC3    C3 9322   1.625   4.233   0.640  0.0969 -0.0787  0.0429
  626TMC3    C4 9323   1.877   4.154   0.724 -0.3176  0.2220 -0.2819
  626TMC3    C5 9324   1.813   4.270   0.772 -0.7398  0.1661  0.1193
  626TMC3    C6 9325   1.696   4.314   0.721  0.3012 -0.0565 -0.3284
  626TMC3     C 9326   1.869   3.949   0.590  0.3233 -0.4987  0.1383
  626TMC3     O 9327   1.795   3.864   0.537 -0.7794 -0.0559  0.2175
  626TMC3     H 9328   1.637   4.047   0.518 -0.5281  0.0393 -0.0162
  626TMC3    H1 9329   1.968   4.123   0.775 -0.7875 -2.2879 -0.9597
  626TMC3    H2 9330   1.658   4.411   0.753 -1.2241 -0.9088  0.4832
  626TMC3    C7 9331   1.887   4.344   0.879 -0.6210 -0.4989 -0.1231
  626TMC3    C8 9332   1.504   4.284   0.576 -0.0389  0.3826 -0.1783
  626TMC3    O1 9333   2.005   4.327   0.901  0.9864  0.1974 -0.2452
  626TMC3    O2 9334   1.470   4.231   0.471  0.2482  0.0670 -0.6886
  627MPD2     C 9335   0.353   4.493  14.914 -0.3491 -0.4814 -0.2278
  627MPD2    C1 9336   0.441   4.531  14.809 -0.5940 -0.1188 -0.1298
  627MPD2    C2 9337   0.450   4.456  14.691 -1.3804  0.0223 -0.3441
  627MPD2    C3 9338   0.376   4.342  14.677 -0.5715 -0.1037  0.3515
  627MPD2    C4 9339   0.285   4.312  14.780  0.3839 -0.0790  0.6311
  627MPD2    C5 9340   0.280   4.386  14.896  0.4842  0.3488 -0.1797
  627MPD2     H 9341   0.516   4.487  14.611 -2.4173 -1.4416 -1.7724
  627MPD2    H1 9342   0.218   4.227  14.771  1.1448 -0.4860 -1.2416
  627MPD2    H2 9343   0.338   4.559  14.998 -0.1521 -0.1698 -0.4358
  627MPD2    H3 9344   0.205   4.369  14.973  0.3625 -1.2675 -0.6537
  627MPD2     N 9345   0.379   4.280  14.550 -0.0500 -0.0318  0.3457
  627MPD2    H5 9346   0.441   4.334  14.490  1.1327 -0.4076  1.2335
  627MPD2    N1 9347   0.527   4.641  14.821  0.4527 -0.4340 -0.0047
  627MPD2    H7 9348   0.586   4.651  14.740  1.4391 -3.0523  0.3927
  628TMC3    C1 9349   0.654   0.075  14.901 -0.3621  0.2062  0.1953
  628TMC3    C2 9350   0.769   0.010  14.866 -0.7336 -0.8559 -0.5284
  628TMC3    C3 9351   0.892   0.066  14.905 -0.1718 -0.0192  0.3361
  628TMC3    C4 9352   0.662   0.206  14.939  0.3045 -0.3090 -0.1099
  628TMC3    C5 9353   0.779   0.260  14.978 -0.1146 -0.4428 -0.4143
  628TMC3    C6 9354   0.894   0.182  14.976 -0.2827 -0.1928  0.1597
  628TMC3     C 9355   0.531   4.736  14.915 -0.2529  0.3327  0.0816
  628TMC3     O 9356   0.443   0.033  14.993  0.4904  0.2274 -0.2219
  628TMC3     H 9357   0.775   4.650  14.818  1.2862 -0.0977 -1.8198
  628TMC3    H1 9358   0.570   0.258  14.963 -0.3259 -1.2728 -0.4223
  628TMC3    H2 9359   0.988   0.233  14.996  0.3889 -0.9439 -1.1226
  628TMC3    C7 9360   0.790   0.401  15.001 -0.4552  0.3849 -0.2090
  628TMC3    C8 9361   1.011   0.010  14.842  0.6398  0.4114 -0.2819
  628TMC3    O1 9362   0.886   0.440  15.068  0.1709  0.4632  0.6225
  628TMC3    O2 9363   1.000   4.697  14.729  0.8189 -0.3895  0.0323
  629MPD2     C 9364   3.283   3.861  16.594 -0.2929 -0.0614  0.2644
  629MPD2    C1 9365   3.338   3.780  16.494 -0.0951  0.1720  0.1303
  629MPD2    C2 9366   3.256   3.753  16.381  0.1766  0.3194  0.3251
  629MPD2    C3 9367   3.129   3.801  16.368  0.5116 -0.4218 -0.2886
  629MPD2    C4 9368   3.077   3.880  16.468  0.1246  0.0814 -0.3472
  629MPD2    C5 9369   3.149   3.909  16.578  0.0012  0.4821  0.1821
  629MPD2     H 9370   3.298   3.696  16.299 -0.5518  0.4977 -0.1662
  629MPD2    H1 9371   2.975   3.916  16.469  0.2438  0.3837  0.9677
  629MPD2    H2 9372   3.335   3.878  16.688 -0.7725  1.5148  0.2510
  629MPD2    H3 9373   3.108   3.965  16.661 -1.0585 -0.1355  0.0802
  629MPD2     N 9374   3.057   3.761  16.254  0.0091 -0.0651 -0.1150
  629MPD2    H5 9375   3.105   3.695  16.194  0.3409 -1.2032  1.3811
  629MPD2    N1 9376   3.471   3.738  16.503  0.0020 -0.5799 -0.1889
  629MPD2    H7 9377   3.520   3.746  16.591  0.5019  0.2833 -0.5480
  630TMC3    C1 9378   3.682   3.671  16.419  0.1865 -0.8338  1.1224
  630TMC3    C2 9379   3.781   3.681  16.325 -0.9771 -0.4085 -0.5575
  630TMC3    C3 9380   3.913   3.644  16.373 -1.0618  0.0336 -0.4447
  630TMC3    C4 9381   3.702   3.633  16.551  0.1987 -0.1833 -0.0255
  630TMC3    C5 9382   3.832   3.593  16.578 -0.2474 -0.7798  0.0692
  630TMC3    C6 9383   3.943   3.610  16.499  0.2578  0.3433 -0.1190
  630TMC3     C 9384   3.551   3.716  16.388 -0.9698 -1.1805 -0.1362
  630TMC3     O 9385   3.524   3.747  16.274  0.2974 -0.3297  0.5525
  630TMC3     H 9386   3.761   3.711  16.222 -0.1960 -1.7062 -1.0784
  630TMC3    H1 9387   3.637   3.588  16.624  0.1819 -0.4746 -0.2196
  630TMC3    H2 9388   4.037   3.565  16.527  0.3295 -0.3673 -1.5013
  630TMC3    C7 9389   3.860   3.554  16.713  0.4795 -0.3835  0.8728
  630TMC3    C8 9390   4.017   3.706  16.304  0.5304 -1.2195 -0.7588
  630TMC3    O1 9391   3.780   3.489  16.784  0.0422  0.1009 -0.2763
  630TMC3    O2 9392   4.106   3.731  16.385  0.6241 -0.0825 -0.0938
  631MPD2     C 9393   1.712   3.087  15.740 -0.2085 -0.1384  0.2058
  631MPD2    C1 9394   1.766   3.141  15.630  0.0451  0.8043  0.3693
  631MPD2    C2 9395   1.880   3.087  15.580 -1.0062  0.4903 -0.3643
  631MPD2    C3 9396   1.953   2.993  15.650  0.2529  0.1485  0.3214
  631MPD2    C4 9397   1.904   2.950  15.773 -0.0906 -0.4056 -0.0892
  631MPD2    C5 9398   1.788   2.996  15.816 -0.3834 -0.3544 -0.2095
  631MPD2     H 9399   1.920   3.122  15.485  1.0141  0.1816  0.3686
  631MPD2    H1 9400   1.957   2.888  15.845 -0.3527  0.8220  1.1435
  631MPD2    H2 9401   1.615   3.120  15.776 -0.1736 -0.8934  0.9829
  631MPD2    H3 9402   1.762   2.968  15.917 -1.5446 -0.8275 -0.6345
  631MPD2     N 9403   2.071   2.951  15.594  0.7505 -0.2038 -0.3407
  631MPD2    H5 9404   2.098   2.983  15.502  2.6055 -0.4041  0.1236
  631MPD2    N1 9405   1.708   3.253  15.574  0.1706  0.2169  0.0607
  631MPD2    H7 9406   1.640   3.302  15.632 -3.1677 -2.8704 -1.1924
  632TMC3    C1 9407   1.629   3.407  15.420 -0.6005  0.3941  0.0759
  632TMC3    C2 9408   1.536   3.439  15.517  0.1275  0.1727  0.3691
  632TMC3    C3 9409   1.495   3.573  15.511  0.0222 -0.0948  0.1829
  632TMC3    C4 9410   1.658   3.495  15.320 -0.2881 -0.0296  0.2099
  632TMC3    C5 9411   1.610   3.622  15.305  0.3767  0.4461  0.2754
  632TMC3    C6 9412   1.527   3.661  15.412  0.4117  0.5483  0.0137
  632TMC3     C 9413   1.720   3.295  15.445  0.0475 -0.2699 -0.1975
  632TMC3     O 9414   1.766   3.234  15.350  0.0687  0.1236 -0.2980
  632TMC3     H 9415   1.500   3.374  15.596 -1.7777  1.1088  0.2594
  632TMC3    H1 9416   1.739   3.466  15.255 -1.7062 -1.7703 -0.7910
  632TMC3    H2 9417   1.497   3.764  15.430  0.8649  0.4895  1.1367
  632TMC3    C7 9418   1.706   3.718  15.261 -0.5601  0.3447  0.1154
  632TMC3    C8 9419   1.393   3.611  15.611 -0.4353 -0.4317 -0.0113
  632TMC3    O1 9420   1.727   3.811  15.341  0.7384  0.4885 -0.6838
  632TMC3    O2 9421   1.331   3.518  15.666 -0.3375  0.4178 -0.0878
  633MPD2     C 9422   1.030   1.685  17.580 -0.5776  0.4906  0.4859
  633MPD2    C1 9423   1.117   1.585  17.530 -0.4272  0.2213 -0.1472
  633MPD2    C2 9424   1.150   1.473  17.607  0.1473  0.9851  0.5999
  633MPD2    C3 9425   1.108   1.459  17.737  0.0025 -0.0869  0.1345
  633MPD2    C4 9426   1.017   1.553   0.044 -0.0076 -0.4366 -0.2853
  633MPD2    C5 9427   0.985   1.666  17.710 -0.8536 -0.2144 -0.6001
  633MPD2     H 9428   1.230   1.409  17.571 -1.2884 -1.1781  1.2987
  633MPD2    H1 9429   0.971   1.540   0.141  0.0961  1.1436 -0.0154
  633MPD2    H2 9430   0.980   1.764  17.525 -0.6274 -0.2878 -0.5906
  633MPD2    H3 9431   0.921   1.744   0.003 -1.7751 -0.9364 -0.6480
  633MPD2     N 9432   1.164   1.357   0.072 -0.0213  0.4944  0.0665
  633MPD2    H5 9433   1.144   1.351   0.171  0.1176  1.0127  0.1244
  633MPD2    N1 9434   1.181   1.593  17.400  0.2357  0.4547  0.3939
  633MPD2    H7 9435   1.235   1.512  17.372  1.7134  2.2403 -1.8964
  634TMC3    C1 9436   1.230   1.685  17.190  0.2416  0.5676 -0.1514
  634TMC3    C2 9437   1.307   1.579  17.170 -0.1121  0.4439 -0.1498
  634TMC3    C3 9438   1.381   1.572  17.053 -0.1553 -0.6644  0.4346
  634TMC3    C4 9439   1.228   1.795  17.107  0.0054  0.0708 -0.2738
  634TMC3    C5 9440   1.313   1.792  16.999 -0.1200  0.1064 -0.0933
  634TMC3    C6 9441   1.368   1.674  16.962 -0.2063  0.4188  0.4898
  634TMC3     C 9442   1.155   1.700  17.315 -0.6974 -0.1707 -0.6351
  634TMC3     O 9443   1.076   1.795  17.321 -0.0482 -0.0513 -0.7387
  634TMC3     H 9444   1.321   1.499  17.242 -1.5542  1.1892  0.9484
  634TMC3    H1 9445   1.163   1.881  17.123 -1.0761 -1.0125  1.2248
  634TMC3    H2 9446   1.427   1.673  16.871  1.1481  0.2761  1.3672
  634TMC3    C7 9447   1.312   1.903  16.903  0.0532 -0.3654  0.0596
  634TMC3    C8 9448   1.476   1.460  17.040 -0.4010  0.6373 -0.3491
  634TMC3    O1 9449   1.386   1.895  16.811 -0.0966 -0.0166  0.0464
  634TMC3    O2 9450   1.467   1.365  17.115 -0.1381  0.1982 -0.8947
  635TMC3    C1 9451   1.696   1.904   0.161 -0.6056  0.7256  0.2100
  635TMC3    C2 9452   1.760   1.984   0.071 -0.5680 -0.1011 -0.3448
  635TMC3    C3 9453   1.772   1.940  17.684  0.0383 -0.2426 -0.2445
  635TMC3    C4 9454   1.656   1.779   0.128 -0.1525 -0.3728 -0.2448
  635TMC3    C5 9455   1.678   1.738  17.745 -0.1932 -0.3803 -0.1594
  635TMC3    C6 9456   1.740   1.810  17.653 -0.5976  0.4745  0.2558
  635TMC3     C 9457   1.725   1.942   0.293  0.2049  0.1768  0.1925
  635TMC3     O 9458   1.785   2.051   0.299 -0.0101  0.6327  0.2420
  635TMC3     H 9459   1.755   2.090   0.092  3.7236  0.2402 -1.1494
  635TMC3    H1 9460   1.615   1.713   0.204 -2.6381  0.4016 -0.9000
  635TMC3    H2 9461   1.753   1.771  17.552 -3.0429  2.8745 -0.9850
  635TMC3    C7 9462   1.662   1.595  17.729 -1.1851 -0.4871  0.6237
  635TMC3    C8 9463   1.835   2.021  17.583 -0.7346 -0.0758 -0.2032
  635TMC3    O1 9464   1.577   1.545   0.054 -0.4334 -0.1043  0.3027
  635TMC3    O2 9465   1.818   1.969  17.471  0.1401 -0.0015  0.0691
  636MPD2     C 9466   2.401   1.803  16.647  0.3761  0.9904 -0.4272
  636MPD2    C1 9467   2.531   1.849  16.648 -0.2558 -0.4446 -0.0007
  636MPD2    C2 9468   2.630   1.755  16.672 -0.9196  0.5370 -0.1086
  636MPD2    C3 9469   2.606   1.625  16.674  0.1965 -0.2554  0.1655
  636MPD2    C4 9470   2.474   1.578  16.665 -0.8778  0.3954  0.2860
  636MPD2    C5 9471   2.374   1.667  16.645  0.6140 -0.0628 -0.1967
  636MPD2     H 9472   2.732   1.794  16.673 -0.7218  0.0652 -2.0870
  636MPD2    H1 9473   2.445   1.474  16.664  1.0026 -0.1042 -2.9895
  636MPD2    H2 9474   2.319   1.873  16.661 -0.3042 -0.1633  1.2295
  636MPD2    H3 9475   2.271   1.632  16.646  0.8454 -0.6860  1.5395
  636MPD2     N 9476   2.720   1.543  16.697  0.0372  0.3104  0.6485
  636MPD2    H5 9477   2.807   1.591  16.717 -0.2309  1.5641 -1.1504
  636MPD2    N1 9478   2.571   1.991  16.634 -0.1652 -0.5613 -0.5264
  636MPD2    H7 9479   2.670   2.000  16.651 -0.0658  0.8540 -1.8750
  637TMC3    C1 9480   2.862   1.364  16.650  0.1959 -0.5411 -0.1629
  637TMC3    C2 9481   2.942   1.402  16.752 -0.2661 -0.5686 -0.1840
  637TMC3    C3 9482   3.057   1.333  16.770 -0.3273 -0.0787  1.0146
  637TMC3    C4 9483   2.889   1.264  16.563  0.9031  0.1437  0.2082
  637TMC3    C5 9484   3.022   1.221  16.565 -0.4332 -0.3120 -0.0638
  637TMC3    C6 9485   3.101   1.238  16.674 -0.3225  0.8028 -0.6067
  637TMC3     C 9486   2.727   1.415  16.650  0.8046 -0.2658 -0.1255
  637TMC3     O 9487   2.636   1.354  16.595  0.2291  0.3814  0.4052
  637TMC3     H 9488   2.924   1.483  16.820  2.2644 -0.8107  0.7627
  637TMC3    H1 9489   2.831   1.266  16.472  1.4420  0.0941 -0.1347
  637TMC3    H2 9490   3.205   1.213  16.688 -0.7317 -1.3205 -1.2538
  637TMC3    C7 9491   3.092   1.262  16.437 -0.0458  0.2257 -0.0804
  637TMC3    C8 9492   3.171   1.412  16.818  0.1360 -0.1796 -0.2075
  637TMC3    O1 9493   3.208   1.296  16.458  0.1761 -0.4245  0.2924
  637TMC3    O2 9494   3.200   1.390  16.934  0.4435  0.3378 -0.4457
  638MPD2     C 9495   2.609   0.688  15.223 -0.0753 -0.6239 -1.2760
  638MPD2    C1 9496   2.578   0.580  15.146 -0.2016  0.2955 -0.6839
  638MPD2    C2 9497   2.528   0.472  15.214 -0.0200 -0.8585 -1.1671
  638MPD2    C3 9498   2.515   0.465  15.347 -0.7611 -0.6199 -0.2768
  638MPD2    C4 9499   2.541   0.574  15.423  0.3232  0.8109 -0.3124
  638MPD2    C5 9500   2.580   0.688  15.360 -0.7891 -0.2543  0.7362
  638MPD2     H 9501   2.517   0.375  15.167 -1.0048 -1.6016  0.5884
  638MPD2    H1 9502   2.537   0.576  15.531  0.1549  1.4821 -0.3346
  638MPD2    H2 9503   2.660   0.774  15.184  0.6545 -0.9577 -1.0538
  638MPD2    H3 9504   2.598   0.774  15.424  0.2021 -0.1346  0.2994
  638MPD2     N 9505   2.470   0.340  15.406  0.1312 -0.2730  0.0551
  638MPD2    H5 9506   2.434   0.271  15.341  0.3121  1.4392 -1.8424
  638MPD2    N1 9507   2.608   0.579  15.008 -0.6260 -0.1924  0.1062
  638MPD2    H7 9508   2.670   0.651  14.972 -1.0955 -0.4225 -1.1674
  639TMC3    C1 9509   2.456   0.162  15.572 -0.3320 -0.8821  0.2010
  639TMC3    C2 9510   2.362   0.105  15.493 -0.2980 -0.0821 -1.0307
  639TMC3    C3 9511   2.371   4.702  15.485 -0.3295 -0.7392 -1.3194
  639TMC3    C4 9512   2.551   0.092  15.648 -0.1084  0.1774  0.2044
  639TMC3    C5 9513   2.553   4.692  15.635 -0.0508 -0.9467  0.0329
  639TMC3    C6 9514   2.457   4.629  15.567  0.2291 -0.5736  0.5975
  639TMC3     C 9515   2.500   0.302  15.537 -0.1803 -0.0025 -0.0482
  639TMC3     O 9516   2.561   0.365  15.623 -0.2129 -0.2965  0.3995
  639TMC3     H 9517   2.295   0.161  15.428 -0.4252  0.7094 -0.2214
  639TMC3    H1 9518   2.607   0.146  15.723 -0.3731  2.8468 -1.5196
  639TMC3    H2 9519   2.454   4.521  15.557  1.4089 -0.6061  0.6010
  639TMC3    C7 9520   2.668   4.620  15.681  0.1290  1.0375 -0.0481
  639TMC3    C8 9521   2.305   4.650  15.365 -0.2749  0.2299 -0.1243
  639TMC3    O1 9522   2.659   4.498  15.693  0.6135 -0.6204 -0.1027
  639TMC3    O2 9523   2.371   4.560  15.311  0.2842  0.0465 -1.0970
  640MPD2     C 9524   3.120   3.961  10.563  0.3428 -0.3197  0.3448
  640MPD2    C1 9525   3.184   3.998  10.450 -0.6018 -0.0268  0.3526
  640MPD2    C2 9526   3.196   4.135  10.414 -0.3195 -0.2692  0.4311
  640MPD2    C3 9527   3.143   4.238  10.498 -0.0927 -0.2445  0.1897
  640MPD2    C4 9528   3.081   4.195  10.614 -0.1230  0.3095 -0.0138
  640MPD2    C5 9529   3.065   4.054  10.644 -0.1940 -0.3349  0.2279
  640MPD2     H 9530   3.242   4.166  10.321 -2.6984  0.6412 -0.4643
  640MPD2    H1 9531   3.041   4.268  10.684  1.8955  0.9528  0.4554
  640MPD2    H2 9532   3.124   3.854  10.582 -3.4715 -0.5446 -0.2214
  640MPD2    H3 9533   3.015   4.020  10.734 -1.3888 -0.7835 -0.6161
  640MPD2     N 9534   3.153   4.373  10.476  0.0700 -0.2630 -0.4174
  640MPD2    H5 9535   3.120   4.444  10.542  1.4557 -1.4632  1.5594
  640MPD2    N1 9536   3.234   3.903  10.363  0.8424 -0.2049  0.7266
  640MPD2    H7 9537   3.265   3.815  10.404 -0.6568 -0.3528  1.5566
  641TMC3    C1 9538   3.300   3.806  10.172  0.5109  0.2877 -0.3259
  641TMC3    C2 9539   3.374   3.720  10.243 -0.5431 -0.2115  0.1649
  641TMC3    C3 9540   3.405   3.599  10.188  0.1767 -0.0706 -0.9799
  641TMC3    C4 9541   3.263   3.773  10.042  0.4316 -0.6364  0.0021
  641TMC3    C5 9542   3.302   3.656   9.989  0.1582  0.1442 -0.0130
  641TMC3    C6 9543   3.373   3.569  10.057 -0.5890  0.2985  0.5625
  641TMC3     C 9544   3.241   3.924  10.230 -0.3824 -0.1661 -0.2840
  641TMC3     O 9545   3.184   4.005  10.157 -0.0909 -0.4185 -0.7466
  641TMC3     H 9546   3.419   3.743  10.339  0.6708 -0.0265 -0.4463
  641TMC3    H1 9547   3.203   3.842   9.984  1.3246  1.4976  1.5728
  641TMC3    H2 9548   3.406   3.474  10.018 -0.7583  0.5741 -0.2433
  641TMC3    C7 9549   3.243   3.621   9.854  0.5498 -1.0469 -0.8749
  641TMC3    C8 9550   3.492   3.512  10.263  0.2799 -0.6098  0.1509
  641TMC3    O1 9551   3.161   3.703   9.814  0.0035 -0.2709 -0.1638
  641TMC3    O2 9552   3.465   3.389  10.253 -0.1173 -0.0810  0.0440
  642TMC3    C1 9553   3.926   0.106  12.745 -0.0404  0.2166  0.0186
  642TMC3    C2 9554   4.037   0.145  12.671  0.3219 -0.1008 -0.4892
  642TMC3    C3 9555   4.073   0.059  12.574 -0.3562  0.2374  0.8179
  642TMC3    C4 9556   3.859   4.731  12.721 -0.2471  0.6136  0.0091
  642TMC3    C5 9557   3.896   4.652  12.619 -0.7601 -0.3413  0.9823
  642TMC3    C6 9558   3.995   4.684  12.542  0.3349  0.7305  0.5177
  642TMC3     C 9559   3.892   0.189  12.861 -0.0653 -1.0713 -0.1865
  642TMC3     O 9560   3.978   0.267  12.900  0.0542 -0.3718  0.5317
  642TMC3     H 9561   4.093   0.233  12.701 -0.4232  0.4598 -0.7564
  642TMC3    H1 9562   3.777   4.699  12.785  1.0878 -0.0863  1.3548
  642TMC3    H2 9563   4.023   4.610  12.469 -1.1588  1.1947 -0.5181
  642TMC3    C7 9564   3.843   4.528  12.587 -0.5058 -0.3241  0.7431
  642TMC3    C8 9565   4.213   0.046  12.530  0.3782 -0.0323  0.0507
  642TMC3    O1 9566   3.838   4.497  12.466  0.3075  0.0081 -0.1712
  642TMC3    O2 9567   4.248   4.682  12.468  0.7457 -0.1854 -0.3403
  643TMC3    C1 9568   3.460   4.023   0.646 -0.2137 -0.4446 -0.0509
  643TMC3    C2 9569   3.323   4.038   0.640  0.1606  0.1450 -0.0671
  643TMC3    C3 9570   3.261   4.063   0.521  1.6179  0.3625  0.3018
  643TMC3    C4 9571   3.532   4.023   0.533  1.3109  0.0438  0.5122
  643TMC3    C5 9572   3.463   4.032   0.416 -0.0089  0.5148  0.5424
  643TMC3    C6 9573   3.327   4.043   0.403 -0.2205  0.4533 -0.0022
  643TMC3     C 9574   3.534   4.115   0.727 -0.3060  0.3349  0.3606
  643TMC3     O 9575   3.508   4.232   0.724  0.1020  0.5147  0.4461
  643TMC3     H 9576   3.271   4.065   0.731  0.6128  0.4332  0.1094
  643TMC3    H1 9577   3.641   4.027   0.535  1.3511 -0.0437 -0.9539
  643TMC3    H2 9578   3.277   4.054   0.307  1.7263  0.1523 -1.0527
  643TMC3    C7 9579   3.529   4.069   0.298  0.0302 -0.4036  0.1418
  643TMC3    C8 9580   3.200   4.199   0.522  1.1793  0.3704 -0.1247
  643TMC3    O1 9581   3.485   4.168   0.246  0.1618  0.4450 -0.4870
  643TMC3    O2 9582   3.119   4.219   0.613 -0.0940  0.3077  0.0138
  644MPD2     C 9583   3.248   4.439   9.757  0.2160  0.6709  0.1962
  644MPD2    C1 9584   3.223   4.403   9.620 -0.1371 -0.0502  0.6946
  644MPD2    C2 9585   3.185   4.498   9.532 -0.0442 -0.1022  0.8575
  644MPD2    C3 9586   3.184   4.632   9.565  0.1928  0.5222 -0.0046
  644MPD2    C4 9587   3.214   4.667   9.693 -0.2902  0.0290 -0.4085
  644MPD2    C5 9588   3.241   4.576   9.792 -0.2222 -0.3990  1.1269
  644MPD2     H 9589   3.163   4.472   9.430 -0.3136 -3.0952  1.6820
  644MPD2    H1 9590   3.221   0.037   9.713  1.6847  0.1145 -1.4691
  644MPD2    H2 9591   3.273   4.368   9.835  2.4325  1.9166  0.5936
  644MPD2    H3 9592   3.263   4.600   9.896  1.8795 -1.6984  0.9809
  644MPD2     N 9593   3.160   4.732   9.459 -0.6512  0.4813  0.2225
  644MPD2    H5 9594   3.129   4.702   9.367  1.7553  2.0850 -1.1080
  644MPD2    N1 9595   3.223   4.264   9.599 -0.3742 -0.4919  0.0554
  644MPD2    H7 9596   3.245   4.205   9.677 -0.2364  1.3067  1.3809
  645TMC3    C1 9597   3.133   0.207   9.364  0.5746 -0.1861 -0.9921
  645TMC3    C2 9598   3.029   0.158   9.283  0.4099 -0.1249 -0.1427
  645TMC3    C3 9599   2.983   0.245   9.182 -0.1570  0.5173  0.1449
  645TMC3    C4 9600   3.187   0.334   9.342 -0.3800 -0.3503  0.0988
  645TMC3    C5 9601   3.155   0.400   9.226  0.8006 -0.1813 -0.1382
  645TMC3    C6 9602   3.054   0.358   9.142 -0.2484  0.6239 -0.2597
  645TMC3     C 9603   3.176   0.130   9.481  0.0512 -0.2627 -0.0182
  645TMC3     O 9604   3.246   0.189   9.561 -0.7559 -0.1765 -0.4290
  645TMC3     H 9605   2.969   0.072   9.313 -1.0363 -0.1743 -3.1442
  645TMC3    H1 9606   3.269   0.376   9.399 -1.0960  0.6430  0.3871
  645TMC3    H2 9607   3.027   0.413   9.053  0.0287 -1.1732 -1.4676
  645TMC3    C7 9608   3.217   0.531   9.212 -0.0781 -0.0100 -0.9514
  645TMC3    C8 9609   2.845   0.221   9.139 -0.2019  0.9798 -0.1368
  645TMC3    O1 9610   3.321   0.557   9.270  0.1099 -0.2386 -0.1300
  645TMC3    O2 9611   2.784   0.317   9.099 -0.5736 -0.7433 -0.1389
  646MPD2     C 9612   2.586   3.878  14.731 -0.0964 -0.6500 -0.4972
  646MPD2    C1 9613   2.542   3.927  14.849 -0.4310 -0.1736  0.6788
  646MPD2    C2 9614   2.419   3.988  14.851 -0.3149 -0.4259 -0.0273
  646MPD2    C3 9615   2.360   4.031  14.734 -0.2086  0.8636 -0.0247
  646MPD2    C4 9616   2.404   3.985  14.616 -0.2657 -0.5222 -1.6732
  646MPD2    C5 9617   2.513   3.902  14.617  0.0059  0.7134  0.2949
  646MPD2     H 9618   2.378   4.018  14.947 -0.9647 -0.8494 -0.1755
  646MPD2    H1 9619   2.369   4.000  14.515 -2.5302 -0.3445 -0.8573
  646MPD2    H2 9620   2.685   3.835  14.719 -0.3485 -1.8838  1.9449
  646MPD2    H3 9621   2.542   3.856  14.523 -0.7933 -0.4514  0.6148
  646MPD2     N 9622   2.256   4.130  14.739  0.1605  0.5044  0.2381
  646MPD2    H5 9623   2.222   4.162  14.829 -1.2518  2.0913 -0.8397
  646MPD2    N1 9624   2.613   3.891  14.961  0.3262  0.8025 -0.2064
  646MPD2    H7 9625   2.696   3.835  14.947 -0.3049 -0.3034  0.4265
  647TMC3    C1 9626   2.681   3.870  15.182  0.2631 -0.4375 -0.3414
  647TMC3    C2 9627   2.644   3.784  15.280  0.0905 -0.3425 -0.7687
  647TMC3    C3 9628   2.742   3.733  15.360 -0.1668 -0.1909 -0.9393
  647TMC3    C4 9629   2.816   3.904  15.165  0.2003 -0.1607 -0.6551
  647TMC3    C5 9630   2.907   3.845  15.246  0.0096 -0.2388  0.0494
  647TMC3    C6 9631   2.869   3.764  15.348  0.1857 -0.1462  0.1904
  647TMC3     C 9632   2.578   3.919  15.091 -0.3234  0.0900  0.0083
  647TMC3     O 9633   2.485   3.976  15.141  0.4499 -0.4323 -0.1870
  647TMC3     H 9634   2.542   3.775  15.314 -0.4433  1.7550 -1.8356
  647TMC3    H1 9635   2.838   3.978  15.089 -0.9355  0.6131 -0.2224
  647TMC3    H2 9636   2.937   3.707  15.410 -0.3019  1.4687  2.2312
  647TMC3    C7 9637   3.049   3.842  15.220  0.2824  0.1743  0.0464
  647TMC3    C8 9638   2.734   3.590  15.394  0.2565 -0.3514 -0.5595
  647TMC3    O1 9639   3.126   3.801  15.306 -0.3504  0.7673  0.1428
  647TMC3    O2 9640   2.809   3.542  15.474  0.2100 -0.4185 -0.4187
  648TMC3    C1 9641   2.020   1.542  16.665 -0.1545 -1.0454 -0.6370
  648TMC3    C2 9642   2.114   1.443  16.673  0.0919  0.0697  0.0659
  648TMC3    C3 9643   2.161   1.384  16.557 -0.3255 -0.2844 -0.5100
  648TMC3    C4 9644   1.968   1.580  16.544  0.6600  0.0593  0.3271
  648TMC3    C5 9645   2.012   1.503  16.433  0.7211 -0.2854 -0.7222
  648TMC3    C6 9646   2.114   1.413  16.435  0.0409  0.9180  0.6038
  648TMC3     C 9647   1.958   1.593  16.780  0.0369 -0.8030 -1.0319
  648TMC3     O 9648   1.880   1.683  16.765 -0.5673 -0.1509  0.3322
  648TMC3     H 9649   2.155   1.398  16.762 -2.0952  2.9805  2.5217
  648TMC3    H1 9650   1.904   1.666  16.530  1.0338  0.4673  1.1908
  648TMC3    H2 9651   2.132   1.351  16.347 -1.9064  2.4745 -0.8841
  648TMC3    C7 9652   1.990   1.561  16.306  0.2410  0.2046 -0.6930
  648TMC3    C8 9653   2.231   1.260  16.572 -0.5820 -0.2884  0.4298
  648TMC3    O1 9654   2.086   1.563  16.229 -0.1880  0.1914 -0.0840
  648TMC3    O2 9655   2.229   1.199  16.680 -0.0398 -0.4452 -0.5169
  649TMC3    C1 9656   0.666   2.416  12.815  0.4981  0.1563 -0.0403
  649TMC3    C2 9657   0.796   2.463  12.822 -0.7866 -0.5508 -0.1803
  649TMC3    C3 9658   0.870   2.421  12.927 -0.5149 -1.3079  0.9364
  649TMC3    C4 9659   0.620   2.317  12.885  0.2742 -0.1588  0.5398
  649TMC3    C5 9660   0.703   2.258  12.978 -0.2748 -0.5587 -0.3656
  649TMC3    C6 9661   0.824   2.322  13.007  0.1414  1.0758 -0.6304
  649TMC3     C 9662   0.595   2.464  12.697  0.0026  0.9519  0.2455
  649TMC3     O 9663   0.632   2.570  12.649 -0.5296 -0.1229 -0.1861
  649TMC3     H 9664   0.824   2.547  12.759  0.4743 -1.2274 -0.5177
  649TMC3    H1 9665   0.524   2.271  12.867  0.7722 -0.2025 -1.9883
  649TMC3    H2 9666   0.873   2.286  13.096 -1.3476 -0.8322 -0.5936
  649TMC3    C7 9667   0.637   2.190  13.078 -0.1433  0.0415  0.0762
  649TMC3    C8 9668   0.991   2.495  12.951  0.3344  0.3011  0.8857
  649TMC3    O1 9669   0.659   2.212  13.196 -0.0477 -0.1037 -0.6495
  649TMC3    O2 9670   1.033   2.569  12.860  0.3033 -1.2648 -0.4344
  650TMC3    C1 9671   3.332   3.954  12.955 -0.7606 -0.4756  0.4381
  650TMC3    C2 9672   3.243   4.030  13.024 -0.3427  0.5700 -0.0211
  650TMC3    C3 9673   3.120   4.037  12.971  0.5805  0.1814 -0.0077
  650TMC3    C4 9674   3.309   3.902  12.828 -0.4025  0.9779  0.1210
  650TMC3    C5 9675   3.187   3.919  12.775  0.4305  0.1608 -0.3967
  650TMC3    C6 9676   3.093   3.984  12.850 -0.0343 -0.2913  0.3403
  650TMC3     C 9677   3.453   3.928  13.028 -1.1455  0.4749  0.2888
  650TMC3     O 9678   3.496   4.027  13.082  0.2048  0.2454  0.3570
  650TMC3     H 9679   3.271   4.073  13.120 -1.0154  0.6287  0.1449
  650TMC3    H1 9680   3.389   3.850  12.776  0.0859 -0.4742  2.3483
  650TMC3    H2 9681   2.995   3.996  12.805  0.6395 -1.0954 -1.3035
  650TMC3    C7 9682   3.189   3.972  12.643 -0.0977  0.0856  0.8365
  650TMC3    C8 9683   3.057   4.165  13.005  0.1195  0.0902  0.1488
  650TMC3    O1 9684   3.164   3.896  12.551 -0.0861  0.6701 -0.0200
  650TMC3    O2 9685   3.115   4.244  13.077 -0.2229  0.3361  0.0191
  651MPD2     C 9686   2.176   1.609  10.511  0.5601 -0.6781 -0.3264
  651MPD2    C1 9687   2.212   1.662  10.637  0.2756  0.3636 -0.5397
  651MPD2    C2 9688   2.331   1.628  10.690 -0.0084 -0.6453  0.4615
  651MPD2    C3 9689   2.428   1.549  10.624  0.0732  0.3637  0.5041
  651MPD2    C4 9690   2.391   1.501  10.490  0.9798  0.1439 -0.7722
  651MPD2    C5 9691   2.268   1.526  10.441  0.1637  0.2755  0.3994
  651MPD2     H 9692   2.359   1.664  10.788 -1.4227  1.7216 -0.0073
  651MPD2    H1 9693   2.469   1.447  10.437  0.2841 -0.7462 -0.8832
  651MPD2    H2 9694   2.077   1.628  10.471 -0.3196 -1.1065  1.6497
  651MPD2    H3 9695   2.235   1.496  10.342  0.6859  2.3988 -0.4226
  651MPD2     N 9696   2.552   1.533  10.687 -0.2178 -0.3784 -0.3609
  651MPD2    H5 9697   2.553   1.549  10.787 -1.5237  0.9679 -0.5670
  651MPD2    N1 9698   2.116   1.720  10.725  0.8344 -0.0019  0.0150
  651MPD2    H7 9699   2.141   1.723  10.823  1.0784 -0.0580 -0.0468
  652TMC3    C1 9700   2.996   1.502  10.624 -0.4063 -0.5720 -0.1399
  652TMC3    C2 9701   2.882   1.427  10.644  0.3804  0.1921  0.4210
  652TMC3    C3 9702   2.780   1.485  10.713 -0.7590 -0.4272 -0.3220
  652TMC3    C4 9703   3.013   1.622  10.682  0.0064  0.0042 -0.0040
  652TMC3    C5 9704   2.922   1.660  10.776  0.2496 -0.2192 -0.4336
  652TMC3    C6 9705   2.795   1.594  10.783  0.1907 -0.3873  0.1171
  652TMC3     C 9706   3.115   1.444  10.574  0.1341 -0.2930 -0.5017
  652TMC3     O 9707   3.141   1.325  10.605 -0.5784  0.2867 -0.0632
  652TMC3     H 9708   2.880   1.331  10.594  2.8655 -1.1562  2.8984
  652TMC3    H1 9709   3.109   1.671  10.675 -0.9698  1.8888 -0.1154
  652TMC3    H2 9710   2.710   1.636  10.837 -0.7800 -3.1400  0.7358
  652TMC3    C7 9711   2.916   1.798  10.815 -0.9369 -0.0140 -0.1191
  652TMC3    C8 9712   2.659   1.464  10.638  0.5308 -0.1077 -0.3927
  652TMC3    O1 9713   2.817   1.852  10.860 -0.8129  0.2755 -0.4306
  652TMC3    O2 9714   2.680   1.413  10.530  0.3545  0.0524  0.3719
  653MPD2     C 9715   1.009   1.335   0.473 -0.0649  0.0939 -0.1172
  653MPD2    C1 9716   0.918   1.404   0.398  0.2478 -0.2622 -0.6300
  653MPD2    C2 9717   0.875   1.338   0.284 -0.2374 -0.1882 -0.4712
  653MPD2    C3 9718   0.926   1.220   0.238  0.1473 -0.6023 -0.0734
  653MPD2    C4 9719   1.021   1.159   0.314  0.0181  0.2778  0.3816
  653MPD2    C5 9720   1.073   1.223   0.425 -0.6536  0.2344 -0.0450
  653MPD2     H 9721   0.804   1.396   0.226 -0.2618 -1.7735 -2.0270
  653MPD2    H1 9722   1.065   1.065   0.285 -1.0652 -0.7891  2.1966
  653MPD2    H2 9723   1.053   1.377   0.563 -0.3155  1.2718 -0.5503
  653MPD2    H3 9724   1.161   1.187   0.476 -0.3621 -0.6073 -1.1433
  653MPD2     N 9725   0.875   1.174   0.110 -0.0102  0.0985 -0.0397
  653MPD2    H5 9726   0.809   1.236   0.065  0.7825  0.3839 -0.8040
  653MPD2    N1 9727   0.875   1.539   0.419  0.2237  0.3296 -0.5770
  653MPD2    H7 9728   0.832   1.591   0.343  0.2734  1.1103 -0.0644
  654TMC3    C1 9729   0.834   1.022  17.682  0.1666 -0.5684  0.1234
  654TMC3    C2 9730   0.838   1.102  17.573 -0.7327 -0.4278 -0.2358
  654TMC3    C3 9731   0.814   1.039  17.452  0.8435 -0.7164 -0.0237
  654TMC3    C4 9732   0.810   0.889  17.674  0.6608 -0.6035  0.5679
  654TMC3    C5 9733   0.779   0.834  17.553 -0.4890  0.3076  0.1541
  654TMC3    C6 9734   0.787   0.903  17.438  0.7275  0.2386  0.2406
  654TMC3     C 9735   0.926   1.066   0.041 -0.0168  0.5981 -0.3010
  654TMC3     O 9736   0.994   0.973   0.090 -0.5132 -0.3145 -0.2941
  654TMC3     H 9737   0.863   1.208  17.566  0.7015 -0.7706 -0.3458
  654TMC3    H1 9738   0.825   0.819   0.009  1.0709 -0.0082  1.0054
  654TMC3    H2 9739   0.793   0.856  17.340  0.9547  0.6074  0.0766
  654TMC3    C7 9740   0.829   0.695  17.545 -0.2074  0.0852  0.0413
  654TMC3    C8 9741   0.778   1.130  17.347 -0.2494 -0.0065 -0.5807
  654TMC3    O1 9742   0.926   0.670  17.617  0.3050  0.3228  0.2955
  654TMC3    O2 9743   0.750   1.244  17.378 -0.2880 -0.6741 -0.0871
  655MPD2     C 9744   2.785   1.722  16.021  0.6926 -0.1370 -0.3812
  655MPD2    C1 9745   2.657   1.697  16.052 -0.3400  0.8961  0.4525
  655MPD2    C2 9746   2.595   1.589  15.996 -0.2319 -0.1176 -0.1458
  655MPD2    C3 9747   2.667   1.510  15.905  0.8253  0.0456  0.3926
  655MPD2    C4 9748   2.791   1.542  15.871  0.8368  0.1236 -0.1178
  655MPD2    C5 9749   2.853   1.651  15.931  0.3348 -0.1777  0.0504
  655MPD2     H 9750   2.493   1.560  16.016  0.1513 -2.7138 -2.0394
  655MPD2    H1 9751   2.851   1.490  15.796 -0.3067  1.7898 -2.1882
  655MPD2    H2 9752   2.844   1.801  16.064  0.3439 -0.3365  0.4641
  655MPD2    H3 9753   2.954   1.679  15.904 -0.0571  0.7388 -0.5059
  655MPD2     N 9754   2.615   1.399  15.831 -0.0033  0.1774 -0.5550
  655MPD2    H5 9755   2.665   1.376  15.745 -1.5142 -1.3553 -1.0310
  655MPD2    N1 9756   2.591   1.788  16.138 -0.6087  0.6807  0.5022
  655MPD2    H7 9757   2.643   1.875  16.149 -0.7779  0.9499 -0.8307
  656TMC3    C1 9758   2.396   1.884  16.228 -0.1178  0.4568 -0.5716
  656TMC3    C2 9759   2.288   1.870  16.315  0.1900  0.3047 -0.1955
  656TMC3    C3 9760   2.179   1.949  16.288  0.2111 -0.1221 -0.4296
  656TMC3    C4 9761   2.395   1.970  16.118  0.5149 -0.4606  0.1891
  656TMC3    C5 9762   2.279   2.040  16.092 -0.2315 -0.3111  0.4091
  656TMC3    C6 9763   2.164   2.024  16.173 -0.6033 -1.5319 -0.2937
  656TMC3     C 9764   2.474   1.760  16.208 -0.1337 -0.1086  0.8174
  656TMC3     O 9765   2.417   1.655  16.237 -0.1652 -0.3483 -0.4840
  656TMC3     H 9766   2.292   1.803  16.400 -1.6257 -1.5202 -1.5571
  656TMC3    H1 9767   2.482   1.973  16.053 -1.0856  1.9622 -1.8250
  656TMC3    H2 9768   2.080   2.092  16.167  1.6338  1.2554  0.0028
  656TMC3    C7 9769   2.245   2.040  15.951 -0.4436 -0.1764 -0.1327
  656TMC3    C8 9770   2.071   1.947  16.386 -0.2179 -1.1932 -0.1323
  656TMC3    O1 9771   2.317   1.977  15.879  0.1741  0.0401  0.1868
  656TMC3    O2 9772   2.057   1.843  16.449 -0.5225 -0.5466  0.1165
  657TMC3    C1 9773   1.404   1.342  15.493  0.0953 -0.2517 -0.2703
  657TMC3    C2 9774   1.317   1.372  15.590 -0.2379 -0.4579 -0.2466
  657TMC3    C3 9775   1.280   1.506  15.595 -0.8666 -0.1998  0.1027
  657TMC3    C4 9776   1.448   1.432  15.390 -0.3881  0.0813  0.1310
  657TMC3    C5 9777   1.395   1.560  15.391 -0.0653  0.1362 -0.2078
  657TMC3    C6 9778   1.308   1.592  15.494 -0.6878  0.5549 -0.2598
  657TMC3     C 9779   1.438   1.196  15.484  0.5090 -0.7488 -0.0868
  657TMC3     O 9780   1.346   1.120  15.503  0.4199 -0.1466  0.3940
  657TMC3     H 9781   1.295   1.301  15.670  3.4255  0.6137  1.7378
  657TMC3    H1 9782   1.500   1.391  15.304 -0.8254 -0.4273  0.1092
  657TMC3    H2 9783   1.267   1.692  15.497 -1.5172  0.1949  0.5967
  657TMC3    C7 9784   1.451   1.667  15.309 -0.5142 -0.2485 -1.2574
  657TMC3    C8 9785   1.202   1.566  15.703 -0.1011 -0.4293  0.2239
  657TMC3    O1 9786   1.402   1.781  15.306  0.1115  0.2710 -0.1809
  657TMC3    O2 9787   1.179   1.683  15.701  0.2000 -0.9840 -0.8226
  658MPD2     C 9788   2.745   1.125  15.297  1.0315  0.0651 -0.0868
  658MPD2    C1 9789   2.619   1.178  15.277 -0.4537 -0.1982  0.6138
  658MPD2    C2 9790   2.575   1.193  15.147  0.0951 -0.1977  0.4089
  658MPD2    C3 9791   2.651   1.164  15.033 -0.1299  0.1621  0.2296
  658MPD2    C4 9792   2.777   1.122  15.057  0.2663 -1.1822 -0.5853
  658MPD2    C5 9793   2.822   1.098  15.187  0.0784  0.9080 -0.4131
  658MPD2     H 9794   2.474   1.222  15.119  0.9837  1.6178 -0.8563
  658MPD2    H1 9795   2.836   1.075  14.979 -2.0987  0.0150 -3.1106
  658MPD2    H2 9796   2.783   1.097  15.394  1.9900  2.0247  0.1023
  658MPD2    H3 9797   2.921   1.055  15.193  0.2026  1.3686  0.7756
  658MPD2     N 9798   2.602   1.171  14.900 -0.5484 -0.2347 -0.0247
  658MPD2    H5 9799   2.501   1.177  14.891 -0.2491  1.7965 -1.9239
  658MPD2    N1 9800   2.539   1.212  15.383 -0.1052 -0.2134  0.0693
  658MPD2    H7 9801   2.570   1.176  15.473  0.3484  0.7925  0.3254
  659TMC3    C1 9802   2.410   1.343  15.527  0.0468  0.1983 -0.6335
  659TMC3    C2 9803   2.476   1.295  15.637  0.4966 -0.4362 -0.9600
  659TMC3    C3 9804   2.410   1.299  15.757  1.3126 -0.0324  0.5305
  659TMC3    C4 9805   2.284   1.398  15.539 -0.0795  0.3988  0.0606
  659TMC3    C5 9806   2.225   1.400  15.665  0.0404  0.3728  0.5329
  659TMC3    C6 9807   2.279   1.340  15.777 -0.0825  0.0355 -0.3933
  659TMC3     C 9808   2.448   1.314  15.392 -0.4073  0.1101  0.4921
  659TMC3     O 9809   2.406   1.382  15.291 -0.5536  0.2068  0.1087
  659TMC3     H 9810   2.577   1.256  15.627  1.0569  0.6161  0.5295
  659TMC3    H1 9811   2.223   1.435  15.458 -0.4041  0.0794  0.1609
  659TMC3    H2 9812   2.236   1.355  15.876 -0.1375 -1.7983 -0.1482
  659TMC3    C7 9813   2.099   1.463  15.685  0.0519  0.6391 -0.8044
  659TMC3    C8 9814   2.497   1.330  15.872  0.5821 -0.1196 -0.3495
  659TMC3    O1 9815   2.022   1.412  15.764  0.3591 -0.1649 -0.2176
  659TMC3    O2 9816   2.437   1.339  15.977  0.1035 -0.1966 -0.2720
  660MPD2     C 9817   0.672   0.602  12.768 -0.2852  0.8968 -0.6455
  660MPD2    C1 9818   0.535   0.614  12.760 -0.4645 -0.4612 -0.0343
  660MPD2    C2 9819   0.459   0.558  12.860 -0.0996 -0.0719 -0.7632
  660MPD2    C3 9820   0.513   0.512  12.982  0.6939  0.0677 -0.8430
  660MPD2    C4 9821   0.649   0.517  12.999  0.1498  0.6261 -0.1240
  660MPD2    C5 9822   0.723   0.555  12.887  0.0159 -0.0713  0.3212
  660MPD2     H 9823   0.353   0.548  12.842 -0.4309  0.0653  1.0335
  660MPD2    H1 9824   0.704   0.490  13.089  0.3159  1.2372 -0.0474
  660MPD2    H2 9825   0.748   0.630  12.697  1.6816 -0.0120  1.0990
  660MPD2    H3 9826   0.829   0.539  12.897  0.3072  1.3632 -0.5091
  660MPD2     N 9827   0.441   0.449  13.087  0.1200 -0.9300 -0.1572
  660MPD2    H5 9828   0.489   0.407  13.166 -0.9266 -0.6804  0.6162
  660MPD2    N1 9829   0.476   0.662  12.637  0.0469 -0.5587 -0.0620
  660MPD2    H7 9830   0.529   0.684  12.553 -2.4823  1.7230 -1.0532
  661TMC3    C1 9831   0.294   0.725  12.487 -0.0495 -0.1912 -0.0000
  661TMC3    C2 9832   0.378   0.791  12.410  0.1534  0.3676  0.7523
  661TMC3    C3 9833   0.323   0.847  12.296  0.1926 -0.9117 -0.1226
  661TMC3    C4 9834   0.159   0.722  12.465 -0.4146  0.2976 -0.2797
  661TMC3    C5 9835   0.104   0.785  12.356  0.0676  1.1617  0.2028
  661TMC3    C6 9836   0.184   0.843  12.267 -0.3770  1.2929 -0.0113
  661TMC3     C 9837   0.340   0.688  12.624 -0.4233 -0.4395  0.4450
  661TMC3     O 9838   0.256   0.684  12.711 -0.3747 -0.5045 -0.0913
  661TMC3     H 9839   0.481   0.807  12.438  0.0524 -1.0238  1.9416
  661TMC3    H1 9840   0.094   0.672  12.536  2.2709  0.2483  2.1747
  661TMC3    H2 9841   0.139   0.871  12.172  0.4547 -1.3424 -1.1846
  661TMC3    C7 9842   4.710   0.757  12.306 -0.0162 -0.3389  0.0216
  661TMC3    C8 9843   0.411   0.908  12.199  0.2219 -0.0869  0.3503
  661TMC3    O1 9844   4.650   0.850  12.251  0.1651  0.5848 -0.3758
  661TMC3    O2 9845   0.531   0.880  12.204  0.0677 -0.5737  0.0643
  662MPD2     C 9846   0.794   0.057  17.649 -0.7260 -0.3770 -1.0147
  662MPD2    C1 9847   0.847   4.670  17.657  0.0169 -0.5335  0.0840
  662MPD2    C2 9848   0.879   4.624   0.032  0.0315  0.2825 -0.5089
  662MPD2    C3 9849   0.848   4.697   0.150 -0.0878 -0.0371  0.3251
  662MPD2    C4 9850   0.784   0.077   0.137 -0.3550  0.4906 -0.0966
  662MPD2    C5 9851   0.768   0.131   0.015 -0.5016  0.2507 -0.0573
  662MPD2     H 9852   0.922   4.524   0.032 -0.2236  0.1676 -2.1464
  662MPD2    H1 9853   0.756   0.132   0.226  0.2882  1.0164 -0.2131
  662MPD2    H2 9854   0.785   0.098  17.549 -2.6251  0.2079 -0.5857
  662MPD2    H3 9855   0.727   0.228  17.738  1.6130  0.6503 -2.0440
  662MPD2     N 9856   0.870   4.649   0.279 -0.5053  0.0653  0.4425
  662MPD2    H5 9857   0.844   4.709   0.356 -3.8287  0.9967 -1.4200
  662MPD2    N1 9858   0.875   4.594  17.537 -0.0434  0.6862 -0.1867
  662MPD2    H7 9859   0.927   4.508  17.551  1.4680  1.1630 -2.9703
  663TMC3    C1 9860   0.885   4.525  17.313  1.1238 -0.0897  0.5852
  663TMC3    C2 9861   0.996   4.455  17.360 -0.3359 -0.0553  0.1743
  663TMC3    C3 9862   1.006   4.326  17.316  0.0526  0.0205  0.1746
  663TMC3    C4 9863   0.788   4.468  17.232  0.4291  0.0778  0.3732
  663TMC3    C5 9864   0.794   4.333  17.221  0.4543  0.0602 -0.2602
  663TMC3    C6 9865   0.898   4.257  17.259 -0.5400  1.0339  0.3140
  663TMC3     C 9866   0.838   4.620  17.408  0.3936 -0.2847 -0.2022
  663TMC3     O 9867   0.767   4.712  17.368 -0.3587 -0.2407 -0.2933
  663TMC3     H 9868   1.082   4.507  17.401 -0.2617 -1.2354  1.5232
  663TMC3    H1 9869   0.701   4.523  17.199  0.1387 -0.5676  0.0656
  663TMC3    H2 9870   0.917   4.164  17.206 -0.5512 -0.0195  2.1631
  663TMC3    C7 9871   0.715   4.281  17.106 -0.2635 -0.6465 -0.1222
  663TMC3    C8 9872   1.091   4.244  17.396  0.4822  0.4991  0.6203
  663TMC3    O1 9873   0.687   4.358  17.014  0.0743 -0.5407  0.7738
  663TMC3    O2 9874   1.193   4.297  17.437  0.1943  0.1769 -0.1593
  664MPD2     C 9875   3.355   3.016  17.681  0.4161 -0.5989  0.5904
  664MPD2    C1 9876   3.466   3.065  17.739 -0.3362  0.0452  0.2849
  664MPD2    C2 9877   3.511   3.010   0.110 -0.0089  1.1746  0.6356
  664MPD2    C3 9878   3.460   2.894   0.160  0.3348 -0.1500  0.0876
  664MPD2    C4 9879   3.344   2.846   0.097 -0.2858 -1.0762 -0.2527
  664MPD2    C5 9880   3.292   2.912  17.737  0.4212  0.3931 -0.4286
  664MPD2     H 9881   3.591   3.058   0.165  1.7870 -2.3199  1.0806
  664MPD2    H1 9882   3.295   2.757   0.133 -2.0649  0.4633  1.1211
  664MPD2    H2 9883   3.312   3.055  17.590  2.2082  0.7194  0.3099
  664MPD2    H3 9884   3.211   2.869  17.680 -0.7514  0.5642  1.1056
  664MPD2     N 9885   3.510   2.836   0.279 -0.1665  0.4493  0.5296
  664MPD2    H5 9886   3.589   2.881   0.324  1.7641 -0.8464 -1.5770
  664MPD2    N1 9887   3.538   3.175  17.687  0.0881 -0.2221  0.1766
  664MPD2    H7 9888   3.615   3.205  17.745  2.2250  0.4647 -2.9996
  665TMC3    C1 9889   3.529   2.702   0.467  0.3132  0.7807 -0.0482
  665TMC3    C2 9890   3.463   2.626   0.551 -0.0855 -0.0219  0.9560
  665TMC3    C3 9891   3.529   2.602   0.672  0.1865 -0.0959  0.3875
  665TMC3    C4 9892   3.666   2.739   0.490 -0.2572 -0.2400 -0.0267
  665TMC3    C5 9893   3.729   2.696   0.601 -0.8386  0.7348 -0.2992
  665TMC3    C6 9894   3.657   2.634   0.699  0.4819  0.0157 -0.4630
  665TMC3     C 9895   3.455   2.731   0.346  0.3083 -0.8538  0.0048
  665TMC3     O 9896   3.352   2.665   0.321 -0.0730  0.4901  0.6195
  665TMC3     H 9897   3.359   2.603   0.530 -0.2229 -0.3119  1.9681
  665TMC3    H1 9898   3.724   2.796   0.418  1.1500 -0.1459  1.1703
  665TMC3    H2 9899   3.708   2.592   0.785  0.1058  2.4258  0.9285
  665TMC3    C7 9900   3.854   2.775   0.632 -0.1792  0.7644 -0.2850
  665TMC3    C8 9901   3.468   2.541   0.788 -0.0789  0.6335 -0.5020
  665TMC3    O1 9902   3.931   2.809   0.542  0.8619 -0.4106  0.6563
  665TMC3    O2 9903   3.516   2.562   0.898 -0.1713 -0.0251 -0.0122
  666TMC3    C1 9904   2.978   3.057  10.202  0.8145 -0.5697  0.0752
  666TMC3    C2 9905   3.047   3.010  10.317 -0.5131  0.3074 -0.1687
  666TMC3    C3 9906   3.163   3.077  10.357  0.1740 -0.3030 -0.8172
  666TMC3    C4 9907   3.017   3.176  10.144  0.4646 -0.5252  0.0442
  666TMC3    C5 9908   3.126   3.243  10.201 -0.1314  0.5411 -0.0318
  666TMC3    C6 9909   3.208   3.182  10.290 -0.5840  0.2434 -0.0638
  666TMC3     C 9910   2.847   3.006  10.171  0.1449 -0.2376 -0.3626
  666TMC3     O 9911   2.769   3.088  10.122 -0.7673  0.5292 -0.0964
  666TMC3     H 9912   3.000   2.941  10.386 -0.9591 -0.9024 -1.6654
  666TMC3    H1 9913   2.958   3.214  10.061 -0.0142 -2.6792 -0.6205
  666TMC3    H2 9914   3.297   3.237  10.316  0.4217 -0.2971 -2.3685
  666TMC3    C7 9915   3.126   3.387  10.219  0.2532  0.5650 -0.4057
  666TMC3    C8 9916   3.259   3.002  10.436 -0.1282 -0.1530  0.1295
  666TMC3    O1 9917   3.163   3.435  10.322 -0.3800  0.2401 -0.1127
  666TMC3    O2 9918   3.234   2.881  10.453  0.7466 -0.1959 -1.0584
  667MPD2     C 9919   4.569   3.632  14.448 -0.4820 -0.2017 -0.0536
  667MPD2    C1 9920   4.542   3.576  14.568 -0.8776 -0.5905  0.2290
  667MPD2    C2 9921   4.440   3.477  14.577 -0.1421  0.0616  0.1163
  667MPD2    C3 9922   4.385   3.423  14.466 -0.2445  0.0528  0.2047
  667MPD2    C4 9923   4.421   3.476  14.344 -0.4451 -0.3288  0.0212
  667MPD2    C5 9924   4.509   3.580  14.333  0.3194 -0.8268 -0.7567
  667MPD2     H 9925   4.414   3.455  14.680 -1.3107  1.1856  0.0598
  667MPD2    H1 9926   4.385   3.423  14.257  0.8669  0.1122 -0.7865
  667MPD2    H2 9927   4.634   3.717  14.432 -1.0059  0.1489 -0.3144
  667MPD2    H3 9928   4.531   3.636  14.243  1.7536  0.2221  0.2433
  667MPD2     N 9929   4.289   3.326  14.467 -0.4286 -0.3128  0.0910
  667MPD2    H5 9930   4.237   3.322  14.380 -2.1894  0.0810  1.1205
  667MPD2    N1 9931   4.602   3.612  14.693  0.4887  0.2959 -0.3088
  667MPD2    H7 9932   4.574   3.559  14.775  0.0551 -1.6099 -1.6942
  668TMC3    C1 9933   4.737   3.718  14.849 -0.7279  0.1699  0.0918
  668TMC3    C2 9934   0.079   3.825  14.873  0.3141  0.6096  0.4981
  668TMC3    C3 9935   0.094   3.857  15.004  0.3173 -0.2921 -0.4114
  668TMC3    C4 9936   4.701   3.624  14.944  0.8817 -0.0905 -0.0777
  668TMC3    C5 9937   4.733   3.661  15.072 -0.9390  0.2676  0.5552
  668TMC3    C6 9938   0.058   3.773  15.109  0.5317  0.3069  0.4807
  668TMC3     C 9939   4.700   3.702  14.708  0.0755 -0.0739 -0.1236
  668TMC3     O 9940   0.012   3.775  14.624  0.5897  0.2774  0.4190
  668TMC3     H 9941   0.107   3.901  14.801  1.5382  0.5022  0.8559
  668TMC3    H1 9942   4.670   3.525  14.912  3.1648 -0.7319 -0.3508
  668TMC3    H2 9943   0.096   3.793  15.209 -0.1110 -0.3864  0.8602
  668TMC3    C7 9944   4.717   3.555  15.178  0.0915 -0.1059  0.9105
  668TMC3    C8 9945   0.172   3.973  15.044  0.2175 -0.6086  0.4794
  668TMC3    O1 9946   0.059   3.550  15.273 -0.0107  0.0476  0.2933
  668TMC3    O2 9947   0.149   4.027  15.153  0.4663  0.0202 -0.1132
  669TMC3    C1 9948   2.489   2.812  14.934  0.5123 -0.5937  0.3174
  669TMC3    C2 9949   2.393   2.833  14.833 -0.5644 -0.7116  0.2531
  669TMC3    C3 9950   2.434   2.898  14.723  0.7249  0.1703 -0.4547
  669TMC3    C4 9951   2.623   2.854  14.921 -0.4679 -0.0803 -0.3433
  669TMC3    C5 9952   2.657   2.921  14.806 -0.2331 -0.1748  0.3880
  669TMC3    C6 9953   2.565   2.936  14.703  0.1886  0.2575  0.1526
  669TMC3     C 9954   2.455   2.728  15.049  0.1985  0.5741  0.7048
  669TMC3     O 9955   2.336   2.705  15.069  0.6306 -0.0211  0.0602
  669TMC3     H 9956   2.287   2.816  14.844 -0.2931 -4.1568 -2.3660
  669TMC3    H1 9957   2.703   2.835  14.991 -1.6527 -0.9603  0.7604
  669TMC3    H2 9958   2.586   2.996  14.615  0.7078 -2.4895 -1.5759
  669TMC3    C7 9959   2.796   2.956  14.782  0.4778 -0.6141  0.0526
  669TMC3    C8 9960   2.341   2.928  14.618 -0.4146  0.2116  1.1622
  669TMC3    O1 9961   2.879   2.899  14.850  0.0895  0.2578 -0.3448
  669TMC3    O2 9962   2.255   2.843  14.604 -0.2963 -0.2383 -0.3179
  670MPD2     C 9963   0.648   1.112  13.785 -1.2680  0.3551 -1.1945
  670MPD2    C1 9964   0.693   0.994  13.741  0.2427  0.0748  0.3874
  670MPD2    C2 9965   0.660   0.892  13.829 -0.3155 -0.4156 -0.4864
  670MPD2    C3 9966   0.583   0.905  13.942  0.3119  0.2636 -1.3522
  670MPD2    C4 9967   0.540   1.027  13.976  0.4515 -0.0097  0.0719
  670MPD2    C5 9968   0.586   1.128  13.906  0.4596  0.5320 -0.0103
  670MPD2     H 9969   0.704   0.794  13.815  0.3531 -0.3407  1.0479
  670MPD2    H1 9970   0.467   1.035  14.056  1.0554  1.5517  0.4610
  670MPD2    H2 9971   0.683   1.199  13.731 -0.1988  0.1175 -0.8834
  670MPD2    H3 9972   0.564   1.232  13.926 -1.5153  0.3115 -1.0381
  670MPD2     N 9973   0.551   0.787  14.007 -0.8100 -0.1916  0.3907
  670MPD2    H5 9974   0.568   0.697  13.963 -0.5283 -0.8655  1.8894
  670MPD2    N1 9975   0.766   0.985  13.622 -0.4602  0.0017  0.1335
  670MPD2    H7 9976   0.799   1.074  13.586  0.8278 -0.1728  0.8929
  671TMC3    C1 9977   0.478   0.658  14.197  0.0368  0.3455  0.7555
  671TMC3    C2 9978   0.501   0.623  14.327  0.2286 -0.4409  0.5123
  671TMC3    C3 9979   0.438   0.512  14.378 -0.4881  0.0513 -0.1459
  671TMC3    C4 9980   0.404   0.579  14.108 -0.5149  0.4756 -0.1807
  671TMC3    C5 9981   0.335   0.477  14.168  0.2791 -0.1760 -0.2532
  671TMC3    C6 9982   0.355   0.435  14.297  0.1218 -0.0694 -0.0889
  671TMC3     C 9983   0.521   0.784  14.140  0.6788  0.2489 -0.0813
  671TMC3     O 9984   0.513   0.879  14.218 -0.5757 -0.9586 -0.2967
  671TMC3     H 9985   0.557   0.693  14.387  1.6463 -1.7060  0.6623
  671TMC3    H1 9986   0.392   0.607  14.004 -0.7591  3.4239  0.6612
  671TMC3    H2 9987   0.308   0.350  14.346  1.0997 -1.0516 -0.8596
  671TMC3    C7 9988   0.235   0.423  14.090 -0.0733  0.7514 -0.1565
  671TMC3    C8 9989   0.526   0.435  14.462 -0.0936 -0.0332 -0.2341
  671TMC3    O1 9990   0.232   0.431  13.968  0.1443 -0.5539  0.9820
  671TMC3    O2 9991   0.489   0.319  14.474 -0.0617 -0.1620 -0.5128
  672MPD2     C 9992   1.470   0.964   0.613  0.4551  0.5307 -0.2155
  672MPD2    C1 9993   1.357   1.015   0.672  0.6025  0.0675 -0.1120
  672MPD2    C2 9994   1.361   1.146   0.727  0.0023 -0.0711 -0.2916
  672MPD2    C3 9995   1.483   1.209   0.741  0.3308  0.2511 -0.1962
  672MPD2    C4 9996   1.602   1.147   0.705  0.0277  0.1329  0.5817
  672MPD2    C5 9997   1.593   1.028   0.631  0.4273  1.1512  0.1676
  672MPD2     H 9998   1.274   1.194   0.772  0.7755  0.8124  0.2508
  672MPD2    H1 9999   1.700   1.194   0.708 -1.2883  2.8944  0.4251
  672MPD2    H210000   1.474   0.872   0.556  1.8735  0.2116  0.3911
  672MPD2    H310001   1.687   0.985   0.597 -0.2042 -0.1492  0.0989
  672MPD2     N10002   1.500   1.331   0.807 -0.3802 -0.0738  0.1200
  672MPD2    H510003   1.594   1.368   0.812 -0.6180  0.8559 -2.1383
  672MPD2    N110004   1.233   0.935   0.670 -0.3839 -0.2994  0.2702
  672MPD2    H710005   1.249   0.835   0.660 -1.2867 -0.4046 -0.1382
  673TMC3    C110006   1.009   0.881   0.733 -0.4825 -0.1219  0.3956
  673TMC3    C210007   1.060   0.778   0.812 -0.1050 -0.2667 -0.5560
  673TMC3    C310008   0.978   0.696   0.879  0.3379  0.0626 -0.0686
  673TMC3    C410009   0.875   0.892   0.710 -0.7876 -0.4337  0.6792
  673TMC3    C510010   0.795   0.816   0.793 -0.0868  0.2232 -0.3827
  673TMC3    C610011   0.843   0.721   0.878  0.1974 -1.4444  0.5063
  673TMC3     C10012   1.104   0.981   0.701 -0.1613  0.3801 -0.5798
  673TMC3     O10013   1.066   1.096   0.709 -0.1861  0.3653  0.1819
  673TMC3     H10014   1.166   0.776   0.835 -0.2516  0.9568  0.2197
  673TMC3    H110015   0.848   0.969   0.638  1.0280  0.1731  0.6482
  673TMC3    H210016   0.779   0.673   0.952 -1.5654  0.6346  0.2951
  673TMC3    C710017   0.662   0.857   0.825  0.1360 -0.3420 -0.2616
  673TMC3    C810018   1.016   0.586   0.969 -0.0374 -0.3160  0.2564
  673TMC3    O110019   0.585   0.778   0.885 -0.9476  0.2290  0.0243
  673TMC3    O210020   0.941   0.502   1.014 -0.2596 -0.5056  0.2175
  674MPD2     C10021   0.889   0.813   0.385 -0.1894 -0.5368 -1.0391
  674MPD2    C110022   0.863   0.695   0.457 -0.2452 -0.6569  0.4014
  674MPD2    C210023   0.732   0.663   0.487  0.2849 -0.5988 -0.2363
  674MPD2    C310024   0.626   0.739   0.452 -0.2110  0.1525 -0.1738
  674MPD2    C410025   0.651   0.857   0.392  0.1350  0.4637  0.5774
  674MPD2    C510026   0.776   0.892   0.358  0.7445 -0.1241  0.2600
  674MPD2     H10027   0.710   0.566   0.530  2.2835 -0.7119  0.5128
  674MPD2    H110028   0.568   0.925   0.374  1.3754  1.4907 -1.2876
  674MPD2    H210029   0.986   0.847   0.351 -0.3331  0.2325 -0.6841
  674MPD2    H310030   0.798   0.989   0.314 -1.5976 -0.0654 -0.7690
  674MPD2     N10031   0.496   0.685   0.471  0.5399  0.2952 -0.1924
  674MPD2    H510032   0.487   0.589   0.504 -0.1097 -0.3544 -2.2825
  674MPD2    N110033   0.970   0.602   0.493  0.1439  0.2389 -0.1621
  674MPD2    H710034   1.062   0.624   0.455  0.3026  1.1591  0.7821
  675TMC3    C110035   1.077   0.405   0.588 -0.2776  0.3215  0.1474
  675TMC3    C210036   1.065   0.293   0.662 -0.3961  0.5702  0.4832
  675TMC3    C310037   1.166   0.252   0.740 -0.5117 -0.3892  0.3019
  675TMC3    C410038   1.193   0.471   0.595 -0.1519 -0.2438  0.1395
  675TMC3    C510039   1.295   0.430   0.666 -0.8085  0.6432  0.3170
  675TMC3    C610040   1.281   0.327   0.746 -0.2948 -0.0285 -0.5035
  675TMC3     C10041   0.954   0.485   0.567 -0.0820 -0.2679  0.3930
  675TMC3     O10042   0.855   0.448   0.627 -0.4981 -0.7073  0.0706
  675TMC3     H10043   0.992   0.215   0.642 -1.5239  1.4341  1.2544
  675TMC3    H110044   1.207   0.564   0.540 -0.8286 -2.4143 -3.7224
  675TMC3    H210045   1.354   0.308   0.824 -0.8387 -1.6133 -0.3729
  675TMC3    C710046   1.367   0.539   0.726 -0.3473 -1.0194 -0.2366
  675TMC3    C810047   1.140   0.163   0.849  0.5828 -0.1373 -0.4211
  675TMC3    O110048   1.325   0.653   0.707  0.1856 -0.0141  0.3316
  675TMC3    O210049   1.237   0.114   0.908 -0.3619  0.1610  0.0854
  676MPD2     C10050   3.430   3.678  11.443  0.5929 -0.4650 -0.8212
  676MPD2    C110051   3.340   3.640  11.545 -0.2221 -0.1177 -0.3623
  676MPD2    C210052   3.312   3.506  11.571 -0.3389 -0.4664  0.3820
  676MPD2    C310053   3.389   3.403  11.507  0.5861 -0.3368  1.1948
  676MPD2    C410054   3.490   3.442  11.422  0.1498  0.3255 -0.9983
  676MPD2    C510055   3.503   3.578  11.392  0.0542  0.4813  0.2395
  676MPD2     H10056   3.235   3.481  11.644 -1.1977 -1.7869 -0.9969
  676MPD2    H110057   3.563   3.370  11.387  1.7932  0.8653  1.2927
  676MPD2    H210058   3.432   3.784  11.417 -1.3208  0.3783  2.4686
  676MPD2    H310059   3.583   3.609  11.327 -0.6508 -1.4148 -1.5285
  676MPD2     N10060   3.370   3.264  11.531 -0.2731  0.5799 -0.5969
  676MPD2    H510061   3.440   3.207  11.485 -0.2566  0.9994 -1.0765
  676MPD2    N110062   3.256   3.730  11.614  0.1117  0.0849 -0.1261
  676MPD2    H710063   3.189   3.684  11.674  1.2187 -2.6047 -0.9675
  677TMC3    C110064   3.151   3.927  11.679 -0.2046 -0.2342 -0.3220
  677TMC3    C210065   3.034   3.861  11.687  0.3128 -0.2738  0.8773
  677TMC3    C310066   2.943   3.902  11.781 -0.2707 -0.3451 -0.8944
  677TMC3    C410067   3.183   4.021  11.768 -0.4495  0.6855 -0.3385
  677TMC3    C510068   3.082   4.059  11.858 -0.6816 -0.8001  0.3249
  677TMC3    C610069   2.959   4.002  11.867 -0.2608 -0.0576 -0.0851
  677TMC3     C10070   3.266   3.866  11.611 -0.7460  0.1015 -0.5990
  677TMC3     O10071   3.365   3.929  11.597  0.1434  0.7673  0.5382
  677TMC3     H10072   3.017   3.785  11.611  2.3043 -0.1758  0.3518
  677TMC3    H110073   3.285   4.058  11.770 -0.4225  0.6564 -1.4995
  677TMC3    H210074   2.885   4.034  11.940  0.1559  2.5705 -0.8077
  677TMC3    C710075   3.117   4.143  11.970 -0.1149  0.1138  0.1488
  677TMC3    C810076   2.825   3.813  11.800 -0.2236 -0.1802  0.5896
  677TMC3    O110077   3.036   4.160  12.062 -0.4726  0.5119  0.3045
  677TMC3    O210078   2.776   3.789  11.692  0.2072  0.0232 -0.1994
  678MPD2     C10079   0.481   3.584   1.561 -0.5538 -0.4679 -0.0971
  678MPD2    C110080   0.469   3.543   1.428  0.5176  0.3088 -0.4684
  678MPD2    C210081   0.343   3.558   1.369 -0.2269  0.4989 -0.2128
  678MPD2    C310082   0.232   3.592   1.441  0.5574 -0.3044  0.3538
  678MPD2    C410083   0.241   3.624   1.575 -0.2802  0.0542  0.4880
  678MPD2    C510084   0.371   3.610   1.638 -0.4201 -0.0973  0.1975
  678MPD2     H10085   0.341   3.533   1.263 -1.5678  1.5115 -0.4208
  678MPD2    H110086   0.162   3.665   1.636 -0.9149  0.7667 -0.8041
  678MPD2    H210087   0.576   3.591   1.613  0.3847 -0.6744 -1.7866
  678MPD2    H310088   0.384   3.639   1.741 -2.0844  0.4843  0.2530
  678MPD2     N10089   0.116   3.611   1.365 -0.3140  0.7213  0.6237
  678MPD2    H510090   0.124   3.576   1.270  2.3224 -1.8890  1.8167
  678MPD2    N110091   0.579   3.491   1.355 -0.1469 -0.4962 -0.0006
  678MPD2    H710092   0.560   3.471   1.258  3.1522  1.1661 -1.0191
  679TMC3    C110093   1.005   3.322   1.249  0.0874 -0.0891 -0.5151
  679TMC3    C210094   0.908   3.351   1.343 -1.2668  1.1192  0.0071
  679TMC3    C310095   0.800   3.426   1.303  0.0865  0.1442 -0.4759
  679TMC3    C410096   0.999   3.364   1.121 -0.8117  0.3908 -0.4723
  679TMC3    C510097   0.892   3.443   1.096 -0.6709 -0.2383 -0.0305
  679TMC3    C610098   0.803   3.485   1.180 -0.9256  0.6776 -0.8780
  679TMC3     C10099   1.062   3.191   1.273  0.3357 -0.4075 -0.0811
  679TMC3     O10100   1.061   3.105   1.187  0.2354  0.5380  0.0013
  679TMC3     H10101   0.892   3.295   1.435 -2.1689  0.4063 -0.5844
  679TMC3    H110102   1.073   3.336   1.047 -1.6992 -0.3095 -1.0942
  679TMC3    H210103   0.710   3.534   1.153  0.1216  2.9612 -0.3587
  679TMC3    C710104   0.866   3.467   0.958 -0.1763  0.3457  0.1381
  679TMC3    C810105   0.707   3.468   1.409  0.4340  0.3866 -0.1152
  679TMC3    O110106   0.794   3.560   0.934 -0.1100 -0.0024 -0.1574
  679TMC3    O210107   0.735   3.443   1.524 -0.1058 -0.4687  0.2651
  680MPD2     C10108   0.218   2.627  13.482  0.3092  0.0552 -0.0154
  680MPD2    C110109   0.298   2.564  13.574 -0.1868  0.4172  0.1831
  680MPD2    C210110   0.400   2.634  13.642  0.6605  0.2107 -0.2205
  680MPD2    C310111   0.421   2.767  13.614  0.3791 -0.0195  0.4770
  680MPD2    C410112   0.341   2.828  13.518 -0.2158  0.3187  0.5318
  680MPD2    C510113   0.244   2.758  13.455  0.0195  0.1444  0.0528
  680MPD2     H10114   0.455   2.580  13.718  3.1314  1.0230 -1.4572
  680MPD2    H110115   0.327   2.936  13.521 -0.2169  0.3390 -0.1548
  680MPD2    H210116   0.133   2.587  13.427  0.9540 -0.6957 -0.4738
  680MPD2    H310117   0.195   2.809  13.373 -0.9340  0.0880  0.5843
  680MPD2     N10118   0.520   2.846  13.676 -0.0961  0.3013  0.1408
  680MPD2    H510119   0.525   2.946  13.656  0.2063  0.0318 -1.1575
  680MPD2    N110120   0.261   2.435  13.619 -0.4839 -0.3846 -0.5901
  680MPD2    H710121   0.303   2.393  13.702 -1.4532 -1.8527 -0.8510
  681TMC3    C110122   0.153   2.225  13.599  0.9254  0.7047  0.7246
  681TMC3    C210123   0.155   2.208  13.735  0.4139 -0.0941 -0.0328
  681TMC3    C310124   0.159   2.080  13.778 -0.0892 -0.0727  0.1374
  681TMC3    C410125   0.145   2.120  13.508 -0.4191 -0.0844 -0.0104
  681TMC3    C510126   0.149   1.991  13.556  0.0816  0.6244  0.0611
  681TMC3    C610127   0.179   1.971  13.689 -0.2814  0.4749  0.2852
  681TMC3     C10128   0.169   2.359  13.542  0.7583  0.5058  0.2846
  681TMC3     O10129   0.120   2.363  13.430 -0.7777  0.0429  0.3628
  681TMC3     H10130   0.163   2.290  13.806 -1.4738 -1.7829  2.0966
  681TMC3    H110131   0.134   2.134  13.401  0.0503  0.4482  0.0103
  681TMC3    H210132   0.204   1.871  13.724 -0.3506  0.0245 -0.9490
  681TMC3    C710133   0.216   1.896  13.478 -0.0696  0.6334 -0.0410
  681TMC3    C810134   0.161   2.053  13.922  0.1709  0.2570 -0.5343
  681TMC3    O110135   0.212   1.777  13.505  0.4587  0.6201  0.0012
  681TMC3    O210136   0.136   1.938  13.950 -0.0869  0.4371  0.0029
  682MPD2     C10137   2.737   4.212  11.098  0.3919 -0.2523  0.4305
  682MPD2    C110138   2.626   4.131  11.076 -0.0155 -0.0992 -0.6010
  682MPD2    C210139   2.528   4.135  11.178  0.1606 -0.1957  0.0079
  682MPD2    C310140   2.550   4.218  11.295 -0.9036 -0.9400 -0.2373
  682MPD2    C410141   2.665   4.287  11.305  1.1801  0.2480 -0.9498
  682MPD2    C510142   2.759   4.289  11.205 -0.2074  0.4692 -0.0860
  682MPD2     H10143   2.445   4.066  11.173  1.0013 -1.4008  2.4725
  682MPD2    H110144   2.688   4.351  11.389  1.3186  1.2705 -1.7718
  682MPD2    H210145   2.805   4.221  11.014  0.5507  2.1869  0.8150
  682MPD2    H310146   2.843   4.357  11.215 -1.1752  1.7428 -0.5449
  682MPD2     N10147   2.463   4.214  11.408  0.7034 -0.3151  0.5474
  682MPD2    H510148   2.477   4.284  11.481  1.5121 -1.1939  1.2378
  682MPD2    N110149   2.606   4.040  10.968  0.1033 -0.6244  0.0516
  682MPD2    H710150   2.516   3.992  10.967  0.4713 -1.3073 -0.3518
  683TMC3    C110151   2.250   4.296  11.735 -0.5431  0.2888  0.2105
  683TMC3    C210152   2.113   4.287  11.727  0.2869  0.1221  0.5901
  683TMC3    C310153   2.063   4.201  11.632  0.0529  0.2322 -0.0486
  683TMC3    C410154   2.329   4.245  11.635 -0.6044  0.1953  0.1639
  683TMC3    C510155   2.281   4.156  11.548  0.0566  0.0348  0.1622
  683TMC3    C610156   2.147   4.139  11.542 -0.4723  0.0174 -0.3408
  683TMC3     C10157   2.302   4.325  11.866 -0.5150 -0.2124  0.7324
  683TMC3     O10158   2.239   4.405  11.928  0.2189 -0.1013 -0.4808
  683TMC3     H10159   2.046   4.309  11.809 -1.1956 -0.2599 -0.5154
  683TMC3    H110160   2.436   4.233  11.645 -0.2938  1.3896 -1.7433
  683TMC3    H210161   2.103   4.074  11.467  1.0347 -0.9625 -0.3772
  683TMC3    C710162   2.354   4.132  11.424 -0.2879  0.5653  0.1625
  683TMC3    C810163   1.929   4.136  11.644  0.4102  0.7306  0.7476
  683TMC3    O110164   2.319   4.033  11.361  0.2009 -0.3850 -0.2967
  683TMC3    O210165   1.834   4.204  11.678  0.4227  0.0489  0.3825
  684MPD2     C10166   0.702   2.961  16.555  0.1083  0.0025  0.5093
  684MPD2    C110167   0.649   3.037  16.454  0.2371 -0.1572  0.2924
  684MPD2    C210168   0.653   3.172  16.473 -0.0922 -0.1079 -0.0037
  684MPD2    C310169   0.691   3.227  16.590 -0.4697  0.6383  0.4382
  684MPD2    C410170   0.757   3.153  16.686 -0.5048 -0.3552 -0.3286
  684MPD2    C510171   0.754   3.020  16.669 -0.2988  0.4022  0.1805
  684MPD2     H10172   0.622   3.232  16.388 -0.2050  2.1900  1.6413
  684MPD2    H110173   0.811   3.202  16.765 -0.1468 -0.2584 -0.6366
  684MPD2    H210174   0.712   2.854  16.540 -0.5119  0.2739 -1.9019
  684MPD2    H310175   0.797   2.965  16.752  1.2129 -2.0852 -2.2452
  684MPD2     N10176   0.698   3.369  16.614 -0.6857  0.1283 -0.0660
  684MPD2    H510177   0.755   3.396  16.694 -3.0658  1.4998  1.1717
  684MPD2    N110178   0.609   2.981  16.337 -0.1338  0.5076 -0.1791
  684MPD2    H710179   0.580   3.056  16.275 -0.0766  2.5765  2.2918
  685TMC3    C110180   0.636   2.860  16.136 -1.0168 -0.4348 -0.2341
  685TMC3    C210181   0.554   2.963  16.090 -0.3600  0.0053  0.3483
  685TMC3    C310182   0.603   3.046  15.990 -0.0745 -0.5089  0.7202
  685TMC3    C410183   0.760   2.837  16.101 -0.4175 -0.3507  0.2241
  685TMC3    C510184   0.804   2.919  16.000 -0.3947  0.6121  0.8399
  685TMC3    C610185   0.732   3.023  15.948  0.0794 -0.1353 -0.1414
  685TMC3     C10186   0.642   2.862  16.284 -0.3356 -0.2186 -0.3312
  685TMC3     O10187   0.698   2.765  16.335  0.9602 -0.6824  0.8671
  685TMC3     H10188   0.460   2.979  16.141 -1.0257 -3.3932  0.1562
  685TMC3    H110189   0.813   2.746  16.124  0.4197  0.3992  1.3115
  685TMC3    H210190   0.762   3.076  15.859  0.8363 -2.1023 -1.0621
  685TMC3    C710191   0.946   2.901  15.960 -0.4679 -0.4658  0.2111
  685TMC3    C810192   0.524   3.145  15.913  1.1124 -0.1987  0.1948
  685TMC3    O110193   0.994   2.790  15.976 -0.1316 -0.3872  0.1851
  685TMC3    O210194   0.570   3.198  15.814 -0.3918  0.1371  0.4778
  686MPD2     C10195   2.051   3.449  15.446  0.4184 -0.8042  0.1221
  686MPD2    C110196   2.102   3.380  15.558 -0.1167  0.0010  0.4858
  686MPD2    C210197   2.189   3.276  15.540  0.0923  0.0575 -0.2574
  686MPD2    C310198   2.224   3.246  15.409  0.3287 -0.1059 -0.0214
  686MPD2    C410199   2.173   3.310  15.296 -0.2547 -0.2338 -0.2031
  686MPD2    C510200   2.082   3.413  15.313  0.4014  0.0631  0.0747
  686MPD2     H10201   2.242   3.225  15.619 -0.8924  2.4069  1.9340
  686MPD2    H110202   2.212   3.296  15.197  1.2083  0.0454  0.3413
  686MPD2    H210203   1.987   3.534  15.466 -0.5438 -1.6560  0.6473
  686MPD2    H310204   2.030   3.456  15.228 -0.1088  1.8223  1.2780
  686MPD2     N10205   2.309   3.129  15.398  0.5414  0.1626 -0.1086
  686MPD2    H510206   2.360   3.093  15.478 -0.6055 -0.8561  0.1488
  686MPD2    N110207   2.061   3.422  15.688 -0.1123 -0.1351 -0.5062
  686MPD2    H710208   2.000   3.503  15.688  1.0785  0.7601 -0.8870
  687TMC3    C110209   2.361   2.918  15.363 -0.2325  0.8191 -0.1201
  687TMC3    C210210   2.250   2.879  15.442 -0.0739  0.1831 -0.5816
  687TMC3    C310211   2.273   2.827  15.564 -0.0425  0.2286 -0.0848
  687TMC3    C410212   2.484   2.922  15.415  0.2087 -0.5082 -0.7208
  687TMC3    C510213   2.498   2.883  15.552  0.2308  0.8354  0.1566
  687TMC3    C610214   2.398   2.830  15.628  0.5659 -0.4062  0.0640
  687TMC3     C10215   2.321   3.035  15.297  0.3988 -0.0872  0.7018
  687TMC3     O10216   2.266   3.016  15.186 -0.1857 -0.7486 -0.2528
  687TMC3     H10217   2.157   2.866  15.386 -0.4708  0.0122  0.1229
  687TMC3    H110218   2.559   2.987  15.373 -2.7663  2.5312 -1.3601
  687TMC3    H210219   2.419   2.803  15.731  2.6052 -0.8821 -0.4925
  687TMC3    C710220   2.590   2.971  15.620 -1.0446  0.1683  0.1110
  687TMC3    C810221   2.162   2.861  15.655 -0.0759  0.1522  0.0502
  687TMC3    O110222   2.612   3.082  15.573  0.5324  0.0104 -0.3568
  687TMC3    O210223   2.165   2.816  15.766 -0.5362 -0.3810  0.6907
  688MPD2     C10224   0.861   2.152   0.040  0.7796  0.2551  0.5347
  688MPD2    C110225   0.935   2.038   0.085 -0.6477  0.9532 -0.0681
  688MPD2    C210226   1.033   1.994   0.002  0.1463 -0.3470  0.1821
  688MPD2    C310227   1.068   2.058  17.633 -0.0418 -0.3075 -0.6546
  688MPD2    C410228   1.003   2.174  17.595  0.1744 -0.7001  1.0414
  688MPD2    C510229   0.900   2.218  17.672  0.3210  0.0799  0.6034
  688MPD2     H10230   1.087   1.905   0.032  0.1721 -0.0365  1.0484
  688MPD2    H110231   1.031   2.226  17.504 -0.7993 -1.4316  0.3190
  688MPD2    H210232   0.782   2.198   0.099 -0.2624 -1.4269  0.4361
  688MPD2    H310233   0.842   2.306  17.650  1.5482  1.0867  1.3538
  688MPD2     N10234   1.183   2.028  17.556  0.1145  0.4594  0.7926
  688MPD2    H510235   1.192   2.090  17.476  0.7181 -2.6223 -1.4915
  688MPD2    N110236   0.925   1.979   0.212 -0.0697  0.2655  0.4818
  688MPD2    H710237   0.981   1.899   0.237 -0.9449 -0.2612  0.7464
  689TMC3    C110238   0.845   1.939   0.421  0.1176 -0.3784  0.2099
  689TMC3    C210239   0.809   2.015   0.527  0.6118  0.3945 -0.4990
  689TMC3    C310240   0.813   1.941   0.642  0.8046  0.7302  0.0740
  689TMC3    C410241   0.856   1.803   0.405 -0.0336 -0.9671 -0.0392
  689TMC3    C510242   0.844   1.737   0.524 -0.5959  0.2137  0.1255
  689TMC3    C610243   0.826   1.804   0.637  0.1152 -0.4598 -0.3274
  689TMC3     C10244   0.854   2.029   0.310 -0.1730  0.0162 -1.1969
  689TMC3     O10245   0.802   2.137   0.321  0.2713  0.4078  0.0345
  689TMC3     H10246   0.819   2.122   0.537 -0.9710  0.5131 -0.1696
  689TMC3    H110247   0.876   1.759   0.308  1.6809  1.6987 -0.8773
  689TMC3    H210248   0.827   1.750   0.731 -0.8274 -1.3620 -0.8336
  689TMC3    C710249   0.892   1.600   0.532 -0.2137 -0.8599 -0.2324
  689TMC3    C810250   0.780   2.003   0.774 -0.1558  0.0064  0.3028
  689TMC3    O110251   0.944   1.562   0.637  0.1583  0.4123  0.5588
  689TMC3    O210252   0.815   1.940   0.874 -0.0671 -0.4477  0.3012
  690MPD2     C10253   3.743   4.043  16.269 -0.6407 -0.4052  0.1423
  690MPD2    C110254   3.696   4.051  16.139 -0.1000  0.2564  0.1012
  690MPD2    C210255   3.758   4.140  16.051  0.1162 -0.3013  0.0454
  690MPD2    C310256   3.864   4.213  16.089  0.2228  0.0319 -0.2440
  690MPD2    C410257   3.903   4.210  16.223  0.2621 -0.4436  0.3609
  690MPD2    C510258   3.846   4.121  16.312  0.2763  0.7500 -0.0623
  690MPD2     H10259   3.728   4.153  15.948  1.4900  1.1781 -0.1696
  690MPD2    H110260   3.985   4.275  16.253 -0.9881  0.5603  1.5676
  690MPD2    H210261   3.689   3.988  16.344  0.3906 -0.0205  1.1791
  690MPD2    H310262   3.896   4.112  16.407 -2.8489 -4.4061  1.0816
  690MPD2     N10263   3.932   4.294  15.984  0.7057 -0.6360 -0.4801
  690MPD2    H510264   3.890   4.289  15.892 -0.9781  0.6640  0.2300
  690MPD2    N110265   3.590   3.966  16.103  0.0446 -0.3138 -0.1149
  690MPD2    H710266   3.555   3.891  16.162  2.0605 -1.8139 -0.8188
  691TMC3    C110267   3.415   3.879  15.963  0.2621 -0.1652  0.4108
  691TMC3    C210268   3.306   3.914  15.891 -0.3732 -0.3515 -0.2307
  691TMC3    C310269   3.228   3.813  15.851  0.0397 -0.4210 -0.7395
  691TMC3    C410270   3.459   3.751  15.977 -0.0644 -0.0178 -0.6254
  691TMC3    C510271   3.385   3.652  15.920  0.7593 -0.5945 -0.3648
  691TMC3    C610272   3.258   3.675  15.874 -0.2456 -0.3466 -0.1084
  691TMC3     C10273   3.514   3.987  15.993  0.5068  0.0675 -0.0256
  691TMC3     O10274   3.495   4.090  15.930 -0.5046  0.1387 -0.4426
  691TMC3     H10275   3.282   4.014  15.856  0.3020  1.3251  4.1469
  691TMC3    H110276   3.553   3.729  16.028 -1.1060  0.0454  1.3220
  691TMC3    H210277   3.186   3.594  15.866  0.5290 -1.0630  0.1765
  691TMC3    C710278   3.428   3.513  15.923 -0.3801 -0.2030 -0.1932
  691TMC3    C810279   3.115   3.846  15.778 -0.0755 -0.6166  0.7540
  691TMC3    O110280   3.534   3.493  15.978 -0.1280  0.1935 -0.1628
  691TMC3    O210281   3.068   3.759  15.709 -0.9169  0.1036  0.5473
  692TMC3    C110282   0.563   0.041  15.947 -0.2648 -0.5341 -0.3107
  692TMC3    C210283   0.669   0.060  16.029 -0.0749 -0.1552 -0.2125
  692TMC3    C310284   0.736   4.688  16.084  0.5777  0.3164 -0.1759
  692TMC3    C410285   0.531   4.655  15.914  0.2116  0.2707  0.3303
  692TMC3    C510286   0.594   4.547  15.962  0.5655  0.1257  0.0419
  692TMC3    C610287   0.695   4.563  16.053 -0.3364 -0.7099  0.9891
  692TMC3     C10288   0.493   0.156  15.894 -0.7308  0.6877 -0.7285
  692TMC3     O10289   0.376   0.146  15.856  0.6097  0.4180 -0.2234
  692TMC3     H10290   0.678   0.154  16.083 -2.5978 -0.1701  0.2186
  692TMC3    H110291   0.448   4.637  15.845  0.2179  1.5320 -0.0154
  692TMC3    H210292   0.752   4.473  16.072 -1.0711 -1.2198  0.7792
  692TMC3    C710293   0.541   4.413  15.926  0.1711  0.2383 -0.1310
  692TMC3    C810294   0.787   4.701  16.220 -0.0626  0.1650  0.3844
  692TMC3    O110295   0.472   4.409  15.824 -0.7113  0.3535 -0.7036
  692TMC3    O210296   0.758   4.611  16.299 -0.1646 -0.2466 -0.3207
  693MPD2     C10297   4.536   2.618  10.647 -0.0744  0.2869  0.1633
  693MPD2    C110298   4.519   2.645  10.786 -0.3693 -0.0380  0.2726
  693MPD2    C210299   4.608   2.589  10.876 -0.3284  0.1856 -0.0293
  693MPD2    C310300   4.718   2.518  10.832  0.7497  0.1706 -0.2182
  693MPD2    C410301   4.725   2.476  10.703 -0.1179 -0.1314  0.1607
  693MPD2    C510302   4.633   2.533  10.614 -0.1368  0.2977  0.1006
  693MPD2     H10303   4.593   2.618  10.980 -2.2441  0.4519 -0.3887
  693MPD2    H110304   0.074   2.423  10.665  1.7388  2.0564  1.3124
  693MPD2    H210305   4.466   2.656  10.573 -1.2950  0.0683  1.1932
  693MPD2    H310306   4.647   2.504  10.511 -0.8369  2.3311 -0.5726
  693MPD2     N10307   0.089   2.490  10.921 -0.0218  0.4267  0.8249
  693MPD2    H510308   0.175   2.453  10.882 -0.6444  0.6101 -0.7363
  693MPD2    N110309   4.417   2.731  10.820 -0.3175 -0.1464 -0.9663
  693MPD2    H710310   4.372   2.769  10.737  0.2700 -0.6797 -1.5286
  694TMC3    C110311   4.231   2.801  10.942  0.8693 -0.4288 -0.5906
  694TMC3    C210312   4.147   2.734  10.855 -0.0479  0.0324  0.5960
  694TMC3    C310313   4.041   2.664  10.911 -0.3413  0.1693  0.9156
  694TMC3    C410314   4.185   2.827  11.067 -0.9629 -0.0422  0.3411
  694TMC3    C510315   4.063   2.776  11.113  0.2147 -0.8283  0.0752
  694TMC3    C610316   3.993   2.692  11.035  0.9143 -0.2724  0.4312
  694TMC3     C10317   4.371   2.762  10.941  1.0664  0.4789  0.4667
  694TMC3     O10318   4.420   2.765  11.052  0.3247 -0.1480  0.2699
  694TMC3     H10319   4.179   2.699  10.758 -1.9483 -0.0077 -0.0319
  694TMC3    H110320   4.251   2.875  11.138 -1.7485  2.6608 -0.7824
  694TMC3    H210321   3.907   2.638  11.071  1.0357  0.2532  1.5012
  694TMC3    C710322   4.059   2.744  11.253 -0.2955  0.3352 -0.1619
  694TMC3    C810323   3.954   2.583  10.832  0.6938  0.3140  0.8051
  694TMC3    O110324   4.025   2.829  11.337 -0.0830  0.1550 -0.0418
  694TMC3    O210325   3.892   2.493  10.884 -0.1643  0.1926 -0.3238
  695MPD2     C10326   0.885   0.032  13.664  0.1240  0.1565 -0.1411
  695MPD2    C110327   0.802   0.019  13.777 -0.2599 -0.3921  0.1775
  695MPD2    C210328   0.662   0.050  13.783 -0.2825  0.6093  0.4241
  695MPD2    C310329   0.612   0.108  13.666 -0.3276 -0.5678 -0.0516
  695MPD2    C410330   0.692   0.124  13.556  0.3170  0.7399  0.3957
  695MPD2    C510331   0.822   0.082  13.557  0.6687 -0.4319  0.1023
  695MPD2     H10332   0.610   0.037  13.877  0.0407 -0.5173  0.4468
  695MPD2    H110333   0.661   0.163  13.459  1.4270  2.8469  0.8910
  695MPD2    H210334   0.987   4.733  13.657  0.2029  0.1466  1.0265
  695MPD2    H310335   0.877   0.087  13.464  0.3737  3.6833  0.1389
  695MPD2     N10336   0.469   0.140  13.672  0.6716  0.2972  0.3710
  695MPD2    H510337   0.421   0.114  13.758  1.6496  1.8044  1.3803
  695MPD2    N110338   0.851   4.729  13.907 -0.3768 -0.2300 -0.2722
  695MPD2    H710339   0.783   4.697  13.975  1.4368 -0.9172  1.2011
  696TMC3    C110340   0.261   0.237  13.626 -0.0748 -0.0092 -0.1018
  696TMC3    C210341   0.192   0.131  13.676 -0.4654  0.4126 -0.9253
  696TMC3    C310342   0.076   0.171  13.731  0.8417  0.1789  0.1867
  696TMC3    C410343   0.222   0.362  13.618  0.0638 -0.3845 -0.6587
  696TMC3    C510344   0.094   0.389  13.652 -0.7462  0.5319 -0.3819
  696TMC3    C610345   0.024   0.298  13.724 -0.1668  1.0826  0.0728
  696TMC3     C10346   0.400   0.213  13.584  0.5832 -0.2875  0.6180
  696TMC3     O10347   0.445   0.268  13.480 -0.2278  0.1339 -0.3982
  696TMC3     H10348   0.233   0.032  13.691  1.6061  1.0625 -2.3005
  696TMC3    H110349   0.279   0.439  13.567 -1.1965  2.1015  1.6958
  696TMC3    H210350   4.668   0.328  13.771 -0.6545 -0.4732  0.0905
  696TMC3    C710351   0.057   0.529  13.658  0.2547 -0.3635 -0.8750
  696TMC3    C810352   4.713   0.066  13.751 -0.3452  0.0065  0.6114
  696TMC3    O110353   0.066   0.593  13.551  0.2202  0.0545  0.4934
  696TMC3    O210354   4.715   4.716  13.667 -0.4230  0.3361  0.1847
  697MPD2     C10355   0.386   1.839  15.541  0.1796  0.0167  1.3637
  697MPD2    C110356   0.349   1.784  15.419  1.6127 -0.2966 -0.2941
  697MPD2    C210357   0.311   1.870  15.315  0.8103 -0.2261  0.0015
  697MPD2    C310358   0.308   2.002  15.342 -0.1854  0.6177 -0.2604
  697MPD2    C410359   0.338   2.055  15.467  0.6235 -0.2171 -0.2900
  697MPD2    C510360   0.372   1.967  15.564  0.1405  0.4614  0.0249
  697MPD2     H10361   0.289   1.832  15.216 -0.8716 -1.9861  1.0430
  697MPD2    H110362   0.328   2.160  15.492 -2.1792 -0.6667  0.4828
  697MPD2    H210363   0.415   1.766  15.616  0.7736 -1.3403 -0.1661
  697MPD2    H310364   0.406   2.000  15.662  0.1228  0.1764  0.1304
  697MPD2     N10365   0.264   2.085  15.236 -0.2032 -0.5752 -0.7146
  697MPD2    H510366   0.232   2.027  15.159 -2.9727 -0.9305  0.6870
  697MPD2    N110367   0.333   1.644  15.417  0.0478  0.2210  0.0453
  697MPD2    H710368   0.374   1.595  15.496 -0.9375 -0.3831  0.1817
  698TMC3    C110369   0.192   2.267  15.103  1.1762 -0.9696 -0.1560
  698TMC3    C210370   0.193   2.406  15.078  0.0568 -0.0307  0.3519
  698TMC3    C310371   0.131   2.454  14.962  0.2551 -0.6385  0.0864
  698TMC3    C410372   0.113   2.186  15.023 -0.6248  0.4136  0.2535
  698TMC3    C510373   0.052   2.246  14.912 -0.2459 -0.6431  0.4137
  698TMC3    C610374   0.067   2.370  14.873  0.6217 -0.0154  0.2354
  698TMC3     C10375   0.263   2.221  15.222  0.1815 -0.3772 -0.1831
  698TMC3     O10376   0.301   2.311  15.299  0.0583 -0.4381 -0.1404
  698TMC3     H10377   0.232   2.484  15.143  0.6689 -0.5473  0.6104
  698TMC3    H110378   0.101   2.080  15.041 -1.4791  0.9848  3.0416
  698TMC3    H210379   0.021   2.409  14.783  0.9907 -2.7367 -1.1360
  698TMC3    C710380   4.707   2.161  14.837  0.1600 -0.6537  0.4122
  698TMC3    C810381   0.137   2.593  14.935 -0.6908  0.2330 -0.3204
  698TMC3    O110382   4.652   2.077  14.906 -0.2965 -0.5917  0.3068
  698TMC3    O210383   0.048   2.634  14.866 -0.2117  0.0860 -0.6752
  699TMC3    C110384   0.247   0.374  13.210  0.6853 -0.3476 -0.4442
  699TMC3    C210385   0.297   0.253  13.236 -0.0818  0.2240  0.1197
  699TMC3    C310386   0.212   0.159  13.284  0.2483  0.1547  0.4955
  699TMC3    C410387   0.117   0.401  13.236  0.5382  0.8425 -0.1001
  699TMC3    C510388   0.038   0.301  13.290 -0.6859 -0.6134  0.3895
  699TMC3    C610389   0.086   0.180  13.319  0.5029 -0.3891 -0.6531
  699TMC3     C10390   0.303   0.450  13.096 -0.2181  0.0511  0.2997
  699TMC3     O10391   0.218   0.515  13.031  0.5068 -0.0205 -0.4356
  699TMC3     H10392   0.389   0.218  13.190  0.7713  2.3139  0.2122
  699TMC3    H110393   0.078   0.499  13.211  0.4161  0.6490 -0.6509
  699TMC3    H210394   0.024   0.104  13.365  0.1116 -0.7445 -1.7610
  699TMC3    C710395   4.641   0.323  13.320  0.3114  0.9004  0.2288
  699TMC3    C810396   0.247   0.021  13.267 -0.1934  0.4118 -0.3898
  699TMC3    O110397   4.584   0.243  13.396 -0.3709  0.3727  0.0143
  699TMC3    O210398   0.152   4.686  13.242  0.0195 -0.3001 -0.2444
  700TMC3    C110399   4.311   2.380  17.229 -0.3777  1.0072  0.1598
  700TMC3    C210400   4.400   2.283  17.223  0.4714  0.6181  0.2610
  700TMC3    C310401   4.480   2.247  17.331  0.5802 -0.3605 -0.1475
  700TMC3    C410402   4.280   2.438  17.343  0.0660  0.5687  0.0179
  700TMC3    C510403   4.354   2.404  17.449  0.2946  0.2899  0.0463
  700TMC3    C610404   4.457   2.307  17.453  0.2140  0.0481  0.2397
  700TMC3     C10405   4.272   2.438  17.099 -0.4468 -0.3237  0.2169
  700TMC3     O10406   4.268   2.362  17.005 -0.3650 -0.3227  0.0873
  700TMC3     H10407   4.424   2.254  17.121  0.3475 -0.6270  0.5851
  700TMC3    H110408   4.209   2.520  17.341 -0.3803  0.1634 -0.7976
  700TMC3    H210409   4.506   2.281  17.546 -2.2638  0.3544  1.6373
  700TMC3    C710410   4.358   2.501  17.558 -0.1937  0.0300  0.5391
  700TMC3    C810411   4.587   2.156  17.300  0.0805  0.5863  0.2041
  700TMC3    O110412   4.469   2.515  17.607 -0.2921  0.4769  0.2216
  700TMC3    O210413   4.588   2.112  17.188  0.0138 -0.1943  0.1876
  701TMC3    C110414   4.467   1.006  15.381  0.6232  0.0538  1.2630
  701TMC3    C210415   4.430   0.977  15.252 -0.7062 -0.2961  0.1844
  701TMC3    C310416   4.508   1.022  15.144 -0.2895  0.4143  0.3055
  701TMC3    C410417   4.562   1.099  15.401 -0.0435 -0.0635 -0.8476
  701TMC3    C510418   4.634   1.144  15.300 -0.5027 -1.0097  0.3769
  701TMC3    C610419   4.618   1.097  15.168  0.0212  0.3051 -0.0339
  701TMC3     C10420   4.359   1.015  15.479 -0.6633 -0.0813  0.7157
  701TMC3     O10421   4.339   1.127  15.529 -0.4907  0.4055  0.0078
  701TMC3     H10422   4.330   0.937  15.235 -0.7305 -0.0532 -0.2484
  701TMC3    H110423   4.553   1.146  15.499 -1.1652  0.2183 -1.0882
  701TMC3    H210424   4.681   1.136  15.089 -0.1297 -0.3352 -0.4731
  701TMC3    C710425   4.683   1.278  15.320 -0.2263  0.1114 -0.3931
  701TMC3    C810426   4.477   1.010  15.006 -0.4143  0.3285 -0.0115
  701TMC3    O110427   4.714   1.335  15.215 -0.1147  0.2209  0.3573
  701TMC3    O210428   4.549   1.067  14.928  0.5110 -0.1682 -0.3696
  702MPD2     C10429   3.666   2.954  11.161  0.6557 -0.2772 -0.0725
  702MPD2    C110430   3.562   3.038  11.196 -0.0903 -0.3560  0.6014
  702MPD2    C210431   3.552   3.157  11.127 -0.3810  0.9946 -0.1245
  702MPD2    C310432   3.655   3.211  11.058 -0.4538  0.0789 -0.1867
  702MPD2    C410433   3.756   3.128  11.028  0.6769 -0.3803 -0.3526
  702MPD2    C510434   3.759   3.004  11.079 -0.3011  0.0809 -0.4275
  702MPD2     H10435   3.462   3.218  11.122  0.6900  2.5728 -0.0162
  702MPD2    H110436   3.838   3.159  10.965 -0.0202  0.6129 -0.7728
  702MPD2    H210437   3.677   2.853  11.197  0.1914 -0.0354  0.7725
  702MPD2    H310438   3.850   2.945  11.068 -0.5467 -0.1890 -0.9914
  702MPD2     N10439   3.641   3.343  11.005  0.2934 -0.5271  0.4706
  702MPD2    H510440   3.558   3.397  11.028  0.6536 -0.7327  2.2166
  702MPD2    N110441   3.460   3.005  11.284  0.3553 -0.2984  0.0374
  702MPD2    H710442   3.387   3.074  11.298 -0.7440 -1.1532 -1.4245
  703TMC3    C110443   3.678   3.527  10.873 -0.5125  0.4150  0.1616
  703TMC3    C210444   3.543   3.542  10.833  0.0540 -0.5770  0.0073
  703TMC3    C310445   3.514   3.657  10.765  0.1788  0.0817 -0.0714
  703TMC3    C410446   3.772   3.619  10.830 -0.6169  0.3474 -0.4364
  703TMC3    C510447   3.732   3.729  10.756 -0.6044  0.3275  0.1692
  703TMC3    C610448   3.604   3.743  10.717 -0.4703 -0.2014 -0.4014
  703TMC3     C10449   3.734   3.407  10.927  0.3187 -0.5661 -0.1141
  703TMC3     O10450   3.844   3.369  10.890  0.6616  0.1653  0.3071
  703TMC3     H10451   3.469   3.467  10.857  1.6323 -1.9624  0.5475
  703TMC3    H110452   3.878   3.603  10.843 -0.4291  0.0205 -2.4215
  703TMC3    H210453   3.580   3.841  10.676  0.9789  0.8927  1.3699
  703TMC3    C710454   3.833   3.832  10.732  0.1257  0.1597 -0.1111
  703TMC3    C810455   3.379   3.665  10.707 -0.0916 -0.5157  0.0524
  703TMC3    O110456   3.824   3.910  10.639 -0.3410 -0.1882  0.0253
  703TMC3    O210457   3.368   3.637  10.589 -0.0531  0.0287  0.4831
  704TMC3    C110458   0.839   1.656  13.005  0.4777  0.1099 -0.5171
  704TMC3    C210459   0.951   1.734  13.013  0.0079  0.3866 -0.3029
  704TMC3    C310460   1.051   1.699  13.097 -0.0991 -1.5108  0.1177
  704TMC3    C410461   0.817   1.541  13.079  0.4160 -0.1224 -0.4503
  704TMC3    C510462   0.924   1.505  13.158  0.2252 -0.3669  0.8462
  704TMC3    C610463   1.029   1.586  13.166 -0.2835  0.0300 -0.3335
  704TMC3     C10464   0.792   1.646  12.870  0.6408  0.7444 -0.9046
  704TMC3     O10465   0.688   1.590  12.847  0.2998 -0.1662 -0.1491
  704TMC3     H10466   0.956   1.832  12.967  1.8937 -0.0716 -1.0714
  704TMC3    H110467   0.737   1.473  13.056 -0.5390  0.2190  1.8623
  704TMC3    H210468   1.114   1.549  13.223  1.2335  1.6505 -1.5688
  704TMC3    C710469   0.952   1.365  13.173 -0.6597 -0.1991 -0.9117
  704TMC3    C810470   1.175   1.707  13.034  0.3768 -0.7911 -0.4253
  704TMC3    O110471   1.074   1.334  13.177  0.9313 -0.0912  0.2270
  704TMC3    O210472   1.175   1.716  12.911 -0.3386 -0.1270  0.1144
  705MPD2     C10473   0.696   4.261  16.586  0.3940  0.3629 -0.4493
  705MPD2    C110474   0.756   4.384  16.599  0.4464 -0.3348 -0.6921
  705MPD2    C210475   0.669   4.484  16.642  0.3850 -0.0638  0.8168
  705MPD2    C310476   0.535   4.468  16.672 -0.0300  0.5240 -0.6546
  705MPD2    C410477   0.479   4.341  16.655  0.0073  0.0618  0.8464
  705MPD2    C510478   0.563   4.241  16.605 -0.5925 -0.2759 -0.4190
  705MPD2     H10479   0.714   4.580  16.662 -0.9727  0.4529  1.4055
  705MPD2    H110480   0.372   4.329  16.669 -0.2480 -0.9186 -1.9764
  705MPD2    H210481   0.754   4.173  16.558 -0.5389 -0.1650 -0.7142
  705MPD2    H310482   0.532   4.137  16.605 -3.1088  0.4745  1.1492
  705MPD2     N10483   0.440   4.564  16.708  0.1727 -0.5914  0.1140
  705MPD2    H510484   0.345   4.529  16.708 -0.3145  0.7463 -1.0963
  705MPD2    N110485   0.894   4.413  16.562  0.0570  1.1172  0.1214
  705MPD2    H710486   0.923   4.510  16.563 -1.4081  1.5737 -1.1162
  706TMC3    C110487   1.183   4.329  16.219  0.6521  1.1349  0.7207
  706TMC3    C210488   1.177   4.464  16.186  0.2453 -0.0714  0.9430
  706TMC3    C310489   1.138   4.555  16.283 -0.0297  0.4799  0.2255
  706TMC3    C410490   1.139   4.286  16.345 -0.7603  0.2518 -0.0729
  706TMC3    C510491   1.089   4.376  16.432 -0.7515  0.7287 -0.3599
  706TMC3    C610492   1.088   4.513  16.403 -0.3919 -0.5221 -0.3758
  706TMC3     C10493   1.303   4.263  16.173  0.1518 -0.1256  1.5740
  706TMC3     O10494   1.352   4.180  16.250  0.1209  0.0965  0.3325
  706TMC3     H10495   1.219   4.511  16.098 -1.3807 -1.0283 -0.3558
  706TMC3    H110496   1.129   4.179  16.360  4.2564  0.0827  2.2109
  706TMC3    H210497   1.052   4.586  16.475 -0.3380 -0.8626 -0.0081
  706TMC3    C710498   0.981   4.321  16.515  0.4138 -0.4772  0.7562
  706TMC3    C810499   1.171   4.695  16.261  0.0915  0.0971 -0.0617
  706TMC3    O110500   0.968   4.202  16.523  0.3984 -0.8611  0.0265
  706TMC3    O210501   1.219   4.723  16.154  0.3836  0.4800 -0.2586
  707TMC3    C110502   2.466   3.097   1.676  0.0021  0.3241 -0.1066
  707TMC3    C210503   2.399   3.032   1.576 -0.6195 -0.3606  0.2545
  707TMC3    C310504   2.275   2.969   1.600  0.1972  0.0760  0.3747
  707TMC3    C410505   2.396   3.126   1.786 -0.5126  0.4034 -0.6324
  707TMC3    C510506   2.269   3.076   1.801  0.1327 -0.2124 -0.4110
  707TMC3    C610507   2.214   2.987   1.716  0.1557  0.4029 -0.3735
  707TMC3     C10508   2.612   3.101   1.666  0.1243  0.1573 -0.2629
  707TMC3     O10509   2.650   3.047   1.565  0.2523  0.5173  0.1903
  707TMC3     H10510   2.447   3.004   1.483 -0.0525  1.3470  0.0433
  707TMC3    H110511   2.428   3.191   1.867 -0.6138  0.9583 -1.0371
  707TMC3    H210512   2.118   2.939   1.728  1.4659 -1.5328  2.4601
  707TMC3    C710513   2.191   3.104   1.928  0.3533  0.3339 -1.0080
  707TMC3    C810514   2.262   2.835   1.547  0.3702 -0.3966  0.9555
  707TMC3    O110515   2.258   3.151   2.019 -0.1612  0.0550  0.2721
  707TMC3    O210516   2.160   2.775   1.538  0.0987 -0.3293 -0.4119
  708MPD2     C10517   4.274   4.121  13.957  0.1850 -0.3139 -0.3251
  708MPD2    C110518   4.288   4.045  14.071 -0.3915  0.2951 -0.0352
  708MPD2    C210519   4.382   4.075  14.164 -0.3949  0.2267 -0.1854
  708MPD2    C310520   4.467   4.179  14.150 -0.3986  0.8045 -0.4157
  708MPD2    C410521   4.451   4.252  14.032  0.2086 -0.7020 -0.0895
  708MPD2    C510522   4.351   4.228  13.944 -0.6122 -0.0878 -0.1649
  708MPD2     H10523   4.372   4.021  14.257 -0.0086 -0.0973 -0.3313
  708MPD2    H110524   4.517   4.335  14.007  0.9461 -1.4425 -0.6243
  708MPD2    H210525   4.183   4.115  13.899 -1.3969 -1.0774  2.2003
  708MPD2    H310526   4.331   4.301  13.867 -1.2669  1.1582  1.1883
  708MPD2     N10527   4.561   4.203  14.251 -0.1324  0.0947  0.5409
  708MPD2    H510528   4.604   4.295  14.242  2.0697 -1.1064 -1.1686
  708MPD2    N110529   4.212   3.931  14.093 -0.1770 -0.8390 -0.2097
  708MPD2    H710530   4.222   3.897  14.189  0.5457  1.0342  0.3727
  709TMC3    C110531   4.072   3.750  14.066 -0.1145  0.3970 -0.5267
  709TMC3    C210532   4.109   3.627  14.019 -0.0663 -0.5746  0.0794
  709TMC3    C310533   4.133   3.527  14.114 -0.5551  0.8868 -0.6003
  709TMC3    C410534   4.054   3.773  14.199  0.2296 -0.3503  0.8299
  709TMC3    C510535   4.086   3.674  14.291  0.2719 -0.2291  0.4333
  709TMC3    C610536   4.130   3.551  14.249 -0.1314  0.2161  0.1211
  709TMC3     C10537   4.139   3.858  14.003  0.2608 -0.0576  0.1460
  709TMC3     O10538   4.118   3.871  13.879 -0.1255 -0.3552 -0.4845
  709TMC3     H10539   4.117   3.614  13.912  0.5131 -0.2518  0.0822
  709TMC3    H110540   4.021   3.871  14.230  2.0288 -0.0393  1.7687
  709TMC3    H210541   4.119   3.472  14.323  2.5563  0.0613  0.3696
  709TMC3    C710542   4.174   3.747  14.386  1.2447 -0.0981 -0.0097
  709TMC3    C810543   4.152   3.394  14.070  0.7369  0.3957  0.7942
  709TMC3    O110544   4.199   3.864  14.367 -0.5327 -0.0839 -0.0478
  709TMC3    O210545   4.206   3.325  14.155 -0.2989 -0.3837  0.6257
  710TMC3    C110546   0.492   3.874   0.275 -0.0384 -0.7040  0.1340
  710TMC3    C210547   0.559   3.865   0.161 -0.0709 -0.5899 -0.0642
  710TMC3    C310548   0.687   3.825   0.166 -0.3646  0.4638  0.3981
  710TMC3    C410549   0.542   3.837   0.396  0.2287  0.0106  0.5279
  710TMC3    C510550   0.666   3.781   0.393  0.9943  1.0978 -0.6223
  710TMC3    C610551   0.747   3.785   0.283 -0.5508 -0.5096 -0.0230
  710TMC3     C10552   0.365   3.956   0.277 -0.0769  0.0321  0.0490
  710TMC3     O10553   0.303   3.975   0.170 -0.0893  0.5221 -0.0387
  710TMC3     H10554   0.510   3.904   0.072 -0.9723 -0.9150  0.2905
  710TMC3    H110555   0.474   3.821   0.478 -0.6808  0.4522 -0.1399
  710TMC3    H210556   0.849   3.747   0.285 -0.9252 -1.3649  2.1497
  710TMC3    C710557   0.687   3.673   0.488  0.2332  0.6077 -0.1472
  710TMC3    C810558   0.768   3.856   0.054  0.1551  0.1398  0.3431
  710TMC3    O110559   0.635   3.689   0.595  0.2206 -0.0854 -0.1954
  710TMC3    O210560   0.704   3.886  17.701  0.3914  0.4162 -0.3906
  711TMC3    C110561   0.303   0.352  15.061 -0.1682  0.1240 -0.4544
  711TMC3    C210562   0.366   0.469  15.097  0.4315 -0.1922 -0.4129
  711TMC3    C310563   0.450   0.468  15.207 -0.0866  0.3970  0.2963
  711TMC3    C410564   0.315   0.243  15.145 -0.5242 -0.0742 -0.5795
  711TMC3    C510565   0.399   0.249  15.252  0.7710  0.3133 -0.2477
  711TMC3    C610566   0.472   0.357  15.286  0.1655 -0.7168 -0.2289
  711TMC3     C10567   0.183   0.367  14.989 -0.3387 -0.5674 -0.3712
  711TMC3     O10568   0.081   0.308  15.030 -0.5210 -0.1882 -0.5331
  711TMC3     H10569   0.356   0.562  15.041 -2.5745 -0.6888 -0.6924
  711TMC3    H110570   0.246   0.163  15.122 -1.0112  0.2427 -0.2226
  711TMC3    H210571   0.530   0.353  15.377  0.0830 -2.2758 -0.2561
  711TMC3    C710572   0.426   0.126  15.327 -0.1639  0.5354 -0.2392
  711TMC3    C810573   0.491   0.602  15.251  0.4113  0.4995  0.2963
  711TMC3    O110574   0.515   0.129  15.407 -0.2224 -0.0596 -0.5810
  711TMC3    O210575   0.397   0.680  15.231 -0.3276 -0.3755  0.5772
  712MPD2     C10576   1.141   1.706  13.750 -0.2172 -0.7068 -0.2543
  712MPD2    C110577   1.044   1.804  13.743  0.6071 -0.0303  0.3642
  712MPD2    C210578   1.067   1.915  13.817 -0.2577  0.0235  0.8339
  712MPD2    C310579   1.183   1.936  13.895  0.0187 -0.2176 -0.2229
  712MPD2    C410580   1.276   1.835  13.896 -0.3799  0.1545  0.6698
  712MPD2    C510581   1.259   1.722  13.823  0.2374  1.0216  0.0965
  712MPD2     H10582   0.994   1.995  13.813  1.3884  1.4100 -0.9826
  712MPD2    H110583   1.366   1.842  13.955 -0.0606  1.7340 -0.0079
  712MPD2    H210584   1.140   1.615  13.691  1.1405 -1.9204  1.5753
  712MPD2    H310585   1.342   1.652  13.818 -1.1533 -0.4375 -2.5937
  712MPD2     N10586   1.223   2.058  13.954  0.0644 -0.4041 -0.1741
  712MPD2    H510587   1.320   2.066  13.982 -0.3496  1.3515  0.7624
  712MPD2    N110588   0.948   1.810  13.643  0.1578 -0.1942 -0.0852
  712MPD2    H710589   0.895   1.896  13.628  2.1054  0.5804 -2.4904
  713TMC3    C110590   1.217   2.300  13.991 -0.3930 -0.0449 -0.4677
  713TMC3    C210591   1.354   2.288  14.004 -0.5467  0.5083  0.4814
  713TMC3    C310592   1.423   2.396  14.037 -0.1114 -0.2132 -0.1578
  713TMC3    C410593   1.149   2.417  13.997  0.0225  0.0856 -0.1692
  713TMC3    C510594   1.228   2.529  14.010  0.8269 -0.1085  0.1356
  713TMC3    C610595   1.365   2.521  14.032 -0.1424 -0.0309  0.9461
  713TMC3     C10596   1.148   2.174  13.960  0.1333 -0.2587  0.0431
  713TMC3     O10597   1.035   2.189  13.914  0.5950  0.3136 -0.1996
  713TMC3     H10598   1.407   2.194  13.999 -0.6607  0.3448  2.2448
  713TMC3    H110599   1.041   2.433  13.997  0.0584  0.3378 -1.2766
  713TMC3    H210600   1.436   2.601  14.049 -0.2330  0.2216  0.1403
  713TMC3    C710601   1.194   2.650  13.940  0.1904 -0.6493  0.7055
  713TMC3    C810602   1.560   2.380  14.068 -0.4042  0.2493 -0.4443
  713TMC3    O110603   1.278   2.739  13.947 -0.1114  0.2226 -0.7113
  713TMC3    O210604   1.627   2.439  13.983 -0.0231  0.5976 -0.3553
  714MPD2     C10605   4.229   0.577   1.662 -0.3832  0.4680 -0.6459
  714MPD2    C110606   4.238   0.489   1.553  0.1356  0.2173  0.4439
  714MPD2    C210607   4.163   0.525   1.438 -0.3443  0.1259 -0.8114
  714MPD2    C310608   4.099   0.649   1.424 -0.1601  0.1121 -0.6813
  714MPD2    C410609   4.089   0.726   1.539 -0.0424  0.6262  0.8143
  714MPD2    C510610   4.147   0.690   1.652 -0.3902  0.0098 -0.3500
  714MPD2     H10611   4.163   0.457   1.354 -1.0699  0.3381 -0.9848
  714MPD2    H110612   4.037   0.821   1.539 -0.1693  0.5546  1.1206
  714MPD2    H210613   4.249   0.552   1.766 -0.0307  0.5636 -0.6904
  714MPD2    H310614   4.132   0.764   1.730 -0.8324 -0.0257 -0.4002
  714MPD2     N10615   4.032   0.682   1.297  0.7617 -0.2377 -0.3216
  714MPD2    H510616   4.056   0.618   1.222  1.7831  0.7660 -0.8580
  714MPD2    N110617   4.317   0.372   1.575 -0.1893  0.4591 -0.0692
  714MPD2    H710618   4.364   0.366   1.665  0.9931  0.5064 -0.6827
  715TMC3    C110619   4.410   0.156   1.539 -0.2770  0.7426 -0.5115
  715TMC3    C210620   4.399   0.030   1.477 -0.0808  0.7915  0.5359
  715TMC3    C310621   4.493   4.672   1.515  0.4752 -0.4426  0.4651
  715TMC3    C410622   4.514   0.191   1.624 -0.2031 -0.3540 -0.0813
  715TMC3    C510623   4.601   0.090   1.660 -0.6100 -0.6281 -0.1720
  715TMC3    C610624   4.590   4.705   1.608 -0.0521 -0.2008  0.0754
  715TMC3     C10625   4.320   0.266   1.485 -0.4459  0.5397 -0.5965
  715TMC3     O10626   4.242   0.241   1.397  0.3235 -0.0853  0.3742
  715TMC3     H10627   4.308   0.007   1.422 -1.7931  0.0731  3.6576
  715TMC3    H110628   4.523   0.294   1.655  0.5040  0.2692 -2.3731
  715TMC3    H210629   4.665   4.634   1.641  0.3106 -0.8148 -2.0625
  715TMC3    C710630   4.716   0.125   1.740 -0.1930 -0.7565 -0.8828
  715TMC3    C810631   4.496   4.543   1.444 -0.0027 -0.1131  1.0650
  715TMC3    O110632   0.074   0.047   1.756 -0.3500 -0.1073  0.2882
  715TMC3    O210633   4.403   4.525   1.369 -0.5995  1.0058  0.3904
  716MPD2     C10634   3.841   3.569  10.356 -0.5360 -0.0471 -0.0937
  716MPD2    C110635   3.730   3.493  10.323 -0.5643 -0.0793  0.2830
  716MPD2    C210636   3.750   3.356  10.321 -0.4547 -0.4894 -0.2052
  716MPD2    C310637   3.876   3.297  10.337  0.8163  0.5102 -0.4501
  716MPD2    C410638   3.986   3.379  10.369  0.9975  0.2410  0.9014
  716MPD2    C510639   3.965   3.517  10.390  0.6029  0.0994  0.1532
  716MPD2     H10640   3.666   3.294  10.294  0.4785 -1.7708 -0.1387
  716MPD2    H110641   4.086   3.338  10.380  1.1205  0.5311  0.8683
  716MPD2    H210642   3.835   3.676  10.372  1.1891  0.3176 -1.9272
  716MPD2    H310643   4.053   3.579  10.409  0.3869  0.4494  0.0159
  716MPD2     N10644   3.875   3.159  10.324  0.1289 -0.0434 -0.7321
  716MPD2    H510645   3.797   3.112  10.278  0.3579 -1.1000 -0.0258
  716MPD2    N110646   3.611   3.565  10.298  0.0537  0.0027 -0.0274
  716MPD2    H710647   3.629   3.664  10.311  0.2764 -0.2397  1.5192
  717TMC3    C110648   3.951   2.937  10.295  0.3498  0.1414  0.3153
  717TMC3    C210649   3.879   2.926  10.183 -0.2903  0.6118  0.5073
  717TMC3    C310650   3.884   2.804  10.109  0.1139 -0.3141  0.3423
  717TMC3    C410651   4.036   2.835  10.327  0.5351 -0.2146  0.3527
  717TMC3    C510652   4.035   2.717  10.252 -0.3341  0.6180 -0.8019
  717TMC3    C610653   3.963   2.701  10.138 -0.0411 -0.2122  0.7118
  717TMC3     C10654   3.978   3.068  10.346  0.3665  0.7834 -0.0755
  717TMC3     O10655   4.068   3.083  10.428  0.3450  0.1740  0.4483
  717TMC3     H10656   3.809   3.000  10.145 -2.3235  0.0998  3.2280
  717TMC3    H110657   4.092   2.852  10.419 -1.4456  0.3514  1.4434
  717TMC3    H210658   3.960   2.605  10.089 -0.0711  0.8821 -1.4085
  717TMC3    C710659   4.134   2.620  10.297 -0.5924 -0.9361  0.1287
  717TMC3    C810660   3.823   2.805   9.980 -0.5800  0.5750  0.2129
  717TMC3    O110661   4.187   2.651  10.403  0.9874  0.1626 -0.4230
  717TMC3    O210662   3.768   2.912   9.944  0.1136 -0.4983 -0.2208
  718MPD2     C10663   2.979   1.909  13.163 -0.0450 -0.1831  0.0202
  718MPD2    C110664   2.897   1.916  13.050  0.4996  0.2801 -0.1412
  718MPD2    C210665   2.779   1.845  13.054 -0.1530 -0.3086  0.7736
  718MPD2    C310666   2.743   1.765  13.158 -0.1442  0.1499  0.1414
  718MPD2    C410667   2.823   1.760  13.271  0.3174  0.0876  0.5633
  718MPD2    C510668   2.944   1.830  13.267  0.1013 -0.7869 -0.1895
  718MPD2     H10669   2.704   1.856  12.976 -1.2346  0.7181  1.9743
  718MPD2    H110670   2.790   1.711  13.362 -0.2516  1.0835  0.8921
  718MPD2    H210671   3.074   1.960  13.156  0.5044 -1.0823  1.0512
  718MPD2    H310672   3.007   1.816  13.353  0.2853  0.3954 -0.1319
  718MPD2     N10673   2.630   1.681  13.137  0.4729 -0.3864  0.6429
  718MPD2    H510674   2.572   1.703  13.057 -2.8570 -2.3309  2.4937
  718MPD2    N110675   2.933   1.991  12.937  0.4898  0.0801  0.1753
  718MPD2    H710676   3.030   2.015  12.924  0.5940 -0.6630 -0.3785
  719TMC3    C110677   2.890   2.026  12.704  0.5869 -0.4857  0.3523
  719TMC3    C210678   2.812   1.953  12.627 -0.1451 -0.1583  0.5483
  719TMC3    C310679   2.861   1.884  12.525  0.1475 -0.1127  0.3247
  719TMC3    C410680   3.026   2.038  12.679  0.4837 -0.2856  0.2484
  719TMC3    C510681   3.081   1.946  12.593  0.5572 -0.8273 -0.1715
  719TMC3    C610682   3.000   1.864  12.522 -0.6057 -0.5336 -0.0242
  719TMC3     C10683   2.843   2.028  12.841 -0.1084  0.0264 -0.2782
  719TMC3     O10684   2.723   2.036  12.850 -0.2536 -0.2722 -0.4113
  719TMC3     H10685   2.707   1.936  12.648 -0.2590 -2.1892 -1.6241
  719TMC3    H110686   3.086   2.100  12.745 -0.6003  0.6480  0.3494
  719TMC3    H210687   3.056   1.793  12.462 -0.9064  0.1897 -1.1771
  719TMC3    C710688   3.220   1.950  12.549  0.0133 -0.4120 -0.2643
  719TMC3    C810689   2.797   1.763  12.495 -0.1443  0.3958 -0.1450
  719TMC3    O110690   3.241   1.916  12.429 -0.2897 -0.3796  0.5655
  719TMC3    O210691   2.841   1.656  12.539  0.5749 -0.2667  0.0072
  720MPD2     C10692   1.525   3.584  13.821  0.3794 -0.0338 -0.4010
  720MPD2    C110693   1.518   3.715  13.869  0.1185  0.6278 -0.7926
  720MPD2    C210694   1.612   3.742  13.964 -0.1219  0.1537  0.0573
  720MPD2    C310695   1.690   3.648  14.024 -0.1003 -0.1082 -0.2141
  720MPD2    C410696   1.674   3.518  13.995  0.1629 -0.1595  0.3764
  720MPD2    C510697   1.596   3.492  13.892 -0.3722  0.6656  0.6601
  720MPD2     H10698   1.611   3.845  13.998 -3.5391  0.6450 -1.4346
  720MPD2    H110699   1.733   3.437  14.037  1.3913  0.8935  0.7044
  720MPD2    H210700   1.454   3.542  13.751  0.1035 -0.4600  0.1369
  720MPD2    H310701   1.590   3.394  13.846 -0.0419  0.0182  1.9753
  720MPD2     N10702   1.786   3.682  14.118  0.4163 -0.0017  0.1061
  720MPD2    H510703   1.813   3.780  14.113  0.2663  0.1132  1.5107
  720MPD2    N110704   1.413   3.806  13.833 -0.0424  0.2363  0.3481
  720MPD2    H710705   1.423   3.903  13.861 -1.7752  0.1341  1.2822
  721TMC3    C110706   1.932   3.674  14.286 -0.1318 -0.0077  0.8313
  721TMC3    C210707   1.938   3.670  14.424 -0.4698 -0.2954  0.1280
  721TMC3    C310708   2.036   3.754  14.480 -0.1984 -0.1075 -0.5468
  721TMC3    C410709   2.011   3.749  14.202  0.4845 -0.2311 -0.0867
  721TMC3    C510710   2.114   3.811  14.266  0.1533  0.7450  0.1557
  721TMC3    C610711   2.124   3.825  14.400 -0.1233  0.3621  0.3847
  721TMC3     C10712   1.826   3.606  14.225 -0.3146 -1.0471 -0.0070
  721TMC3     O10713   1.792   3.497  14.269 -0.4189  0.0557  0.1475
  721TMC3     H10714   1.884   3.587  14.468 -2.5811  0.7651 -0.4860
  721TMC3    H110715   2.015   3.723  14.097 -2.2702 -0.1032 -0.2254
  721TMC3    H210716   2.206   3.873  14.451 -0.4545  0.6807  0.6152
  721TMC3    C710717   2.236   3.836  14.186  0.4980  0.3753 -0.1077
  721TMC3    C810718   2.009   3.824  14.604 -0.5943  0.5811 -0.2053
  721TMC3    O110719   2.257   3.758  14.096  1.0462 -0.6794 -0.7869
  721TMC3    O210720   2.049   3.940  14.601 -0.2910 -0.9654  0.4733
  722MPD2     C10721   0.324   2.335  13.078 -0.0758  0.6763 -0.6564
  722MPD2    C110722   0.329   2.456  13.005 -0.3911 -0.8547 -0.6060
  722MPD2    C210723   0.238   2.471  12.905  0.1799 -0.0549  0.1635
  722MPD2    C310724   0.154   2.363  12.866  0.1504  0.2807 -0.1804
  722MPD2    C410725   0.155   2.243  12.946 -0.3830 -0.0631 -0.0426
  722MPD2    C510726   0.234   2.237  13.056  0.3168 -0.5638 -0.2336
  722MPD2     H10727   0.227   2.571  12.864 -1.4499 -0.4843 -0.4333
  722MPD2    H110728   0.090   2.156  12.935 -0.4989 -0.0435  0.4661
  722MPD2    H210729   0.395   2.319  13.159 -1.1519  2.3389  0.6053
  722MPD2    H310730   0.227   2.152  13.122 -0.8864 -0.1190  0.2092
  722MPD2     N10731   0.065   2.376  12.755 -0.4893 -0.1052 -0.0295
  722MPD2    H510732   0.088   2.449  12.688  2.3407  1.4165  2.5708
  722MPD2    N110733   0.417   2.557  13.038  0.0431 -0.3063 -0.1152
  722MPD2    H710734   0.403   2.636  12.976  0.3680 -1.4084 -1.5778
  723TMC3    C110735   4.597   2.343  12.636 -0.1936 -0.0417 -0.0537
  723TMC3    C210736   4.476   2.279  12.625  1.0457  0.3205 -0.4010
  723TMC3    C310737   4.399   2.301  12.516 -0.1931  0.6597  0.1872
  723TMC3    C410738   4.646   2.424  12.537  0.3225 -0.1127 -0.3977
  723TMC3    C510739   4.563   2.442  12.431  0.1590 -0.3187  0.3310
  723TMC3    C610740   4.440   2.386  12.418  0.5553  0.2308 -0.0783
  723TMC3     C10741   4.681   2.303  12.745 -0.2781  0.0070 -0.3525
  723TMC3     O10742   4.630   2.231  12.831  0.7887  0.1498 -0.0746
  723TMC3     H10743   4.448   2.211  12.704 -0.8012 -0.7362 -1.9594
  723TMC3    H110744   0.014   2.450  12.532  0.7142 -1.4162  0.9728
  723TMC3    H210745   4.383   2.407  12.329  0.1371  1.4605  0.4808
  723TMC3    C710746   4.598   2.521  12.315 -0.3840 -0.1599 -0.4302
  723TMC3    C810747   4.264   2.246  12.515  0.0177 -0.7395  0.2333
  723TMC3    O110748   4.565   2.489  12.202 -0.7396 -0.1396 -0.8606
  723TMC3    O210749   4.175   2.317  12.468  0.0391  0.3847  0.5583
  724TMC3    C110750   4.715   0.063  10.306 -0.5701 -0.6768 -0.4116
  724TMC3    C210751   4.683   0.194  10.310 -0.4036  0.2972 -0.4799
  724TMC3    C310752   0.048   0.290  10.316  0.5319 -0.2028  0.4654
  724TMC3    C410753   0.106   0.025  10.311 -0.3118  0.0699 -0.6453
  724TMC3    C510754   0.208   0.118  10.344 -0.1404 -0.3424  0.2522
  724TMC3    C610755   0.181   0.249  10.350  0.1905  0.6210 -0.0300
  724TMC3     C10756   4.618   4.703  10.258 -0.1919 -0.1132 -0.2179
  724TMC3     O10757   4.531   0.008  10.187 -0.6319  0.0084  0.0782
  724TMC3     H10758   4.583   0.226  10.282  0.8384  2.9347 -1.9378
  724TMC3    H110759   0.123   4.657  10.288  0.8612  0.3400 -1.0534
  724TMC3    H210760   0.256   0.322  10.377 -0.1238  0.1024  2.2294
  724TMC3    C710761   0.335   0.068  10.374  0.0132 -0.8185  0.6594
  724TMC3    C810762   0.022   0.415  10.251 -0.6728 -0.5207 -0.4179
  724TMC3    O110763   0.423   0.150  10.348 -0.2995 -0.2328 -1.0660
  724TMC3    O210764   4.647   0.437  10.221  0.0555  0.3314  0.2098
  725TMC3    C110765   1.920   3.933  13.329 -0.4935 -0.3475  0.2914
  725TMC3    C210766   1.794   3.959  13.285 -0.5838 -0.0989  0.0394
  725TMC3    C310767   1.724   3.852  13.246  0.3025  0.0686  0.3462
  725TMC3    C410768   1.985   3.813  13.325 -0.1654 -0.6609 -0.0381
  725TMC3    C510769   1.908   3.706  13.271  0.1881  0.7188 -0.4323
  725TMC3    C610770   1.780   3.730  13.236 -0.0458  0.3025  0.1671
  725TMC3     C10771   2.012   4.048  13.347 -0.1564 -0.2796  0.0834
  725TMC3     O10772   1.957   4.156  13.360  0.3240 -0.1727  0.1431
  725TMC3     H10773   1.750   4.057  13.304 -1.6939 -0.7135  0.6527
  725TMC3    H110774   2.085   3.795  13.363  0.2398  0.9452 -0.3270
  725TMC3    H210775   1.709   3.661  13.192 -0.0389  0.5926 -0.3031
  725TMC3    C710776   1.978   3.596  13.235  0.0401  0.6662 -0.0388
  725TMC3    C810777   1.612   3.888  13.174 -0.0441  0.0260 -0.4347
  725TMC3    O110778   2.097   3.608  13.217 -0.0009  0.4774 -0.0833
  725TMC3    O210779   1.536   3.797  13.146 -0.0073  0.5571 -0.1246
  726MPD2     C10780   0.087   0.586  10.916  0.0500 -0.3005 -0.0983
  726MPD2    C110781   4.714   0.663  10.876 -0.3053 -0.3718 -0.1695
  726MPD2    C210782   4.585   0.616  10.903  0.3338  0.0521 -0.1358
  726MPD2    C310783   4.567   0.508  10.992 -1.1438  0.3258 -0.7193
  726MPD2    C410784   4.684   0.454  11.048 -0.2079 -0.0203 -0.7327
  726MPD2    C510785   0.071   0.487  11.005 -0.5653 -0.1783  0.1133
  726MPD2     H10786   4.494   0.668  10.876  0.7473  0.5566 -0.5473
  726MPD2    H110787   4.670   0.385  11.130 -2.3255  1.7636  0.4217
  726MPD2    H210788   0.188   0.623  10.902 -0.6789  1.2063 -1.3017
  726MPD2    H310789   0.161   0.448  11.052 -1.8090 -2.5664  0.5206
  726MPD2     N10790   4.443   0.452  11.028  0.1878  0.0174 -0.0127
  726MPD2    H510791   4.434   0.380  11.099  0.6024  0.6506  0.6877
  726MPD2    N110792   4.729   0.786  10.798 -0.1322  0.4752  0.6705
  726MPD2    H710793   4.643   0.835  10.774 -0.4108 -0.0074  0.6864
  727TMC3    C110794   0.098   0.986  10.720 -0.0374  0.1176  0.2577
  727TMC3    C210795   0.195   1.078  10.743 -0.6072  0.4809 -0.5179
  727TMC3    C310796   0.182   1.208  10.692 -0.6427  0.1925 -0.1502
  727TMC3    C410797   0.001   1.019  10.626 -0.1962 -0.2997 -1.0534
  727TMC3    C510798   4.732   1.143  10.573 -0.2517 -0.3121 -0.7883
  727TMC3    C610799   0.081   1.243  10.605 -0.3816  1.0844  0.2361
  727TMC3     C10800   0.112   0.860  10.786  0.6966 -0.1911  0.2734
  727TMC3     O10801   0.220   0.838  10.840 -0.2114 -0.0903 -0.2016
  727TMC3     H10802   0.277   1.045  10.805  0.0390  3.7588  0.3812
  727TMC3    H110803   4.661   0.945  10.606  0.2144 -1.0062 -0.0307
  727TMC3    H210804   0.070   1.344  10.568 -0.3525  0.8176 -0.4936
  727TMC3    C710805   4.616   1.179  10.501  0.3108  0.5746 -0.5793
  727TMC3    C810806   0.296   1.293  10.710 -0.0145  0.9400  0.0246
  727TMC3    O110807   4.605   1.302  10.498  0.4450  0.0713  0.1256
  727TMC3    O210808   0.392   1.245  10.766 -0.2123  0.1616 -0.1740
  728TMC3    C110809   4.070   4.435  15.870 -0.1522  0.0800 -0.2457
  728TMC3    C210810   4.195   4.419  15.824 -0.0166  0.5828  0.1321
  728TMC3    C310811   4.224   4.462  15.693 -0.0696 -1.0441  0.1521
  728TMC3    C410812   3.964   4.476  15.784 -0.0314 -0.1619  0.3109
  728TMC3    C510813   3.995   4.503  15.660 -0.2017 -0.9967  0.7614
  728TMC3    C610814   4.125   4.505  15.611 -0.5965 -0.5068  0.3678
  728TMC3     C10815   4.039   4.383  16.000 -1.0620  0.0134 -0.0605
  728TMC3     O10816   4.117   4.400  16.091  0.0987  0.3523 -0.8856
  728TMC3     H10817   4.280   4.397  15.888  1.0371  2.1629 -0.7292
  728TMC3    H110818   3.861   4.479  15.818  0.2801 -0.4551  1.2983
  728TMC3    H210819   4.148   4.490  15.506  2.5568  0.5996  0.8896
  728TMC3    C710820   3.886   4.545  15.565 -0.7248 -0.0733 -0.8047
  728TMC3    C810821   4.339   4.410  15.630  0.6449 -0.9914 -0.1522
  728TMC3    O110822   3.769   4.519  15.592 -0.0345  0.1075  0.4047
  728TMC3    O210823   4.391   4.313  15.680 -0.0511  0.0280 -0.1654
  729MPD2     C10824   1.439   0.498  17.424 -0.7701  0.5935  0.2661
  729MPD2    C110825   1.538   0.591  17.448  0.0768 -0.1266  0.6265
  729MPD2    C210826   1.525   0.683  17.551 -0.9608  0.6436 -0.5326
  729MPD2    C310827   1.411   0.676  17.629  0.5655 -0.3760 -0.9118
  729MPD2    C410828   1.314   0.575  17.606 -0.2226 -0.0770 -0.4218
  729MPD2    C510829   1.332   0.480  17.505  0.3232  0.3751  0.5408
  729MPD2     H10830   1.594   0.764  17.568 -0.0119 -0.6727  1.7883
  729MPD2    H110831   1.237   0.559  17.681  0.9601 -0.1924  0.7794
  729MPD2    H210832   1.438   0.431  17.339  0.2479 -0.1017  0.8100
  729MPD2    H310833   1.250   0.414  17.479  2.4734 -2.3396  0.6600
  729MPD2     N10834   1.394   0.769  17.731 -0.0976  0.0571 -0.1340
  729MPD2    H510835   1.299   0.774   0.020 -0.2798 -0.8808 -0.4836
  729MPD2    N110836   1.644   0.611  17.356 -0.0512  0.0477 -0.2240
  729MPD2    H710837   1.675   0.534  17.297  0.3866 -0.4014  0.6033
  730TMC3    C110838   1.416   0.953   0.129 -0.2699 -0.2269  0.0282
  730TMC3    C210839   1.495   1.005   0.228 -0.0982  0.0186 -0.0996
  730TMC3    C310840   1.469   1.132   0.271 -0.3005 -0.0871 -0.0319
  730TMC3    C410841   1.319   1.028   0.066 -0.8809  0.2112 -0.2771
  730TMC3    C510842   1.306   1.160   0.111  0.2501  0.3206  0.0723
  730TMC3    C610843   1.375   1.214   0.214 -0.3019 -0.5458  0.4567
  730TMC3     C10844   1.481   0.868   0.028 -0.0685  0.3065 -1.0135
  730TMC3     O10845   1.603   0.876   0.023 -0.1289 -0.4085 -0.3095
  730TMC3     H10846   1.571   0.938   0.265 -0.3534  0.3167  0.9857
  730TMC3    H110847   1.252   0.990  17.738  0.3803 -1.8530 -0.3561
  730TMC3    H210848   1.363   1.321   0.229 -0.7935 -0.4704 -0.4157
  730TMC3    C710849   1.237   1.249   0.018  0.1695  0.5673  0.0716
  730TMC3    C810850   1.580   1.204   0.330  0.3478  1.3107  0.1669
  730TMC3    O110851   1.230   1.205  17.652 -0.3538  0.1685  0.2946
  730TMC3    O210852   1.553   1.301   0.404  0.4007 -0.1385  0.6271
  731MPD2     C10853   1.353   3.861  12.596  0.7947  0.2030  0.3857
  731MPD2    C110854   1.463   3.862  12.676 -0.3719 -0.1599  0.4423
  731MPD2    C210855   1.456   3.807  12.801  0.3687 -0.3231  0.3680
  731MPD2    C310856   1.338   3.747  12.843  0.8845 -0.2284 -0.4124
  731MPD2    C410857   1.227   3.755  12.764 -0.6831  0.9835  0.8716
  731MPD2    C510858   1.232   3.812  12.639  0.0230  0.1802 -0.1267
  731MPD2     H10859   1.540   3.805  12.870  2.1291 -0.6076 -1.7996
  731MPD2    H110860   1.132   3.712  12.795 -1.1154  0.2560 -1.4310
  731MPD2    H210861   1.362   3.902  12.496 -1.1053  1.0640  0.5667
  731MPD2    H310862   1.144   3.811  12.576  0.2264  2.2544 -0.4282
  731MPD2     N10863   1.332   3.683  12.971  0.6042  0.6601 -0.3221
  731MPD2    H510864   1.405   3.707  13.038 -1.4419  1.6279  1.5548
  731MPD2    N110865   1.575   3.937  12.629  0.0213  0.4486 -0.1052
  731MPD2    H710866   1.553   3.981  12.540  2.0193  1.8407  0.0837
  732TMC3    C110867   1.785   4.029  12.621  0.3562 -0.3766  0.1559
  732TMC3    C210868   1.737   4.124  12.536 -0.3598 -0.4025  0.7883
  732TMC3    C310869   1.821   4.204  12.467 -0.4586 -0.0077  0.0121
  732TMC3    C410870   1.924   4.015  12.637 -0.3620 -0.1567  0.3021
  732TMC3    C510871   2.006   4.099  12.570 -0.2137  0.7361 -0.8081
  732TMC3    C610872   1.955   4.195  12.492  0.7266  0.2414 -0.2480
  732TMC3     C10873   1.703   3.930  12.680 -0.6133  0.0637 -0.1579
  732TMC3     O10874   1.752   3.866  12.771 -0.1670 -0.2480 -0.1120
  732TMC3     H10875   1.632   4.147  12.529 -0.2308 -0.2989 -0.7430
  732TMC3    H110876   1.970   3.940  12.701  1.3231  1.3124  0.7962
  732TMC3    H210877   2.018   4.265  12.438  1.8505 -1.4446 -1.1154
  732TMC3    C710878   2.139   4.065  12.523  0.3161  1.1236  0.0040
  732TMC3    C810879   1.802   4.196  12.319 -0.8978 -0.9871  0.3788
  732TMC3    O110880   2.205   4.159  12.477 -0.7736  0.2332  0.4290
  732TMC3    O210881   1.895   4.223  12.249 -0.1221  0.0564  0.0236
  733TMC3    C110882   2.294   1.355  13.184 -0.4406  0.3001  0.1010
  733TMC3    C210883   2.388   1.435  13.237 -0.4236  0.6388 -0.5568
  733TMC3    C310884   2.479   1.507  13.153 -1.0516 -0.7221  0.0450
  733TMC3    C410885   2.283   1.336  13.049 -0.4810  0.2340 -0.1739
  733TMC3    C510886   2.374   1.402  12.971 -0.2497  0.1572  0.6442
  733TMC3    C610887   2.475   1.480  13.021  0.0357 -0.7896 -0.0689
  733TMC3     C10888   2.167   1.363  13.250  0.3423 -0.0626  0.3438
  733TMC3     O10889   2.174   1.377  13.371  0.1184 -0.0445  0.3849
  733TMC3     H10890   2.401   1.452  13.343 -1.6721  0.8182 -0.4263
  733TMC3    H110891   2.222   1.256  13.008  1.1358  0.6241 -3.3383
  733TMC3    H210892   2.540   1.541  12.960  1.3947 -1.5884  0.5676
  733TMC3    C710893   2.346   1.414  12.828 -0.0930 -0.5705 -0.0534
  733TMC3    C810894   2.591   1.575  13.214  0.4116 -0.6794 -0.4641
  733TMC3    O110895   2.236   1.386  12.793  0.4207  0.1793 -0.6255
  733TMC3    O210896   2.644   1.520  13.312  0.2068 -0.5022 -0.0687
  734MPD2     C10897   4.596   3.880  12.534  0.1456  0.0390 -0.5684
  734MPD2    C110898   4.475   3.915  12.477  0.7901 -0.1239 -0.4832
  734MPD2    C210899   4.471   3.949  12.341 -0.4185 -0.4940  0.4982
  734MPD2    C310900   4.578   3.958  12.260 -0.2517  0.2311 -0.5669
  734MPD2    C410901   4.697   3.913  12.319 -0.2909 -0.1534 -0.0012
  734MPD2    C510902   4.702   3.890  12.453 -0.9628 -0.2195 -0.4183
  734MPD2     H10903   4.377   3.966  12.290 -2.1046 -2.6205  2.9443
  734MPD2    H110904   0.048   3.905  12.256 -1.1392  0.1091 -1.2290
  734MPD2    H210905   4.615   3.842  12.633  1.6070  0.9503 -0.4932
  734MPD2    H310906   0.061   3.865  12.497 -0.2025 -1.2913 -2.6716
  734MPD2     N10907   4.560   3.986  12.124 -0.2359 -0.1028 -0.8611
  734MPD2    H510908   4.464   4.000  12.093  0.1911  1.5045 -1.4968
  734MPD2    N110909   4.362   3.886  12.553 -0.1566  0.4711 -0.1679
  734MPD2    H710910   4.383   3.843  12.642  0.7033  4.0252  1.3209
  735TMC3    C110911   4.149   3.813  12.574 -0.2442  0.4184 -0.0843
  735TMC3    C210912   4.025   3.853  12.523 -0.0798 -0.1248 -0.0762
  735TMC3    C310913   3.949   3.754  12.485 -0.0362 -0.2956 -0.4799
  735TMC3    C410914   4.184   3.686  12.594 -0.1307 -0.4050 -0.5506
  735TMC3    C510915   4.111   3.586  12.548 -0.1190 -0.2861  0.5652
  735TMC3    C610916   3.986   3.620  12.492 -0.3864  0.1081  0.0286
  735TMC3     C10917   4.239   3.896  12.504  0.0333 -0.8753 -0.6852
  735TMC3     O10918   4.183   3.965  12.417  0.0820 -0.9008 -0.0637
  735TMC3     H10919   3.976   3.948  12.506  0.8778  0.9704  3.4125
  735TMC3    H110920   4.286   3.662  12.621 -0.0066  0.7275  0.0031
  735TMC3    H210921   3.929   3.548  12.435 -2.9604  2.0826  0.1257
  735TMC3    C710922   4.184   3.513  12.446  0.6593 -0.4298 -0.4203
  735TMC3    C810923   3.894   3.781  12.352  0.5876  0.1204  0.5570
  735TMC3    O110924   4.190   3.567  12.342 -0.0806 -0.4927  0.1683
  735TMC3    O210925   3.795   3.715  12.328  0.1104 -0.2090 -0.0514
  736MPD2     C10926   4.344   3.194  12.491  1.0039  0.3422 -0.4068
  736MPD2    C110927   4.320   3.312  12.430  0.4885  0.2841 -0.1269
  736MPD2    C210928   4.369   3.346  12.304  0.3989  0.3098  0.9425
  736MPD2    C310929   4.441   3.251  12.235  0.0852 -0.2099  0.1124
  736MPD2    C410930   4.463   3.127  12.290 -0.1277 -0.2458 -1.1604
  736MPD2    C510931   4.416   3.103  12.417  0.9514  0.6557 -0.3595
  736MPD2     H10932   4.353   3.439  12.250  0.3434 -0.5955 -0.6093
  736MPD2    H110933   4.517   3.044  12.246  4.9724  2.5714 -0.2634
  736MPD2    H210934   4.310   3.171  12.591 -1.0404  0.0384 -1.1780
  736MPD2    H310935   4.449   3.007  12.457 -1.1067 -0.0082 -0.2243
  736MPD2     N10936   4.512   3.274  12.114  0.1111  0.4042 -0.4814
  736MPD2    H510937   4.565   3.193  12.085  0.7950  0.3402  0.9726
  736MPD2    N110938   4.244   3.400  12.502  0.2383 -0.2883  0.5178
  736MPD2    H710939   4.217   3.381  12.599 -0.9037  0.3428  0.3251
  737TMC3    C110940   4.561   3.382  11.906 -0.1364 -0.3149 -0.3082
  737TMC3    C210941   4.547   3.495  11.827 -0.0963 -0.2290  0.3195
  737TMC3    C310942   4.606   3.492  11.703 -0.0185  0.1110  0.3792
  737TMC3    C410943   4.614   3.267  11.855 -0.1393  0.5663  0.2918
  737TMC3    C510944   4.663   3.271  11.728 -0.3061  0.2656  0.3621
  737TMC3    C610945   4.672   3.384  11.648  0.2217  0.2956 -0.1894
  737TMC3     C10946   4.497   3.390  12.035  0.5929 -1.0584  0.2403
  737TMC3     O10947   4.438   3.496  12.054  0.3295 -0.2461 -0.1595
  737TMC3     H10948   4.512   3.585  11.877  2.0373  2.4555 -3.0529
  737TMC3    H110949   4.605   3.169  11.900  1.0069 -0.7697 -2.4072
  737TMC3    H210950   4.696   3.383  11.543 -0.9528 -1.1059 -0.4510
  737TMC3    C710951   0.032   3.171  11.704 -0.2161  0.3170 -0.1021
  737TMC3    C810952   4.574   3.617  11.622 -0.1962 -0.1732 -0.7953
  737TMC3    O110953   0.006   3.061  11.745 -0.3567  0.4504  0.6462
  737TMC3    O210954   4.493   3.691  11.679  0.2505  0.1105  0.3049
  738MPD2     C10955   0.207   2.863  14.840 -0.7073  0.2791 -0.0891
  738MPD2    C110956   0.287   2.787  14.929  0.2906 -0.1919  0.0901
  738MPD2    C210957   0.408   2.837  14.974 -0.3672  0.5251  0.3496
  738MPD2    C310958   0.459   2.954  14.927 -0.0816  0.4583  0.2795
  738MPD2    C410959   0.374   3.031  14.848  0.4233  0.1382  0.2016
  738MPD2    C510960   0.254   2.985  14.802  0.6215 -0.2026 -0.3174
  738MPD2     H10961   0.464   2.782  15.049 -0.6373  0.1851  0.2983
  738MPD2    H110962   0.405   3.126  14.806 -0.1684  0.5445  0.6836
  738MPD2    H210963   0.111   2.827  14.804 -0.5271 -0.5807  0.2941
  738MPD2    H310964   0.195   3.053  14.741 -0.5257 -0.7675  0.1477
  738MPD2     N10965   0.592   2.995  14.942  0.2083  0.0390 -0.8082
  738MPD2    H510966   0.636   3.063  14.881  0.7647  0.7023  0.3155
  738MPD2    N110967   0.254   2.661  14.968  0.5533  0.5527 -0.5822
  738MPD2    H710968   0.319   2.608  15.025 -1.7301  0.2912  1.7630
  739TMC3    C110969   0.814   2.934  14.976  0.2525 -0.4642  0.3179
  739TMC3    C210970   0.839   2.931  14.836  0.1550 -0.2494  0.3519
  739TMC3    C310971   0.974   2.920  14.801 -0.0511 -0.0200  0.8975
  739TMC3    C410972   0.912   2.936  15.069  0.0973 -0.0013 -0.1840
  739TMC3    C510973   1.041   2.937  15.026 -0.4940 -0.1419  1.2521
  739TMC3    C610974   1.080   2.923  14.895  0.3665  0.1110 -0.1936
  739TMC3     C10975   0.682   2.939  15.026  0.3764 -0.9711  0.0379
  739TMC3     O10976   0.654   2.913  15.147 -0.4197 -0.3774  0.1055
  739TMC3     H10977   0.766   2.915  14.757 -0.0042 -1.4496  0.7469
  739TMC3    H110978   0.888   2.926  15.174  0.3939 -1.6942 -0.2743
  739TMC3    H210979   1.184   2.905  14.870  1.1051  3.2141  0.6623
  739TMC3    C710980   1.149   2.940  15.119 -0.1103 -0.1219 -0.1124
  739TMC3    C810981   1.002   2.903  14.657 -0.5325 -1.4330 -1.0860
  739TMC3    O110982   1.250   2.880  15.079  0.6920  0.0216 -0.0384
  739TMC3    O210983   0.920   2.843  14.587  0.0623 -0.2005 -0.0098
  740TMC3    C110984   1.575   3.982  14.758  0.1777 -0.6462  0.0043
  740TMC3    C210985   1.548   3.853  14.804  0.2568  0.5198  0.3934
  740TMC3    C310986   1.583   3.747  14.725 -0.0737  0.6008 -0.6055
  740TMC3    C410987   1.654   4.000  14.639 -0.3586 -0.2711  0.0853
  740TMC3    C510988   1.656   3.890  14.554 -0.0217  0.3925  1.1020
  740TMC3    C610989   1.625   3.766  14.593 -0.2009  0.4884 -0.3530
  740TMC3     C10990   1.499   4.092  14.803  0.5461 -0.1075  0.1165
  740TMC3     O10991   1.537   4.202  14.778  0.5295  0.3848 -0.1852
  740TMC3     H10992   1.503   3.842  14.902  0.5533 -1.0803  0.3437
  740TMC3    H110993   1.670   4.095  14.591 -0.7056 -0.4284 -0.3371
  740TMC3    H210994   1.648   3.678  14.534 -0.7979  0.0782  0.0329
  740TMC3    C710995   1.627   3.906  14.411  0.4762 -0.1334 -0.5252
  740TMC3    C810996   1.600   3.614  14.785 -0.1274 -0.0523  0.2581
  740TMC3    O110997   1.575   3.815  14.350  0.3410  0.0693  0.1680
  740TMC3    O210998   1.672   3.535  14.722 -0.0470  0.4054 -0.7070
  741TMC3    C110999   0.753   3.456  14.449  0.0190  0.4297 -0.5573
  741TMC3    C211000   0.637   3.419  14.405 -0.6937  0.5992  0.1302
  741TMC3    C311001   0.561   3.342  14.490 -0.0743 -0.0425  0.1605
  741TMC3    C411002   0.806   3.423  14.572  0.2017 -0.4781 -0.1110
  741TMC3    C511003   0.725   3.350  14.660 -0.6682 -0.1088 -0.7332
  741TMC3    C611004   0.607   3.303  14.616  0.1112 -0.3590 -0.2235
  741TMC3     C11005   0.813   3.566  14.370  0.5062 -1.2495 -0.1335
  741TMC3     O11006   0.736   3.646  14.316  0.1073  0.5530 -0.1246
  741TMC3     H11007   0.585   3.453  14.316  0.3205 -0.7212 -0.9583
  741TMC3    H111008   0.908   3.452  14.593 -0.4179  1.6127  0.0081
  741TMC3    H211009   0.546   3.240  14.681 -0.2459  0.2214 -0.0024
  741TMC3    C711010   0.773   3.319  14.792 -0.1190  0.4640 -0.3789
  741TMC3    C811011   0.452   3.272  14.420 -0.5061  0.4516  0.5468
  741TMC3    O111012   0.722   3.219  14.842  0.3281 -0.1971 -0.4749
  741TMC3    O211013   0.406   3.317  14.316 -0.5041 -0.1603 -0.4341
  742TMC3    C111014   0.749   2.309  15.529 -0.3909 -0.2713  0.1771
  742TMC3    C211015   0.685   2.242  15.429 -0.8313 -0.0318 -1.1245
  742TMC3    C311016   0.711   2.110  15.409  0.1398 -0.6810 -0.0152
  742TMC3    C411017   0.841   2.260  15.606 -0.7427  0.5623  0.4038
  742TMC3    C511018   0.865   2.131  15.585  0.3964  0.2406 -0.2560
  742TMC3    C611019   0.814   2.048  15.483 -0.1828 -0.8869  0.8722
  742TMC3     C11020   0.735   2.454  15.520  0.0677 -0.0290  0.7771
  742TMC3     O11021   0.627   2.496  15.486 -0.1158 -0.0756  0.5102
  742TMC3     H11022   0.597   2.282  15.380 -0.1754  1.1863 -1.3031
  742TMC3    H111023   0.878   2.322  15.687  0.3286  0.2308  0.1613
  742TMC3    H211024   0.830   1.941  15.477 -0.3485 -0.9870  2.2885
  742TMC3    C711025   0.950   2.072  15.684  0.6463 -0.3376  0.6850
  742TMC3    C811026   0.673   2.042  15.284  0.9432 -0.2729  0.3952
  742TMC3    O111027   1.025   1.982  15.651 -0.5327 -0.6311  0.1334
  742TMC3    O211028   0.697   1.923  15.272 -0.4301 -0.6319  0.0751
  743MPD2     C11029   3.208   2.879   1.987 -0.2952  0.3399 -0.8675
  743MPD2    C111030   3.286   2.807   1.900  0.5755 -0.4868 -0.5576
  743MPD2    C211031   3.422   2.813   1.919 -0.2931  0.3977 -0.4520
  743MPD2    C311032   3.481   2.874   2.031  0.6630  0.4798 -0.0003
  743MPD2    C411033   3.396   2.944   2.113  0.3423  0.1939  0.3264
  743MPD2    C511034   3.262   2.944   2.091  0.0667  0.2568  0.9794
  743MPD2     H11035   3.482   2.745   1.859 -0.5316  0.4428 -0.7454
  743MPD2    H111036   3.420   3.013   2.193 -0.2571 -0.1698  0.8268
  743MPD2    H211037   3.102   2.890   1.966 -0.5966  0.8278  0.9004
  743MPD2    H311038   3.195   2.996   2.158 -1.1276 -0.5312  0.4156
  743MPD2     N11039   3.618   2.863   2.056  0.6298 -0.1530 -0.7360
  743MPD2    H511040   3.671   2.805   1.991 -0.0454  0.3424 -1.7314
  743MPD2    N111041   3.223   2.735   1.801 -0.5297 -0.1524 -0.0166
  743MPD2    H711042   3.121   2.728   1.803 -0.5205  0.2967  1.7688
  744TMC3    C111043   3.193   2.595   1.606 -0.3179  0.1493  0.0179
  744TMC3    C211044   3.069   2.561   1.645  0.4324 -0.5892  0.5478
  744TMC3    C311045   2.982   2.505   1.556  0.4211  0.4944  0.0198
  744TMC3    C411046   3.235   2.569   1.478  0.5345  0.2328 -0.3226
  744TMC3    C511047   3.144   2.518   1.391 -0.1592  0.0533 -0.0775
  744TMC3    C611048   3.016   2.476   1.424 -0.0351 -0.1230  0.0149
  744TMC3     C11049   3.282   2.672   1.695 -0.6731 -0.5820  0.9252
  744TMC3     O11050   3.400   2.686   1.660  0.2649 -0.5804 -0.0876
  744TMC3     H11051   3.039   2.575   1.748 -1.2094 -0.4232  0.0386
  744TMC3    H111052   3.332   2.606   1.447 -0.4000  1.2518 -2.0593
  744TMC3    H211053   2.939   2.441   1.357  0.3706 -0.3948 -0.3113
  744TMC3    C711054   3.198   2.498   1.256  0.3349  1.2267  0.1697
  744TMC3    C811055   2.843   2.543   1.565 -0.1028  0.4185  0.3197
  744TMC3    O111056   3.305   2.551   1.233 -0.0674 -0.7630  0.0275
  744TMC3    O211057   2.821   2.642   1.640 -0.2036 -0.2777 -0.4158
  745TMC3    C111058   0.827   1.759  13.457 -0.0226 -0.5932 -0.2908
  745TMC3    C211059   0.703   1.762  13.518  0.2058 -0.1004  0.9047
  745TMC3    C311060   0.628   1.876  13.521 -0.1856 -0.2833  0.2273
  745TMC3    C411061   0.877   1.874  13.400  0.0638 -0.0293  0.2296
  745TMC3    C511062   0.802   1.986  13.401 -0.8873 -0.0392  0.2889
  745TMC3    C611063   0.682   1.991  13.460  0.3883 -0.1391  0.4996
  745TMC3     C11064   0.929   1.712  13.548  0.6626  0.2980  0.2662
  745TMC3     O11065   0.950   1.592  13.545  0.0780  0.4408 -0.0301
  745TMC3     H11066   0.665   1.675  13.570  0.2661 -1.4556 -1.2839
  745TMC3    H111067   0.969   1.863  13.344 -0.1943  2.0197 -0.5652
  745TMC3    H211068   0.630   2.086  13.462  0.1129 -0.2794 -0.0565
  745TMC3    C711069   0.877   2.105  13.443 -0.5957 -0.4555  0.5484
  745TMC3    C811070   0.555   1.910  13.646 -0.6774 -0.4465  0.4313
  745TMC3    O111071   0.816   2.200  13.481  0.0645 -0.6519 -0.3588
  745TMC3    O211072   0.476   2.004  13.647  0.0882  0.2504 -0.4322
  746TMC3    C111073   3.279   3.065  11.607 -0.3251 -0.2355 -0.7108
  746TMC3    C211074   3.382   3.025  11.524 -0.0531 -0.2172  0.0212
  746TMC3    C311075   3.361   2.907  11.452 -0.4358  0.3173 -0.7498
  746TMC3    C411076   3.160   2.998  11.603 -0.4969  0.6863  0.3448
  746TMC3    C511077   3.141   2.885  11.532 -0.2774 -0.4892  0.5694
  746TMC3    C611078   3.239   2.835  11.451  0.1718 -0.0837 -0.0436
  746TMC3     C11079   3.268   3.210  11.618 -0.3430  0.4561  0.1790
  746TMC3     O11080   3.165   3.265  11.651  0.6874 -0.2993  0.6356
  746TMC3     H11081   3.482   3.066  11.532 -0.4499  0.7684 -0.0661
  746TMC3    H111082   3.075   3.033  11.661  1.3486  1.7882  2.3743
  746TMC3    H211083   3.221   2.763  11.373  1.7824  1.1885 -1.6120
  746TMC3    C711084   3.004   2.852  11.496 -0.7678 -0.3903  0.2761
  746TMC3    C811085   3.459   2.890  11.355  0.6279 -0.1599  0.1106
  746TMC3    O111086   2.984   2.830  11.381  0.5630  0.4469  0.1932
  746TMC3    O211087   3.502   2.778  11.332  0.4022  0.4249  0.6018
  747TMC3    C111088   1.028   3.341  11.349  0.2822  0.3796 -0.3684
  747TMC3    C211089   0.915   3.262  11.342 -0.6712 -0.0269 -0.6505
  747TMC3    C311090   0.809   3.291  11.416 -0.3027  0.4051  0.0293
  747TMC3    C411091   1.038   3.443  11.436 -1.0194  0.3813  0.4756
  747TMC3    C511092   0.930   3.471  11.510  1.1007  0.3581  0.5167
  747TMC3    C611093   0.810   3.400  11.502  0.3906 -0.1320  0.2164
  747TMC3     C11094   1.150   3.281  11.312 -0.1983  0.5644  0.3351
  747TMC3     O11095   1.247   3.334  11.365 -0.7690  0.0738  0.2884
  747TMC3     H11096   0.908   3.168  11.288 -0.3010 -0.0886 -0.5877
  747TMC3    H111097   1.127   3.503  11.451 -1.7222  1.6231 -0.3560
  747TMC3    H211098   0.724   3.413  11.567 -0.9106 -0.1578 -1.5056
  747TMC3    C711099   0.925   3.598  11.570 -0.3080 -0.5645  0.5076
  747TMC3    C811100   0.694   3.196  11.415 -0.4183  0.0212 -0.0068
  747TMC3    O111101   0.993   3.685  11.514 -0.0780  0.3850  0.5622
  747TMC3    O211102   0.712   3.094  11.342  0.1781  0.3630  0.3296
  748MPD2     C11103   2.045   3.189   1.388  0.4410 -0.9250 -0.1892
  748MPD2    C111104   2.125   3.212   1.273  0.6646 -0.6220  0.3952
  748MPD2    C211105   2.250   3.271   1.293 -0.5503  0.7398  0.7071
  748MPD2    C311106   2.296   3.317   1.416  0.3196 -0.1073  0.1068
  748MPD2    C411107   2.212   3.299   1.525  0.8270 -0.9020 -0.1019
  748MPD2    C511108   2.098   3.221   1.509 -0.0518 -0.2069 -0.3476
  748MPD2     H11109   2.315   3.275   1.206 -2.2308  0.5927 -0.5649
  748MPD2    H111110   2.242   3.333   1.624  0.5138 -1.5924  0.2365
  748MPD2    H211111   1.952   3.136   1.376 -0.8939  1.2801  0.3749
  748MPD2    H311112   2.047   3.200   1.602  0.0792 -2.1716 -0.7219
  748MPD2     N11113   2.419   3.390   1.420 -0.3169  0.6063 -0.3992
  748MPD2    H511114   2.461   3.404   1.328 -3.1551 -1.2558 -1.9898
  748MPD2    N111115   2.078   3.161   1.149 -0.3419  0.2865 -0.5249
  748MPD2    H711116   1.991   3.110   1.144 -1.0535  1.1431  2.7507
  749TMC3    C111117   2.595   3.522   1.502  0.5694  0.0195  0.0303
  749TMC3    C211118   2.689   3.504   1.605  1.2716 -0.4928  0.0028
  749TMC3    C311119   2.820   3.510   1.561 -0.1986 -0.1025  0.8700
  749TMC3    C411120   2.632   3.529   1.368 -0.3229  0.7660 -0.1146
  749TMC3    C511121   2.764   3.531   1.334  0.2727 -0.9171  0.2079
  749TMC3    C611122   2.858   3.526   1.429 -0.4945 -0.5341 -0.4127
  749TMC3     C11123   2.467   3.457   1.529 -0.0385 -0.9251 -0.3991
  749TMC3     O11124   2.437   3.438   1.647 -0.0041  0.0128 -0.2409
  749TMC3     H11125   2.659   3.505   1.709  0.8464  1.1133 -0.1323
  749TMC3    H111126   2.559   3.541   1.288  0.3441 -1.1044 -1.0083
  749TMC3    H211127   2.962   3.547   1.406 -0.4182 -1.4760 -0.8888
  749TMC3    C711128   2.805   3.606   1.213  0.5313  0.1789 -1.1122
  749TMC3    C811129   2.926   3.517   1.664 -0.0375 -0.3223  0.4285
  749TMC3    O111130   2.749   3.707   1.178 -0.1283 -0.0527 -0.3822
  749TMC3    O211131   2.889   3.544   1.775  0.0255  0.2807 -0.0948
  750MPD2     C11132   3.530   0.566  11.658 -0.7081 -0.7128  0.0371
  750MPD2    C111133   3.397   0.520  11.659 -0.0080  0.4154  0.0381
  750MPD2    C211134   3.370   0.395  11.608  0.3875 -0.2433  0.6262
  750MPD2    C311135   3.470   0.318  11.550  0.6031 -0.7871  0.5398
  750MPD2    C411136   3.596   0.368  11.542  0.3132 -0.6873 -0.8383
  750MPD2    C511137   3.626   0.490  11.600 -0.3045  0.3493 -0.2088
  750MPD2     H11138   3.264   0.374  11.602  0.0659  1.3760  0.6193
  750MPD2    H111139   3.676   0.309  11.500 -0.8860 -1.7470 -1.6596
  750MPD2    H211140   3.543   0.659  11.714 -0.5165 -1.0872  0.6178
  750MPD2    H311141   3.729   0.525  11.597 -1.4258  3.7542  1.0640
  750MPD2     N11142   3.450   0.190  11.507  0.1642  0.3716  0.1291
  750MPD2    H511143   3.522   0.136  11.460 -0.0073  1.0045 -0.8460
  750MPD2    N111144   3.300   0.605  11.715 -0.1227 -0.1806  0.1622
  750MPD2    H711145   3.328   0.701  11.735 -0.0572 -0.4428  1.2922
  751TMC3    C111146   3.338   4.730  11.462  0.6059 -0.7800  0.4478
  751TMC3    C211147   3.255   4.635  11.510 -0.1558  0.3451 -0.6202
  751TMC3    C311148   3.211   4.538  11.417 -0.1379  0.2986 -0.9942
  751TMC3    C411149   3.399   4.720  11.343 -0.0343 -0.4504 -0.5874
  751TMC3    C511150   3.358   4.621  11.259  0.1356 -0.0908 -0.1981
  751TMC3    C611151   3.260   4.536  11.296 -0.1476 -0.3097 -0.4880
  751TMC3     C11152   3.342   0.113  11.530 -0.0246 -0.0136 -0.1604
  751TMC3     O11153   3.258   0.127  11.620  0.1865 -0.1926  0.0664
  751TMC3     H11154   3.220   4.636  11.612 -2.0853 -0.3486 -1.2629
  751TMC3    H111155   3.452   0.070  11.305  0.5147  0.6131  2.5505
  751TMC3    H211156   3.225   4.452  11.237  0.5080 -0.2918 -0.9010
  751TMC3    C711157   3.413   4.610  11.124  0.0847  0.1292 -0.0759
  751TMC3    C811158   3.104   4.450  11.451 -0.2915 -0.4418 -0.7248
  751TMC3    O111159   3.489   4.701  11.093 -0.0765 -0.6497  0.6935
  751TMC3    O211160   3.047   4.396  11.358  0.3596 -0.8458 -0.3765
  752TMC3    C111161   2.261   4.578  17.457  0.4752 -0.5949  0.0060
  752TMC3    C211162   2.313   4.449  17.482 -0.1106  0.5253 -0.1028
  752TMC3    C311163   2.280   4.388  17.599 -0.1324 -0.0099  0.7555
  752TMC3    C411164   2.160   4.630  17.540 -0.1112  0.3508 -0.3132
  752TMC3    C511165   2.143   4.566  17.662  0.3522 -0.3669 -0.3456
  752TMC3    C611166   2.211   4.457  17.696 -0.7518  0.1993  0.5228
  752TMC3     C11167   2.315   4.659  17.348  0.1456  0.0499 -0.0671
  752TMC3     O11168   2.418   4.616  17.298  0.4179 -0.0032  0.0196
  752TMC3     H11169   2.367   4.404  17.399 -1.0565  0.2422 -0.5644
  752TMC3    H111170   2.105   4.722  17.522 -0.0769  0.7126  1.4666
  752TMC3    H211171   2.194   4.406   0.043  0.7976  0.0134  0.7032
  752TMC3    C711172   2.046   4.621   0.011  0.0228  0.0207 -0.0956
  752TMC3    C811173   2.296   4.241  17.630  0.5295  0.8098 -0.3402
  752TMC3    O111174   2.048   4.584   0.128 -0.5437 -0.1963 -0.7837
  752TMC3    O211175   2.231   4.197  17.728  0.3384  0.2397  0.3956
  753TMC3    C111176   3.783   1.490  13.451 -0.1479 -0.5846  0.2392
  753TMC3    C211177   3.855   1.481  13.567  0.1215 -0.2469 -0.1113
  753TMC3    C311178   3.807   1.406  13.671 -0.1863  0.0406  0.0073
  753TMC3    C411179   3.662   1.433  13.443  0.0529 -1.0786 -0.3914
  753TMC3    C511180   3.623   1.347  13.549 -0.6198 -0.4672  0.3890
  753TMC3    C611181   3.691   1.332  13.670 -0.1550 -0.8034  0.0183
  753TMC3     C11182   3.847   1.533  13.326  1.1549  0.0241 -1.0180
  753TMC3     O11183   3.772   1.548  13.229 -0.5366  0.2371 -0.0191
  753TMC3     H11184   3.953   1.528  13.570  0.0321 -0.1369  1.1917
  753TMC3    H111185   3.614   1.425  13.346 -1.3821  0.9469  0.1384
  753TMC3    H211186   3.667   1.268  13.754 -0.9181 -0.7377 -0.1528
  753TMC3    C711187   3.533   1.239  13.513 -0.7769  0.1684  0.5142
  753TMC3    C811188   3.885   1.398  13.789 -0.4464  0.2006 -0.3325
  753TMC3    O111189   3.535   1.213  13.393  0.4735 -0.1021 -0.1900
  753TMC3    O211190   3.824   1.373  13.893 -0.1593  0.3828  0.4149
  754MPD2     C11191   3.123   0.283  13.435  0.7244 -0.6213 -0.4810
  754MPD2    C111192   3.092   0.152  13.407 -0.6533  0.1358  0.1470
  754MPD2    C211193   2.962   0.121  13.370 -0.0677 -0.4471  0.0945
  754MPD2    C311194   2.860   0.214  13.379 -0.3097  0.3607 -0.1476
  754MPD2    C411195   2.891   0.346  13.400 -0.4082  0.1719  0.3140
  754MPD2    C511196   3.020   0.381  13.426  0.5485 -0.4313  0.7539
  754MPD2     H11197   2.927   0.018  13.364  2.7813 -1.2250 -2.7789
  754MPD2    H111198   2.810   0.418  13.405 -0.3485  0.2592  0.0188
  754MPD2    H211199   3.225   0.305  13.464  0.9149  0.7301 -2.1957
  754MPD2    H311200   3.052   0.483  13.446  1.8420 -0.5025 -0.9227
  754MPD2     N11201   2.721   0.180  13.366 -0.1936  0.5942 -0.8207
  754MPD2    H511202   2.667   0.265  13.353 -0.4054  0.5813  0.0010
  754MPD2    N111203   3.174   0.045  13.429 -0.6013  0.1894  0.1343
  754MPD2    H711204   3.246   0.065  13.497  0.7091  0.5345 -1.3584
  755MPD2     C11205   2.047   0.699  13.494  0.0869 -0.1455  0.1089
  755MPD2    C111206   1.993   0.572  13.516  0.2367  0.4471 -0.4309
  755MPD2    C211207   2.069   0.457  13.502 -0.3444  0.0765  0.2388
  755MPD2    C311208   2.201   0.465  13.474  0.4577  0.4962 -0.2825
  755MPD2    C411209   2.262   0.587  13.461 -1.4223 -0.4841  0.2314
  755MPD2    C511210   2.184   0.704  13.474 -0.0743 -0.0202 -0.0956
  755MPD2     H11211   2.010   0.366  13.506  0.9831 -0.7530  0.7757
  755MPD2    H111212   2.367   0.594  13.432 -1.5920 -0.9188 -0.4822
  755MPD2    H211213   1.981   0.785  13.486  0.6099  0.3067  0.6924
  755MPD2    H311214   2.232   0.801  13.459  2.2354 -1.1766 -0.1341
  755MPD2     N11215   2.278   0.351  13.443 -0.4635 -0.4645  0.4883
  755MPD2    H511216   2.365   0.362  13.391 -1.1000 -1.2064 -0.7332
  755MPD2    N111217   1.853   0.547  13.533  0.2549 -0.2882  0.1674
  755MPD2    H711218   1.831   0.448  13.540  0.3784 -0.2858  0.5806
  756MPD2     C11219   3.522   0.896  10.066  0.5971  0.6660  0.6478
  756MPD2    C111220   3.415   0.815  10.084 -0.6787  0.2101 -0.3694
  756MPD2    C211221   3.337   0.789   9.970 -0.3919  0.3573 -0.2664
  756MPD2    C311222   3.363   0.853   9.850 -0.8218  0.3763  0.2184
  756MPD2    C411223   3.484   0.928   9.839  0.4027  0.2793 -0.2802
  756MPD2    C511224   3.561   0.952   9.950  0.0942  0.6430  0.2742
  756MPD2     H11225   3.259   0.714   9.983 -0.7824  0.5935 -1.2736
  756MPD2    H111226   3.526   0.968   9.748  2.0823  1.7905  1.1700
  756MPD2    H211227   3.591   0.922  10.145  0.0500  0.0057  1.3420
  756MPD2    H311228   3.654   1.006   9.941 -0.3137  1.4698  1.0916
  756MPD2     N11229   3.277   0.832   9.743 -0.0077 -0.5767  0.2632
  756MPD2    H511230   3.198   0.770   9.761 -0.0035 -0.1073  1.8700
  756MPD2    N111231   3.365   0.764  10.203 -0.7881  0.0283  0.0868
  756MPD2    H711232   3.268   0.733  10.198 -2.1295  3.9005  2.3565
  757MPD2     C11233   2.754   0.152   9.531 -0.0691 -0.3424 -0.5776
  757MPD2    C111234   2.856   0.189   9.614 -0.3019  0.3675 -0.1071
  757MPD2    C211235   2.911   0.313   9.603  0.8319  0.1858  0.4345
  757MPD2    C311236   2.866   0.400   9.505 -0.0758 -0.2798 -0.2351
  757MPD2    C411237   2.760   0.364   9.424  0.6892 -0.3281  0.1487
  757MPD2    C511238   2.704   0.241   9.438 -0.4485 -0.5732  0.0762
  757MPD2     H11239   2.996   0.341   9.663 -0.0002  1.3660  1.0717
  757MPD2    H111240   2.706   0.427   9.355  0.9145 -1.1957 -0.8139
  757MPD2    H211241   2.701   0.059   9.551  0.1141 -0.4860 -0.7620
  757MPD2    H311242   2.622   0.224   9.369  1.0175  2.4985 -2.4407
  757MPD2     N11243   2.934   0.520   9.494 -0.6669  0.2524  0.0097
  757MPD2    H511244   3.007   0.540   9.561 -1.4192 -0.4844  1.0594
  757MPD2    N111245   2.866   0.095   9.717  0.7826  0.1230  0.2095
  757MPD2    H711246   2.806   0.013   9.716 -0.5916  1.1601 -0.8756
  758MPD2     C11247   2.891   4.187  16.412 -0.0672  0.1168  0.5455
  758MPD2    C111248   3.004   4.220  16.351  0.0019 -0.5116  0.0008
  758MPD2    C211249   3.069   4.338  16.399  0.0095  0.0163  0.1757
  758MPD2    C311250   3.011   4.413  16.498 -0.3581 -1.3573 -0.4083
  758MPD2    C411251   2.886   4.380  16.549 -0.0309  0.3633  0.1635
  758MPD2    C511252   2.827   4.263  16.507  0.4756 -0.4124 -0.3358
  758MPD2     H11253   3.170   4.362  16.367  0.3070 -2.3192 -0.6601
  758MPD2    H111254   2.839   4.437  16.629 -1.5563 -1.1633  0.3538
  758MPD2    H211255   2.843   4.094  16.383 -0.1824  0.7826 -1.4264
  758MPD2    H311256   2.725   4.245  16.537  1.3489  0.1637  3.0714
  758MPD2     N11257   3.071   4.510  16.575 -0.2585  0.0190  0.2387
  758MPD2    H511258   3.014   4.557  16.644  0.8892  1.3005  0.2975
  758MPD2    N111259   3.048   4.137  16.252 -0.6542  0.3989  0.2574
  758MPD2    H711260   2.989   4.059  16.225 -1.1860  0.4626  1.2435
  759MPD2     C11261   2.002   2.991  10.691  0.7009  0.2699 -0.1015
  759MPD2    C111262   2.112   2.914  10.646 -0.6439 -0.0059 -0.4313
  759MPD2    C211263   2.217   2.986  10.591 -0.2575  0.1250  0.0436
  759MPD2    C311264   2.207   3.120  10.576 -0.8544  0.3651  0.5852
  759MPD2    C411265   2.101   3.195  10.618 -1.0753  0.3351  0.8687
  759MPD2    C511266   1.997   3.127  10.667 -0.4666  0.1464 -0.3376
  759MPD2     H11267   2.299   2.930  10.549 -0.9903 -0.4695 -0.5889
  759MPD2    H111268   2.093   3.303  10.612 -1.2321  0.2351 -0.6167
  759MPD2    H211269   1.911   2.949  10.732  0.0794  0.4723 -1.2581
  759MPD2    H311270   1.904   3.180  10.682 -0.2020  0.3181  0.7589
  759MPD2     N11271   2.320   3.173  10.514 -0.1367  0.0181  0.1808
  759MPD2    H511272   2.401   3.114  10.498  0.7510  1.5884 -1.1635
  759MPD2    N111273   2.104   2.771  10.641  0.7272  0.1337  0.3619
  759MPD2    H711274   2.190   2.722  10.617  0.9310  1.0079 -0.6929
  760MPD2     C11275   1.302   0.232  12.025  0.3069  0.2197  0.0584
  760MPD2    C111276   1.429   0.245  12.068  0.2992  0.5698  0.2288
  760MPD2    C211277   1.468   0.209  12.199 -0.7410 -0.0838  0.3168
  760MPD2    C311278   1.383   0.134  12.274 -0.3830 -0.4940 -0.6172
  760MPD2    C411279   1.252   0.123  12.238  0.2434 -0.1075  0.3747
  760MPD2    C511280   1.213   0.174  12.117 -0.1118  0.1021 -0.3698
  760MPD2     H11281   1.570   0.228  12.233 -0.5344 -0.5250 -0.0539
  760MPD2    H111282   1.183   0.063  12.296 -0.1506 -0.2643 -0.2524
  760MPD2    H211283   1.263   0.266  11.930  1.1552 -2.7236 -1.3811
  760MPD2    H311284   1.107   0.167  12.096 -0.6496  0.1393  2.3528
  760MPD2     N11285   1.419   0.077  12.397  0.2313  0.5204  0.3479
  760MPD2    H511286   1.342   0.028  12.442  1.2418 -1.4659 -0.1031
  760MPD2    N111287   1.527   0.300  11.987  0.3336  0.6468  0.2151
  760MPD2    H711288   1.622   0.310  12.020  0.2868 -0.5095  0.6938
  761MPD2     C11289   2.749   4.230  11.731  0.5771 -0.1863 -0.3386
  761MPD2    C111290   2.803   4.195  11.612 -0.1510  0.6456  0.0881
  761MPD2    C211291   2.909   4.262  11.561 -0.9060 -0.3721  0.0773
  761MPD2    C311292   2.973   4.359  11.634 -0.4380  0.5671 -0.1753
  761MPD2    C411293   2.927   4.381  11.764 -0.2069 -0.0503 -0.6580
  761MPD2    C511294   2.815   4.313  11.810 -0.6245 -0.7247 -0.1954
  761MPD2     H11295   2.920   4.251  11.453 -1.2738 -0.3376  0.0347
  761MPD2    H111296   2.973   4.456  11.827 -2.6543  1.2048 -0.3900
  761MPD2    H211297   2.647   4.199  11.751  1.2437 -1.7748  0.5733
  761MPD2    H311298   2.783   4.328  11.912 -0.8286 -3.7398  0.1932
  761MPD2     N11299   3.074   4.447  11.585 -0.7511 -0.0389  0.0294
  761MPD2    H511300   3.135   4.484  11.657  0.8965 -1.8227 -0.4162
  761MPD2    N111301   2.745   4.086  11.548  0.2110 -0.2822 -0.4885
  761MPD2    H711302   2.667   4.039  11.593 -1.3183  0.7652 -2.0475
  762MPD2     C11303   2.877   3.585  10.840 -0.3269  0.0311  0.3968
  762MPD2    C111304   2.936   3.670  10.935  0.5220  0.7847  0.0144
  762MPD2    C211305   3.071   3.694  10.917 -0.4878 -0.7492 -0.0507
  762MPD2    C311306   3.142   3.657  10.811 -0.7210 -0.5093  0.8420
  762MPD2    C411307   3.081   3.597  10.701  0.8617  0.5306 -0.1683
  762MPD2    C511308   2.947   3.560  10.717  0.1102  0.2637  0.9867
  762MPD2     H11309   3.126   3.736  11.000  0.5280 -1.4942 -0.3610
  762MPD2    H111310   3.123   3.563  10.607 -0.2375 -3.3433  0.7085
  762MPD2    H211311   2.772   3.560  10.844 -0.1321 -0.6301  1.4084
  762MPD2    H311312   2.898   3.498  10.643  1.6239 -0.4781  0.5947
  762MPD2     N11313   3.286   3.682  10.810  1.2894 -0.4084  0.5937
  762MPD2    H511314   3.328   3.709  10.899  2.0708 -0.3365  0.2005
  762MPD2    N111315   2.871   3.720  11.053  0.4738 -0.1636  1.0500
  762MPD2    H711316   2.920   3.782  11.117  1.3749  1.4820 -1.2052
  763MPD2     C11317   0.390   0.002  16.307  0.3195 -0.0663 -0.2815
  763MPD2    C111318   0.332   0.080  16.211  0.0664 -0.5878 -0.3931
  763MPD2    C211319   0.352   0.218  16.197 -0.1119  0.0098 -0.0684
  763MPD2    C311320   0.440   0.276  16.285 -0.4954  0.1010  0.8506
  763MPD2    C411321   0.490   0.206  16.387 -0.1095  0.1842 -0.1606
  763MPD2    C511322   0.469   0.068  16.395  0.2664  0.1927 -0.1305
  763MPD2     H11323   0.303   0.275  16.119 -1.1892  0.7614  1.1479
  763MPD2    H111324   0.547   0.252  16.466  1.8076 -1.5310 -0.5391
  763MPD2    H211325   0.383   4.632  16.321  1.8894 -0.0990  0.2609
  763MPD2    H311326   0.532   0.010  16.461  0.7103  1.7489  0.8173
  763MPD2     N11327   0.488   0.416  16.282 -0.2287 -0.4038 -0.4538
  763MPD2    H511328   0.576   0.434  16.329 -0.7950  1.7822 -0.2470
  763MPD2    N111329   0.245   0.032  16.105  0.0110 -0.6242  0.2824
  763MPD2    H711330   0.236   0.093  16.025  2.2156 -0.7938 -0.1021
  764MPD2     C11331   3.274   1.474  17.410 -0.4855 -0.3085 -0.5765
  764MPD2    C111332   3.202   1.362  17.401  0.0880 -0.0823  0.3495
  764MPD2    C211333   3.256   1.244  17.445  0.1437 -0.0248  0.2327
  764MPD2    C311334   3.386   1.241  17.499 -0.4710 -0.2562 -0.5031
  764MPD2    C411335   3.454   1.356  17.512 -0.4250 -0.2310 -0.6062
  764MPD2    C511336   3.403   1.474  17.460 -0.1056  0.7004 -0.2331
  764MPD2     H11337   3.211   1.145  17.442 -0.2411  0.1277  1.0123
  764MPD2    H111338   3.556   1.365  17.546 -1.6267  0.8820  2.7090
  764MPD2    H211339   3.242   1.571  17.375 -0.1108  0.0528  0.0864
  764MPD2    H311340   3.464   1.562  17.477  0.6005  0.4948 -1.6510
  764MPD2     N11341   3.424   1.112  17.534  0.1269 -0.5552 -0.1205
  764MPD2    H511342   3.368   1.034  17.502  1.3418 -1.3720 -0.2681
  764MPD2    N111343   3.076   1.344  17.340 -0.6441 -0.1069  0.4333
  764MPD2    H711344   3.030   1.253  17.342 -1.0662  0.0614 -2.4657
  765MPD2     C11345   2.682   4.117  15.708 -0.1303 -0.2206 -0.8182
  765MPD2    C111346   2.748   4.148  15.826 -0.4633  0.0820 -0.1364
  765MPD2    C211347   2.866   4.089  15.862 -0.1246  0.1038  0.3695
  765MPD2    C311348   2.920   3.997  15.781 -0.1721  0.5002  0.1671
  765MPD2    C411349   2.862   3.964  15.655 -0.0283  0.5616 -0.2969
  765MPD2    C511350   2.735   4.023  15.628 -0.0334 -0.0515 -0.0957
  765MPD2     H11351   2.912   4.112  15.957  1.9150  2.1752 -1.1183
  765MPD2    H111352   2.895   3.888  15.585 -3.9806  0.1889 -1.7355
  765MPD2    H211353   2.585   4.151  15.673 -1.6952 -1.0600  2.7555
  765MPD2    H311354   2.683   4.016  15.534  0.4995 -0.5939 -0.3489
  765MPD2     N11355   3.048   3.949  15.824 -0.1427 -0.4775 -0.4928
  765MPD2    H511356   3.087   3.996  15.905  2.2780  0.6983 -2.3543
  765MPD2    N111357   2.683   4.240  15.917 -0.3853  0.2716  0.3814
  765MPD2    H711358   2.589   4.266  15.890 -1.1625 -2.6100  0.3028
  766MPD2     C11359   2.138   4.477  15.718  0.8453  0.4449  0.2269
  766MPD2    C111360   2.251   4.406  15.740  0.2379 -0.4840 -1.2510
  766MPD2    C211361   2.309   4.332  15.634 -0.5534 -0.4685 -0.0870
  766MPD2    C311362   2.241   4.322  15.510 -0.4388  0.0618  0.8609
  766MPD2    C411363   2.115   4.371  15.509  0.5068 -0.5285  0.2048
  766MPD2    C511364   2.071   4.452  15.612 -0.1644 -0.0726  0.0911
  766MPD2     H11365   2.413   4.302  15.644 -0.0589  1.5416  0.8523
  766MPD2    H111366   2.055   4.350  15.421 -0.6572  3.5879  0.0264
  766MPD2    H211367   2.099   4.538  15.799 -1.8474  1.7624 -2.0529
  766MPD2    H311368   1.974   4.500  15.605 -1.3528 -1.9860  3.3931
  766MPD2     N11369   2.289   4.280  15.381 -0.6412 -0.3366  0.4657
  766MPD2    H511370   2.222   4.286  15.305 -1.5247  1.0690  1.3518
  766MPD2    N111371   2.324   4.407  15.861  0.4178 -0.7983 -0.3685
  766MPD2    H711372   2.398   4.337  15.866  1.8184  0.8512  1.5324
  767MPD2     C11373   1.936   4.662  15.344 -0.3969 -0.0411  0.2625
  767MPD2    C111374   2.064   4.628  15.298  0.3134 -0.4704 -0.2439
  767MPD2    C211375   2.082   4.553  15.184 -0.8181  0.2460  0.4748
  767MPD2    C311376   1.966   4.526  15.112  0.6433  0.5088  0.2654
  767MPD2    C411377   1.844   4.551  15.160  0.3095 -0.1698 -0.7704
  767MPD2    C511378   1.828   4.612  15.280  0.0881 -0.0401  0.3159
  767MPD2     H11379   2.180   4.537  15.142 -1.0701 -1.4485  0.5230
  767MPD2    H111380   1.753   4.528  15.106  0.2658  2.3756 -1.7866
  767MPD2    H211381   1.921   4.719  15.435  0.1697 -0.0377  0.3542
  767MPD2    H311382   1.730   4.634  15.320 -0.8802  2.7269 -3.5883
  767MPD2     N11383   1.971   4.455  14.986  0.0767 -0.5024 -0.4558
  767MPD2    H511384   2.063   4.424  14.956 -0.2561 -0.5527 -1.4258
  767MPD2    N111385   2.171   4.684  15.372  0.2027  0.1914 -0.9034
  767MPD2    H711386   2.139   0.012  15.443 -1.4659  2.5755 -3.8252
  768MPD2     C11387   2.660   2.435  10.834 -0.4414  0.0655  0.2028
  768MPD2    C111388   2.619   2.480  10.956  0.2140 -0.1743  0.5917
  768MPD2    C211389   2.697   2.451  11.068  0.1373 -0.3862 -0.3849
  768MPD2    C311390   2.820   2.389  11.045 -0.1060 -0.0042 -0.2278
  768MPD2    C411391   2.867   2.347  10.922 -0.6251 -0.1954  0.2269
  768MPD2    C511392   2.781   2.368  10.820 -0.0555 -0.9493  0.0068
  768MPD2     H11393   2.657   2.479  11.165  0.7867 -3.2651  0.7151
  768MPD2    H111394   2.954   2.285  10.903 -0.6104 -0.4997  1.2879
  768MPD2    H211395   2.605   2.455  10.743  0.1713  0.1719 -0.1454
  768MPD2    H311396   2.812   2.341  10.720  1.3233 -1.5766  0.5953
  768MPD2     N11397   2.903   2.360  11.152  0.2023  0.8473 -0.4860
  768MPD2    H511398   2.976   2.290  11.142 -0.1458  0.0561  2.8028
  768MPD2    N111399   2.505   2.554  10.982  0.0520  0.2168 -0.1987
  768MPD2    H711400   2.490   2.583  11.078 -0.6256  1.3273 -0.6548
  769MPD2     C11401   4.151   0.954  14.617 -0.2989  0.4632  0.5768
  769MPD2    C111402   4.083   0.907  14.726  0.4562  0.1452  0.3504
  769MPD2    C211403   4.158   0.896  14.845 -0.2568  0.1874  0.1567
  769MPD2    C311404   4.292   0.940  14.851 -0.8514 -0.0060  0.1970
  769MPD2    C411405   4.357   0.979  14.734  0.4403  0.0730 -0.1168
  769MPD2    C511406   4.287   0.981  14.623 -0.3390 -0.0579  0.3494
  769MPD2     H11407   4.115   0.851  14.934  0.8146 -2.1271 -0.5040
  769MPD2    H111408   4.459   1.015  14.732  0.3930  0.3186  1.3917
  769MPD2    H211409   4.100   0.958  14.522 -1.6435 -1.4438  1.2118
  769MPD2    H311410   4.340   1.006  14.532 -1.3035  3.1113  0.6864
  769MPD2     N11411   4.356   0.946  14.980 -0.1887  0.5520 -0.6909
  769MPD2    H511412   4.303   0.901  15.054  0.8168 -0.4073 -0.5505
  769MPD2    N111413   3.948   0.861  14.709 -0.4927 -0.0092 -0.0304
  769MPD2    H711414   3.889   0.885  14.629 -0.5999  0.8699  0.3122
  770MPD2     C11415   3.424   0.098  15.079 -0.4141 -0.3259 -0.2452
  770MPD2    C111416   3.519   0.179  15.132  0.3123 -0.2750  0.1481
  770MPD2    C211417   3.576   0.276  15.053  0.3402 -0.3492 -0.0802
  770MPD2    C311418   3.543   0.293  14.924  0.2947  0.1176  0.4300
  770MPD2    C411419   3.444   0.213  14.872 -0.2123 -0.2784  0.0159
  770MPD2    C511420   3.394   0.111  14.945 -0.1299  0.5222  0.0942
  770MPD2     H11421   3.644   0.347  15.099  1.3696 -2.7012  2.0311
  770MPD2    H111422   3.424   0.210  14.765 -0.4383 -1.9275  0.1110
  770MPD2    H211423   3.370   0.023  15.136 -2.8458  0.8020 -1.0597
  770MPD2    H311424   3.310   0.056  14.904 -1.0667  0.2146  2.4234
  770MPD2     N11425   3.594   0.409  14.855  0.3802 -0.1390  0.3085
  770MPD2    H511426   3.648   0.469  14.916 -0.9243  0.7991  0.5315
  770MPD2    N111427   3.524   0.176  15.277  0.0710 -0.4387  0.2123
  770MPD2    H711428   3.487   0.095  15.325 -0.2189 -1.3279 -1.5267
  771MPD2     C11429   4.682   3.439  13.198  0.2588  0.2757 -0.2500
  771MPD2    C111430   0.009   3.542  13.138  0.2670 -0.5028 -0.6442
  771MPD2    C211431   0.037   3.539  13.002 -0.9264  0.8834 -0.4555
  771MPD2    C311432   4.734   3.428  12.925  0.2163  0.2821 -0.2503
  771MPD2    C411433   4.680   3.316  12.983  0.5937 -0.3413 -0.8062
  771MPD2    C511434   4.654   3.326  13.116  0.4082  0.7942 -0.5666
  771MPD2     H11435   0.090   3.617  12.949  0.4581 -0.5887 -1.2625
  771MPD2    H111436   4.651   3.233  12.918 -1.7145  0.6048 -0.9818
  771MPD2    H211437   4.665   3.441  13.305  0.5375 -1.2274 -0.1750
  771MPD2    H311438   4.598   3.245  13.161  0.5248  0.3079 -1.2943
  771MPD2     N11439   0.022   3.441  12.779  0.1177 -0.4394 -0.7192
  771MPD2    H511440   0.077   3.516  12.738  3.8321 -2.4306  0.6225
  771MPD2    N111441   0.058   3.647  13.219  0.3175  0.3295 -0.1597
  771MPD2    H711442   0.028   3.651  13.315 -0.0093 -0.3501 -0.2358
  772MPD2     C11443   4.525   4.388  13.544  1.0561  0.1982  0.4008
  772MPD2    C111444   4.506   4.254  13.523 -0.6350  0.2489 -0.0077
  772MPD2    C211445   4.381   4.192  13.546 -0.2400 -0.8924 -0.4547
  772MPD2    C311446   4.276   4.265  13.601  0.5633 -0.0672  0.5334
  772MPD2    C411447   4.296   4.400  13.636 -0.1027  0.0337  0.0249
  772MPD2    C511448   4.420   4.458  13.608  0.1279  0.4774 -0.3212
  772MPD2     H11449   4.363   4.091  13.512 -0.8964 -1.5981  1.9758
  772MPD2    H111450   4.225   4.461  13.691 -0.6654 -0.4466 -0.1735
  772MPD2    H211451   4.615   4.440  13.513  2.7880 -2.0262  1.6722
  772MPD2    H311452   4.431   4.564  13.628 -0.3123  0.3819  0.4301
  772MPD2     N11453   4.151   4.210  13.636 -0.0911  0.2911 -0.1456
  772MPD2    H511454   4.082   4.264  13.688 -0.4549  1.0597 -1.4183
  772MPD2    N111455   4.620   4.184  13.479 -0.2176 -0.8077  0.4791
  772MPD2    H711456   4.709   4.232  13.469 -0.8106  0.6094  2.0269
  773MPD2     C11457   4.029   4.642   0.470  1.3311  0.2091  0.0108
  773MPD2    C111458   3.922   4.582   0.404 -0.1447  0.0448  0.6452
  773MPD2    C211459   3.907   4.443   0.432 -0.2139 -0.0719 -0.1239
  773MPD2    C311460   3.991   4.367   0.515 -0.2103 -0.2273  0.3446
  773MPD2    C411461   4.091   4.441   0.592 -0.2152  0.1043  0.4902
  773MPD2    C511462   4.106   4.577   0.567 -0.2549  0.3291  0.5454
  773MPD2     H11463   3.839   4.389   0.367 -1.6164  1.3125  0.1770
  773MPD2    H111464   4.159   4.392   0.660  0.5541 -1.9012 -1.7325
  773MPD2    H211465   4.050   0.008   0.445 -1.7122  0.9376  0.3877
  773MPD2    H311466   4.182   4.632   0.621  1.6457 -1.0178 -0.7291
  773MPD2     N11467   3.973   4.226   0.518  0.0795 -0.1437 -0.6647
  773MPD2    H511468   3.901   4.186   0.459  0.7279 -1.0936 -0.8038
  773MPD2    N111469   3.833   4.640   0.313  0.1472 -0.0840 -0.2986
  773MPD2    H711470   3.753   4.585   0.281  1.2572 -1.8817  0.0348
  774MPD2     C11471   3.228   3.705  13.440  0.5603  0.4964  0.2309
  774MPD2    C111472   3.117   3.743  13.507  0.0130 -0.1658 -0.1380
  774MPD2    C211473   3.086   3.881  13.500  0.6982  0.1635 -0.3078
  774MPD2    C311474   3.173   3.968  13.429  0.6922 -0.0199 -0.2000
  774MPD2    C411475   3.292   3.919  13.383 -0.4379 -0.2384 -0.0248
  774MPD2    C511476   3.314   3.790  13.383  0.4169  0.4109  0.5990
  774MPD2     H11477   2.993   3.925  13.535 -0.0800 -1.3667 -0.4484
  774MPD2    H111478   3.375   3.982  13.355 -0.6124  0.6400  1.4845
  774MPD2    H211479   3.248   3.598  13.446 -0.6584  0.3187  1.4004
  774MPD2    H311480   3.412   3.754  13.356 -1.7759 -3.2427 -2.5160
  774MPD2     N11481   3.142   4.108  13.434 -0.2707 -0.4300  0.2859
  774MPD2    H511482   3.053   4.132  13.477  0.0811  1.2495  0.0746
  774MPD2    N111483   3.035   3.645  13.573  0.0265  0.1279  0.2498
  774MPD2    H711484   3.074   3.551  13.567 -0.5415 -0.1086  0.2716
  775MPD2     C11485   4.662   0.813  15.654 -0.5774 -0.2744  0.1265
  775MPD2    C111486   4.673   0.939  15.713  0.0112  0.2039  0.5924
  775MPD2    C211487   0.031   1.020  15.660 -0.4777  0.0045 -0.1689
  775MPD2    C311488   0.111   0.981  15.551 -0.2495  0.3711 -0.1187
  775MPD2    C411489   0.086   0.868  15.478 -0.7227 -0.1416  0.6930
  775MPD2    C511490   4.725   0.786  15.537 -0.3251 -0.5279  0.3865
  775MPD2     H11491   0.039   1.119  15.704 -0.3649 -1.2631  2.7023
  775MPD2    H111492   0.129   0.832  15.385 -0.0325  0.9419  0.5892
  775MPD2    H211493   4.584   0.748  15.692  0.3244 -2.7759 -2.3847
  775MPD2    H311494   4.691   0.690  15.501 -0.3102 -0.4442  0.1519
  775MPD2     N11495   0.215   1.064  15.505  0.0957 -0.0704  0.2993
  775MPD2    H511496   0.255   1.039  15.415  0.8063  2.1251  0.0048
  775MPD2    N111497   4.576   0.983  15.802  0.2664 -0.4532 -0.0622
  775MPD2    H711498   4.527   0.909  15.852  1.5262 -1.3987 -0.2012
  776MPD2     C11499   2.734   1.280  11.695 -0.0572  0.1359  0.1681
  776MPD2    C111500   2.861   1.231  11.693  0.7014 -0.2106 -0.9666
  776MPD2    C211501   2.963   1.308  11.632  0.6941  0.5499  0.5890
  776MPD2    C311502   2.939   1.435  11.591  0.1658 -0.2016 -0.3998
  776MPD2    C411503   2.813   1.494  11.596  0.0513 -0.0002 -0.6508
  776MPD2    C511504   2.711   1.409  11.646 -0.0581  0.1841 -0.3916
  776MPD2     H11505   3.064   1.270  11.634 -0.2826 -2.0109  1.3816
  776MPD2    H111506   2.794   1.592  11.554  1.8081  0.9804  0.8216
  776MPD2    H211507   2.650   1.226  11.736  0.8845 -1.7373 -0.3233
  776MPD2    H311508   2.609   1.445  11.650  0.9740  3.1939 -0.7136
  776MPD2     N11509   3.040   1.503  11.526  0.1112 -0.0937  0.6093
  776MPD2    H511510   3.007   1.565  11.453  0.0663 -1.4501 -0.5415
  776MPD2    N111511   2.884   1.102  11.746 -0.4785  0.3812  0.3190
  776MPD2    H711512   2.804   1.054  11.785  0.6865 -0.8928  1.1555
  777MPD2     C11513   4.140   3.034   0.980  0.1143 -0.5900 -0.0633
  777MPD2    C111514   4.013   3.018   1.042 -0.5353 -0.7163 -0.4191
  777MPD2    C211515   3.921   2.939   0.962 -0.4092 -0.3435  0.2455
  777MPD2    C311516   3.956   2.890   0.838 -0.3243  0.1100 -0.3245
  777MPD2    C411517   4.082   2.899   0.786  0.7757  0.6158  0.0446
  777MPD2    C511518   4.171   2.975   0.857  0.6628 -0.8127  0.6223
  777MPD2     H11519   3.825   2.919   1.008 -1.9324  1.5186 -2.1504
  777MPD2    H111520   4.111   2.865   0.687 -0.6783  1.7254 -0.7662
  777MPD2    H211521   4.218   3.083   1.038 -1.3905  0.5076  1.0257
  777MPD2    H311522   4.272   2.992   0.820 -0.5868 -2.3901 -3.4559
  777MPD2     N11523   3.854   2.823   0.764 -0.0167 -0.0422  0.8323
  777MPD2    H511524   3.768   2.808   0.816  0.9113 -1.6218  1.9002
  777MPD2    N111525   3.968   3.087   1.166 -0.2375 -0.3140 -0.1997
  777MPD2    H711526   4.039   3.122   1.230 -0.6982 -2.1212  1.2867
  778MPD2     C11527   0.412   4.161  15.058  0.8457  0.2634  0.1439
  778MPD2    C111528   0.399   4.049  14.967  0.1363 -0.0242 -0.2129
  778MPD2    C211529   0.506   4.031  14.884  0.7970  0.0108  0.3339
  778MPD2    C311530   0.607   4.120  14.872 -0.0565 -0.7135  0.4998
  778MPD2    C411531   0.605   4.235  14.950  1.4996  0.2558 -0.1227
  778MPD2    C511532   0.516   4.252  15.054 -0.2674 -0.5060  0.0070
  778MPD2     H11533   0.506   3.942  14.821 -3.0713 -0.9016  1.5858
  778MPD2    H111534   0.679   4.314  14.939  1.7964  0.2432  1.6194
  778MPD2    H211535   0.325   4.190  15.116 -1.1559 -1.4577 -1.9795
  778MPD2    H311536   0.517   4.338  15.120 -1.0188  0.4507 -1.2318
  778MPD2     N11537   0.715   4.095  14.791  0.4304 -0.8393  0.1693
  778MPD2    H511538   0.713   4.013  14.732 -2.8582 -0.4176 -0.2632
  778MPD2    N111539   0.284   3.968  14.962  0.7445 -0.0154 -0.0735
  778MPD2    H711540   0.292   3.898  14.888  0.0907  0.9834 -1.0982
  779MPD2     C11541   4.312   2.527  13.689 -0.6125 -0.1562  0.2497
  779MPD2    C111542   4.411   2.511  13.776  0.0336 -0.1391 -0.5351
  779MPD2    C211543   4.452   2.622  13.853  0.2221  0.1463 -0.3167
  779MPD2    C311544   4.391   2.744  13.823  0.1378 -0.1264 -0.0863
  779MPD2    C411545   4.288   2.758  13.734  0.8123 -0.7098  0.5341
  779MPD2    C511546   4.252   2.648  13.663  0.7080 -0.1168 -0.1018
  779MPD2     H11547   4.527   2.621  13.931 -0.9886  6.4305  0.9060
  779MPD2    H111548   4.245   2.855  13.710  0.4990 -1.4253 -1.7732
  779MPD2    H211549   4.271   2.441  13.636 -0.9291  0.0707  0.1266
  779MPD2    H311550   4.174   2.665  13.590  1.4798  2.9387 -0.2061
  779MPD2     N11551   4.449   2.861  13.881 -0.1909  0.2930 -0.3020
  779MPD2    H511552   4.521   2.848  13.952 -0.8427  0.1077  0.3298
  779MPD2    N111553   4.459   2.384  13.814  0.3829  0.0403  0.4324
  779MPD2    H711554   4.524   2.387  13.892  3.1551  0.6118 -1.9087
  780MPD2     C11555   4.510   2.191   1.135 -0.1493  0.1234  0.2916
  780MPD2    C111556   4.410   2.170   1.045 -0.4917 -0.9863  0.3021
  780MPD2    C211557   4.414   2.248   0.931 -0.3103 -0.2687 -0.6753
  780MPD2    C311558   4.505   2.352   0.915  0.7003 -0.9509 -0.6697
  780MPD2    C411559   4.598   2.376   1.014  0.3840 -0.5709 -0.3144
  780MPD2    C511560   4.600   2.292   1.121  0.2837 -0.0404  0.0183
  780MPD2     H11561   4.340   2.237   0.852 -0.5937  2.1531 -0.7606
  780MPD2    H111562   4.664   2.462   1.009  0.3899 -0.5503  0.1167
  780MPD2    H211563   4.516   2.131   1.225  0.4154 -0.4280 -0.1122
  780MPD2    H311564   4.669   2.308   1.203 -1.1225 -0.4598  1.2942
  780MPD2     N11565   4.490   2.417   0.789 -0.5346 -0.5046  0.2207
  780MPD2    H511566   4.425   2.385   0.719  0.4152 -0.1443 -0.8276
  780MPD2    N111567   4.321   2.063   1.066 -0.3939  0.0283  0.3179
  780MPD2    H711568   4.343   2.003   1.145 -2.4893 -1.5926 -0.3570
  781MPD2     C11569   0.825   0.057  12.469  1.0307  0.1433 -0.3836
  781MPD2    C111570   0.859   4.659  12.460  0.8675  0.3950 -0.4590
  781MPD2    C211571   0.872   4.600  12.333  0.0734 -0.8251  0.4086
  781MPD2    C311572   0.865   4.680  12.218 -0.0702  0.1783  0.3787
  781MPD2    C411573   0.844   0.077  12.230  0.2763  0.4983 -0.1277
  781MPD2    C511574   0.825   0.133  12.356 -0.5095  0.0543 -0.4031
  781MPD2     H11575   0.885   4.493  12.340  2.0236 -0.4973  1.9726
  781MPD2    H111576   0.846   0.144  12.145 -0.0045  0.6792  0.0081
  781MPD2    H211577   0.811   0.102  12.567  1.1957  1.6354 -1.0313
  781MPD2    H311578   0.803   0.238  12.364  0.1111  0.1364  0.3364
  781MPD2     N11579   0.859   4.620  12.088  0.3184 -0.4737  0.1258
  781MPD2    H511580   0.862   4.686  12.012  0.5536 -0.0235  0.5286
  781MPD2    N111581   0.882   4.580  12.573 -0.3305  0.3632 -0.2951
  781MPD2    H711582   0.891   4.481  12.552 -0.0703  0.1470  0.8304
  782MPD2     C11583   3.614   0.387  10.500  0.0550 -0.0342  0.0774
  782MPD2    C111584   3.749   0.371  10.487  0.4136  0.8491 -0.2513
  782MPD2    C211585   3.833   0.383  10.595 -0.3316 -0.4078  0.4405
  782MPD2    C311586   3.780   0.408  10.723 -0.3624 -0.0847 -0.1489
  782MPD2    C411587   3.649   0.425  10.737  0.8475 -0.5823 -0.7237
  782MPD2    C511588   3.566   0.415  10.628  0.8151  0.0092 -0.2038
  782MPD2     H11589   3.940   0.368  10.592 -0.4619 -0.8127 -1.8518
  782MPD2    H111590   3.605   0.452  10.832  0.1492 -0.8842 -0.9585
  782MPD2    H211591   3.547   0.388  10.416 -0.3755  0.8190  0.4378
  782MPD2    H311592   3.458   0.418  10.632  0.9381 -0.7174  3.2008
  782MPD2     N11593   3.872   0.426  10.827 -0.5333  1.1039  0.1806
  782MPD2    H511594   3.968   0.429  10.793 -0.3736 -0.8345  0.4789
  782MPD2    N111595   3.805   0.321  10.371  0.0078 -0.2588 -0.3179
  782MPD2    H711596   3.906   0.326  10.373  0.1801 -2.8880 -1.4007
  783MPD2     C11597   3.374   4.318  10.892  0.1377  0.5438  0.6582
  783MPD2    C111598   3.421   4.445  10.931 -0.2186  0.2113  0.5622
  783MPD2    C211599   3.495   4.523  10.847 -0.2993 -0.6080  0.4876
  783MPD2    C311600   3.522   4.483  10.724 -0.2096 -0.9091 -0.8189
  783MPD2    C411601   3.470   4.358  10.678  0.8587  0.5753  0.0092
  783MPD2    C511602   3.396   4.274  10.763  0.1993 -0.0023  0.0641
  783MPD2     H11603   3.524   4.625  10.869  0.3868 -0.8565  0.7538
  783MPD2    H111604   3.476   4.321  10.576  1.7973  1.1717 -0.1526
  783MPD2    H211605   3.302   4.266  10.955 -0.1122 -0.7452 -0.6706
  783MPD2    H311606   3.340   4.191  10.722 -0.1099 -0.1323  0.7605
  783MPD2     N11607   3.611   4.560  10.644 -0.4583  0.2076  0.2165
  783MPD2    H511608   3.644   4.645  10.689 -1.8731  0.6699  0.4071
  783MPD2    N111609   3.382   4.485  11.060  0.5250 -1.2160  0.2232
  783MPD2    H711610   3.337   4.416  11.119 -1.6433 -0.5320 -0.6217
  784MPD2     C11611   1.386   0.344   1.218 -0.1158 -0.4174 -0.1195
  784MPD2    C111612   1.441   0.471   1.169  0.5353  0.9233 -0.0241
  784MPD2    C211613   1.352   0.557   1.104 -0.4379  1.0258 -0.4643
  784MPD2    C311614   1.224   0.514   1.077 -0.1566  0.2103  0.4457
  784MPD2    C411615   1.183   0.387   1.103 -0.0095  0.0735  0.4089
  784MPD2    C511616   1.260   0.303   1.177  0.3537 -0.1206 -0.4251
  784MPD2     H11617   1.388   0.657   1.086  2.4169  0.2928  1.1396
  784MPD2    H111618   1.084   0.348   1.085 -0.0842 -0.3118  1.6154
  784MPD2    H211619   1.439   0.283   1.290 -0.9073 -1.1604 -0.1713
  784MPD2    H311620   1.232   0.201   1.202 -0.2825  0.6837  2.1213
  784MPD2     N11621   1.146   0.603   1.004  0.2390 -0.6367  0.6767
  784MPD2    H511622   1.192   0.686   0.967  1.2172 -0.0323  3.1907
  784MPD2    N111623   1.568   0.518   1.204  0.0860  0.1257 -0.1655
  784MPD2    H711624   1.592   0.606   1.158  0.3441  0.6532  0.9722
  785MPD2     C11625   2.032   3.517  11.338 -0.4300 -0.2113 -0.2495
  785MPD2    C111626   1.941   3.601  11.284 -0.0908  0.0398  0.1749
  785MPD2    C211627   1.840   3.546  11.212  0.1382  0.4274  0.8282
  785MPD2    C311628   1.832   3.407  11.196 -0.0558  0.0050 -0.2846
  785MPD2    C411629   1.922   3.320  11.260 -0.6962 -0.8093 -0.7334
  785MPD2    C511630   2.024   3.382  11.320  0.7019  0.1852 -0.3894
  785MPD2     H11631   1.765   3.613  11.171  0.7247 -0.6105 -1.9277
  785MPD2    H111632   1.910   3.213  11.252  0.1946 -0.9421 -0.2612
  785MPD2    H211633   2.121   3.553  11.388 -1.5739 -0.2234  1.7984
  785MPD2    H311634   2.087   3.315  11.378 -3.1906 -2.3757  0.8993
  785MPD2     N11635   1.715   3.357  11.129  0.4935 -0.0837  0.7544
  785MPD2    H511636   1.726   3.258  11.113 -0.5361 -0.2799  1.2505
  785MPD2    N111637   1.961   3.738  11.300  0.6625  0.1275 -0.3942
  785MPD2    H711638   2.048   3.767  11.342  0.9870 -0.6940 -0.4861
  786MPD2     C11639   0.632   2.017  14.786 -0.0718 -0.5223  0.4588
  786MPD2    C111640   0.606   1.923  14.880  0.0558 -0.1260 -0.0461
  786MPD2    C211641   0.609   1.957  15.009  0.7146  0.5974  0.6096
  786MPD2    C311642   0.622   2.092  15.044 -0.0505  0.0601 -0.1208
  786MPD2    C411643   0.637   2.189  14.952 -0.3156  0.1850  0.0045
  786MPD2    C511644   0.644   2.151  14.817  0.2440 -0.2354 -0.5066
  786MPD2     H11645   0.603   1.870  15.074 -0.2579 -1.7192 -2.6046
  786MPD2    H111646   0.654   2.293  14.976 -0.2478  0.0359  0.6000
  786MPD2    H211647   0.634   1.996  14.680  0.5445  1.4151  0.0860
  786MPD2    H311648   0.667   2.221  14.738  0.6464  1.9077  1.5379
  786MPD2     N11649   0.634   2.127  15.182 -0.3123 -0.3536  0.8573
  786MPD2    H511650   0.633   2.228  15.194  1.8736 -0.1816 -0.4333
  786MPD2    N111651   0.553   1.798  14.846  0.0201 -0.9352 -0.0110
  786MPD2    H711652   0.559   1.730  14.921 -0.2993  0.1601  1.0064
  787MPD2     C11653   0.634   1.381  15.178  0.2945 -0.2759 -0.4328
  787MPD2    C111654   0.635   1.322  15.053  0.1057 -1.1072  0.7177
  787MPD2    C211655   0.729   1.226  15.028  1.2918  0.1422 -0.2629
  787MPD2    C311656   0.831   1.186  15.116  0.2650  0.3406 -0.9177
  787MPD2    C411657   0.821   1.237  15.243 -0.0159  0.1643  0.7391
  787MPD2    C511658   0.726   1.329  15.273  0.2827 -0.1766 -0.3609
  787MPD2     H11659   0.728   1.184  14.928  2.1179  3.0035 -1.4777
  787MPD2    H111660   0.890   1.212  15.323 -2.6608 -0.3321  2.8696
  787MPD2    H211661   0.589   1.475  15.209  2.4731  0.5369  0.3168
  787MPD2    H311662   0.723   1.368  15.374  1.1816  0.8101 -0.7102
  787MPD2     N11663   0.936   1.101  15.081 -0.3138 -0.2229 -0.4304
  787MPD2    H511664   0.945   1.084  14.982  1.4707 -1.0949 -0.1305
  787MPD2    N111665   0.555   1.372  14.955 -0.1669 -0.0054  0.6475
  787MPD2    H711666   0.513   1.464  14.963 -0.3609  0.0127 -0.5052
  788MPD2     C11667   2.801   4.291   1.009  0.9386  0.1967 -0.1638
  788MPD2    C111668   2.690   4.221   0.966  0.1829 -0.0985 -0.4676
  788MPD2    C211669   2.579   4.297   0.927  0.3028 -0.5782  0.0441
  788MPD2    C311670   2.586   4.434   0.931  0.0323  0.4639  0.2412
  788MPD2    C411671   2.693   4.494   0.989  0.3770  0.0074 -0.1694
  788MPD2    C511672   2.803   4.427   1.022  0.0585 -0.2420 -1.0258
  788MPD2     H11673   2.488   4.245   0.899  0.0993 -0.2201  0.0434
  788MPD2    H111674   2.702   4.602   1.000  0.6211  0.0269 -0.5363
  788MPD2    H211675   2.877   4.234   1.062  1.2957  0.0757 -0.7995
  788MPD2    H311676   2.890   4.477   1.064  2.2381 -3.9262 -1.1330
  788MPD2     N11677   2.480   4.530   0.894 -0.0991  0.4039  0.3130
  788MPD2    H511678   2.486   4.629   0.914  0.6719  0.2005  1.0765
  788MPD2    N111679   2.683   4.081   0.942  0.2744  1.0987 -0.1024
  788MPD2    H711680   2.596   4.043   0.905  1.0388  0.0204 -0.7731
  789MPD2     C11681   2.743   4.078  16.804  0.0044  0.5644 -0.0087
  789MPD2    C111682   2.633   4.034  16.729 -0.7611 -0.3677 -0.5017
  789MPD2    C211683   2.512   4.107  16.739  0.6958 -0.8052 -0.0921
  789MPD2    C311684   2.497   4.211  16.836  0.3142 -0.1237  0.1903
  789MPD2    C411685   2.597   4.234  16.921 -0.2192 -0.3077  0.1329
  789MPD2    C511686   2.718   4.176  16.894  0.3751 -0.6355  0.4554
  789MPD2     H11687   2.426   4.073  16.682  0.6196  0.2142 -0.6030
  789MPD2    H111688   2.600   4.312  16.997 -1.2368  0.9267 -1.0866
  789MPD2    H211689   2.845   4.046  16.788  0.0065  0.5304  0.0784
  789MPD2    H311690   2.804   4.212  16.949  0.4112 -0.7940  0.5053
  789MPD2     N11691   2.377   4.282  16.858  0.4783  0.0970 -0.4189
  789MPD2    H511692   2.379   4.350  16.933  3.4063  1.3323 -1.6082
  789MPD2    N111693   2.635   3.924  16.635  0.2693 -0.9832 -0.4937
  789MPD2    H711694   2.549   3.899  16.588 -0.3452  2.0281 -0.9702
  790MPD2     C11695   2.971   1.434  13.832  0.1139  0.5782 -0.4861
  790MPD2    C111696   3.106   1.407  13.820 -0.5702 -0.7524  0.2213
  790MPD2    C211697   3.151   1.418  13.689 -1.0297  1.2389 -0.7057
  790MPD2    C311698   3.064   1.442  13.581  0.2146 -1.0231  0.0006
  790MPD2    C411699   2.935   1.492  13.606 -0.2605 -0.4861 -0.5525
  790MPD2    C511700   2.889   1.477  13.730  0.1556  1.2452  1.0831
  790MPD2     H11701   3.251   1.383  13.667  0.0831  3.2150  1.1254
  790MPD2    H111702   2.867   1.512  13.524  0.5335 -0.5083 -1.2185
  790MPD2    H211703   2.920   1.425  13.927  0.4410 -0.0574 -0.3704
  790MPD2    H311704   2.785   1.500  13.750 -0.4857 -2.2212  1.6919
  790MPD2     N11705   3.101   1.422  13.442  0.0574 -0.4017 -0.4192
  790MPD2    H511706   3.024   1.427  13.375 -1.0338  1.2107  0.9535
  790MPD2    N111707   3.189   1.362  13.932 -0.9526  0.2022 -0.2158
  790MPD2    H711708   3.142   1.344  14.020 -0.2838 -0.7852 -0.0668
  791MPD2     C11709   2.858   1.186  12.777 -0.5089 -0.4516 -0.7470
  791MPD2    C111710   2.894   1.131  12.897  0.1779  0.2695 -0.5001
  791MPD2    C211711   2.808   1.039  12.956 -0.3544 -0.0933 -0.0342
  791MPD2    C311712   2.683   1.008  12.902 -0.0209 -0.0264 -0.1920
  791MPD2    C411713   2.656   1.065  12.776 -0.1043 -0.3216  0.0453
  791MPD2    C511714   2.743   1.145  12.716 -0.7239 -0.6171  0.2290
  791MPD2     H11715   2.840   0.986  13.045 -0.4124 -0.5977 -0.3103
  791MPD2    H111716   2.558   1.063  12.729 -0.1526  1.9538  0.0319
  791MPD2    H211717   2.921   1.266  12.740 -1.0442  0.6101  0.5842
  791MPD2    H311718   2.721   1.195  12.622 -1.1030  2.5450  2.0212
  791MPD2     N11719   2.603   0.909  12.960 -0.3546  0.2265 -0.0476
  791MPD2    H511720   2.629   0.875  13.052 -1.6980  1.3638  0.7718
  791MPD2    N111721   3.007   1.177  12.954 -0.3505 -0.3647 -0.1756
  791MPD2    H711722   3.046   1.267  12.928 -0.0402  0.2757  2.4456
  792MPD2     C11723   3.615   1.004  11.332 -0.5307  0.2410 -0.1279
  792MPD2    C111724   3.558   1.103  11.249 -0.2963  0.0301 -0.6861
  792MPD2    C211725   3.421   1.130  11.251  0.2860  0.4028 -0.1294
  792MPD2    C311726   3.334   1.056  11.333 -0.5547  0.0660  0.3230
  792MPD2    C411727   3.393   0.939  11.386 -0.1262 -0.3817  0.6984
  792MPD2    C511728   3.527   0.909  11.385 -0.2664  0.0282  0.0947
  792MPD2     H11729   3.388   1.223  11.206  1.4551  1.4529  1.1960
  792MPD2    H111730   3.331   0.865  11.435 -2.2184 -0.4307 -1.9918
  792MPD2    H211731   3.722   1.006  11.346 -0.8456 -0.5166  2.3679
  792MPD2    H311732   3.548   0.819  11.441  2.1593  2.9518  3.8919
  792MPD2     N11733   3.197   1.081  11.354 -0.2265  0.5978  0.6612
  792MPD2    H511734   3.153   1.002  11.400 -0.6313  1.4816  1.7587
  792MPD2    N111735   3.652   1.174  11.168  0.3476  0.1092 -0.2467
  792MPD2    H711736   3.749   1.172  11.199  0.3999 -1.8835 -0.5177
  793MPD2     C11737   2.802   1.044  10.687  0.0208  0.1939 -0.7013
  793MPD2    C111738   2.923   1.045  10.752 -0.2484 -1.1432 -0.4716
  793MPD2    C211739   2.936   1.131  10.859  0.2988  1.0039 -0.4868
  793MPD2    C311740   2.828   1.198  10.907  0.4733 -0.1252 -0.2616
  793MPD2    C411741   2.708   1.197  10.838  0.8396 -0.0995 -0.9053
  793MPD2    C511742   2.702   1.124  10.725  0.2397  0.4636  0.4931
  793MPD2     H11743   3.030   1.149  10.909 -0.1306 -0.1455  0.7424
  793MPD2    H111744   2.624   1.255  10.873 -0.1173 -1.9488 -0.1525
  793MPD2    H211745   2.785   0.975  10.605 -2.1607 -0.9439  0.7282
  793MPD2    H311746   2.613   1.123  10.663  0.7956 -1.0499 -0.2833
  793MPD2     N11747   2.836   1.270  11.029 -0.6683 -0.2200  0.2016
  793MPD2    H511748   2.926   1.288  11.073  0.6833 -2.0637 -1.8009
  793MPD2    N111749   3.046   0.978  10.715 -0.3875 -0.8411  0.4070
  793MPD2    H711750   3.122   0.971  10.782  0.1559 -1.4340 -0.2710
  794MPD2     C11751   3.759   0.338  17.343 -0.3857  0.3080  0.3049
  794MPD2    C111752   3.635   0.294  17.381 -0.3586 -0.1298 -0.1792
  794MPD2    C211753   3.533   0.291  17.286 -0.2524 -0.0291 -0.1759
  794MPD2    C311754   3.560   0.343  17.158  0.0959 -0.2021  0.3716
  794MPD2    C411755   3.687   0.381  17.123  0.3185  0.8735  0.3266
  794MPD2    C511756   3.783   0.372  17.212  0.1447  0.2115 -0.0274
  794MPD2     H11757   3.432   0.261  17.309 -0.0799 -0.1577  0.4183
  794MPD2    H111758   3.705   0.409  17.020 -2.2512  0.1074 -0.3367
  794MPD2    H211759   3.842   0.342  17.414 -0.7148  1.1834  0.6364
  794MPD2    H311760   3.883   0.407  17.187 -0.1384  1.3253  0.3678
  794MPD2     N11761   3.469   0.371  17.056  0.4633  0.8181 -0.0312
  794MPD2    H511762   3.510   0.414  16.973 -0.6257  2.5498  0.3222
  794MPD2    N111763   3.614   0.252  17.517 -0.3852 -0.8647  0.5010
  794MPD2    H711764   3.522   0.215  17.538 -0.8349  0.4460  0.8419
  795MPD2     C11765   1.028   2.926  13.551 -0.1572 -0.2546  0.4074
  795MPD2    C111766   0.954   2.808  13.543 -0.1801  0.3302  0.1492
  795MPD2    C211767   0.996   2.708  13.633 -0.1049 -0.2506 -0.0786
  795MPD2    C311768   1.075   2.736  13.746  0.6411 -0.0179 -0.8415
  795MPD2    C411769   1.134   2.861  13.755  0.2992 -0.4146 -0.1073
  795MPD2    C511770   1.104   2.955  13.660 -0.4890 -0.7600 -0.6510
  795MPD2     H11771   0.955   2.610  13.613  0.5975 -0.5216 -0.2103
  795MPD2    H111772   1.190   2.897  13.840  0.5120 -0.0199 -0.4149
  795MPD2    H211773   1.018   3.007  13.480  1.8708 -0.1585  0.2316
  795MPD2    H311774   1.154   3.051  13.664 -3.1693  0.6405 -0.5880
  795MPD2     N11775   1.096   2.636  13.845  0.0361 -0.7185 -0.0789
  795MPD2    H511776   1.046   2.548  13.844 -2.4451  0.7523 -2.3651
  795MPD2    N111777   0.849   2.785  13.462 -0.1778 -0.4020  0.0344
  795MPD2    H711778   0.816   2.691  13.441  2.8828 -1.1824 -1.1608
  796MPD2     C11779   0.521   3.904  16.028  0.5047 -0.2210  0.5542
  796MPD2    C111780   0.579   3.964  16.132 -0.7869 -0.6832  0.4229
  796MPD2    C211781   0.582   4.107  16.136  0.5276 -0.0661 -1.4907
  796MPD2    C311782   0.534   4.178  16.027  0.0039  0.6905  0.2882
  796MPD2    C411783   0.481   4.115  15.923  0.0110  0.2232 -0.6148
  796MPD2    C511784   0.475   3.979  15.919 -0.4703 -0.6659 -0.1416
  796MPD2     H11785   0.635   4.161  16.214 -0.6718 -1.2467  0.1543
  796MPD2    H111786   0.456   4.169  15.832  0.1094  1.9960  0.4117
  796MPD2    H211787   0.502   3.798  16.018  0.8514 -0.2193 -0.1208
  796MPD2    H311788   0.437   3.918  15.838 -0.3410  0.2208 -0.8607
  796MPD2     N11789   0.552   4.321  16.030  0.8741  0.6640 -0.8694
  796MPD2    H511790   0.599   4.354  16.113 -0.2169  0.5590 -0.2186
  796MPD2    N111791   0.621   3.876  16.239  0.5492 -0.1451  0.0070
  796MPD2    H711792   0.581   3.785  16.223  0.7100 -0.1120 -0.6009
  797MPD2     C11793   1.461   3.173  17.666 -0.2447 -0.0806 -0.0212
  797MPD2    C111794   1.565   3.271  17.649 -0.6049 -0.4528 -0.0831
  797MPD2    C211795   1.520   3.399  17.612 -0.4634  0.6414 -0.5043
  797MPD2    C311796   1.387   3.432  17.593 -0.1138  0.2206 -0.2376
  797MPD2    C411797   1.291   3.333  17.600 -0.1922 -0.4800  0.3629
  797MPD2    C511798   1.332   3.209  17.643  0.1947 -0.0030 -0.2293
  797MPD2     H11799   1.593   3.477  17.594  0.5412  0.0218  0.8731
  797MPD2    H111800   1.185   3.357  17.599 -0.1234 -0.2672 -1.1935
  797MPD2    H211801   1.488   3.073  17.699  2.0367  0.2832 -0.7938
  797MPD2    H311802   1.261   3.127  17.651  2.2298 -1.6795  0.5823
  797MPD2     N11803   1.361   3.566  17.563  0.1913 -0.3370 -0.0152
  797MPD2    H511804   1.437   3.633  17.573 -1.2262  0.8984  2.1613
  797MPD2    N111805   1.701   3.243  17.667 -0.4702  0.7021 -0.6622
  797MPD2    H711806   1.765   3.321  17.656  0.9612 -0.1615  1.5012
  798MPD2     C11807   1.941   3.951  17.548  0.1646  0.0341 -0.3023
  798MPD2    C111808   1.841   3.863  17.565  0.1799  0.4158  0.2726
  798MPD2    C211809   1.877   3.730  17.586  0.8271 -0.1194 -0.1264
  798MPD2    C311810   2.012   3.694  17.591 -0.0852  0.4021  0.4162
  798MPD2    C411811   2.109   3.786  17.559  0.1134 -0.1582  0.2785
  798MPD2    C511812   2.073   3.918  17.549 -0.7177 -0.3557  0.3449
  798MPD2     H11813   1.793   3.662  17.588 -0.4974  1.5039  0.0881
  798MPD2    H111814   2.209   3.753  17.531  0.3126  0.3109  0.4351
  798MPD2    H211815   1.922   4.057  17.530  0.0246 -0.1076 -0.9859
  798MPD2    H311816   2.145   3.994  17.523  0.8211 -2.4216 -1.4350
  798MPD2     N11817   2.052   3.558  17.617 -0.2496 -0.0700  0.4246
  798MPD2    H511818   2.150   3.556  17.644 -0.0788  3.6284  0.1929
  798MPD2    N111819   1.707   3.905  17.558 -0.1286  0.0663 -0.1703
  798MPD2    H711820   1.697   4.000  17.523  0.1422 -0.7317 -2.4393
  799MPD2     C11821   0.745   0.697  15.010  0.7678  0.1929 -0.4604
  799MPD2    C111822   0.666   0.612  14.941 -0.1530 -0.9945 -0.1771
  799MPD2    C211823   0.580   0.652  14.845  0.3520 -0.2398 -0.4996
  799MPD2    C311824   0.542   0.784  14.846  0.0632 -0.0110 -0.7858
  799MPD2    C411825   0.610   0.868  14.926 -0.0993 -1.0097  0.4224
  799MPD2    C511826   0.709   0.826  15.012  0.9596 -0.8760 -0.1401
  799MPD2     H11827   0.527   0.578  14.786 -0.3811  0.5988 -0.8943
  799MPD2    H111828   0.599   0.975  14.919  2.2924 -0.8543 -1.0101
  799MPD2    H211829   0.822   0.656  15.074  1.6072 -0.9660 -2.2425
  799MPD2    H311830   0.770   0.898  15.064  0.8019 -1.1647  0.4387
  799MPD2     N11831   0.442   0.847  14.769 -0.5253 -0.1171  0.4527
  799MPD2    H511832   0.436   0.947  14.782 -0.2673 -0.2270  1.4363
  799MPD2    N111833   0.684   0.473  14.947 -0.2634 -0.1089  0.3402
  799MPD2    H711834   0.611   0.431  14.890 -1.6446 -0.9106  2.6960
  800MPD2     C11835   0.627   1.954  14.140  0.0916  0.4637  0.7055
  800MPD2    C111836   0.733   1.880  14.090 -0.3118  0.3841  0.4689
  800MPD2    C211837   0.726   1.840  13.956 -0.0596  0.6282 -0.2628
  800MPD2    C311838   0.615   1.880  13.880  0.3902 -0.0074  0.3825
  800MPD2    C411839   0.509   1.948  13.934 -0.5240  0.2802 -0.8225
  800MPD2    C511840   0.513   1.981  14.066  0.2402 -0.3834 -0.0534
  800MPD2     H11841   0.805   1.785  13.908 -0.2903 -0.2870  0.3930
  800MPD2    H111842   0.421   1.981  13.879 -0.2250 -0.1671 -1.5786
  800MPD2    H211843   0.618   1.987  14.242 -0.0623 -1.5042  1.3408
  800MPD2    H311844   0.439   2.045  14.112 -0.9946 -1.6792 -0.2457
  800MPD2     N11845   0.620   1.848  13.749  0.7703 -0.0312  0.1239
  800MPD2    H511846   0.688   1.778  13.722  1.0308 -0.3183  1.5069
  800MPD2    N111847   0.841   1.851  14.176  0.8030  0.1532  0.1584
  800MPD2    H711848   0.841   1.891  14.269 -1.4109  1.0940 -0.2522
  801MPD2     C11849   1.221   2.426  14.356  0.5763 -0.1250 -0.2944
  801MPD2    C111850   1.112   2.351  14.337 -0.4777 -0.5160  0.3710
  801MPD2    C211851   0.983   2.411  14.361 -0.3148 -0.6372  0.0174
  801MPD2    C311852   0.973   2.552  14.389  0.1041 -0.7525 -0.2970
  801MPD2    C411853   1.088   2.619  14.418 -0.0585 -0.4963 -0.1935
  801MPD2    C511854   1.202   2.555  14.397 -0.4438 -1.3650  0.1847
  801MPD2     H11855   0.896   2.355  14.331 -0.9295 -0.2114  1.0190
  801MPD2    H111856   1.085   2.726  14.434  2.5474 -0.4064 -0.4283
  801MPD2    H211857   1.319   2.380  14.352  1.0321  0.7491  0.9339
  801MPD2    H311858   1.291   2.609  14.428 -3.0758  1.0195  3.6008
  801MPD2     N11859   0.852   2.613  14.438  0.1283 -0.3038 -0.1552
  801MPD2    H511860   0.863   2.693  14.499 -2.1464  0.3677 -0.6090
  801MPD2    N111861   1.117   2.212  14.323  0.5551  0.6993  0.3147
  801MPD2    H711862   1.032   2.157  14.331  1.4153 -0.8746 -1.4015
  802MPD2     C11863   0.777   2.881   0.410 -0.0949 -0.1759  0.6308
  802MPD2    C111864   0.708   2.955   0.325 -0.2618  0.7354  0.2230
  802MPD2    C211865   0.674   2.903   0.203 -0.2276 -0.0903 -0.2463
  802MPD2    C311866   0.732   2.786   0.157 -0.2765  0.0091  0.0683
  802MPD2    C411867   0.803   2.707   0.243  0.3378  0.1392  0.1930
  802MPD2    C511868   0.832   2.768   0.359 -0.1905 -0.0414 -0.1696
  802MPD2     H11869   0.618   2.960   0.130 -0.1553 -1.7367 -1.5857
  802MPD2    H111870   0.851   2.618   0.205 -1.0942 -0.1506 -0.9096
  802MPD2    H211871   0.801   2.924   0.507  0.4751  1.6625 -0.3190
  802MPD2    H311872   0.896   2.716   0.429  0.6064 -1.9298 -2.3075
  802MPD2     N11873   0.691   2.742   0.029 -0.2816 -0.1060  0.3497
  802MPD2    H511874   0.638   2.812  17.724  1.1596 -0.6803 -1.8999
  802MPD2    N111875   0.659   3.084   0.356  0.5602 -0.1296 -0.3063
  802MPD2    H711876   0.613   3.124   0.275 -0.8283 -0.8174  0.1451
  803MPD2     C11877   1.276   1.219  12.406  0.0209  0.1419  0.3813
  803MPD2    C111878   1.380   1.194  12.491 -0.5161  0.2241  0.1314
  803MPD2    C211879   1.373   1.085  12.574 -0.2987  0.0541  0.6218
  803MPD2    C311880   1.266   1.000  12.581 -0.5074 -0.2730  1.3276
  803MPD2    C411881   1.151   1.043  12.511 -0.3133  0.2057  0.4075
  803MPD2    C511882   1.164   1.143  12.417 -0.2381  0.3562  0.0857
  803MPD2     H11883   1.456   1.074  12.644  1.1881  0.5602 -1.0635
  803MPD2    H111884   1.060   0.984  12.507  0.0671 -0.2357 -2.0071
  803MPD2    H211885   1.285   1.301  12.335 -0.5309 -0.6116 -0.5558
  803MPD2    H311886   1.084   1.168  12.348 -2.8139 -1.0654  2.5456
  803MPD2     N11887   1.256   0.890  12.667  0.1399 -0.7488  0.0636
  803MPD2    H511888   1.171   0.834  12.672 -0.1804 -0.3481 -0.8559
  803MPD2    N111889   1.488   1.288  12.511  0.0632 -0.2724 -0.4549
  803MPD2    H711890   1.540   1.271  12.597  0.4307  1.2898 -0.3580
  804MPD2     C11891   0.866   2.493  17.235  0.4107 -0.2825 -0.2267
  804MPD2    C111892   0.928   2.367  17.244 -0.7278 -0.5047  0.1360
  804MPD2    C211893   1.068   2.368  17.249 -0.0234 -0.1378 -0.4124
  804MPD2    C311894   1.138   2.490  17.233 -0.5884 -0.1842 -0.4531
  804MPD2    C411895   1.072   2.611  17.206  1.0285 -0.1883  0.2071
  804MPD2    C511896   0.939   2.614  17.222 -0.5114 -0.1020 -0.1360
  804MPD2     H11897   1.132   2.282  17.261  0.4627  0.2295 -0.3899
  804MPD2    H111898   1.122   2.702  17.175 -1.8864  1.7474  1.1470
  804MPD2    H211899   0.760   2.520  17.236  0.0965 -1.3136 -5.0091
  804MPD2    H311900   0.890   2.707  17.194 -2.0729 -1.4888 -1.9948
  804MPD2     N11901   1.271   2.477  17.241  0.3375  0.1338  0.5018
  804MPD2    H511902   1.313   2.385  17.245 -2.9657 -1.4617 -1.5422
  804MPD2    N111903   0.852   2.247  17.259 -0.1373 -0.3027 -0.1604
  804MPD2    H711904   0.752   2.256  17.275 -0.1200  0.3924 -0.4606
  805MPD2     C11905   0.594   0.851  15.373 -0.4364 -0.1467 -0.5130
  805MPD2    C111906   0.639   0.724  15.402 -0.9324  0.2757 -0.5829
  805MPD2    C211907   0.731   0.716  15.504 -0.2254 -0.5939 -0.0907
  805MPD2    C311908   0.779   0.825  15.580  0.5396  0.3170  0.3459
  805MPD2    C411909   0.750   0.949  15.541  0.4827  0.4583  0.1535
  805MPD2    C511910   0.654   0.956  15.440  0.1437  0.5819 -0.0250
  805MPD2     H11911   0.773   0.619  15.528  4.1518  1.7027  1.5563
  805MPD2    H111912   0.795   1.039  15.582  2.0595 -0.4483  0.4098
  805MPD2    H211913   0.522   0.865  15.293 -0.6514 -2.0790 -0.6650
  805MPD2    H311914   0.615   1.054  15.419  2.4481  1.8601  1.6522
  805MPD2     N11915   0.876   0.810  15.687 -0.6354  0.4040 -0.3819
  805MPD2    H511916   0.897   0.895  15.737  0.3880 -0.7633  1.1915
  805MPD2    N111917   0.598   0.605  15.340  1.0464 -0.6734  0.1724
  805MPD2    H711918   0.661   0.526  15.342  0.7696 -0.9113 -0.7204
  806MPD2     C11919   0.842   0.044   1.252 -0.2889 -1.2584 -0.0608
  806MPD2    C111920   0.975   0.017   1.231  0.0488 -0.4459 -0.2739
  806MPD2    C211921   1.025   0.046   1.109  0.0251  0.4849 -0.0804
  806MPD2    C311922   0.952   0.113   1.009  0.2411 -0.1744  0.0163
  806MPD2    C411923   0.815   0.127   1.026  0.4321 -0.0017 -0.2022
  806MPD2    C511924   0.761   0.088   1.145  0.2587 -0.0531  0.1761
  806MPD2     H11925   1.130   0.028   1.092 -0.3481 -2.3314  0.6057
  806MPD2    H111926   0.755   0.176   0.950  0.8926  1.2117  0.2076
  806MPD2    H211927   0.800   0.013   1.347 -2.0352  1.8354  0.1793
  806MPD2    H311928   0.658   0.119   1.162  0.4588  0.9706 -0.4654
  806MPD2     N11929   1.004   0.162   0.887 -0.0347 -0.1530  0.8390
  806MPD2    H511930   0.943   0.208   0.820  0.6258 -0.7615 -0.1848
  806MPD2    N111931   1.043   4.702   1.343 -0.3930  0.1252  0.0424
  806MPD2    H711932   0.996   4.673   1.428 -0.0739 -0.0007  0.1748
  807MPD2     C11933   1.149   0.245   2.011 -0.3103  0.1852  0.4077
  807MPD2    C111934   1.088   0.140   1.945 -0.1979 -0.7980 -0.6209
  807MPD2    C211935   0.955   0.109   1.972  0.1984  0.0611 -0.1993
  807MPD2    C311936   0.887   0.190   2.063  0.5417 -0.7187  0.4691
  807MPD2    C411937   0.947   0.291   2.139 -0.2992 -0.2411 -0.4746
  807MPD2    C511938   1.077   0.317   2.112  0.3077  0.2710  0.1891
  807MPD2     H11939   0.914   0.032   1.909  0.2586  0.7653 -1.1073
  807MPD2    H111940   0.894   0.351   2.212 -0.3456 -0.8060 -0.0454
  807MPD2    H211941   1.252   0.269   1.988 -0.5973  0.7546 -0.3114
  807MPD2    H311942   1.128   0.404   2.153  2.2129 -0.7473 -0.0299
  807MPD2     N11943   0.752   0.150   2.085  0.4289  0.3988  0.8742
  807MPD2    H511944   0.724   0.061   2.045  0.5543  0.8138 -0.1352
  807MPD2    N111945   1.155   0.071   1.840  0.1143  0.1098 -0.2998
  807MPD2    H711946   1.095   0.014   1.780 -0.0463 -1.5619  1.4569
  808MPD2     C11947   0.833   1.441   9.747 -0.2569 -0.2429 -0.3861
  808MPD2    C111948   0.839   1.473   9.890 -0.8350  0.0660  0.1153
  808MPD2    C211949   0.921   1.569   9.933 -1.2957  0.7616  0.2946
  808MPD2    C311950   1.010   1.621   9.844 -0.5162  0.3976 -0.5740
  808MPD2    C411951   1.017   1.582   9.710 -0.3849  0.3045  0.2392
  808MPD2    C511952   0.924   1.497   9.662 -0.4966  0.5016  0.8608
  808MPD2     H11953   0.925   1.602  10.036  1.3230  1.5845 -0.0693
  808MPD2    H111954   1.093   1.627   9.647 -0.3727  1.6956  1.2387
  808MPD2    H211955   0.780   1.362   9.696  1.6276 -1.6161 -0.2298
  808MPD2    H311956   0.927   1.469   9.558 -0.1813 -1.0329  1.2865
  808MPD2     N11957   1.104   1.718   9.870 -0.7318  0.1534  0.3167
  808MPD2    H511958   1.170   1.744   9.797 -0.3958 -0.5630  0.3642
  808MPD2    N111959   0.765   1.397   9.987 -0.3200  0.2064  0.3775
  808MPD2    H711960   0.790   1.427  10.080 -0.3440 -0.2272  0.5253
  809MPD2     C11961   1.553   2.058   9.229 -0.0453  0.5463 -0.2115
  809MPD2    C111962   1.643   2.026   9.333  0.1704 -0.0642 -0.3466
  809MPD2    C211963   1.604   2.013   9.462  0.0350 -0.0325 -0.2718
  809MPD2    C311964   1.468   2.026   9.496 -0.9374  0.0980 -0.1644
  809MPD2    C411965   1.381   2.058   9.390 -0.5601  0.7369 -0.6275
  809MPD2    C511966   1.427   2.074   9.264  0.3028 -0.2552  0.3472
  809MPD2     H11967   1.676   1.976   9.534  3.2372  2.3699 -2.2429
  809MPD2    H111968   1.279   2.090   9.409 -0.5957 -0.3223  0.9172
  809MPD2    H211969   1.590   2.083   9.130 -0.0770  0.0331 -0.3561
  809MPD2    H311970   1.353   2.100   9.189  0.0060 -0.2942  0.6262
  809MPD2     N11971   1.417   2.005   9.623 -0.7170 -0.3808  0.7523
  809MPD2    H511972   1.315   2.013   9.625 -0.6592  0.8465 -1.0761
  809MPD2    N111973   1.767   1.977   9.298  0.0901 -0.1625  0.1735
  809MPD2    H711974   1.828   1.948   9.374  0.7305 -0.1201 -0.3196
  810MPD2     C11975   0.861   0.844  10.816 -0.1619  0.4282  0.8621
  810MPD2    C111976   0.818   0.934  10.715 -0.0254  0.2644 -0.6189
  810MPD2    C211977   0.893   1.048  10.684  0.0554 -0.1404  0.4968
  810MPD2    C311978   1.003   1.087  10.749 -0.0727 -0.3631  0.7962
  810MPD2    C411979   1.050   0.996  10.848  0.3567  0.3448  0.5569
  810MPD2    C511980   0.984   0.874  10.877 -1.0741  0.1810  0.7841
  810MPD2     H11981   0.863   1.114  10.603 -1.0275 -2.4188 -0.9467
  810MPD2    H111982   1.144   1.028  10.891  1.6959 -0.3144 -1.8482
  810MPD2    H211983   0.799   0.759  10.842  0.5594 -0.7196 -1.1377
  810MPD2    H311984   1.016   0.808  10.957  1.6029 -0.7867 -1.0554
  810MPD2     N11985   1.063   1.214  10.725  0.1462  0.0056  0.1418
  810MPD2    H511986   1.013   1.275  10.661  0.0397 -0.0035  0.2176
  810MPD2    N111987   0.693   0.910  10.665 -0.5186  0.4665 -0.7024
  810MPD2    H711988   0.646   0.820  10.675  0.1612  0.3870  1.6502
  811MPD2     C11989   4.665   1.104  10.124  0.4013  0.1786  0.5173
  811MPD2    C111990   0.043   1.152  10.183  0.7647  0.3342  0.5650
  811MPD2    C211991   0.073   1.284  10.169  0.5691  0.1726 -0.0299
  811MPD2    C311992   0.006   1.364  10.077 -0.1656  0.5019 -0.3033
  811MPD2    C411993   4.635   1.315  10.015  0.2057 -0.0573 -0.3844
  811MPD2    C511994   4.594   1.188  10.045 -0.5402  0.1130  0.4136
  811MPD2     H11995   0.148   1.331  10.231  0.1346 -0.6192  1.0958
  811MPD2    H111996   4.587   1.370   9.934  2.7047  2.0948 -0.4000
  811MPD2    H211997   4.627   1.004  10.138 -3.0252  1.3658 -0.5082
  811MPD2    H311998   4.497   1.158  10.006  2.0845 -2.4911 -4.1631
  811MPD2     N11999   0.060   1.496  10.053  0.5776 -0.4726 -0.3064
  811MPD2    H512000   0.116   1.528  10.131  2.4024 -1.3127 -1.2594
  811MPD2    N112001   0.127   1.064  10.260  0.0065  0.1401  0.2515
  811MPD2    H712002   0.104   0.965  10.264  1.9901 -0.3538 -0.1649
  812MPD2     C12003   4.382   0.922  12.490  0.2196 -0.6024  0.2724
  812MPD2    C112004   4.254   0.968  12.471  0.5422  0.6813 -0.0013
  812MPD2    C212005   4.166   0.963  12.581  0.1697 -0.5137  0.2663
  812MPD2    C312006   4.210   0.910  12.702  1.1531  0.0184 -0.3730
  812MPD2    C412007   4.338   0.857  12.713 -0.2025  0.2195  0.5651
  812MPD2    C512008   4.419   0.859  12.604 -1.1201 -0.1703 -0.6126
  812MPD2     H12009   4.065   1.002  12.582  0.1539 -0.5286 -0.7701
  812MPD2    H112010   4.379   0.799  12.795 -0.0011  1.2159  1.1786
  812MPD2    H212011   4.442   0.917  12.399  0.9551 -0.4439  0.7511
  812MPD2    H312012   4.517   0.812  12.604 -1.1012 -0.1229  0.2734
  812MPD2     N12013   4.116   0.901  12.807  0.5830 -0.6056 -0.8452
  812MPD2    H512014   4.023   0.925  12.775  0.8946  1.1119 -0.4542
  812MPD2    N112015   4.215   1.023  12.347  0.2413  0.6958  0.4465
  812MPD2    H712016   4.281   1.013  12.270  0.0069 -1.3466  0.5195
  813MPD2     C12017   3.242   2.775  13.152  1.2271  0.3933  0.3638
  813MPD2    C112018   3.255   2.849  13.266 -0.0016  0.4624 -0.3205
  813MPD2    C212019   3.155   2.835  13.360  0.9417  0.0109  0.5534
  813MPD2    C312020   3.048   2.746  13.339  0.0293 -0.5153  0.3204
  813MPD2    C412021   3.037   2.686  13.211  0.3540  0.1781 -1.0885
  813MPD2    C512022   3.136   2.700  13.123 -0.7834  0.3407 -1.1928
  813MPD2     H12023   3.155   2.893  13.451  1.1152  1.4024 -0.3319
  813MPD2    H112024   2.949   2.637  13.170 -0.4077 -1.6308  2.7531
  813MPD2    H212025   3.319   2.788  13.077 -1.4139  0.4106 -2.3645
  813MPD2    H312026   3.131   2.660  13.023 -0.0722 -0.3687 -0.9411
  813MPD2     N12027   2.949   2.735  13.441 -0.0358  0.3752 -0.2221
  813MPD2    H512028   2.943   2.808  13.511  0.3320 -0.6497  0.8626
  813MPD2    N112029   3.369   2.936  13.288 -0.4739 -0.1938 -0.6180
  813MPD2    H712030   3.440   2.936  13.216 -1.1370 -3.0893 -1.2897
  814MPD2     C12031   3.664   4.066  12.719 -0.7156  0.2669 -0.4673
  814MPD2    C112032   3.671   4.129  12.594 -0.2171  0.2125 -0.2412
  814MPD2    C212033   3.704   4.263  12.581 -0.2972  0.8902  0.4611
  814MPD2    C312034   3.749   4.328  12.699 -0.4065  0.1397  1.0123
  814MPD2    C412035   3.744   4.264  12.824  0.3647 -0.4188 -0.3890
  814MPD2    C512036   3.710   4.133  12.832 -0.2096 -0.1092  0.4589
  814MPD2     H12037   3.695   4.313  12.485  0.7459  0.0122 -0.1017
  814MPD2    H112038   3.774   4.313  12.916 -1.7949  1.7368 -0.8220
  814MPD2    H212039   3.629   3.965  12.733 -1.0218  0.4021 -0.2493
  814MPD2    H312040   3.689   4.086  12.927 -0.0772  1.6207  1.3545
  814MPD2     N12041   3.802   4.455  12.699  0.3286  0.2690  0.6684
  814MPD2    H512042   3.821   4.500  12.788  0.7075  0.7641  0.3352
  814MPD2    N112043   3.633   4.075  12.471 -0.7534  0.0920 -0.2810
  814MPD2    H712044   3.646   4.137  12.392 -2.4006 -1.1265 -1.5348
  815MPD2     C12045   4.203   2.778  11.617  0.2721  0.7987  0.1911
  815MPD2    C112046   4.245   2.651  11.627 -0.4638 -0.1124 -0.2354
  815MPD2    C212047   4.191   2.568  11.716 -0.2478 -0.1461 -0.1319
  815MPD2    C312048   4.085   2.609  11.800 -0.0111 -0.4559 -0.4797
  815MPD2    C412049   4.044   2.741  11.790 -0.2022 -0.2440  0.4388
  815MPD2    C512050   4.107   2.823  11.701 -0.6064  0.7813  0.2739
  815MPD2     H12051   4.225   2.465  11.727 -0.1106  0.1337  2.0531
  815MPD2    H112052   3.957   2.776  11.843  0.4728 -0.5598  1.7412
  815MPD2    H212053   4.260   2.842  11.551 -0.2879  0.4560 -0.6251
  815MPD2    H312054   4.084   2.929  11.702  0.7134  1.0389  2.5671
  815MPD2     N12055   4.003   2.518  11.866 -0.0379  0.4617 -0.1420
  815MPD2    H512056   4.014   2.420  11.842  0.0061  0.2063  0.9205
  815MPD2    N112057   4.344   2.608  11.526 -1.1851 -0.1615 -0.3070
  815MPD2    H712058   4.361   2.673  11.450 -2.3316 -0.8990 -1.1816
  816MPD2     C12059   0.142   2.078  17.499  0.3820 -0.0931 -0.0023
  816MPD2    C112060   0.060   2.079  17.390  0.0186  0.3983  0.0266
  816MPD2    C212061   0.110   2.016  17.270  0.1464 -0.7047  0.1944
  816MPD2    C312062   0.220   1.938  17.265 -0.3593  0.0351  0.5291
  816MPD2    C412063   0.286   1.921  17.387 -0.2156  0.4254  0.0653
  816MPD2    C512064   0.255   1.995  17.494  0.1561 -0.3032 -0.1837
  816MPD2     H12065   0.059   2.037  17.177  0.2458 -0.1691  0.2593
  816MPD2    H112066   0.367   1.848  17.388 -0.1941  0.4520  0.3932
  816MPD2    H212067   0.123   2.125  17.594 -0.9967 -1.9090  0.6084
  816MPD2    H312068   0.318   1.988  17.582  0.1977  0.8210 -0.1248
  816MPD2     N12069   0.257   1.878  17.143 -0.5235 -0.3424  0.4641
  816MPD2    H512070   0.199   1.877  17.059 -0.4916  0.4731  0.4262
  816MPD2    N112071   4.678   2.145  17.401  0.0633 -0.3857  0.1752
  816MPD2    H712072   4.658   2.183  17.494  0.1656 -1.8745  0.8022
  817MPD2     C12073   3.793   3.494   9.785 -0.4800 -0.1156  0.1696
  817MPD2    C112074   3.752   3.469   9.653  0.9009 -0.7942 -0.0278
  817MPD2    C212075   3.648   3.537   9.596 -0.6477  0.7218 -0.1272
  817MPD2    C312076   3.595   3.640   9.670 -0.2151  0.5488 -0.1806
  817MPD2    C412077   3.633   3.662   9.803  0.1571 -0.5107  0.3440
  817MPD2    C512078   3.732   3.594   9.857 -0.2148 -0.2210 -0.2196
  817MPD2     H12079   3.623   3.519   9.492  0.6120  0.1037 -0.3185
  817MPD2    H112080   3.591   3.746   9.857 -0.5202 -0.1365 -0.7570
  817MPD2    H212081   3.874   3.440   9.833  0.1140  1.3094  0.7708
  817MPD2    H312082   3.760   3.610   9.960  0.9665  0.1334 -0.5891
  817MPD2     N12083   3.509   3.725   9.609 -0.0571 -0.2205 -0.9905
  817MPD2    H512084   3.484   3.711   9.512 -2.3899 -3.2919  0.0657
  817MPD2    N112085   3.792   3.355   9.584 -0.3286  0.7241 -0.0847
  817MPD2    H712086   3.752   3.337   9.493  2.2242 -0.9717 -0.8913
  818MPD2     C12087   2.810   3.781  10.150 -0.1226 -0.5261 -0.0332
  818MPD2    C112088   2.858   3.723  10.268  0.2639 -0.1014 -0.4163
  818MPD2    C212089   2.944   3.616  10.254 -0.1148  0.9135 -0.0587
  818MPD2    C312090   2.977   3.565  10.129 -0.0048  0.0577  0.8110
  818MPD2    C412091   2.923   3.621  10.013  0.3194  0.0908  0.1879
  818MPD2    C512092   2.839   3.730  10.031  0.6655  0.0760 -0.4030
  818MPD2     H12093   2.966   3.554  10.340  1.0977  0.0068 -1.0195
  818MPD2    H112094   2.930   3.571   9.917 -0.8410 -0.3443  0.3291
  818MPD2    H212095   2.724   3.847  10.143  0.2732  0.0332  0.3504
  818MPD2    H312096   2.785   3.782   9.953 -0.7129 -1.2113 -0.3062
  818MPD2     N12097   3.049   3.447  10.118 -0.2088  0.5813  0.2755
  818MPD2    H512098   3.034   3.386  10.038  0.7966  0.9963 -0.2325
  818MPD2    N112099   2.795   3.745  10.386  0.0332 -0.7442  0.0280
  818MPD2    H712100   2.816   3.679  10.460  1.9683 -0.1770 -0.0071
  819MPD2     C12101   1.203   4.602  15.514 -0.2612  0.2994 -0.2234
  819MPD2    C112102   1.196   4.544  15.635  0.1838  0.2448 -0.0355
  819MPD2    C212103   1.308   4.580  15.714  0.0383  0.5774 -0.2094
  819MPD2    C312104   1.406   4.664  15.673 -0.1280  0.0482  0.1602
  819MPD2    C412105   1.401   4.719  15.548 -0.0338  0.4856  0.3608
  819MPD2    C512106   1.297   4.683  15.465 -1.1313 -0.5055  0.3822
  819MPD2     H12107   1.307   4.528  15.809 -3.2882 -0.2259 -0.6725
  819MPD2    H112108   1.480   0.047  15.511  0.3281  1.9131  3.6580
  819MPD2    H212109   1.130   4.568  15.440 -0.4580 -0.5550  0.3662
  819MPD2    H312110   1.295   4.702  15.358  0.8833 -1.8748  0.1035
  819MPD2     N12111   1.530   4.671  15.750  0.7164  0.1115  0.5285
  819MPD2    H512112   1.524   4.626  15.840  0.7810  2.1601  1.5575
  819MPD2    N112113   1.079   4.460  15.660 -0.4145  0.5373  0.5620
  819MPD2    H712114   1.014   4.459  15.582 -0.2559  0.8329  0.4245
  820MPD2     C12115   0.259   4.541  15.261  0.4675 -0.3518  0.9702
  820MPD2    C112116   0.348   4.627  15.321  0.2647 -0.0225 -0.1582
  820MPD2    C212117   0.445   4.581  15.411 -0.3095  0.3100  0.1416
  820MPD2    C312118   0.461   4.447  15.431  0.0278  0.1419 -1.0098
  820MPD2    C412119   0.386   4.362  15.356  0.0779  0.1650 -0.6681
  820MPD2    C512120   0.286   4.403  15.275 -0.1751  0.3808 -1.4180
  820MPD2     H12121   0.491   4.653  15.477  1.5336 -0.6946 -0.0515
  820MPD2    H112122   0.396   4.255  15.369 -0.3761  0.1481 -0.4502
  820MPD2    H212123   0.177   4.582  15.202 -1.1051 -0.5587  3.0036
  820MPD2    H312124   0.220   4.331  15.228  1.1993 -0.1858 -2.5111
  820MPD2     N12125   0.556   4.385  15.517 -0.3487 -0.4026 -0.3600
  820MPD2    H512126   0.554   4.283  15.524 -0.9509 -0.4085 -0.6417
  820MPD2    N112127   0.337   0.027  15.285 -0.3738  0.0634  0.1311
  820MPD2    H712128   0.255   0.049  15.228  1.4615  1.0444 -2.1382
  821MPD2     C12129   1.083   2.275  13.583  0.1875 -0.2366  0.2943
  821MPD2    C112130   1.104   2.152  13.522 -0.2113 -0.7404  0.7989
  821MPD2    C212131   1.216   2.083  13.554 -0.2212 -0.0665  0.4525
  821MPD2    C312132   1.319   2.136  13.620 -0.2727  0.7010 -0.8488
  821MPD2    C412133   1.300   2.265  13.665  0.4774 -0.9098  0.8591
  821MPD2    C512134   1.189   2.339  13.638 -0.1250  0.6453 -0.1027
  821MPD2     H12135   1.228   1.990  13.498  2.4612  0.4939  0.1018
  821MPD2    H112136   1.372   2.314  13.732 -0.9321  2.1294  0.1695
  821MPD2    H212137   0.989   2.329  13.589  0.7875  0.7559  0.7636
  821MPD2    H312138   1.183   2.431  13.694  0.7038  1.0702 -0.7082
  821MPD2     N12139   1.447   2.064  13.640 -1.0928 -1.0645  0.2374
  821MPD2    H512140   1.527   2.100  13.692 -0.7822 -2.1435  0.5235
  821MPD2    N112141   1.006   2.071  13.463  0.3094  0.0660  0.2082
  821MPD2    H712142   1.042   1.981  13.434 -0.6589 -0.3539  0.3391
  822MPD2     C12143   1.918   1.726  16.075  0.5243 -0.1612  0.5763
  822MPD2    C112144   1.852   1.731  16.196  0.3889  0.7080  0.2454
  822MPD2    C212145   1.758   1.832  16.212  0.4397 -0.2705 -0.4372
  822MPD2    C312146   1.725   1.930  16.117  0.4603 -1.0056  0.2263
  822MPD2    C412147   1.794   1.927  16.000 -0.7007  0.5345 -0.3717
  822MPD2    C512148   1.897   1.831  15.982 -0.6692  0.2330 -0.2150
  822MPD2     H12149   1.705   1.835  16.306 -0.5732  0.7974 -1.0356
  822MPD2    H112150   1.777   1.996  15.918 -0.3380  1.1577  0.0786
  822MPD2    H212151   1.991   1.652  16.044 -0.2952 -0.7856  0.1231
  822MPD2    H312152   1.955   1.829  15.891  1.8819  0.6495  1.3768
  822MPD2     N12153   1.641   2.037  16.157 -0.5533  0.0639 -0.1397
  822MPD2    H512154   1.596   2.031  16.248 -1.0550 -1.8123 -0.5200
  822MPD2    N112155   1.885   1.640  16.302  0.4135 -0.0411  0.2311
  822MPD2    H712156   1.831   1.632  16.388 -0.5245  4.6184  0.0342
  823MPD2     C12157   1.264   2.413  16.801  0.3539 -0.5949  0.1170
  823MPD2    C112158   1.320   2.306  16.727 -0.2803 -0.6073  0.8203
  823MPD2    C212159   1.318   2.176  16.781 -0.1202 -0.3176  0.9015
  823MPD2    C312160   1.260   2.146  16.904 -0.3769 -0.7450  0.3747
  823MPD2    C412161   1.207   2.250  16.967 -0.9938 -0.0339  0.3727
  823MPD2    C512162   1.200   2.380  16.920  0.0083 -0.5048 -0.4966
  823MPD2     H12163   1.368   2.102  16.720 -1.6268 -1.1825  0.7299
  823MPD2    H112164   1.150   2.223  17.056  0.6253  1.7038  1.9390
  823MPD2    H212165   1.259   2.517  16.773  3.1558 -0.4115  0.3237
  823MPD2    H312166   1.159   2.462  16.977  2.2329 -0.4535  1.0426
  823MPD2     N12167   1.254   2.015  16.964 -0.4999  0.0539 -0.2755
  823MPD2    H512168   1.219   2.001  17.058 -1.5905 -1.4669 -0.8917
  823MPD2    N112169   1.375   2.330  16.599 -0.6166 -0.4242  0.2681
  823MPD2    H712170   1.366   2.424  16.561  1.2520 -0.7541 -1.0170
  824MPD2     C12171   2.281   0.994  16.491  0.0773 -0.1781 -0.1123
  824MPD2    C112172   2.339   1.100  16.429 -0.3813  0.1949  0.4857
  824MPD2    C212173   2.431   1.084  16.322  0.0422 -0.1475 -0.0671
  824MPD2    C312174   2.454   0.961  16.275 -0.9486 -0.4592 -0.8970
  824MPD2    C412175   2.399   0.855  16.342  0.7983 -0.0332 -0.4082
  824MPD2    C512176   2.313   0.874  16.451  0.1567 -0.8414 -0.4398
  824MPD2     H12177   2.479   1.168  16.274 -2.0218  0.4349 -1.1327
  824MPD2    H112178   2.417   0.750  16.323  1.0520 -0.3290  1.5009
  824MPD2    H212179   2.205   1.002  16.568 -0.7698  2.1199 -1.1802
  824MPD2    H312180   2.273   0.786  16.501  2.1401 -2.2157 -1.2577
  824MPD2     N12181   2.550   0.941  16.182 -0.4671  0.2034 -0.2827
  824MPD2    H512182   2.607   1.020  16.152 -1.3036  1.1557  0.6557
  824MPD2    N112183   2.302   1.230  16.465  0.2531 -0.3370 -0.3106
  824MPD2    H712184   2.318   1.302  16.395  0.1252  1.1310  1.1652
  825MPD2     C12185   3.155   1.108  15.583 -0.1493 -0.9544 -0.0553
  825MPD2    C112186   3.029   1.127  15.630  0.4042 -0.0133  0.0854
  825MPD2    C212187   2.943   1.218  15.575  0.2996 -0.1400 -0.3015
  825MPD2    C312188   2.994   1.296  15.473  0.5147  0.9801  0.5897
  825MPD2    C412189   3.122   1.279  15.421  0.3341  0.3114 -0.0406
  825MPD2    C512190   3.197   1.175  15.479  0.1392 -0.2818  0.0927
  825MPD2     H12191   2.841   1.227  15.611  0.2985  0.8892 -0.5416
  825MPD2    H112192   3.158   1.340  15.340  0.0902  1.4783  0.7361
  825MPD2    H212193   3.216   1.028  15.623 -0.8465 -0.4109  2.1254
  825MPD2    H312194   3.293   1.147  15.436  0.1070 -1.4502  0.7892
  825MPD2     N12195   2.915   1.395  15.411 -0.0435 -0.0877 -0.0726
  825MPD2    H512196   2.940   1.435  15.321  0.3883 -0.7131 -0.2347
  825MPD2    N112197   2.987   1.053  15.748  0.2182 -0.1505  0.4023
  825MPD2    H712198   3.058   0.991  15.784  0.2275 -1.2603 -1.5210
  826MPD2     C12199   2.002   0.369  13.911  0.0008  0.6536 -0.5371
  826MPD2    C112200   2.057   0.492  13.894  0.1263  0.4864 -0.4686
  826MPD2    C212201   1.983   0.612  13.914 -0.1846 -0.2040  0.0273
  826MPD2    C312202   1.858   0.605  13.966  0.5309  0.5253 -1.1460
  826MPD2    C412203   1.807   0.481  13.995  0.1002 -0.7424 -0.2386
  826MPD2    C512204   1.870   0.369  13.953  0.4380  0.0027  0.2672
  826MPD2     H12205   2.025   0.707  13.882  0.6238 -1.2371 -1.9927
  826MPD2    H112206   1.718   0.478  14.056  0.7675 -0.0121  0.7697
  826MPD2    H212207   2.057   0.280  13.883  0.6401  1.7241 -2.7494
  826MPD2    H312208   1.831   0.273  13.983  1.1985 -1.3411 -3.0301
  826MPD2     N12209   1.790   0.718  14.014 -0.0673 -0.2199 -0.2560
  826MPD2    H512210   1.728   0.693  14.091  0.1335 -2.4190 -0.7864
  826MPD2    N112211   2.190   0.500  13.844 -0.0214 -0.1580  0.1390
  826MPD2    H712212   2.225   0.416  13.799 -0.4298 -0.8776  1.1635
  827MPD2     C12213   3.119   2.340  10.192  0.0832 -0.5014  0.5281
  827MPD2    C112214   3.141   2.207  10.212  0.2629 -0.0455  0.1994
  827MPD2    C212215   3.099   2.115  10.115  1.3324 -0.3958 -0.0220
  827MPD2    C312216   3.052   2.164   9.994  0.4001 -0.0769 -0.1569
  827MPD2    C412217   3.019   2.297   9.974  0.5698 -0.2015  0.3034
  827MPD2    C512218   3.057   2.383  10.080  0.3757 -0.0391 -0.2278
  827MPD2     H12219   3.095   2.007  10.126  1.8279 -0.6119 -2.0200
  827MPD2    H112220   2.981   2.335   9.880 -0.4000 -2.0260 -0.0354
  827MPD2    H212221   3.142   2.418  10.263 -1.3608 -0.2872  0.7550
  827MPD2    H312222   3.049   2.489  10.060  1.2724 -0.1724 -1.3078
  827MPD2     N12223   3.023   2.072   9.893  0.6792  0.2451  0.2516
  827MPD2    H512224   3.051   1.976   9.913 -0.9743 -0.3782 -0.4850
  827MPD2    N112225   3.211   2.170  10.326  0.7613 -0.3177 -0.2133
  827MPD2    H712226   3.264   2.235  10.383  2.7352  1.2009 -3.8081
  828MPD2     C12227   1.289   2.136  13.175  0.3424  0.2215 -1.0193
  828MPD2    C112228   1.338   2.107  13.053  0.4649  0.1697 -0.1031
  828MPD2    C212229   1.476   2.099  13.031 -0.0654 -0.4633  0.3759
  828MPD2    C312230   1.557   2.096  13.134  0.5071  0.5786 -0.5748
  828MPD2    C412231   1.510   2.115  13.260  0.3433  0.0296  0.4346
  828MPD2    C512232   1.378   2.150  13.277  0.5663 -0.7886  0.2155
  828MPD2     H12233   1.514   2.082  12.931  0.4950 -1.5484  0.7762
  828MPD2    H112234   1.575   2.111  13.347 -0.7069  2.0223  1.3286
  828MPD2    H212235   1.183   2.152  13.191  0.7156 -0.2878  2.0387
  828MPD2    H312236   1.344   2.172  13.377  0.2611 -1.4420  0.2592
  828MPD2     N12237   1.691   2.067  13.123  0.5191 -0.3466 -0.3898
  828MPD2    H512238   1.739   2.073  13.212  1.6315  0.7996 -1.0591
  828MPD2    N112239   1.262   2.083  12.940  0.3913  0.0569 -0.3755
  828MPD2    H712240   1.312   2.071  12.852 -1.7973  1.3094 -1.8019
  829MPD2     C12241   1.612   2.251  12.190  0.0860 -0.6113 -0.0089
  829MPD2    C112242   1.483   2.246  12.146  0.5528  0.0638 -0.0227
  829MPD2    C212243   1.380   2.225  12.238 -0.0975  0.9815  0.3298
  829MPD2    C312244   1.404   2.210  12.374  0.6025  0.0352  0.0961
  829MPD2    C412245   1.535   2.218  12.411  0.0427 -0.2540  0.4340
  829MPD2    C512246   1.636   2.244  12.328 -0.0924 -0.2712  0.0500
  829MPD2     H12247   1.277   2.208  12.209 -0.3500  0.6629  1.4369
  829MPD2    H112248   1.570   2.198  12.512  0.3199 -3.0204 -0.1861
  829MPD2    H212249   1.702   2.260  12.130  0.5451 -1.1902  0.5762
  829MPD2    H312250   1.734   2.248  12.375 -0.2620  0.8519  0.3064
  829MPD2     N12251   1.310   2.176  12.470 -0.1383  0.8289 -0.8140
  829MPD2    H512252   1.340   2.151  12.564 -3.5408  1.7303  0.5341
  829MPD2    N112253   1.464   2.270  12.006  0.3453  0.9679  0.2516
  829MPD2    H712254   1.547   2.297  11.953  0.3111 -0.1432 -0.3529
  830MPD2     C12255   2.313   0.232  16.121  0.2385 -0.3466  0.7959
  830MPD2    C112256   2.238   0.254  16.011 -0.2447 -0.6856  0.2688
  830MPD2    C212257   2.228   0.385  15.956  0.6937 -0.2149 -0.3298
  830MPD2    C312258   2.284   0.493  16.019 -0.3764 -0.4234 -0.1446
  830MPD2    C412259   2.355   0.470  16.138  0.1893 -0.9199  0.2712
  830MPD2    C512260   2.367   0.338  16.189  0.6895 -0.3289 -1.1527
  830MPD2     H12261   2.164   0.402  15.870 -0.3773  0.7316  0.6574
  830MPD2    H112262   2.404   0.554  16.187 -1.1867  0.0784 -0.0736
  830MPD2    H212263   2.323   0.142  16.180  1.3556  0.4610  1.8235
  830MPD2    H312264   2.406   0.320  16.289 -1.6256  0.2461 -0.1353
  830MPD2     N12265   2.288   0.627  15.976 -0.0950  0.1524 -0.1547
  830MPD2    H512266   2.340   0.699  16.025 -2.1507 -0.0748  2.3533
  830MPD2    N112267   2.160   0.145  15.972  0.2399  0.2047 -0.3925
  830MPD2    H712268   2.182   0.052  16.006 -0.0229  0.2423 -0.1169
  831MPD2     C12269   1.865   2.201  16.527 -0.5198 -0.0200 -0.5608
  831MPD2    C112270   1.897   2.077  16.494  0.0042 -0.5077 -0.0877
  831MPD2    C212271   1.815   1.971  16.523 -0.1290 -0.9050  0.2319
  831MPD2    C312272   1.711   1.986  16.604 -0.2556 -0.3064  0.8540
  831MPD2    C412273   1.696   2.112  16.655 -0.6461 -0.3104 -0.2796
  831MPD2    C512274   1.776   2.219  16.632  1.4195  0.2488  0.4871
  831MPD2     H12275   1.829   1.872  16.481  1.8691 -0.4427 -0.1816
  831MPD2    H112276   1.619   2.131  16.728 -0.3110 -1.1337  0.2965
  831MPD2    H212277   1.921   2.286  16.490  0.3003 -0.3081 -0.0084
  831MPD2    H312278   1.753   2.318  16.668 -1.9405 -0.7604  1.0862
  831MPD2     N12279   1.611   1.889  16.636  0.2649  0.0285 -0.3825
  831MPD2    H512280   1.535   1.927  16.691 -0.1695  1.1935 -1.7766
  831MPD2    N112281   2.003   2.066  16.403  0.0542 -0.3744  0.0653
  831MPD2    H712282   2.039   2.149  16.358 -0.0245  0.3707  1.4152
  832MPD2     C12283   0.038   3.017  17.261 -0.7295 -0.0187 -0.3546
  832MPD2    C112284   0.061   3.151  17.213 -0.7583  0.3917  0.0675
  832MPD2    C212285   4.691   3.221  17.160  0.1670  0.3706  0.3160
  832MPD2    C312286   4.559   3.170  17.163  0.2313 -0.1959  0.1269
  832MPD2    C412287   4.539   3.047  17.222  0.2760  0.2836 -0.0273
  832MPD2    C512288   4.643   2.976  17.268  0.0263  0.4471  0.9530
  832MPD2     H12289   4.702   3.324  17.126  1.4038  0.4324  0.9146
  832MPD2    H112290   4.440   3.008  17.239 -0.1492  2.2096  2.0096
  832MPD2    H212291   0.112   2.943  17.287  0.5227  1.7372  1.1530
  832MPD2    H312292   4.619   2.881  17.314 -2.0143  0.2633 -0.5435
  832MPD2     N12293   4.438   3.235  17.111 -0.8359  0.4670 -0.4177
  832MPD2    H512294   4.349   3.184  17.114 -0.3090 -0.3313  2.2670
  832MPD2    N112295   0.197   3.206  17.219  0.0533  0.1263 -0.1286
  832MPD2    H712296   0.260   3.162  17.286 -1.0003  2.8361  2.6572
  833MPD2     C12297   1.899   0.110  12.996 -0.3601 -0.4167  0.6460
  833MPD2    C112298   1.951   0.181  12.889 -0.7059 -0.2160 -0.3990
  833MPD2    C212299   2.076   0.149  12.840 -0.4288  0.4310  0.1068
  833MPD2    C312300   2.145   0.041  12.891 -0.4293 -0.1698 -0.1856
  833MPD2    C412301   2.091   4.706  12.992  0.2067  0.0502 -0.1926
  833MPD2    C512302   1.965   0.006  13.043  0.2117 -0.1152  0.3280
  833MPD2     H12303   2.120   0.194  12.752 -0.3152 -1.2424 -0.6879
  833MPD2    H112304   2.136   4.613  13.028  0.0673 -0.0160 -0.1886
  833MPD2    H212305   1.800   0.132  13.033 -1.9917 -2.7002 -2.3576
  833MPD2    H312306   1.905   4.683  13.111 -0.4367  0.0705 -0.0711
  833MPD2     N12307   2.262   0.009  12.823  0.0942 -0.4436  0.1517
  833MPD2    H512308   2.288   0.075  12.750  2.0814 -0.0620  1.2110
  833MPD2    N112309   1.876   0.289  12.840 -0.2718 -0.9283 -0.3968
  833MPD2    H712310   1.798   0.314  12.899 -0.4245 -1.1930 -0.4902
  834MPD2     C12311   2.573   4.153  12.046  0.1893 -0.2686 -0.3682
  834MPD2    C112312   2.481   4.253  12.020 -0.2525 -0.3146 -0.1615
  834MPD2    C212313   2.450   4.336  12.127  0.6661 -0.5101  0.2850
  834MPD2    C312314   2.519   4.326  12.251 -0.1293 -0.1804  0.6734
  834MPD2    C412315   2.627   4.239  12.263  0.0630  0.6025 -0.2014
  834MPD2    C512316   2.650   4.153  12.157 -0.4505 -0.2724  0.3272
  834MPD2     H12317   2.376   4.414  12.115  1.5053  0.5511  1.9426
  834MPD2    H112318   2.677   4.216  12.356  0.3788 -1.5349 -0.8918
  834MPD2    H212319   2.600   4.097  11.957 -0.0822  0.5578 -0.9798
  834MPD2    H312320   2.727   4.080  12.179 -0.3494  0.5700  2.8063
  834MPD2     N12321   2.488   4.419  12.352  0.0321  0.6542  0.1356
  834MPD2    H512322   2.424   4.488  12.315  2.3363  2.2450 -0.8593
  834MPD2    N112323   2.412   4.245  11.892  0.0134 -0.5040 -0.2478
  834MPD2    H712324   2.443   4.171  11.830  1.0433  0.3625 -0.7799
  835MPD2     C12325   2.145   2.423  11.238 -0.0549  0.2244 -0.1360
  835MPD2    C112326   2.088   2.471  11.358 -0.5557  0.1965  0.0071
  835MPD2    C212327   2.169   2.483  11.472 -0.0416  0.0321 -0.2704
  835MPD2    C312328   2.302   2.450  11.465  0.4828 -0.9364 -0.2899
  835MPD2    C412329   2.353   2.415  11.345 -0.3240 -0.0667 -0.4240
  835MPD2    C512330   2.281   2.405  11.232 -0.8085 -0.2656  0.0542
  835MPD2     H12331   2.127   2.515  11.567 -0.8375  1.1634 -1.0061
  835MPD2    H112332   2.459   2.391  11.347  0.5634  3.9195  2.6502
  835MPD2    H212333   2.097   2.401  11.144  2.6437 -0.1349 -1.4275
  835MPD2    H312334   2.330   2.381  11.139 -0.5255 -1.8722  0.6090
  835MPD2     N12335   2.394   2.439  11.572  0.6132  0.2767 -0.6028
  835MPD2    H512336   2.494   2.433  11.555  0.9120  2.3199  0.3506
  835MPD2    N112337   1.952   2.504  11.375 -0.3001  0.5117  0.6348
  835MPD2    H712338   1.926   2.549  11.462 -0.9134  2.7037 -0.6569
  836MPD2     C12339   2.121   2.320  12.242  0.8699  0.1177  0.2045
  836MPD2    C112340   2.254   2.349  12.266 -0.4388 -0.6133 -0.1801
  836MPD2    C212341   2.295   2.357  12.395  0.8340  1.2370 -0.3221
  836MPD2    C312342   2.203   2.345  12.502 -0.0703  0.3262  0.2701
  836MPD2    C412343   2.071   2.316  12.474  0.3194 -0.1588 -0.8960
  836MPD2    C512344   2.023   2.311  12.346 -0.2902  0.5940  0.2506
  836MPD2     H12345   2.402   2.362  12.409  0.8547  1.9883 -0.7584
  836MPD2    H112346   1.995   2.324  12.550 -0.7547 -3.6328 -1.5822
  836MPD2    H212347   2.079   2.303  12.143 -0.9425  0.0537  0.9723
  836MPD2    H312348   1.921   2.287  12.320 -1.3410  1.9204  3.0602
  836MPD2     N12349   2.236   2.373  12.636  0.7707  0.6241 -1.2272
  836MPD2    H512350   2.164   2.365  12.707  0.3673 -1.0286 -1.8271
  836MPD2    N112351   2.337   2.348  12.148 -0.3438 -0.0831  0.2640
  836MPD2    H712352   2.290   2.344  12.058  1.8876  2.2425 -0.9967
  837MPD2     C12353   0.529   1.998  10.349 -0.0740  0.2771  0.5186
  837MPD2    C112354   0.471   2.046  10.236  0.5900  0.0602 -0.6757
  837MPD2    C212355   0.520   2.163  10.188 -0.2143 -0.0533  0.3330
  837MPD2    C312356   0.636   2.223  10.237 -0.3582  0.0132 -0.2305
  837MPD2    C412357   0.692   2.167  10.350 -0.0395  0.0835  0.3775
  837MPD2    C512358   0.643   2.055  10.401 -1.0552  0.1318 -0.3027
  837MPD2     H12359   0.478   2.212  10.101  0.5284  0.4837  0.2775
  837MPD2    H112360   0.791   2.200  10.379 -0.6254  3.0277 -0.8664
  837MPD2    H212361   0.506   1.903  10.397  2.4129 -2.2421 -3.3199
  837MPD2    H312362   0.702   2.002  10.475  0.6376  0.3177 -1.5151
  837MPD2     N12363   0.686   2.329  10.157 -0.6418 -0.1590 -0.4191
  837MPD2    H512364   0.627   2.364  10.083 -2.8763 -0.4270  1.2275
  837MPD2    N112365   0.355   1.997  10.175 -0.5271 -0.3101 -0.0745
  837MPD2    H712366   0.328   2.052  10.094 -0.4708 -0.8426 -0.4574
  838MPD2     C12367   3.733   0.291  12.542 -0.1871 -0.5317 -0.2430
  838MPD2    C112368   3.651   0.206  12.465  0.0420 -0.9095  0.3097
  838MPD2    C212369   3.522   0.197  12.497  0.2725 -0.2331  0.5054
  838MPD2    C312370   3.468   0.266  12.605 -0.6547  0.1502  1.2717
  838MPD2    C412371   3.546   0.352  12.679  0.5272 -0.2387 -0.2742
  838MPD2    C512372   3.677   0.366  12.640 -0.9241  0.5167 -0.2047
  838MPD2     H12373   3.464   0.119  12.449 -2.3164  2.5304 -0.7962
  838MPD2    H112374   3.512   0.412  12.763  2.4613 -0.7602  0.8868
  838MPD2    H212375   3.841   0.301  12.531 -0.4092  1.7645 -0.2497
  838MPD2    H312376   3.731   0.447  12.687 -0.6970 -1.0848  2.2676
  838MPD2     N12377   3.336   0.233  12.636 -0.3693 -0.5050  0.3453
  838MPD2    H512378   3.284   0.166  12.581  1.1601 -1.5958  0.2373
  838MPD2    N112379   3.693   0.123  12.359  0.9643  0.7412  0.2632
  838MPD2    H712380   3.626   0.053  12.328  0.0061  1.3639  0.9248
  839MPD2     C12381   3.275   4.208  12.199 -0.3115 -0.3166  0.1626
  839MPD2    C112382   3.305   4.256  12.071  1.0510  0.6039 -0.0486
  839MPD2    C212383   3.414   4.341  12.046 -0.2356 -0.8852 -0.6593
  839MPD2    C312384   3.495   4.371  12.154 -0.3508 -0.6552 -0.8838
  839MPD2    C412385   3.458   4.327  12.280 -0.1669 -0.0547  0.3326
  839MPD2    C512386   3.348   4.252  12.299  0.3037  0.7267 -0.1410
  839MPD2     H12387   3.435   4.371  11.944  1.5424 -0.5005 -0.1924
  839MPD2    H112388   3.516   4.359  12.366  0.6954  0.9234 -0.5990
  839MPD2    H212389   3.195   4.140  12.224 -0.8600 -0.1202 -1.0504
  839MPD2    H312390   3.310   4.240  12.399  0.3699  1.1499 -0.0649
  839MPD2     N12391   3.612   4.452  12.148  0.1154 -0.0258  0.2889
  839MPD2    H512392   3.662   4.459  12.236 -0.3356 -2.3982  0.7541
  839MPD2    N112393   3.236   4.202  11.958  0.0490 -0.3208 -0.4956
  839MPD2    H712394   3.272   4.220  11.865  1.5041  3.8213  0.8376
  840MPD2     C12395   3.634   2.529  10.433  0.2240  0.9739  0.6298
  840MPD2    C112396   3.665   2.438  10.522  0.9325  0.5841  0.0383
  840MPD2    C212397   3.759   2.481  10.620  0.3697  0.3596 -0.2874
  840MPD2    C312398   3.835   2.602  10.615  0.1988 -0.3409  0.4846
  840MPD2    C412399   3.794   2.688  10.513  0.1808 -0.2245  0.6382
  840MPD2    C512400   3.700   2.648  10.428  0.0170  0.2119  0.4346
  840MPD2     H12401   3.781   2.414  10.702 -0.3082 -0.7597 -1.0210
  840MPD2    H112402   3.825   2.792  10.508  3.3597 -1.1278  1.8845
  840MPD2    H212403   3.558   2.513  10.357 -0.6917  1.6804  1.3998
  840MPD2    H312404   3.656   2.725  10.366 -1.1082 -0.9840 -0.2618
  840MPD2     N12405   3.927   2.650  10.715 -0.3667  0.4872  0.2816
  840MPD2    H512406   3.976   2.736  10.695 -0.7505  0.5767 -0.2902
  840MPD2    N112407   3.595   2.316  10.516  0.3943 -0.2297  0.2606
  840MPD2    H712408   3.516   2.309  10.452 -0.5807 -3.9409  1.8342
  841MPD2     C12409   3.484   3.044  13.941 -0.0649 -0.9606 -0.5983
  841MPD2    C112410   3.469   2.946  14.039 -0.3000 -0.5920  0.6417
  841MPD2    C212411   3.565   2.929  14.140  0.9636  0.2855  0.2380
  841MPD2    C312412   3.677   3.017  14.146  0.0060 -0.1410  0.9815
  841MPD2    C412413   3.696   3.104  14.039  0.7189  0.0378 -0.2459
  841MPD2    C512414   3.596   3.121  13.943  0.6268  0.1192 -0.3378
  841MPD2     H12415   3.556   2.856  14.219 -0.3519  0.6582  0.4404
  841MPD2    H112416   3.783   3.167  14.027  0.5785 -0.0648 -1.7561
  841MPD2    H212417   3.408   3.054  13.864  0.4502  0.4154 -0.9154
  841MPD2    H312418   3.616   3.193  13.864  2.2614  1.1824  1.0470
  841MPD2     N12419   3.758   3.012  14.263 -0.3768  0.2573 -0.1854
  841MPD2    H512420   3.745   2.932  14.325  1.3142  0.1183 -0.0082
  841MPD2    N112421   3.357   2.859  14.037 -0.0545 -0.5935 -0.6150
  841MPD2    H712422   3.359   2.783  14.105  1.5110  0.4625  0.5350
  842MPD2     C12423   4.119   3.695  16.931 -0.2400  0.1096  0.0291
  842MPD2    C112424   4.005   3.624  16.902  0.0919  0.2534  0.2608
  842MPD2    C212425   3.944   3.555  17.010 -0.8767 -0.0241  0.5558
  842MPD2    C312426   4.006   3.546  17.138  0.0395  0.3018 -0.3785
  842MPD2    C412427   4.124   3.614  17.153  0.3086  0.2707 -0.1311
  842MPD2    C512428   4.180   3.685  17.049  0.4387  0.3532 -0.1243
  842MPD2     H12429   3.865   3.481  17.001 -0.5509 -0.2842 -0.1438
  842MPD2    H112430   4.177   3.613  17.248 -1.4475 -2.9487  0.8301
  842MPD2    H212431   4.185   3.729  16.852 -0.5556  0.6820  0.0054
  842MPD2    H312432   4.275   3.733  17.069  0.8833 -0.8470  0.6209
  842MPD2     N12433   3.954   3.482  17.256  0.9382  0.3135  0.4568
  842MPD2    H512434   4.010   3.483  17.341  1.1221 -1.6865  0.3511
  842MPD2    N112435   3.966   3.626  16.768  0.1430  0.3971  0.3297
  842MPD2    H712436   4.013   3.694  16.709 -0.5607  0.6629  0.0815
  843MPD2     C12437   1.298   3.425   0.206 -0.0048  0.2408 -0.1152
  843MPD2    C112438   1.408   3.357   0.252 -0.0296  0.0299  0.3120
  843MPD2    C212439   1.526   3.424   0.250 -0.0062 -0.4084  0.5840
  843MPD2    C312440   1.533   3.547   0.192  0.1679  0.0275 -0.4265
  843MPD2    C412441   1.419   3.615   0.165  0.4447  0.2850 -0.5650
  843MPD2    C512442   1.297   3.558   0.178  0.4810  0.7814  0.3781
  843MPD2     H12443   1.616   3.369   0.275  1.8999  1.7232 -1.5898
  843MPD2    H112444   1.430   3.720   0.143 -0.2273  0.7895  1.5621
  843MPD2    H212445   1.201   3.379   0.213 -0.2881  0.8253 -0.2183
  843MPD2    H312446   1.209   3.618   0.154 -0.1662 -0.0646  0.6355
  843MPD2     N12447   1.650   3.613   0.180 -0.3232 -0.0207 -0.3827
  843MPD2    H512448   1.647   3.699   0.127 -1.7892  0.3486  0.3070
  843MPD2    N112449   1.411   3.217   0.286  0.0440 -0.2610 -0.2568
  843MPD2    H712450   1.501   3.178   0.311 -0.7476 -0.6541  1.9716
  844MPD2     C12451   4.427   2.582  16.400  0.5213 -0.4509  0.4963
  844MPD2    C112452   4.570   2.582  16.406  0.2529  0.5198 -0.5324
  844MPD2    C212453   4.630   2.666  16.499  0.7286 -0.2381  0.2893
  844MPD2    C312454   4.554   2.741  16.585  0.0664 -0.1290 -0.1054
  844MPD2    C412455   4.420   2.734  16.580 -0.3216 -0.6571 -0.0648
  844MPD2    C512456   4.356   2.648  16.493  0.4770  0.5094  0.0634
  844MPD2     H12457   0.000   2.673  16.509  0.6635  1.7162 -0.4843
  844MPD2    H112458   4.350   2.786  16.644  1.5493 -1.3053  2.4764
  844MPD2    H212459   4.366   2.534  16.324 -0.0770  1.9611 -0.5458
  844MPD2    H312460   4.248   2.648  16.489  0.5448  0.5444 -1.5906
  844MPD2     N12461   4.617   2.833  16.675 -0.4869 -0.0534  0.2079
  844MPD2    H512462   4.717   2.825  16.684 -0.2100  0.0604 -2.6862
  844MPD2    N112463   4.644   2.515  16.308  0.6877  0.0310  0.4719
  844MPD2    H712464   0.006   2.494  16.311  0.8067  0.1843 -1.9932
  845MPD2     C12465   0.137   3.868  16.786 -0.1769 -0.2698  0.2907
  845MPD2    C112466   0.141   3.813  16.907 -1.2074 -0.1645  0.0468
  845MPD2    C212467   0.118   3.682  16.914  0.3111  0.0805  0.4441
  845MPD2    C312468   0.075   3.608  16.813 -0.6535 -0.3557 -0.0120
  845MPD2    C412469   0.055   3.671  16.691  0.1784 -0.0804  0.3007
  845MPD2    C512470   0.088   3.803  16.679  0.0492  0.0628 -0.0637
  845MPD2     H12471   0.133   3.640  17.013 -0.7835 -0.0031  0.5728
  845MPD2    H112472   0.012   3.621  16.605 -1.2949 -0.6497  1.3654
  845MPD2    H212473   0.138   3.976  16.778 -1.1539 -0.3273 -0.6422
  845MPD2    H312474   0.058   3.849  16.586  1.1904  2.8054  0.9138
  845MPD2     N12475   0.047   3.473  16.838  0.3931 -0.0648 -0.0736
  845MPD2    H512476   0.078   3.436  16.927 -1.3244 -0.2920  0.4197
  845MPD2    N112477   0.168   3.900  17.019  0.2058  0.2407 -0.5240
  845MPD2    H712478   0.164   3.999  16.997  1.8976  0.3100 -0.4686
  846MPD2     C12479   1.447   4.199  14.026 -1.0638  0.1794 -0.0551
  846MPD2    C112480   1.555   4.259  14.080 -0.6596  0.8557  0.6826
  846MPD2    C212481   1.612   4.200  14.192  0.6482  0.2692 -0.1380
  846MPD2    C312482   1.577   4.080  14.250 -0.2065 -0.0361 -0.4913
  846MPD2    C412483   1.461   4.025  14.195 -0.2916 -0.4830 -0.3322
  846MPD2    C512484   1.399   4.082  14.087 -0.2838  0.9435  0.2806
  846MPD2     H12485   1.690   4.258  14.240 -0.6779  0.2832  2.0041
  846MPD2    H112486   1.405   3.944  14.241  0.6329  0.2722  2.1692
  846MPD2    H212487   1.384   4.240  13.948 -1.0108  1.1551  0.4137
  846MPD2    H312488   1.298   4.051  14.062  1.4161 -2.4235 -2.3001
  846MPD2     N12489   1.645   4.035  14.365 -0.7005  0.3442  0.4501
  846MPD2    H512490   1.711   4.093  14.414  0.3113  0.4749 -1.0504
  846MPD2    N112491   1.610   4.377  14.025  0.2246  0.4047 -0.3694
  846MPD2    H712492   1.691   4.417  14.071  1.5985 -1.1738 -1.3981
  847MPD2     C12493   2.214   0.623  14.669  0.3000  0.2688 -0.5396
  847MPD2    C112494   2.186   0.559  14.786  0.8651  0.0746 -0.1218
  847MPD2    C212495   2.104   0.446  14.787  0.4763 -0.2918 -0.1769
  847MPD2    C312496   2.057   0.390  14.666 -0.9294  0.5961  0.4160
  847MPD2    C412497   2.085   0.453  14.552 -0.3544  0.7092  0.0780
  847MPD2    C512498   2.161   0.569  14.555  0.3978 -0.7688 -0.1486
  847MPD2     H12499   2.072   0.406  14.882 -0.1671 -0.1888 -0.3479
  847MPD2    H112500   2.049   0.421  14.455 -1.4058 -0.8314  0.9856
  847MPD2    H212501   2.274   0.713  14.655 -2.1445  2.0713  0.6738
  847MPD2    H312502   2.186   0.622  14.464 -1.7554  0.1715 -0.1946
  847MPD2     N12503   1.976   0.274  14.678  0.3738  0.2926  0.3675
  847MPD2    H512504   1.968   0.240  14.773  2.1951  0.8387  0.7096
  847MPD2    N112505   2.218   0.616  14.915  0.0320 -0.4108 -1.2216
  847MPD2    H712506   2.177   0.573  14.997 -0.3212  1.1505 -0.5766
  848MPD2     C12507   4.262   3.407  16.341  0.3773 -0.0802  0.2113
  848MPD2    C112508   4.350   3.447  16.436 -0.2423  0.0336 -0.6869
  848MPD2    C212509   4.463   3.529  16.403 -0.0103 -0.1297  0.0850
  848MPD2    C312510   4.466   3.583  16.279 -0.9981  0.4052 -0.7368
  848MPD2    C412511   4.377   3.541  16.185 -0.6317  0.0870 -0.2257
  848MPD2    C512512   4.279   3.453  16.211  0.4539 -0.5199 -0.5328
  848MPD2     H12513   4.523   3.550  16.490 -0.3468  1.6915 -0.1124
  848MPD2    H112514   4.365   3.580  16.084  1.7906 -0.0989 -0.5769
  848MPD2    H212515   4.188   3.330  16.355  0.2476 -0.2271 -1.2168
  848MPD2    H312516   4.200   3.429  16.140  0.0936 -1.4835  0.1911
  848MPD2     N12517   4.549   3.689  16.237 -0.0895 -0.1519 -0.5066
  848MPD2    H512518   4.525   3.721  16.144  3.0807 -1.3630 -1.7290
  848MPD2    N112519   4.343   3.401  16.569  0.0121 -0.5693  0.2868
  848MPD2    H712520   4.424   3.431  16.623  0.1086 -0.0018 -0.1652
  849MPD2     C12521   4.191   3.729  14.752  0.2271 -0.1109  0.4512
  849MPD2    C112522   4.237   3.748  14.619  0.3565 -0.6638  0.2121
  849MPD2    C212523   4.347   3.830  14.603 -0.5598  0.8589  0.0819
  849MPD2    C312524   4.399   3.893  14.715  0.1250  0.1013  0.1097
  849MPD2    C412525   4.354   3.875  14.843  0.1293  0.5269 -0.5989
  849MPD2    C512526   4.248   3.785  14.861  0.7471  0.1203 -0.2608
  849MPD2     H12527   4.394   3.846  14.507 -0.3580  1.9138  0.3521
  849MPD2    H112528   4.389   3.925  14.932  0.3353 -1.1379  0.2472
  849MPD2    H212529   4.115   3.656  14.776 -0.2792  0.4889  0.7035
  849MPD2    H312530   4.207   3.779  14.961 -0.2723 -0.6350 -0.7263
  849MPD2     N12531   4.492   3.984  14.682 -0.4509  0.1954  0.2748
  849MPD2    H512532   4.518   3.989  14.584 -0.1800  1.7931  0.4117
  849MPD2    N112533   4.172   3.688  14.510  0.5326  0.3693 -0.2018
  849MPD2    H712534   4.117   3.605  14.530  0.1538  0.8117  0.5873
  850MPD2     C12535   1.747   1.827  15.561  0.1054  0.0336  0.4054
  850MPD2    C112536   1.744   1.726  15.660  0.4105  0.4142 -0.0657
  850MPD2    C212537   1.865   1.658  15.686 -1.1210 -0.0768  0.6192
  850MPD2    C312538   1.976   1.662  15.601  0.5709 -0.1844  0.0586
  850MPD2    C412539   1.977   1.762  15.508 -0.0004  0.4376 -0.7928
  850MPD2    C512540   1.867   1.844  15.492  0.0754  0.4623  0.4492
  850MPD2     H12541   1.856   1.582  15.762  0.5706  0.2007  1.0999
  850MPD2    H112542   2.065   1.773  15.446 -0.6120  2.0014 -1.3702
  850MPD2    H212543   1.658   1.880  15.529 -1.0141 -0.9322  1.8916
  850MPD2    H312544   1.868   1.910  15.407  0.9697  0.6977  0.6352
  850MPD2     N12545   2.092   1.576  15.611 -0.3296 -0.5765 -0.5349
  850MPD2    H512546   2.175   1.610  15.565 -0.5016  0.6303  0.0415
  850MPD2    N112547   1.617   1.715  15.719 -0.5106 -0.1144 -0.0388
  850MPD2    H712548   1.545   1.783  15.695  0.0856  1.2269  2.0172
  851MPD2     C12549   1.751   1.253  16.318  0.0214 -0.1825 -0.0880
  851MPD2    C112550   1.751   1.310  16.189  0.4235  0.4088  0.4007
  851MPD2    C212551   1.855   1.273  16.107 -0.1328  0.3207  0.1429
  851MPD2    C312552   1.947   1.177  16.151 -0.5809  0.4986 -0.4023
  851MPD2    C412553   1.939   1.115  16.273 -0.6236  0.1121  0.5682
  851MPD2    C512554   1.842   1.163  16.361  0.8242 -0.5746  0.0011
  851MPD2     H12555   1.865   1.309  16.005 -0.6124 -1.1599 -0.4305
  851MPD2    H112556   2.015   1.050  16.314 -1.3439 -0.3129  1.2269
  851MPD2    H212557   1.668   1.262  16.387  1.1292  1.9184  0.9925
  851MPD2    H312558   1.840   1.125  16.462 -1.5459 -3.1127 -0.9794
  851MPD2     N12559   2.054   1.144  16.057 -0.2072  0.2914 -0.4205
  851MPD2    H512560   2.055   1.195  15.969  0.0661 -0.7224 -1.0102
  851MPD2    N112561   1.650   1.392  16.141  0.9026  0.3968  0.3680
  851MPD2    H712562   1.672   1.437  16.053 -0.6836 -0.7607 -0.6253
  852MPD2     C12563   1.676   3.228  10.423  0.4800  0.2257 -0.8427
  852MPD2    C112564   1.703   3.319  10.528  0.3862  0.3974 -0.0192
  852MPD2    C212565   1.809   3.412  10.505  0.0282 -0.1261 -0.0989
  852MPD2    C312566   1.873   3.422  10.386 -0.0099 -0.4941 -0.5880
  852MPD2    C412567   1.841   3.329  10.285  0.2279  0.1806 -0.1396
  852MPD2    C512568   1.737   3.240  10.302  0.2831  0.4327  0.7919
  852MPD2     H12569   1.829   3.485  10.583 -1.6023  1.8862 -1.5852
  852MPD2    H112570   1.896   3.338  10.192 -2.7411 -3.3020 -2.2715
  852MPD2    H212571   1.607   3.145  10.433  0.1375  0.7992  1.6238
  852MPD2    H312572   1.722   3.165  10.225  1.4751  0.6513  0.3453
  852MPD2     N12573   1.973   3.522  10.388 -0.7403 -0.7367 -0.4892
  852MPD2    H512574   2.003   3.564  10.476  1.7526 -2.4595 -0.5064
  852MPD2    N112575   1.636   3.315  10.643 -0.1005  0.3795 -0.0535
  852MPD2    H712576   1.673   3.375  10.717  0.1154 -0.9106  0.8868
  853MPD2     C12577   3.240   3.183  12.809  0.9472 -0.1231 -0.2090
  853MPD2    C112578   3.144   3.280  12.762  0.5550  0.4010 -0.3309
  853MPD2    C212579   3.121   3.284  12.627  0.3942  0.1939  0.1351
  853MPD2    C312580   3.176   3.197  12.538 -0.0972  0.5295 -0.0096
  853MPD2    C412581   3.264   3.098  12.587 -0.5442  0.0598  0.1587
  853MPD2    C512582   3.296   3.084  12.724  0.0326 -0.2912  0.0692
  853MPD2     H12583   3.061   3.364  12.584 -0.2679 -0.1306  0.4561
  853MPD2    H112584   3.317   3.030  12.521 -1.5143 -1.1681  0.6354
  853MPD2    H212585   3.273   3.174  12.912 -0.5209 -0.2197  0.2579
  853MPD2    H312586   3.355   3.002  12.762  1.2627  0.9528  0.8099
  853MPD2     N12587   3.147   3.193  12.399  0.1886 -0.0556  0.2998
  853MPD2    H512588   3.179   3.107  12.355 -5.0594 -2.0103  0.2911
  853MPD2    N112589   3.074   3.360  12.861  0.0754 -0.4924 -0.0897
  853MPD2    H712590   3.104   3.358  12.958 -0.8204 -0.4817  0.1924
  854MPD2     C12591   0.461   4.130  12.995  0.2365 -0.1731 -1.3288
  854MPD2    C112592   0.388   4.039  12.924  0.3091  0.2009  0.0458
  854MPD2    C212593   0.435   3.909  12.898 -0.3363  0.2380  0.2201
  854MPD2    C312594   0.549   3.866  12.962  0.4575  0.3067  0.4642
  854MPD2    C412595   0.620   3.955  13.047 -0.3368  0.1154  0.8774
  854MPD2    C512596   0.577   4.084  13.055 -0.0047 -0.1843  0.0436
  854MPD2     H12597   0.380   3.852  12.824 -1.4787  1.1224  0.3854
  854MPD2    H112598   0.710   3.925  13.100 -0.4613  0.0497  1.0489
  854MPD2    H212599   0.427   4.232  13.006  2.0458  0.3572 -0.5439
  854MPD2    H312600   0.626   4.154  13.122 -0.4606 -0.9083  1.1385
  854MPD2     N12601   0.606   3.743  12.930 -0.2836  0.2137  0.2448
  854MPD2    H512602   0.693   3.719  12.976  0.0192  1.1295  0.1308
  854MPD2    N112603   0.279   4.092  12.852 -1.1482  0.3441 -0.0116
  854MPD2    H712604   0.266   4.192  12.853 -0.4813  0.4212  0.5146
  855MPD2     C12605   0.859   3.474  13.594  0.4944 -0.3428 -0.4580
  855MPD2    C112606   0.837   3.350  13.534  0.3860 -0.2193 -0.0970
  855MPD2    C212607   0.824   3.338  13.399 -0.3549  0.3995 -0.7284
  855MPD2    C312608   0.834   3.461  13.327  0.5168 -0.0935 -0.0831
  855MPD2    C412609   0.856   3.580  13.385  0.3148 -0.0534 -0.8955
  855MPD2    C512610   0.868   3.588  13.519 -0.0553  0.0746 -0.0502
  855MPD2     H12611   0.793   3.245  13.352 -1.0025  0.6558 -0.8077
  855MPD2    H112612   0.862   3.667  13.320 -1.1641  0.0801 -0.8561
  855MPD2    H212613   0.872   3.484  13.701  0.6360  0.6960 -0.5748
  855MPD2    H312614   0.873   3.688  13.560  1.4216 -0.0553  0.1034
  855MPD2     N12615   0.811   3.456  13.193  0.0106 -0.1765 -0.6640
  855MPD2    H512616   0.811   3.543  13.140 -1.0318  0.3414  0.2068
  855MPD2    N112617   0.821   3.238  13.618 -0.0910 -0.0417  0.2953
  855MPD2    H712618   0.802   3.153  13.565  0.6731 -1.0868  1.6800
  856MPD2     C12619   3.423   3.908  13.905 -0.0117 -0.0756 -0.4959
  856MPD2    C112620   3.415   4.025  13.983  0.4370  0.8487 -0.4838
  856MPD2    C212621   3.301   4.094  13.997 -0.5000 -0.1919 -0.3760
  856MPD2    C312622   3.195   4.073  13.913 -0.7781  0.5585  0.8139
  856MPD2    C412623   3.196   3.970  13.818 -0.2667 -0.4148 -0.4229
  856MPD2    C512624   3.306   3.885  13.831 -0.3648 -0.5638  0.1263
  856MPD2     H12625   3.293   4.179  14.064 -2.4352 -0.8132  0.2002
  856MPD2    H112626   3.110   3.931  13.765 -1.2926  1.9236 -0.4396
  856MPD2    H212627   3.499   3.832  13.914 -0.7957 -0.8409 -0.2814
  856MPD2    H312628   3.306   3.799  13.765 -0.0869  1.2611 -2.2453
  856MPD2     N12629   3.072   4.142  13.916 -0.3976 -0.2907 -0.0897
  856MPD2    H512630   3.012   4.115  13.839 -0.3593  1.8545 -0.8442
  856MPD2    N112631   3.522   4.054  14.068  0.3575  0.4840  0.4466
  856MPD2    H712632   3.497   4.123  14.137  0.6400  0.3847  0.6481
  857MPD2     C12633   3.935   1.863  12.598 -0.1013  0.0139 -0.2830
  857MPD2    C112634   4.061   1.814  12.590 -1.0680 -0.0201 -0.3419
  857MPD2    C212635   4.168   1.900  12.580  0.0465  0.4617  0.0448
  857MPD2    C312636   4.148   2.034  12.579  0.0129  0.5467  0.2211
  857MPD2    C412637   4.026   2.084  12.588 -0.4984 -0.2145 -0.8895
  857MPD2    C512638   3.917   1.999  12.595 -0.0803 -0.3190 -0.2377
  857MPD2     H12639   4.266   1.858  12.561 -0.9169 -1.9901  0.5084
  857MPD2    H112640   4.003   2.189  12.570  2.8029  0.5311 -0.7605
  857MPD2    H212641   3.844   1.805  12.607 -1.2827  1.8488 -0.4251
  857MPD2    H312642   3.820   2.046  12.604  0.7843  1.1084  1.8703
  857MPD2     N12643   4.264   2.119  12.567 -0.1830  0.2001  0.1869
  857MPD2    H512644   4.351   2.068  12.578 -0.9822 -1.5741 -1.8108
  857MPD2    N112645   4.070   1.673  12.574 -0.3214  0.3852 -0.2676
  857MPD2    H712646   3.990   1.611  12.579  0.3001 -0.3196  1.1092
  858MPD2     C12647   0.234   1.142  16.522 -0.0794 -0.4413  0.8822
  858MPD2    C112648   0.328   1.063  16.580 -0.3401  0.7041 -0.6072
  858MPD2    C212649   0.353   1.083  16.716 -0.0103  0.1149 -0.4649
  858MPD2    C312650   0.282   1.167  16.791 -0.4386 -0.2707  0.4345
  858MPD2    C412651   0.177   1.239  16.736 -0.2658 -0.2706  0.3272
  858MPD2    C512652   0.159   1.226  16.598  0.2673  0.3978 -0.5187
  858MPD2     H12653   0.427   1.018  16.762  1.3946  1.6528 -0.5483
  858MPD2    H112654   0.107   1.295  16.797 -0.9861  1.1284 -1.8212
  858MPD2    H212655   0.211   1.136  16.416  1.7692  0.1921  0.4490
  858MPD2    H312656   0.074   1.272  16.550  0.4431 -0.1251 -1.3286
  858MPD2     N12657   0.303   1.179  16.932  0.1297 -0.2048  0.2733
  858MPD2    H512658   0.248   1.254  16.972  2.0995  0.6722  1.3545
  858MPD2    N112659   0.379   0.953  16.504  0.8394 -0.0155 -0.4229
  858MPD2    H712660   0.342   0.946  16.410 -1.3609 -0.2793  0.4593
  859MPD2     C12661   3.346   3.329  15.344 -0.0351 -0.1285  0.1997
  859MPD2    C112662   3.475   3.288  15.356 -0.1974  0.4631  0.1001
  859MPD2    C212663   3.505   3.155  15.368 -0.2190  0.7495 -0.6075
  859MPD2    C312664   3.412   3.060  15.366  0.5151  0.0180  0.4395
  859MPD2    C412665   3.282   3.098  15.353  0.7677 -0.6010 -0.4656
  859MPD2    C512666   3.250   3.234  15.339  0.6489  0.7271 -0.4254
  859MPD2     H12667   3.610   3.128  15.370 -0.2728  0.6413  0.4669
  859MPD2    H112668   3.208   3.018  15.358  1.6786 -1.3611  0.9243
  859MPD2    H212669   3.325   3.433  15.324 -1.1008 -0.2776  0.5099
  859MPD2    H312670   3.145   3.259  15.329 -0.0592 -1.7488  0.8681
  859MPD2     N12671   3.449   2.923  15.356  0.3910  0.0748 -0.3737
  859MPD2    H512672   3.371   2.861  15.338  0.6208 -0.2047 -0.4000
  859MPD2    N112673   3.572   3.393  15.354 -0.5112  0.5214  0.4105
  859MPD2    H712674   3.530   3.485  15.342 -1.1858  0.2333  0.5694
  860MPD2     C12675   1.718   4.108  12.051  0.1023 -0.2994 -0.0304
  860MPD2    C112676   1.637   4.117  12.154 -0.1474  0.8835 -0.5737
  860MPD2    C212677   1.504   4.084  12.126 -0.1108 -0.6883 -0.5361
  860MPD2    C312678   1.461   4.040  12.007  0.4365 -0.3617  0.1509
  860MPD2    C412679   1.551   4.010  11.903  0.4410 -0.0452  0.5204
  860MPD2    C512680   1.681   4.054  11.928 -0.5158  0.1825  0.3998
  860MPD2     H12681   1.428   4.082  12.203 -1.6915 -0.4747 -2.0894
  860MPD2    H112682   1.517   3.971  11.808  1.7725  0.3124 -0.1106
  860MPD2    H212683   1.825   4.119  12.063  0.5109 -1.1183 -2.9314
  860MPD2    H312684   1.754   4.040  11.850 -1.0826  1.1916 -0.3152
  860MPD2     N12685   1.334   3.985  12.008  0.3153  0.5180 -0.1732
  860MPD2    H512686   1.277   3.996  12.091  1.1376  1.4028  0.2836
  860MPD2    N112687   1.679   4.154  12.285 -0.3590 -0.2090  0.1756
  860MPD2    H712688   1.612   4.170  12.360 -0.3592 -3.4235  0.8534
  861MPD2     C12689   0.186   1.236  11.145 -0.5460 -0.0390 -0.4326
  861MPD2    C112690   0.209   1.372  11.122 -0.5471 -0.4982  0.4959
  861MPD2    C212691   0.139   1.438  11.026  0.2351  0.4520 -0.9897
  861MPD2    C312692   0.030   1.376  10.959  0.4613  0.7119 -0.1026
  861MPD2    C412693   4.737   1.249  11.004  0.3494 -0.5226 -0.3324
  861MPD2    C512694   0.073   1.177  11.095  0.2863 -0.5345 -0.5588
  861MPD2     H12695   0.180   1.532  10.991  1.6618  0.7583  1.5762
  861MPD2    H112696   4.650   1.193  10.972  0.4468 -1.1699  0.5630
  861MPD2    H212697   0.244   1.180  11.218 -1.4526 -1.5020 -0.8504
  861MPD2    H312698   0.050   1.074  11.120 -1.3800 -0.6226 -2.4232
  861MPD2     N12699   4.683   1.431  10.863  0.6211 -0.2687 -0.3654
  861MPD2    H512700   4.608   1.366  10.843 -0.3706  0.7071  0.1968
  861MPD2    N112701   0.309   1.445  11.190 -0.1873 -0.4899 -0.0035
  861MPD2    H712702   0.320   1.541  11.160  1.2809 -1.0089 -1.1574
  862MPD2     C12703   4.048   1.285  10.577 -0.0393  0.6893 -0.4131
  862MPD2    C112704   4.145   1.285  10.674 -0.0509  0.3285  0.0728
  862MPD2    C212705   4.147   1.184  10.771 -0.2506 -0.2556 -0.0991
  862MPD2    C312706   4.063   1.078  10.773  0.1038 -0.4177 -0.9981
  862MPD2    C412707   3.974   1.068  10.672 -0.6299 -0.0987 -0.2372
  862MPD2    C512708   3.967   1.175  10.578 -0.0934  0.0645  0.3602
  862MPD2     H12709   4.217   1.205  10.851  0.9128  0.0318 -1.1965
  862MPD2    H112710   3.900   0.989  10.671 -1.3255  0.5594 -0.4970
  862MPD2    H212711   4.026   1.359  10.502  2.1155 -0.2375 -1.9613
  862MPD2    H312712   3.898   1.169  10.494 -0.9054  0.9281  0.9577
  862MPD2     N12713   4.072   0.978  10.872  0.6032  0.7398  0.4161
  862MPD2    H512714   4.002   0.904  10.878  1.3090  0.2238  2.3207
  862MPD2    N112715   4.252   1.378  10.665  0.0694  0.1126  0.1977
  862MPD2    H712716   4.326   1.366  10.733 -0.7196  0.4756  1.1176
  863MPD2     C12717   3.762   0.042  16.860 -0.4459  0.2816 -0.1151
  863MPD2    C112718   3.660   0.023  16.949 -0.6032 -0.1309  0.4399
  863MPD2    C212719   3.683   0.028  17.085 -0.3865 -0.0438 -0.6670
  863MPD2    C312720   3.811   0.034  17.131  0.1553 -0.1870  0.3604
  863MPD2    C412721   3.907   0.060  17.036 -0.5562 -0.3042  0.8228
  863MPD2    C512722   3.884   0.073  16.905  0.0908  0.1942 -0.1541
  863MPD2     H12723   3.598   0.024  17.152  0.9869 -0.8246  1.0132
  863MPD2    H112724   4.010   0.084  17.063 -0.1450 -2.1090  0.8757
  863MPD2    H212725   3.742   0.040  16.753 -0.5495  2.1516 -0.1212
  863MPD2    H312726   3.970   0.094  16.842 -0.2120  0.9793 -0.3019
  863MPD2     N12727   3.846   0.016  17.269 -0.0576  0.0384 -0.9964
  863MPD2    H512728   3.942   0.030  17.298 -1.0681  0.7451  2.0098
  863MPD2    N112729   3.536   4.734  16.886  0.0070  0.0004  0.9393
  863MPD2    H712730   3.551   4.713  16.788  2.2767 -0.4385  1.3803
  864MPD2     C12731   4.137   1.518  17.160 -0.0003  0.2901 -0.0078
  864MPD2    C112732   4.181   1.417  17.066  0.0827 -0.0079  0.3213
  864MPD2    C212733   4.252   1.455  16.960 -0.1821  0.7691  0.4295
  864MPD2    C312734   4.276   1.584  16.941 -0.1929 -0.1356 -0.1722
  864MPD2    C412735   4.226   1.680  17.023  0.2742  0.2980  0.0685
  864MPD2    C512736   4.161   1.648  17.132  0.3896  0.2670 -0.9664
  864MPD2     H12737   4.306   1.393  16.889 -0.9501  1.8620 -1.1204
  864MPD2    H112738   4.232   1.786  16.999  0.0621  0.5710  1.2288
  864MPD2    H212739   4.087   1.494  17.253  1.0626 -0.9685  0.2402
  864MPD2    H312740   4.114   1.734  17.178 -0.9536  0.0822 -1.9785
  864MPD2     N12741   4.342   1.636  16.826  0.2667 -0.4233 -0.2217
  864MPD2    H512742   4.341   1.737  16.818 -0.9780 -0.4185  0.0917
  864MPD2    N112743   4.140   1.281  17.074 -0.0414 -0.3912 -0.3063
  864MPD2    H712744   4.075   1.258  17.148  0.9923 -0.3861  0.6154
  865MPD2     C12745   4.228   1.694  15.920  0.2970 -0.3604 -0.2996
  865MPD2    C112746   4.245   1.619  16.038  0.2415 -0.2489  0.4548
  865MPD2    C212747   4.236   1.686  16.161  0.2007  0.4348 -0.8575
  865MPD2    C312748   4.225   1.823  16.160 -0.1961 -0.0542 -0.6891
  865MPD2    C412749   4.194   1.892  16.044  0.7559  0.3820 -0.3758
  865MPD2    C512750   4.205   1.826  15.923 -0.1677  0.2405  0.6864
  865MPD2     H12751   4.255   1.637  16.257 -2.7835  0.4427 -0.2622
  865MPD2    H112752   4.199   2.001  16.044  0.7577  0.3841  0.7694
  865MPD2    H212753   4.235   1.640  15.825  2.3339 -1.6267  0.5616
  865MPD2    H312754   4.187   1.885  15.834  0.4274 -0.6049  0.0132
  865MPD2     N12755   4.225   1.908  16.275  0.2955 -0.4088 -0.4334
  865MPD2    H512756   4.190   2.003  16.269 -1.3882 -1.0258 -0.3272
  865MPD2    N112757   4.272   1.481  16.032 -0.3279  0.3245  0.5214
  865MPD2    H712758   4.284   1.452  15.936  0.5783  0.1846  0.6742
  866MPD2     C12759   0.888   1.774  11.129 -0.0270  0.2098 -0.1769
  866MPD2    C112760   0.799   1.678  11.108  0.1230 -0.0862  0.2835
  866MPD2    C212761   0.675   1.710  11.065  0.1341 -0.3285 -0.6213
  866MPD2    C312762   0.631   1.844  11.050 -0.9293  0.0798 -0.2716
  866MPD2    C412763   0.719   1.945  11.088 -0.1028  0.3135 -0.1404
  866MPD2    C512764   0.846   1.902  11.121  0.1845  0.3737  0.3625
  866MPD2     H12765   0.614   1.626  11.033  0.8969 -1.4685  0.9045
  866MPD2    H112766   0.698   2.051  11.089 -0.7270  0.1925 -0.2898
  866MPD2    H212767   0.985   1.753  11.172 -0.1494  0.4405  0.2183
  866MPD2    H312768   0.917   1.981  11.139  2.6948 -1.7489 -0.2524
  866MPD2     N12769   0.499   1.870  11.010 -0.1016 -0.0884  0.5215
  866MPD2    H512770   0.477   1.968  10.995  2.9122  0.5875  0.4671
  866MPD2    N112771   0.830   1.541  11.104 -0.2563 -0.0875 -0.8289
  866MPD2    H712772   0.748   1.483  11.089  0.4122 -1.2404  0.0246
  867MPD2     C12773   2.748   0.747  16.630 -0.1529 -0.6091  0.0531
  867MPD2    C112774   2.841   0.761  16.733 -0.0640  0.2039 -0.5601
  867MPD2    C212775   2.844   0.874  16.815  0.2074  0.1854  0.3998
  867MPD2    C312776   2.745   0.965  16.807 -0.2075  0.7850  0.5310
  867MPD2    C412777   2.647   0.948  16.709 -0.1843  0.4319 -0.5915
  867MPD2    C512778   2.651   0.842  16.624 -0.7395 -0.1148 -0.2051
  867MPD2     H12779   2.928   0.897  16.879  0.9455 -1.6254  0.0740
  867MPD2    H112780   2.563   1.015  16.693 -1.7035 -1.2119  0.4592
  867MPD2    H212781   2.729   0.655  16.575  1.1828 -0.9517  0.1682
  867MPD2    H312782   2.568   0.842  16.554  0.4197  2.4787 -1.6062
  867MPD2     N12783   2.734   1.078  16.892  0.5824 -0.4851 -0.0891
  867MPD2    H512784   2.660   1.146  16.878  0.4453 -0.4017  1.0050
  867MPD2    N112785   2.928   0.651  16.747  0.1335 -0.2226  0.3141
  867MPD2    H712786   2.928   0.578  16.677  0.0693 -1.2268  1.3777
  868MPD2     C12787   4.384   0.511  13.131  0.0112 -0.2216  0.5469
  868MPD2    C112788   4.448   0.454  13.243  0.5374  0.1085  0.5559
  868MPD2    C212789   4.382   0.443  13.365 -0.2961  0.6638 -1.0659
  868MPD2    C312790   4.251   0.477  13.373 -0.7255  0.5733 -0.0953
  868MPD2    C412791   4.185   0.516  13.258 -0.5345 -0.5205 -0.0395
  868MPD2    C512792   4.253   0.534  13.138  0.7424 -0.5999 -0.1252
  868MPD2     H12793   4.437   0.416  13.455 -2.2010 -0.8181 -0.3315
  868MPD2    H112794   4.081   0.546  13.260 -0.8644 -1.7124  0.7497
  868MPD2    H212795   4.426   0.565  13.047 -2.3513  0.5280 -0.1665
  868MPD2    H312796   4.196   0.577  13.056  0.7365 -1.3462 -0.5097
  868MPD2     N12797   4.190   0.462  13.496 -0.0221  0.3715 -0.2829
  868MPD2    H512798   4.255   0.437  13.569 -2.6954 -0.8500  1.6635
  868MPD2    N112799   4.580   0.411  13.232 -0.5735 -0.0037  0.1161
  868MPD2    H712800   4.628   0.454  13.154  0.3486  4.1400  2.9558
  869MPD2     C12801   0.508   2.648   1.570 -0.3790  0.2408  0.2689
  869MPD2    C112802   0.526   2.680   1.435 -0.0812  0.0041  0.2530
  869MPD2    C212803   0.616   2.603   1.366  0.5610 -0.3073  0.0217
  869MPD2    C312804   0.705   2.522   1.446  0.2305 -0.5295  0.0429
  869MPD2    C412805   0.685   2.493   1.581 -0.3418  0.1615  0.6785
  869MPD2    C512806   0.580   2.556   1.640 -0.2875  1.0520  0.1811
  869MPD2     H12807   0.635   2.627   1.262  0.3208 -1.2028 -0.2244
  869MPD2    H112808   0.748   2.423   1.635 -0.3557 -1.3136 -1.1946
  869MPD2    H212809   0.429   2.687   1.633  0.1015  2.1430 -0.2972
  869MPD2    H312810   0.561   2.527   1.742  0.9113  0.9868  0.3847
  869MPD2     N12811   0.821   2.464   1.403  0.5787  0.6497 -0.2903
  869MPD2    H512812   0.882   2.430   1.476 -0.2738  0.8594  0.5300
  869MPD2    N112813   0.440   2.778   1.375  0.1384 -0.2068 -0.3277
  869MPD2    H712814   0.359   2.803   1.432  1.1703  1.2401  0.5084
  870MPD2     C12815   0.920   1.622   1.173 -0.0913 -0.1448 -0.1630
  870MPD2    C112816   0.879   1.520   1.261 -0.2866 -0.6613  0.2226
  870MPD2    C212817   0.761   1.541   1.326  0.2888  0.3320  0.2254
  870MPD2    C312818   0.690   1.661   1.332  0.3343  0.6284  0.8021
  870MPD2    C412819   0.729   1.764   1.249  0.3860  0.4092 -0.6485
  870MPD2    C512820   0.841   1.742   1.171  0.1879  0.4012  0.1032
  870MPD2     H12821   0.736   1.478   1.411 -1.5054 -1.3167 -1.4960
  870MPD2    H112822   0.689   1.865   1.250 -0.1114  0.2182 -1.1090
  870MPD2    H212823   1.019   1.616   1.129 -0.5712  0.2301 -1.2891
  870MPD2    H312824   0.881   1.823   1.111 -0.6150  1.5309  1.0920
  870MPD2     N12825   0.562   1.666   1.396  0.6498  0.5893  0.1510
  870MPD2    H512826   0.534   1.589   1.457 -2.1875  2.2647  0.9409
  870MPD2    N112827   0.954   1.396   1.267  0.1115  0.2813 -0.2279
  870MPD2    H712828   1.040   1.398   1.214  0.8201 -1.1225  0.8589
  871MPD2     C12829   1.697   1.400  16.749 -0.8284 -0.2736 -0.7254
  871MPD2    C112830   1.632   1.369  16.875  0.3378 -0.1645  0.5082
  871MPD2    C212831   1.656   1.247  16.940  0.7810 -0.4425 -0.1088
  871MPD2    C312832   1.736   1.155  16.890  0.4239 -0.2549  0.1098
  871MPD2    C412833   1.791   1.190  16.764 -0.2648  0.5710 -0.4838
  871MPD2    C512834   1.766   1.298  16.688 -0.2981 -0.2098  0.1713
  871MPD2     H12835   1.608   1.220  17.033 -1.7100  0.1035 -1.2189
  871MPD2    H112836   1.848   1.113  16.712  0.8615 -0.0749  1.6930
  871MPD2    H212837   1.684   1.496  16.701 -0.5514  0.4823  0.7221
  871MPD2    H312838   1.811   1.317  16.592  0.5525 -1.9902  0.2173
  871MPD2     N12839   1.772   1.038  16.967 -0.1312  0.0013 -0.3112
  871MPD2    H512840   1.734   1.027  17.061 -3.4355  0.3711 -1.6171
  871MPD2    N112841   1.556   1.475  16.932 -0.6726  0.1666 -0.2804
  871MPD2    H712842   1.581   1.566  16.897 -0.7412  0.9177  1.6319
  872MPD2     C12843   2.723   3.997  14.197 -0.1985 -0.2520 -0.2658
  872MPD2    C112844   2.667   3.890  14.129 -0.5856  0.7415  0.0057
  872MPD2    C212845   2.527   3.874  14.143  0.5987  0.0183  0.2625
  872MPD2    C312846   2.448   3.961  14.217  0.0130 -0.1743 -0.1211
  872MPD2    C412847   2.510   4.074  14.272 -0.5956 -0.5410 -0.3439
  872MPD2    C512848   2.647   4.085  14.262 -0.0352  1.1474 -0.9465
  872MPD2     H12849   2.485   3.787  14.093 -0.5415  0.9743 -0.4413
  872MPD2    H112850   2.454   4.133  14.344  0.4636  2.2080 -1.7715
  872MPD2    H212851   2.830   4.010  14.194 -0.5418  2.2277 -1.2155
  872MPD2    H312852   2.694   4.171  14.309  0.6825  1.3399 -1.9950
  872MPD2     N12853   2.312   3.933  14.249  0.0926  0.2052  0.2188
  872MPD2    H512854   2.263   3.989  14.317 -2.1178 -1.3262 -0.1047
  872MPD2    N112855   2.741   3.791  14.058  0.0901  0.3797  1.0829
  872MPD2    H712856   2.689   3.711  14.024  1.1917  0.4741 -0.8281
  873MPD2     C12857   4.661   3.189   0.905 -0.1830 -0.1198  0.3278
  873MPD2    C112858   4.570   3.193   1.016  0.4564 -0.3719  1.3395
  873MPD2    C212859   4.520   3.074   1.062 -0.7113 -0.2771  0.0269
  873MPD2    C312860   4.524   2.960   0.978  1.2971  0.0901 -0.1181
  873MPD2    C412861   4.612   2.964   0.869  1.3150  0.1156  0.0727
  873MPD2    C512862   4.680   3.078   0.834  0.1082 -0.2508 -0.2266
  873MPD2     H12863   4.454   3.068   1.147 -0.5543  1.0987  0.2360
  873MPD2    H112864   4.620   2.886   0.793  1.0827 -0.7050  0.8862
  873MPD2    H212865   4.721   3.276   0.879  2.7693 -2.5464 -1.0248
  873MPD2    H312866   0.016   3.087   0.754 -0.5091 -0.0034 -0.7658
  873MPD2     N12867   4.452   2.835   1.008  0.0757 -0.2708 -0.5653
  873MPD2    H512868   4.467   2.750   0.954  0.7301 -0.2518 -0.4187
  873MPD2    N112869   4.569   3.315   1.083 -0.0491  0.2733  0.4825
  873MPD2    H712870   4.616   3.398   1.050  0.5512  0.0436  0.7535
  874MPD2     C12871   4.008   3.910  15.990 -0.1386  0.6492 -0.5839
  874MPD2    C112872   4.061   3.845  16.098 -0.1898 -0.6876  0.5476
  874MPD2    C212873   4.195   3.857  16.118  0.2982 -1.2619 -0.1371
  874MPD2    C312874   4.279   3.937  16.045 -0.4760 -0.3891  0.0073
  874MPD2    C412875   4.217   4.010  15.940 -1.0473 -0.0255  0.5979
  874MPD2    C512876   4.086   3.999  15.914 -0.4826  0.3458  0.3806
  874MPD2     H12877   4.237   3.791  16.194  2.3040  1.1127  0.8159
  874MPD2    H112878   4.269   4.081  15.877  0.1592 -2.1340 -0.7580
  874MPD2    H212879   3.902   3.903  15.967 -0.6309  1.9288  1.3123
  874MPD2    H312880   4.042   4.059  15.835  1.7082  2.5585  0.8078
  874MPD2     N12881   4.405   3.970  16.084 -0.7922  0.1879  0.3545
  874MPD2    H512882   4.439   3.948  16.177 -1.5504 -0.5688  0.4543
  874MPD2    N112883   3.985   3.755  16.177 -0.4700 -0.2563  0.5024
  874MPD2    H712884   3.897   3.724  16.136 -0.8766  0.8737  0.5334
  875MPD2     C12885   4.429   2.015  14.443  0.4624 -1.5287 -0.1763
  875MPD2    C112886   4.527   2.097  14.394 -0.2715  0.1232  0.4375
  875MPD2    C212887   4.602   2.159  14.486  0.4491 -0.2026 -0.0306
  875MPD2    C312888   4.589   2.134  14.623 -0.4079 -0.2208  0.5603
  875MPD2    C412889   4.487   2.056  14.669  0.0721  0.5742  0.1598
  875MPD2    C512890   4.424   1.981  14.572  0.6061  0.4999 -0.3024
  875MPD2     H12891   4.676   2.225  14.444  0.2291  1.1552  1.7441
  875MPD2    H112892   4.472   2.028  14.772  2.9064 -0.7950  0.2172
  875MPD2    H212893   4.365   1.957  14.377 -1.6171 -1.3657  1.6956
  875MPD2    H312894   4.341   1.917  14.602  0.2511  1.5539  0.9634
  875MPD2     N12895   4.687   2.194  14.701 -0.8185  0.4289 -0.5345
  875MPD2    H512896   0.015   2.262  14.663 -1.0416  0.7159 -0.4095
  875MPD2    N112897   4.544   2.125  14.252  0.0528 -0.2446 -0.1570
  875MPD2    H712898   4.615   2.190  14.221 -1.6220  1.0570 -1.2693
  876MPD2     C12899   3.840   3.219  16.116 -0.5241  0.3961  0.3054
  876MPD2    C112900   3.963   3.201  16.045 -0.3628 -0.7397 -0.6966
  876MPD2    C212901   4.033   3.083  16.055 -1.2390  0.0595 -0.8290
  876MPD2    C312902   3.977   2.977  16.120 -0.5669  0.0349  0.0324
  876MPD2    C412903   3.849   2.991  16.176 -0.7203 -0.3715  0.8431
  876MPD2    C512904   3.788   3.108  16.183  0.5011  0.2862  0.2775
  876MPD2     H12905   4.121   3.058  15.997 -0.3726  1.0058  0.1063
  876MPD2    H112906   3.794   2.906  16.213  0.0540 -1.2996 -0.1466
  876MPD2    H212907   3.781   3.309  16.100 -2.1336 -0.6690  0.1794
  876MPD2    H312908   3.690   3.125  16.225  0.5252  1.2378 -0.0483
  876MPD2     N12909   4.041   2.851  16.118 -0.5373 -0.4668 -0.2955
  876MPD2    H512910   4.128   2.845  16.066 -1.5254 -1.9502 -1.7826
  876MPD2    N112911   4.000   3.311  15.963  0.1600  0.6650 -0.6041
  876MPD2    H712912   3.942   3.393  15.955 -0.9778 -0.2131 -1.3982
  877MPD2     C12913   3.672   3.893  15.642  0.5490 -0.3467  0.7320
  877MPD2    C112914   3.788   3.885  15.568 -1.1377 -0.1838  0.3396
  877MPD2    C212915   3.806   3.979  15.464 -0.0295  0.1204 -0.2020
  877MPD2    C312916   3.708   4.071  15.424  0.3656  0.2302 -0.2167
  877MPD2    C412917   3.588   4.064  15.493 -0.5437  0.3102 -0.0948
  877MPD2    C512918   3.574   3.985  15.608 -0.2164 -0.3254  0.1615
  877MPD2     H12919   3.899   3.978  15.409 -0.3626 -0.4137 -0.7641
  877MPD2    H112920   3.510   4.136  15.469 -0.8318  0.7214  2.1599
  877MPD2    H212921   3.644   3.822  15.719 -3.1159 -0.9667 -1.1569
  877MPD2    H312922   3.484   3.991  15.668  1.4484 -0.6612  2.6912
  877MPD2     N12923   3.711   4.151  15.307  0.3204 -0.2698 -0.3425
  877MPD2    H512924   3.622   4.194  15.286  0.5346  1.2338  1.7697
  877MPD2    N112925   3.904   3.801  15.611  0.2217  0.0646 -0.6935
  877MPD2    H712926   3.991   3.808  15.559  1.1162 -2.7899  0.3811
  878MPD2     C12927   3.928   2.990  13.851 -0.1209  0.5577 -0.5607
  878MPD2    C112928   3.905   3.098  13.768  0.7478 -0.1674  0.0081
  878MPD2    C212929   3.956   3.218  13.815  0.1696  0.7330 -0.1913
  878MPD2    C312930   4.035   3.231  13.929  0.0177 -0.0011  0.5173
  878MPD2    C412931   4.071   3.110  13.991 -0.3569 -0.1707  0.1641
  878MPD2    C512932   4.008   2.996  13.956 -0.4159  0.0018 -0.0067
  878MPD2     H12933   3.927   3.311  13.766 -1.9503 -0.3302 -0.9153
  878MPD2    H112934   4.133   3.112  14.080  1.5222  0.3712 -1.1557
  878MPD2    H212935   3.887   2.896  13.817  1.3613  0.3391 -1.7525
  878MPD2    H312936   4.030   2.901  14.004 -1.6964  0.1915  0.9611
  878MPD2     N12937   4.076   3.360  13.959  0.1179  0.2245  0.5227
  878MPD2    H512938   4.040   3.436  13.903  0.0341  0.4169  0.8386
  878MPD2    N112939   3.820   3.085  13.652 -0.2082  0.2423 -0.2047
  878MPD2    H712940   3.797   2.989  13.630 -1.5083  0.5683 -0.2840
  879MPD2     C12941   4.555   4.545  17.160  0.3503  0.6469  0.0904
  879MPD2    C112942   4.507   4.477  17.270  0.0249 -0.4784  0.0369
  879MPD2    C212943   4.376   4.465  17.284  0.4125  0.4291  0.0298
  879MPD2    C312944   4.285   4.503  17.183  0.7957 -0.6201  0.0610
  879MPD2    C412945   4.336   4.562  17.072 -0.1724  0.3094  0.1630
  879MPD2    C512946   4.471   4.579  17.060  0.2100 -0.0212 -0.0885
  879MPD2     H12947   4.339   4.422  17.377  0.2313  2.1131  0.7306
  879MPD2    H112948   4.264   4.586  16.995  0.7784  3.4935  0.2736
  879MPD2    H212949   4.661   4.552  17.138  0.7681  0.1303  1.9816
  879MPD2    H312950   4.509   4.628  16.971  0.6825  0.8729  0.5941
  879MPD2     N12951   4.141   4.481  17.193 -0.3440 -0.2978  0.4177
  879MPD2    H512952   4.088   4.501  17.109  1.0012  2.3381  0.1758
  879MPD2    N112953   4.599   4.425  17.365  0.6933 -0.1001 -0.5649
  879MPD2    H712954   4.693   4.413  17.329  0.9033  0.0695 -0.0866
  880MPD2     C12955   0.278   1.203   0.829  0.3166 -0.2462 -0.0622
  880MPD2    C112956   0.382   1.255   0.758 -0.0634  0.7266 -0.9063
  880MPD2    C212957   0.497   1.179   0.747 -0.1731  0.1699  0.3867
  880MPD2    C312958   0.509   1.050   0.796 -0.0645  0.5419 -0.1992
  880MPD2    C412959   0.397   0.993   0.853  1.1813  0.1091  0.0786
  880MPD2    C512960   0.285   1.069   0.865 -0.3307  0.2079 -0.2721
  880MPD2     H12961   0.592   1.207   0.703 -2.4804  1.1998 -3.8795
  880MPD2    H112962   0.391   0.885   0.865  0.2450 -0.0593 -1.8970
  880MPD2    H212963   0.182   1.252   0.843  0.8277  1.0438 -0.9894
  880MPD2    H312964   0.196   1.025   0.909 -1.3329  3.4739  0.9899
  880MPD2     N12965   0.633   0.984   0.779 -0.8604  0.1074  0.1339
  880MPD2    H512966   0.712   1.028   0.733 -0.6207  1.2949  1.7097
  880MPD2    N112967   0.378   1.387   0.704 -0.0990  0.4436  0.5763
  880MPD2    H712968   0.285   1.427   0.716  0.7254  1.8328  2.4632
  881MPD2     C12969   0.454   2.203  17.737 -0.2280  0.6557  0.5673
  881MPD2    C112970   0.526   2.085  17.739  0.7290  0.4503  0.1396
  881MPD2    C212971   0.520   2.012   0.110 -0.1270  0.3349 -0.3722
  881MPD2    C312972   0.447   2.047   0.219 -0.4015 -0.0790  0.3154
  881MPD2    C412973   0.374   2.167   0.213 -0.3040  0.3196  0.0067
  881MPD2    C512974   0.390   2.249   0.102 -0.5511  0.3268 -0.2699
  881MPD2     H12975   0.566   1.914   0.117  0.6064  0.5441 -2.3286
  881MPD2    H112976   0.305   2.200   0.290  1.1512 -0.2999  1.5696
  881MPD2    H212977   0.462   2.267  17.650  0.3632 -1.3533 -0.8496
  881MPD2    H312978   0.334   2.341   0.092 -0.0175  0.9125  2.1754
  881MPD2     N12979   0.437   1.974   0.336 -0.0280 -0.2870 -0.2050
  881MPD2    H512980   0.397   2.031   0.410 -2.4526  1.0849 -2.5892
  881MPD2    N112981   0.585   2.037  17.624  0.1643 -0.0834  0.3845
  881MPD2    H712982   0.576   2.098  17.543  0.2854 -1.5033 -0.7133
  882MPD2     C12983   3.825   3.888  14.613 -0.5927 -0.2187 -0.4957
  882MPD2    C112984   3.717   3.971  14.640  0.0940 -0.3425  0.6283
  882MPD2    C212985   3.597   3.948  14.578  0.0596 -0.4585  0.2258
  882MPD2    C312986   3.592   3.843  14.478 -0.0467 -0.0513 -0.0278
  882MPD2    C412987   3.702   3.768  14.454  0.3737 -0.4916  0.0237
  882MPD2    C512988   3.817   3.787  14.523  0.4407  0.5299  0.1372
  882MPD2     H12989   3.519   4.023  14.589  2.4537  1.7097  2.5909
  882MPD2    H112990   3.712   3.678  14.394 -0.4101 -0.3416 -0.3340
  882MPD2    H212991   3.920   3.897  14.664 -0.6063  0.5120 -0.6058
  882MPD2    H312992   3.901   3.722  14.503 -0.5776 -0.0530 -2.2436
  882MPD2     N12993   3.474   3.824  14.398  0.2424 -0.1479 -0.1069
  882MPD2    H512994   3.470   3.744  14.336  1.0252  0.5325 -1.0355
  882MPD2    N112995   3.738   4.067  14.738 -0.8524 -0.0968  0.4320
  882MPD2    H712996   3.831   4.057  14.780  0.0432  1.6689 -1.1358
  883MPD2     C12997   0.950   3.109  16.331 -0.3986 -0.6672  1.2036
  883MPD2    C112998   1.002   3.236  16.309  0.3893 -0.0125 -0.6449
  883MPD2    C212999   1.129   3.260  16.366 -1.0286 -0.4362 -0.5543
  883MPD2    C313000   1.193   3.177  16.452  0.1340  0.6562 -0.2785
  883MPD2    C413001   1.129   3.057  16.479  0.0409  0.6436  0.2485
  883MPD2    C513002   1.010   3.024  16.415 -0.3294 -0.3004 -0.4153
  883MPD2     H13003   1.174   3.357  16.349 -0.0647 -0.8547 -0.4432
  883MPD2    H113004   1.179   2.984  16.541  0.5198 -1.3511 -2.4516
  883MPD2    H213005   0.855   3.073  16.293  0.6387 -0.4635 -1.5434
  883MPD2    H313006   0.955   2.933  16.440 -4.2474  2.0414 -0.5169
  883MPD2     N13007   1.319   3.214  16.499  0.3194  0.3228  0.3161
  883MPD2    H513008   1.345   3.305  16.464 -1.9483  0.4559 -1.0152
  883MPD2    N113009   0.944   3.337  16.235  0.0710  0.6425 -0.7550
  883MPD2    H713010   0.998   3.421  16.221  1.0200 -0.0083 -1.0157
  884MPD2     C13011   3.182   4.571  15.724 -0.5742  0.0352  0.2104
  884MPD2    C113012   3.155   4.698  15.673 -0.0021  0.2788 -0.2624
  884MPD2    C213013   3.020   4.731  15.663 -0.5841 -0.0986  0.8157
  884MPD2    C313014   2.919   4.640  15.690 -0.1234 -0.6213  0.2040
  884MPD2    C413015   2.950   4.511  15.716  0.8940 -0.1144 -0.1269
  884MPD2    C513016   3.084   4.483  15.733  0.0785  0.3606 -0.3682
  884MPD2     H13017   3.005   0.097  15.635  0.1055 -0.1843  0.1173
  884MPD2    H113018   2.873   4.443  15.748  0.6871  0.9542  1.6451
  884MPD2    H213019   3.285   4.539  15.730  0.5312  3.4526 -0.2382
  884MPD2    H313020   3.112   4.386  15.772  1.1036  0.0173 -1.9773
  884MPD2     N13021   2.786   4.695  15.684  0.0174 -0.4378 -0.6709
  884MPD2    H513022   2.784   0.054  15.653  0.9869 -0.1519  0.1372
  884MPD2    N113023   3.252   0.058  15.653  0.3790  1.0219 -0.2215
  884MPD2    H713024   3.225   0.142  15.604  1.2933  1.1564 -0.5022
  885MPD2     C13025   1.291   4.570   0.646 -0.6790 -0.1082 -0.1996
  885MPD2    C113026   1.355   4.475   0.569  0.3838 -0.0125 -0.5655
  885MPD2    C213027   1.349   4.483   0.430  0.4106  0.3009 -0.3253
  885MPD2    C313028   1.276   4.586   0.373  0.4265  0.1791  1.2114
  885MPD2    C413029   1.206   4.672   0.456  0.3093  0.3039 -0.3072
  885MPD2    C513030   1.206   4.661   0.588  0.0662 -0.5845  0.3185
  885MPD2     H13031   1.407   4.417   0.366 -0.6847 -0.7544 -0.2231
  885MPD2    H113032   1.136   0.005   0.414  2.7302  2.1093 -1.3574
  885MPD2    H213033   1.289   4.558   0.754 -3.0337  0.5267 -0.1773
  885MPD2    H313034   1.157   4.736   0.649  0.6342  0.7222 -0.8300
  885MPD2     N13035   1.280   4.601   0.228  0.1069 -0.3198  0.1374
  885MPD2    H513036   1.324   4.526   0.176  1.3502  0.3280  0.2387
  885MPD2    N113037   1.447   4.393   0.636 -0.3899  0.7448  0.1526
  885MPD2    H713038   1.466   4.400   0.735 -2.2027 -2.7965  0.7514
  886MPD2     C13039   2.675   3.130  15.177  0.5628  0.7585  0.0507
  886MPD2    C113040   2.751   3.168  15.287  0.2141  0.6278  0.5794
  886MPD2    C213041   2.743   3.295  15.337 -0.1837 -0.4371  0.2366
  886MPD2    C313042   2.664   3.390  15.276  0.0419 -0.3905  0.3740
  886MPD2    C413043   2.570   3.346  15.182  0.2762 -1.1513  0.2232
  886MPD2    C513044   2.578   3.217  15.140  0.9673  0.2185  0.9315
  886MPD2     H13045   2.825   3.323  15.403 -1.3127 -3.0817  2.7498
  886MPD2    H113046   2.486   3.402  15.144  0.1308 -0.4811  1.5271
  886MPD2    H213047   2.665   3.035  15.126  0.4174  0.1272  1.2724
  886MPD2    H313048   2.502   3.170  15.079 -0.9664 -0.2449  3.6606
  886MPD2     N13049   2.659   3.530  15.297 -0.0288  0.3122  0.1658
  886MPD2    H513050   2.603   3.580  15.230  1.2410 -0.8096 -1.7175
  886MPD2    N113051   2.840   3.075  15.350  0.4373  0.1232 -0.1018
  886MPD2    H713052   2.896   3.111  15.427  0.2935 -0.0968  0.1053
  887MPD2     C13053   3.405   3.010  15.801 -0.3353 -0.1631  0.1416
  887MPD2    C113054   3.287   3.069  15.765 -0.4281  0.6960 -0.2781
  887MPD2    C213055   3.273   3.208  15.786  0.5043  0.3195  0.4817
  887MPD2    C313056   3.372   3.281  15.842 -0.5014 -0.3435  0.3773
  887MPD2    C413057   3.487   3.221  15.891 -0.3321  0.3889 -0.5241
  887MPD2    C513058   3.502   3.083  15.870 -0.0502 -0.0584  0.4510
  887MPD2     H13059   3.183   3.262  15.759  1.8427  1.5939 -1.3509
  887MPD2    H113060   3.569   3.271  15.940 -2.1692  2.0337  0.8970
  887MPD2    H213061   3.431   2.906  15.786 -0.2757 -0.2458  0.8248
  887MPD2    H313062   3.584   3.023  15.910  0.3373  0.2627  0.1412
  887MPD2     N13063   3.345   3.421  15.859 -1.0072 -0.3768 -0.5620
  887MPD2    H513064   3.258   3.450  15.816 -1.4238 -0.3633  0.2744
  887MPD2    N113065   3.188   2.999  15.689 -0.1808 -0.6844 -0.4133
  887MPD2    H713066   3.112   3.059  15.658 -0.5404 -0.6105  0.6229
  888MPD2     C13067   0.228   3.392  14.728  0.1023 -0.2618  0.3835
  888MPD2    C113068   0.206   3.376  14.869 -0.3956  0.3166  0.1447
  888MPD2    C213069   0.289   3.447  14.950  0.6744  0.3499 -0.4496
  888MPD2    C313070   0.386   3.534  14.901 -0.0297 -0.3105 -0.0511
  888MPD2    C413071   0.401   3.548  14.763 -0.1352  0.3409 -0.3433
  888MPD2    C513072   0.316   3.484  14.672 -0.0255  0.6945  0.3512
  888MPD2     H13073   0.271   3.450  15.057  0.1239  1.2609 -0.5677
  888MPD2    H113074   0.464   3.622  14.715 -0.5221  0.1954 -1.0830
  888MPD2    H213075   0.161   3.336  14.663  0.5024  0.8925 -1.0212
  888MPD2    H313076   0.324   3.491  14.564  1.0819 -2.7638  0.2073
  888MPD2     N13077   0.468   3.589  14.998  0.4805  0.5089  0.4009
  888MPD2    H513078   0.443   3.598  15.096  1.7005 -1.8718  0.9330
  888MPD2    N113079   0.105   3.292  14.925  0.1434 -0.2623 -0.5295
  888MPD2    H713080   0.118   3.261  15.020  0.3257 -1.3931 -0.9279
  889MPD2     C13081   4.700   2.711  12.107 -0.3571 -0.2242 -0.0091
  889MPD2    C113082   4.701   2.733  12.247  0.1086 -0.0624 -0.1297
  889MPD2    C213083   4.731   2.852  12.298  0.2118  0.1812 -0.8294
  889MPD2    C313084   0.036   2.960  12.221 -0.1815  0.6551  0.0498
  889MPD2    C413085   0.047   2.939  12.085  0.1021 -0.0417  0.2543
  889MPD2    C513086   0.016   2.814  12.035 -0.0041  0.1335 -0.0218
  889MPD2     H13087   4.721   2.853  12.406 -0.4918 -1.2099 -0.8781
  889MPD2    H113088   0.084   3.012  12.015 -0.5347 -0.7416 -0.8079
  889MPD2    H213089   4.686   2.615  12.059  0.3844 -0.6476  0.6289
  889MPD2    H313090   0.032   2.808  11.928  0.1910 -0.1119  0.0207
  889MPD2     N13091   0.060   3.078  12.285 -0.0994  0.4940  0.0408
  889MPD2    H513092   0.043   3.075  12.385 -2.0064  0.7456 -0.2771
  889MPD2    N113093   4.653   2.642  12.342 -0.7257  0.6459 -0.0431
  889MPD2    H713094   4.650   2.674  12.438 -1.7927 -0.2077  0.2134
  890MPD2     C13095   3.762   4.703  15.103  1.0466  0.2158 -1.0248
  890MPD2    C113096   3.877   0.036  15.144 -0.4331  0.0882  0.1851
  890MPD2    C213097   3.935   0.012  15.266  0.2058  0.5155  0.1885
  890MPD2    C313098   3.880   4.652  15.349 -0.2888 -0.2010 -0.1601
  890MPD2    C413099   3.764   4.586  15.313 -0.2844  0.2612  0.7120
  890MPD2    C513100   3.707   4.612  15.191  0.4920 -0.0146  0.4376
  890MPD2     H13101   4.021   0.059  15.312  1.5085  0.1559 -1.8843
  890MPD2    H113102   3.720   4.506  15.371 -0.7249  0.5995  0.8461
  890MPD2    H213103   3.717   4.716  15.005 -0.8043  2.0095  0.0720
  890MPD2    H313104   3.614   4.563  15.165  1.3915 -0.0022 -2.8705
  890MPD2     N13105   3.943   4.622  15.469  0.9477 -0.2438  0.2655
  890MPD2    H513106   4.034   4.663  15.489  0.9363 -1.0925  2.1100
  890MPD2    N113107   3.933   0.137  15.057  0.1380 -0.3034 -0.7769
  890MPD2    H713108   3.882   0.156  14.971 -0.5259 -1.9977 -0.7661
  891MPD2     C13109   1.997   2.587  16.683 -0.5741  0.0697  0.0480
  891MPD2    C113110   1.960   2.720  16.694 -0.4776  0.1694 -0.0464
  891MPD2    C213111   2.054   2.816  16.739 -0.3862 -0.0157  0.4530
  891MPD2    C313112   2.181   2.775  16.778  0.0776 -0.0347 -0.2455
  891MPD2    C413113   2.214   2.646  16.766  0.5410  0.0792 -0.1729
  891MPD2    C513114   2.121   2.558  16.718  1.1461  0.5306 -0.1482
  891MPD2     H13115   2.024   2.919  16.754  0.3189  0.1470  0.7833
  891MPD2    H113116   2.310   2.600  16.783  1.0924  2.1814  2.3416
  891MPD2    H213117   1.933   2.506  16.651  0.6666 -1.1905  0.7427
  891MPD2    H313118   2.159   2.457  16.705  3.8760  1.2907  1.9046
  891MPD2     N13119   2.268   2.866  16.833  0.5512  0.3449 -0.4226
  891MPD2    H513120   2.239   2.958  16.866 -2.9332  0.0951 -2.8479
  891MPD2    N113121   1.827   2.749  16.666 -0.3523 -0.0382 -0.0537
  891MPD2    H713122   1.766   2.677  16.630  1.7832 -2.0349  0.3200
  892MPD2     C13123   3.057   4.263  14.920 -0.2933  0.2723  0.0916
  892MPD2    C113124   2.938   4.210  14.868  0.3581 -0.0707  0.0589
  892MPD2    C213125   2.950   4.140  14.746  0.6235  0.0136  0.1709
  892MPD2    C313126   3.070   4.117  14.681 -0.5978 -0.5804  0.1493
  892MPD2    C413127   3.181   4.180  14.728  0.1519 -0.7466  0.2946
  892MPD2    C513128   3.177   4.253  14.850  0.4214  0.1882  0.8542
  892MPD2     H13129   2.862   4.098  14.697  0.2545  0.0683  0.7808
  892MPD2    H113130   3.280   4.165  14.687  0.3021  0.7901  0.0847
  892MPD2    H213131   3.058   4.313  15.016 -0.5057  1.4613 -0.5308
  892MPD2    H313132   3.265   4.299  14.893 -1.3850  1.7236  2.8578
  892MPD2     N13133   3.075   4.035  14.563 -0.0153 -0.3308 -0.0279
  892MPD2    H513134   3.170   4.018  14.530 -0.1202  0.1299 -0.5728
  892MPD2    N113135   2.812   4.240  14.921 -0.3247  0.0192  0.0203
  892MPD2    H713136   2.734   4.221  14.858  0.0075 -0.9368 -0.0995
  893MPD2     C13137   4.191   2.666   2.331 -0.2975  0.2255  0.1472
  893MPD2    C113138   4.143   2.570   2.243  0.2117  0.0758  0.2910
  893MPD2    C213139   4.005   2.553   2.232 -0.6744  0.5564  0.0814
  893MPD2    C313140   3.917   2.637   2.301 -0.6931 -0.3618  0.1318
  893MPD2    C413141   3.969   2.727   2.389 -0.3878  0.0172  0.0417
  893MPD2    C513142   4.101   2.738   2.408 -0.1855 -0.3047  0.2170
  893MPD2     H13143   3.975   2.474   2.164  2.2263 -1.5705  1.2591
  893MPD2    H113144   3.911   2.790   2.456 -1.0379 -0.5403 -0.0086
  893MPD2    H213145   4.297   2.687   2.338 -0.7178  2.3522  0.3098
  893MPD2    H313146   4.131   2.793   2.496  1.4212 -2.5589  1.0947
  893MPD2     N13147   3.778   2.634   2.285 -0.2744  0.0866 -0.1578
  893MPD2    H513148   3.726   2.687   2.355 -1.0799 -2.9113  1.4955
  893MPD2    N113149   4.241   2.507   2.162 -0.3018  0.1225  0.4962
  893MPD2    H713150   4.339   2.535   2.162  0.2482 -1.8921 -2.0272
  894MPD2     C13151   3.361   0.167   0.822  0.5481  0.1646  0.2867
  894MPD2    C113152   3.316   0.296   0.789  0.0130  0.7560 -0.3597
  894MPD2    C213153   3.404   0.396   0.813  0.8103 -0.4380 -0.0385
  894MPD2    C313154   3.516   0.378   0.885  0.0602 -0.8437  0.0162
  894MPD2    C413155   3.561   0.251   0.915 -0.5446  0.0603  0.4292
  894MPD2    C513156   3.483   0.145   0.882  0.0941 -0.2251 -0.1106
  894MPD2     H13157   3.373   0.499   0.804 -1.6452 -1.0283  1.7848
  894MPD2    H113158   3.653   0.228   0.968  0.7998 -0.0735 -1.9314
  894MPD2    H213159   3.297   0.080   0.818  0.9588 -0.1538  0.7807
  894MPD2    H313160   3.520   0.049   0.916  0.3584  0.1364  0.6254
  894MPD2     N13161   3.590   0.495   0.914 -0.2895 -0.3103  0.0321
  894MPD2    H513162   3.549   0.585   0.890 -1.4016 -0.6134  0.7934
  894MPD2    N113163   3.190   0.324   0.725 -0.1203 -0.0861 -0.3214
  894MPD2    H713164   3.168   0.421   0.706  0.0769  0.3579  1.7176
  895MPD2     C13165   2.291   3.111  14.087  0.0855 -0.5347 -0.1027
  895MPD2    C113166   2.191   3.080  13.999  0.6833  0.0057  0.3250
  895MPD2    C213167   2.173   2.956  13.947  0.0119  0.6316 -0.6362
  895MPD2    C313168   2.264   2.853  13.982 -0.3932 -0.1342  0.4864
  895MPD2    C413169   2.359   2.878  14.074 -0.3717 -0.3507  0.6086
  895MPD2    C513170   2.373   3.004  14.126  0.3059  0.1782  1.4725
  895MPD2     H13171   2.089   2.939  13.881  0.1739 -0.1043 -0.6499
  895MPD2    H113172   2.434   2.808  14.108 -1.2675 -1.0896  1.0669
  895MPD2    H213173   2.303   3.209  14.133  0.7480 -0.8965  0.5029
  895MPD2    H313174   2.458   3.011  14.192  1.2620 -1.0819  0.3622
  895MPD2     N13175   2.255   2.722  13.928 -0.3230  0.5112 -0.2476
  895MPD2    H513176   2.328   2.663  13.966 -0.7449 -0.5042 -1.0298
  895MPD2    N113177   2.092   3.167  13.949  0.3385 -0.4504  0.3667
  895MPD2    H713178   2.047   3.132  13.865 -2.5845  1.0153  1.3181
  896MPD2     C13179   0.031   4.686   1.247 -0.2164  0.1231 -0.3051
  896MPD2    C113180   4.729   0.077   1.279  0.1699 -0.5655 -0.7326
  896MPD2    C213181   4.612   0.127   1.230 -0.0896  0.1053 -0.2231
  896MPD2    C313182   4.533   0.042   1.151 -0.3746 -0.0870 -0.0161
  896MPD2    C413183   4.578   4.652   1.118 -0.2394  0.4351 -0.0672
  896MPD2    C513184   4.697   4.602   1.170  0.4311 -0.0520 -0.0789
  896MPD2     H13185   4.575   0.226   1.253  0.2608 -0.1289  1.3549
  896MPD2    H113186   4.529   4.596   1.039 -0.7468 -0.5460  0.9368
  896MPD2    H213187   0.132   4.652   1.267  0.2619  1.2975 -0.7257
  896MPD2    H313188   0.000   4.504   1.148 -3.3236 -1.7629  0.7436
  896MPD2     N13189   4.412   0.100   1.110  0.3334  0.2767  0.2050
  896MPD2    H513190   4.406   0.199   1.131  0.2704 -0.0205  1.6008
  896MPD2    N113191   0.082   0.154   1.356 -0.4999 -0.1469  0.3797
  896MPD2    H713192   0.165   0.110   1.395 -0.8472 -0.1419  1.1410
  897MPD2     C13193   0.886   2.184  10.708  0.5807  0.0515 -0.3662
  897MPD2    C113194   0.891   2.304  10.773  0.2635  0.4941 -0.0052
  897MPD2    C213195   0.795   2.349  10.860 -1.0311  0.3367  0.3270
  897MPD2    C313196   0.681   2.274  10.873 -0.5112 -0.1615  0.1110
  897MPD2    C413197   0.668   2.152  10.810 -0.1651 -1.0899 -0.5938
  897MPD2    C513198   0.777   2.104  10.739  0.4701 -0.2104 -0.4274
  897MPD2     H13199   0.787   2.455  10.881 -1.4642 -0.3896  3.7710
  897MPD2    H113200   0.589   2.080  10.827 -1.0904  0.0870  0.1040
  897MPD2    H213201   0.959   2.146  10.638  0.5217 -2.4988  0.9453
  897MPD2    H313202   0.771   2.008  10.689  2.9023 -0.7251  0.2643
  897MPD2     N13203   0.575   2.323  10.953  0.2862  0.0859 -0.1863
  897MPD2    H513204   0.602   2.401  11.011 -0.4725 -0.1370  0.4515
  897MPD2    N113205   1.006   2.381  10.729 -0.1981 -0.5409 -0.6852
  897MPD2    H713206   1.075   2.332  10.672  0.4028 -0.1220 -0.3141
  898MPD2     C13207   2.823   3.391   0.264 -0.1095 -0.1334  0.5811
  898MPD2    C113208   2.940   3.402   0.190  0.0506  0.3411  1.0677
  898MPD2    C213209   2.952   3.495   0.090 -0.1115 -0.5186  0.6490
  898MPD2    C313210   2.849   3.589   0.064  0.1426 -0.6260  0.3453
  898MPD2    C413211   2.736   3.577   0.144 -0.4732 -0.1090  0.0376
  898MPD2    C513212   2.717   3.483   0.238  0.2750 -0.4555 -0.2678
  898MPD2     H13213   3.041   3.489   0.028  0.3849  1.1732  1.2126
  898MPD2    H113214   2.651   3.638   0.116  0.9197  1.7530 -0.1541
  898MPD2    H213215   2.797   3.330   0.351  1.3318 -1.9406 -0.2583
  898MPD2    H313216   2.619   3.480   0.285  0.5642  0.8401  0.4281
  898MPD2     N13217   2.855   3.693  17.712 -0.4670 -0.1776 -0.2891
  898MPD2    H513218   2.774   3.753  17.701 -1.2015 -1.1022  0.0354
  898MPD2    N113219   3.040   3.309   0.189 -0.3821 -0.4108  0.1135
  898MPD2    H713220   3.114   3.319   0.121  0.1992  0.2956  0.8578
  899MPD2     C13221   4.014   4.147   0.130  0.5731 -0.6280 -0.3973
  899MPD2    C113222   3.901   4.227   0.115  0.1222 -0.4097 -0.2907
  899MPD2    C213223   3.775   4.178   0.165 -0.0279 -0.9314 -0.0868
  899MPD2    C313224   3.766   4.053   0.220 -0.5546 -0.5500 -0.3465
  899MPD2    C413225   3.880   3.972   0.225  0.7570 -0.2059  0.5110
  899MPD2    C513226   4.001   4.022   0.183 -0.5478  0.3851  0.5524
  899MPD2     H13227   3.684   4.237   0.157  0.8343  0.3201 -0.7250
  899MPD2    H113228   3.878   3.874   0.270  2.3454  0.1567  1.3579
  899MPD2    H213229   4.110   4.173   0.088  2.1065 -1.2798  2.7736
  899MPD2    H313230   4.089   3.958   0.185 -0.9015 -0.1444 -1.9828
  899MPD2     N13231   3.649   4.005   0.285 -0.0517 -0.0245 -0.1386
  899MPD2    H513232   3.661   3.918   0.335  1.7151  0.2947  0.0125
  899MPD2    N113233   3.910   4.344   0.044  0.0320 -0.2252  0.3799
  899MPD2    H713234   4.000   4.368   0.005 -0.9799  0.4351 -1.5940
  900MPD2     C13235   3.079   0.760  12.858  0.0546 -0.1943 -0.3752
  900MPD2    C113236   2.970   0.675  12.857  0.2380  1.1503 -1.0069
  900MPD2    C213237   2.867   0.687  12.762  0.2945 -0.3267  0.4913
  900MPD2    C313238   2.891   0.772  12.649 -0.3241  0.4890  0.8841
  900MPD2    C413239   3.013   0.847  12.645 -0.0445 -0.4265  0.4152
  900MPD2    C513240   3.099   0.847  12.749  0.2564  0.2842 -0.1023
  900MPD2     H13241   2.784   0.618  12.763 -1.3584  1.6249 -1.7853
  900MPD2    H113242   3.039   0.919  12.568  0.1402 -0.8159  0.1124
  900MPD2    H213243   3.152   0.767  12.937 -0.6118  0.0669  0.2130
  900MPD2    H313244   3.188   0.909  12.746 -0.0960  0.8598  1.2072
  900MPD2     N13245   2.795   0.783  12.546  0.3537  0.4338  0.2051
  900MPD2    H513246   2.702   0.753  12.573  0.9895 -1.2841  0.4546
  900MPD2    N113247   2.969   0.581  12.958  0.3668 -0.7506 -0.1514
  900MPD2    H713248   3.058   0.576  13.005 -0.8952  0.3730  2.3353
  901MPD2     C13249   2.717   4.272  12.936 -0.0032  0.7598  0.6540
  901MPD2    C113250   2.852   4.291  12.965 -0.2587  0.0609 -0.4950
  901MPD2    C213251   2.895   4.419  12.996  0.1245 -0.3590 -0.4608
  901MPD2    C313252   2.811   4.522  12.998 -0.1595  0.1179  0.1095
  901MPD2    C413253   2.678   4.498  12.991 -0.3783 -0.2918  0.6047
  901MPD2    C513254   2.633   4.378  12.953  0.1983 -0.0835 -0.2507
  901MPD2     H13255   2.996   4.434  13.031  0.4977  0.6956 -2.0159
  901MPD2    H113256   2.598   4.571  12.997 -0.0143  0.1850 -0.3142
  901MPD2    H213257   2.686   4.170  12.916 -2.4046  1.4513  0.9148
  901MPD2    H313258   2.526   4.364  12.938  0.2938 -2.3458  1.1513
  901MPD2     N13259   2.863   4.649  13.027  0.0007 -0.6337 -0.1031
  901MPD2    H513260   2.959   4.656  13.059  0.0638  2.0495 -0.9449
  901MPD2    N113261   2.932   4.174  12.956 -0.2730 -0.2351 -0.7212
  901MPD2    H713262   2.876   4.099  12.917  0.9162 -1.4121 -0.1694
  902MPD2     C13263   1.853   3.249  13.226 -0.0671  0.6079  0.4399
  902MPD2    C113264   1.933   3.353  13.194  0.4725 -0.6091 -0.4482
  902MPD2    C213265   2.039   3.327  13.112 -0.1521  0.3510  0.0873
  902MPD2    C313266   2.056   3.199  13.062  0.0458 -0.0732  0.1360
  902MPD2    C413267   1.973   3.094  13.102 -1.0242 -0.2572  0.2711
  902MPD2    C513268   1.880   3.122  13.194  0.4432  0.9007 -0.1521
  902MPD2     H13269   2.103   3.407  13.077  1.8546 -0.7675  1.1651
  902MPD2    H113270   1.993   2.992  13.071  1.2101  0.3298 -0.2277
  902MPD2    H213271   1.766   3.277  13.285 -1.2853 -0.8310 -0.6946
  902MPD2    H313272   1.838   3.032  13.240  1.4604  0.3916 -0.2134
  902MPD2     N13273   2.148   3.178  12.963  0.0039  0.2942  0.1482
  902MPD2    H513274   2.153   3.085  12.924  0.3812 -0.9768  3.2643
  902MPD2    N113275   1.899   3.481  13.241  0.0768 -0.2817 -0.2206
  902MPD2    H713276   1.805   3.503  13.273  0.8476  0.1574  1.7408
  903MPD2     C13277   2.529   3.740  12.580  0.6191  0.6626  0.0500
  903MPD2    C113278   2.414   3.665  12.550 -0.3897  0.1449  0.5549
  903MPD2    C213279   2.298   3.736  12.524 -0.1792  0.5442  0.6586
  903MPD2    C313280   2.292   3.873  12.532  0.1227 -0.5074  0.0346
  903MPD2    C413281   2.408   3.946  12.554 -0.2394  0.2879 -0.1297
  903MPD2    C513282   2.523   3.877  12.580 -0.2160 -0.4562  0.5712
  903MPD2     H13283   2.209   3.676  12.510 -0.4583  0.9666  0.6300
  903MPD2    H113284   2.414   4.054  12.561  1.8217  0.2614 -1.6718
  903MPD2    H213285   2.630   3.701  12.582 -0.3239 -1.6492  1.5838
  903MPD2    H313286   2.615   3.934  12.584  0.2449 -1.2061  0.7012
  903MPD2     N13287   2.163   3.931  12.525  0.0583 -0.3276 -0.8448
  903MPD2    H513288   2.087   3.869  12.549  0.4583  0.8667  3.5221
  903MPD2    N113289   2.428   3.524  12.550 -0.3967 -0.2285 -0.1331
  903MPD2    H713290   2.515   3.482  12.582  0.2896 -1.2016 -3.3249
  904MPD2     C13291   1.587   2.501  14.435  0.0608  0.6850 -0.6745
  904MPD2    C113292   1.692   2.554  14.374 -0.1177  0.4271 -0.1511
  904MPD2    C213293   1.812   2.490  14.368  0.4370  0.0903 -0.2141
  904MPD2    C313294   1.826   2.358  14.416  0.2286 -1.1451  0.8361
  904MPD2    C413295   1.710   2.296  14.453 -0.7132 -0.8692 -0.3838
  904MPD2    C513296   1.596   2.372  14.465  0.5805 -0.0069 -0.0838
  904MPD2     H13297   1.902   2.536  14.329  2.2355 -3.2312 -0.0520
  904MPD2    H113298   1.715   2.192  14.484 -0.3092 -0.4858  0.8412
  904MPD2    H213299   1.489   2.544  14.455 -0.4319 -0.6262 -0.2496
  904MPD2    H313300   1.508   2.328  14.511  1.7080 -1.5903  0.5548
  904MPD2     N13301   1.946   2.285  14.404  0.7455 -0.1371 -0.4976
  904MPD2    H513302   2.028   2.330  14.364  0.1460  1.1887 -0.2318
  904MPD2    N113303   1.685   2.683  14.317  0.2614  0.0013 -0.4030
  904MPD2    H713304   1.773   2.730  14.295  0.0568  0.5148 -0.1398
  905MPD2     C13305   1.457   2.671  13.690 -0.0396  0.2053  0.3180
  905MPD2    C113306   1.561   2.732  13.762  0.2362  0.0597 -0.2939
  905MPD2    C213307   1.694   2.685  13.752  0.2889  0.1727 -0.2964
  905MPD2    C313308   1.732   2.584  13.670 -0.2721  0.5900  0.1994
  905MPD2    C413309   1.626   2.520  13.598  0.0707 -1.2239  0.2405
  905MPD2    C513310   1.493   2.562  13.606 -0.1769  0.3826 -0.4644
  905MPD2     H13311   1.769   2.731  13.816  0.0304  2.6501 -1.7470
  905MPD2    H113312   1.648   2.434  13.535 -0.7350 -1.4143  0.2199
  905MPD2    H213313   1.353   2.700  13.688 -0.4882 -1.4701 -0.7054
  905MPD2    H313314   1.421   2.531  13.531  1.3569 -0.4709 -1.5861
  905MPD2     N13315   1.863   2.536  13.664 -0.6056  0.2544 -0.2401
  905MPD2    H513316   1.929   2.606  13.697 -0.1832 -0.3560  0.2324
  905MPD2    N113317   1.526   2.830  13.853 -0.2747  0.6588  0.6997
  905MPD2    H713318   1.435   2.817  13.897 -0.5377  0.7420  0.1859
  906MPD2     C13319   3.931   2.575  11.466 -0.2291  0.0644 -0.1630
  906MPD2    C113320   4.026   2.528  11.375  0.0120 -0.6838  0.7173
  906MPD2    C213321   4.046   2.389  11.375  0.3866 -0.8667  0.3475
  906MPD2    C313322   3.964   2.307  11.452  0.0042 -0.1268  0.2367
  906MPD2    C413323   3.865   2.361  11.529 -0.7679 -0.3071 -0.8712
  906MPD2    C513324   3.861   2.497  11.548  0.3919 -0.1216  0.4141
  906MPD2     H13325   4.117   2.348  11.304  2.0735  1.4467  0.7074
  906MPD2    H113326   3.793   2.292  11.572  0.8883 -1.4562  0.0848
  906MPD2    H213327   3.900   2.678  11.482 -2.6280 -0.8595  1.0993
  906MPD2    H313328   3.787   2.545  11.612 -1.4855  0.5016 -2.2416
  906MPD2     N13329   3.970   2.162  11.437  0.5934 -0.2047 -0.2970
  906MPD2    H513330   3.887   2.109  11.463 -0.5183  0.6125 -2.1896
  906MPD2    N113331   4.084   2.606  11.272  0.2962  0.4425 -0.2940
  906MPD2    H713332   4.132   2.551  11.201 -0.2809  0.6586 -0.8505
  907MPD2     C13333   2.935   2.084  15.678  0.2508  0.8307 -0.2251
  907MPD2    C113334   2.968   1.950  15.662 -1.3038 -0.2475  0.3059
  907MPD2    C213335   3.077   1.893  15.737  0.3487  0.1601  0.6080
  907MPD2    C313336   3.144   1.970  15.833  0.6867  0.2296  0.0958
  907MPD2    C413337   3.104   2.102  15.843 -0.5966  0.0597  0.1309
  907MPD2    C513338   2.998   2.155  15.772 -0.2560  0.0970  0.6381
  907MPD2     H13339   3.105   1.791  15.715  0.9836 -0.2098  3.2403
  907MPD2    H113340   3.156   2.164  15.916 -0.2864  0.7489 -0.6717
  907MPD2    H213341   2.847   2.129  15.633 -0.1855  0.2346  0.0321
  907MPD2    H313342   2.962   2.251  15.809  1.0870  1.3891 -1.3854
  907MPD2     N13343   3.245   1.909  15.908  0.1892 -0.3080 -0.4050
  907MPD2    H513344   3.269   1.816  15.875 -0.3750 -0.2481 -0.9801
  907MPD2    N113345   2.903   1.868  15.566 -0.1560 -0.0107 -0.0402
  907MPD2    H713346   2.927   1.769  15.564  2.0703  0.4974  1.4431
  908MPD2     C13347   1.359   2.336   9.971  0.5772  0.3189  1.1871
  908MPD2    C113348   1.231   2.301  10.024  0.8794  0.1240  0.7590
  908MPD2    C213349   1.208   2.331  10.159 -0.3806  0.1246 -0.0895
  908MPD2    C313350   1.306   2.397  10.235 -0.5689 -0.0230 -0.0021
  908MPD2    C413351   1.426   2.424  10.176  0.7943 -0.2470 -0.3044
  908MPD2    C513352   1.455   2.403  10.040 -0.0476  0.2756  0.7520
  908MPD2     H13353   1.107   2.309  10.191 -0.2705 -1.3321 -0.7763
  908MPD2    H113354   1.506   2.465  10.235  0.9800 -0.9745 -0.0463
  908MPD2    H213355   1.387   2.311   9.869 -3.3795  0.6768  0.0316
  908MPD2    H313356   1.551   2.426   9.996  1.0336 -3.4583  1.1794
  908MPD2     N13357   1.291   2.437  10.372  0.0430 -0.1895  0.4449
  908MPD2    H513358   1.215   2.402  10.430 -2.0169 -0.4806 -2.4468
  908MPD2    N113359   1.132   2.234   9.944 -0.8728  0.2991 -0.3369
  908MPD2    H713360   1.148   2.230   9.844 -1.8431 -0.8907 -0.4558
  909MPD2     C13361   1.400   0.727  11.960  0.5165 -0.3524  0.2144
  909MPD2    C113362   1.395   0.864  11.964 -0.1154  0.0755  0.4214
  909MPD2    C213363   1.283   0.929  12.009 -0.1739 -0.5216  0.3643
  909MPD2    C313364   1.181   0.867  12.072 -0.9432 -0.3978  0.0715
  909MPD2    C413365   1.173   0.734  12.047  0.6937  0.0602 -0.0368
  909MPD2    C513366   1.283   0.664  11.996  0.7028  0.1953  0.7205
  909MPD2     H13367   1.296   1.036  12.024 -1.9211 -0.2601 -0.0262
  909MPD2    H113368   1.094   0.665  12.075  1.0536 -1.5351 -2.9404
  909MPD2    H213369   1.482   0.664  11.926  1.1976  1.2566 -1.1464
  909MPD2    H313370   1.266   0.558  11.977 -0.8658  0.6955 -0.6989
  909MPD2     N13371   1.073   0.942  12.128  0.5204  0.0655 -0.3068
  909MPD2    H513372   1.073   1.042  12.112 -2.9453  0.2883  1.0442
  909MPD2    N113373   1.505   0.935  11.920  0.0881 -0.2649  0.0867
  909MPD2    H713374   1.487   1.035  11.912  0.7639 -0.4057 -3.2248
  910MPD2     C13375   2.430   2.782  16.306  0.5940 -0.4946  0.0358
  910MPD2    C113376   2.407   2.645  16.296 -0.3232 -0.5643 -0.3039
  910MPD2    C213377   2.335   2.598  16.182  0.0417 -0.2607  0.1232
  910MPD2    C313378   2.310   2.681  16.074  0.1084 -0.7276  0.1635
  910MPD2    C413379   2.346   2.814  16.078  0.2224  0.3571  0.3414
  910MPD2    C513380   2.393   2.861  16.199  0.3158 -0.3673 -0.3099
  910MPD2     H13381   2.291   2.499  16.180  0.0079 -0.2049 -1.7158
  910MPD2    H113382   2.316   2.889  16.005  0.3424  0.5369  0.4761
  910MPD2    H213383   2.449   2.834  16.399  1.0660 -2.5550  1.0825
  910MPD2    H313384   2.391   2.969  16.215 -0.9456 -0.2979 -0.9644
  910MPD2     N13385   2.241   2.632  15.955 -0.2887  0.0383 -0.0502
  910MPD2    H513386   2.228   2.686  15.871 -0.2796  1.8000  1.0785
  910MPD2    N113387   2.431   2.554  16.391 -0.3314  0.5377  0.1485
  910MPD2    H713388   2.394   2.460  16.388 -0.9926  0.9134 -2.7745
  911MPD2     C13389   0.294   2.756  16.029  0.1467 -0.5181  0.1955
  911MPD2    C113390   0.256   2.716  16.158 -0.0927  0.1977 -0.2369
  911MPD2    C213391   0.141   2.769  16.213 -1.2903 -0.1868 -0.2718
  911MPD2    C313392   0.049   2.848  16.136 -0.2617  0.4092  0.0995
  911MPD2    C413393   0.096   2.884  16.012 -0.1643  0.0779  0.9218
  911MPD2    C513394   0.209   2.839  15.959 -0.3328  0.0633 -0.4727
  911MPD2     H13395   0.101   2.727  16.305 -0.8283 -1.6517 -0.7329
  911MPD2    H113396   0.043   2.954  15.948 -3.2146 -0.1734  3.1921
  911MPD2    H213397   0.392   2.735  15.986  0.2723  1.0031 -0.2412
  911MPD2    H313398   0.247   2.890  15.871  0.0780  0.2229 -0.2047
  911MPD2     N13399   4.668   2.897  16.188  0.0545  0.1513  0.0850
  911MPD2    H513400   4.602   2.945  16.127 -0.1028 -3.0472 -2.2592
  911MPD2    N113401   0.336   2.624  16.229 -0.0597  0.1911 -0.2379
  911MPD2    H713402   0.421   2.597  16.181  0.2099  0.2800  0.1849
  912MPD2     C13403   4.575   2.974  15.689 -0.0937 -0.4421  0.1848
  912MPD2    C113404   4.517   2.935  15.802  0.4148 -0.0805 -0.0650
  912MPD2    C213405   4.546   2.808  15.845 -0.0487  0.4626 -0.1942
  912MPD2    C313406   4.633   2.726  15.780 -0.5876 -0.2381  1.0322
  912MPD2    C413407   4.684   2.759  15.655 -1.3084 -0.1647 -0.0342
  912MPD2    C513408   4.656   2.885  15.622 -0.3536 -0.3321 -0.3002
  912MPD2     H13409   4.516   2.776  15.945 -1.0161  0.5067 -0.4727
  912MPD2    H113410   0.007   2.690  15.598 -0.9126  1.0134 -1.0392
  912MPD2    H213411   4.548   3.068  15.641 -0.8014 -0.1502  1.1637
  912MPD2    H313412   4.705   2.922  15.533 -1.7485 -2.2504 -1.8633
  912MPD2     N13413   4.667   2.611  15.852  0.0214  0.2341 -0.6343
  912MPD2    H513414   4.630   2.593  15.945  0.6347 -0.2933 -0.4970
  912MPD2    N113415   4.447   3.022  15.885 -0.0427 -0.6148 -0.1573
  912MPD2    H713416   4.446   3.120  15.859 -1.6780 -0.9356 -1.3361
  913MPD2     C13417   0.991   4.219  11.339  0.8144  0.1365  0.0331
  913MPD2    C113418   0.864   4.209  11.379  0.9254 -0.0369  0.2459
  913MPD2    C213419   0.796   4.317  11.440 -0.0364 -0.0789 -0.6463
  913MPD2    C313420   0.848   4.440  11.417 -1.0906 -0.4874  0.0047
  913MPD2    C413421   0.964   4.459  11.347  1.1024 -0.0816  0.0085
  913MPD2    C513422   1.040   4.347  11.308  0.2059 -0.0934 -0.5927
  913MPD2     H13423   0.697   4.302  11.482  0.5353 -1.7111  0.1283
  913MPD2    H113424   1.006   4.554  11.319  0.2477 -0.0299 -1.0981
  913MPD2    H213425   1.054   4.132  11.328  0.4004  0.0344 -1.6518
  913MPD2    H313426   1.136   4.358  11.259  0.1049  0.0047 -0.7708
  913MPD2     N13427   0.780   4.558  11.464 -0.6074 -0.0446  0.0806
  913MPD2    H513428   0.816   4.648  11.433 -0.2707 -0.0216  0.5412
  913MPD2    N113429   0.818   4.071  11.380  0.5506  0.4613  0.0956
  913MPD2    H713430   0.881   4.008  11.332  0.8926  0.5893  0.3784
  914MPD2     C13431   2.927   4.381  12.449  0.0687  0.5543 -0.1945
  914MPD2    C113432   2.988   4.415  12.570 -0.4429 -0.6354 -0.3981
  914MPD2    C213433   3.070   4.324  12.636 -0.3317  0.4059  0.1994
  914MPD2    C313434   3.090   4.198  12.587  0.5995  0.1356 -0.1156
  914MPD2    C413435   3.044   4.172  12.461  0.3107 -0.2073  0.0728
  914MPD2    C513436   2.961   4.256  12.397 -0.5952 -0.2883  0.1394
  914MPD2     H13437   3.110   4.350  12.734 -0.2574 -0.0591  0.2897
  914MPD2    H113438   3.073   4.078  12.415  1.8196  0.5430 -0.5211
  914MPD2    H213439   2.846   4.441  12.410  1.6687  1.2928 -2.3483
  914MPD2    H313440   2.922   4.231  12.299  1.0469 -0.2743 -0.5210
  914MPD2     N13441   3.167   4.107  12.664 -1.0730  0.2710  0.3335
  914MPD2    H513442   3.197   4.145  12.753  2.5077  2.2812 -1.7415
  914MPD2    N113443   2.967   4.544  12.617 -0.1739  0.3731 -0.1345
  914MPD2    H713444   2.911   4.600  12.553  1.5309 -1.7386 -3.4269
  915MPD2     C13445   1.711   4.253  15.881 -0.3912 -0.6475  0.0273
  915MPD2    C113446   1.604   4.268  15.799  0.0188  0.4365  0.1122
  915MPD2    C213447   1.477   4.282  15.851 -0.3023 -0.1592 -1.1172
  915MPD2    C313448   1.463   4.274  15.991 -0.6979  0.0020 -0.0167
  915MPD2    C413449   1.577   4.257  16.072  0.4927 -0.1521  0.1141
  915MPD2    C513450   1.694   4.235  16.012 -0.8097  0.1631 -0.1033
  915MPD2     H13451   1.388   4.295  15.790 -1.0330  2.0057  0.3967
  915MPD2    H113452   1.581   4.257  16.180  1.5568 -1.0375  0.0770
  915MPD2    H213453   1.810   4.263  15.837 -1.0296  2.5053 -0.7072
  915MPD2    H313454   1.786   4.224  16.069  0.5298 -1.4772 -2.5246
  915MPD2     N13455   1.338   4.302  16.045  0.5303  1.2119  0.1874
  915MPD2    H513456   1.268   4.335  15.979 -1.4092 -0.9513  1.1682
  915MPD2    N113457   1.637   4.275  15.659  0.2453 -0.1595 -0.3429
  915MPD2    H713458   1.731   4.255  15.627  0.2180 -2.3646  0.9971
  916MPD2     C13459   4.344   2.693  15.598 -0.4128  0.9553 -0.1106
  916MPD2    C113460   4.344   2.572  15.660  0.4644 -0.4899 -0.3191
  916MPD2    C213461   4.379   2.457  15.583 -0.1214 -0.7391  0.0754
  916MPD2    C313462   4.423   2.468  15.451  1.0283  0.4265 -0.1440
  916MPD2    C413463   4.418   2.587  15.394 -0.1215  0.3832 -0.2034
  916MPD2    C513464   4.383   2.700  15.469 -0.3053 -0.1807 -0.4654
  916MPD2     H13465   4.370   2.355  15.620 -2.7487 -0.4920  0.1376
  916MPD2    H113466   4.455   2.608  15.294  0.7119  1.9470  0.4318
  916MPD2    H213467   4.319   2.782  15.654  1.2838 -0.9629  3.6684
  916MPD2    H313468   4.378   2.801  15.430  2.2325  0.5123  1.0362
  916MPD2     N13469   4.467   2.357  15.390  0.3127  0.9159 -0.3080
  916MPD2    H513470   4.473   2.268  15.436  1.8253 -0.2175 -2.6854
  916MPD2    N113471   4.287   2.571  15.796  0.6869  0.6825  0.0161
  916MPD2    H713472   4.257   2.662  15.829 -1.0766 -0.0733  0.5419
  917MPD2     C13473   0.130   4.332  11.981 -0.0293 -0.2034  0.3701
  917MPD2    C113474   0.040   4.424  11.944 -0.0854 -0.4181 -0.0739
  917MPD2    C213475   0.049   4.492  11.827  0.3404 -0.8266 -0.2838
  917MPD2    C313476   0.171   4.490  11.757 -0.0535  0.1532 -0.3804
  917MPD2    C413477   0.267   4.398  11.800  0.6684 -0.6721  0.7014
  917MPD2    C513478   0.241   4.317  11.902 -0.1272  0.8184  0.5081
  917MPD2     H13479   4.708   4.558  11.791  0.3813 -0.2451  0.6964
  917MPD2    H113480   0.367   4.404  11.760  1.3713 -3.2030  2.0748
  917MPD2    H213481   0.127   4.281  12.076  2.2371  0.5020  0.8323
  917MPD2    H313482   0.309   4.236  11.926 -1.0760  0.7452  2.9984
  917MPD2     N13483   0.197   4.573  11.642  0.3986  0.1848  0.3594
  917MPD2    H513484   0.292   4.565  11.606 -0.7129  1.5415 -2.9089
  917MPD2    N113485   4.653   4.441  12.013 -0.1674 -0.3011 -0.1574
  917MPD2    H713486   4.631   4.365  12.076  1.0588 -0.5874 -0.0948
  918MPD2     C13487   4.451   0.639  12.234  0.5727 -0.1088  0.3603
  918MPD2    C113488   4.566   0.561  12.258 -0.1725  0.0821 -0.1378
  918MPD2    C213489   4.544   0.426  12.263 -0.0486 -0.1301 -0.6100
  918MPD2    C313490   4.426   0.363  12.223  0.2039  0.1070  0.8289
  918MPD2    C413491   4.317   0.447  12.205  0.0736  0.5200  0.3304
  918MPD2    C513492   4.329   0.581  12.211 -0.1245  0.0501  1.5678
  918MPD2     H13493   4.626   0.364  12.299 -0.3379  0.6567  1.4062
  918MPD2    H113494   4.222   0.402  12.178 -0.4153  1.8169 -0.1062
  918MPD2    H213495   4.447   0.746  12.219  0.1095  0.0975  1.9841
  918MPD2    H313496   4.243   0.645  12.194  0.4481 -0.0831 -1.9556
  918MPD2     N13497   4.411   0.223  12.227  0.3312  0.0643 -0.3718
  918MPD2    H513498   4.493   0.180  12.267  1.1146  2.2951  0.3965
  918MPD2    N113499   4.689   0.620  12.296 -0.7364  0.7865 -0.2075
  918MPD2    H713500   0.031   0.564  12.325 -1.8006 -1.3060 -1.3076
  919MPD2     C13501   4.529   3.841  11.433 -0.1926 -0.1600  0.1342
  919MPD2    C113502   4.652   3.768  11.440  0.0039  0.1599 -0.0456
  919MPD2    C213503   0.024   3.814  11.378 -0.2864  1.0514 -0.5420
  919MPD2    C313504   0.015   3.938  11.307  0.2748 -0.0894  0.2086
  919MPD2    C413505   4.629   4.007  11.295  0.1376 -0.4841 -0.5552
  919MPD2    C513506   4.526   3.956  11.360  0.6077 -0.2606 -0.1501
  919MPD2     H13507   0.119   3.763  11.382  0.4708  2.4771 -0.6135
  919MPD2    H113508   4.619   4.105  11.250  3.7986 -0.6216 -1.6853
  919MPD2    H213509   4.440   3.805  11.484  0.9789 -2.2680  0.6718
  919MPD2    H313510   4.441   4.020  11.378  0.2101 -0.4679 -1.3146
  919MPD2     N13511   0.116   3.993  11.233 -0.2094 -0.0220  0.0948
  919MPD2    H513512   0.095   4.071  11.172 -0.1047 -0.5780 -0.6619
  919MPD2    N113513   4.665   3.653  11.524 -0.3601 -0.9115 -0.4040
  919MPD2    H713514   0.010   3.594  11.509 -0.0843 -1.2134  2.3023
  920MPD2     C13515   0.047   4.654  10.678 -0.5037 -0.4888  0.0518
  920MPD2    C113516   4.705   4.558  10.731  0.2732 -0.3712 -0.2324
  920MPD2    C213517   0.024   4.458  10.812  0.4759 -0.0691  0.5723
  920MPD2    C313518   0.157   4.459  10.842 -0.0615 -0.1350 -0.3598
  920MPD2    C413519   0.234   4.560  10.794  0.1069 -0.0132 -0.0318
  920MPD2    C513520   0.182   4.649  10.704  0.5751  0.0047 -0.3810
  920MPD2     H13521   4.706   4.368  10.836 -1.6994  1.2703  0.6093
  920MPD2    H113522   0.338   4.579  10.816 -0.3104  2.6342 -0.3746
  920MPD2    H213523   0.011   4.736  10.617 -2.0208 -1.4331 -0.3216
  920MPD2    H313524   0.252   4.727  10.676  2.2952 -0.7657  1.7722
  920MPD2     N13525   0.208   4.361  10.930 -0.3258  0.2022 -0.5311
  920MPD2    H513526   0.144   4.293  10.970 -0.6005  1.4003  1.0690
  920MPD2    N113527   4.568   4.547  10.703  0.0870  0.7046  0.5693
  920MPD2    H713528   4.518   4.470  10.746  1.5233  0.4411  1.7646
  921MPD2     C13529   1.123   2.814  16.841  0.7558  0.4820 -0.3597
  921MPD2    C113530   1.150   2.757  16.719  0.3092 -0.5801  0.3185
  921MPD2    C213531   1.051   2.688  16.652 -1.1540  0.3669 -0.7554
  921MPD2    C313532   0.923   2.675  16.706 -0.6706  0.2279  0.1183
  921MPD2    C413533   0.895   2.730  16.828 -0.1434  0.4018  0.0158
  921MPD2    C513534   0.998   2.792  16.896 -0.7683  0.0127  1.0700
  921MPD2     H13535   1.071   2.649  16.552 -2.5011  0.3382 -1.0100
  921MPD2    H113536   0.802   2.715  16.881  0.1547  1.3387  0.7916
  921MPD2    H213537   1.206   2.864  16.890  1.1938 -0.9487  0.3786
  921MPD2    H313538   0.988   2.831  16.997 -0.8304  3.7880 -0.3711
  921MPD2     N13539   0.829   2.601  16.633 -0.7897  0.1214  0.2038
  921MPD2    H513540   0.865   2.575  16.541 -2.6159 -1.7683  0.0230
  921MPD2    N113541   1.274   2.786  16.663 -0.1761  0.0959  0.3263
  921MPD2    H713542   1.326   2.863  16.704  2.2149 -0.4977 -1.5951
  922MPD2     C13543   2.080   1.235   0.450 -0.5594 -0.2621  0.1134
  922MPD2    C113544   2.067   1.163   0.332 -0.5399 -0.1085  0.4007
  922MPD2    C213545   1.938   1.127   0.286  0.0444 -0.0094  0.8399
  922MPD2    C313546   1.830   1.177   0.353  0.3493  0.1367  0.3549
  922MPD2    C413547   1.848   1.261   0.462 -1.5642  0.3629  0.2843
  922MPD2    C513548   1.972   1.273   0.516 -0.1987 -0.0646 -0.3162
  922MPD2     H13549   1.934   1.078   0.189  2.8687 -2.5896  2.0205
  922MPD2    H113550   1.765   1.299   0.520 -1.9010 -0.1970  0.1626
  922MPD2    H213551   2.174   1.261   0.497  0.1523  2.1458 -2.6935
  922MPD2    H313552   1.983   1.329   0.608 -1.8477 -4.0974  2.3588
  922MPD2     N13553   1.703   1.145   0.297  0.0680 -0.0643  0.6199
  922MPD2    H513554   1.690   1.068   0.232 -0.7759  0.6815 -0.0923
  922MPD2    N113555   2.175   1.116   0.255 -0.3223  0.2650 -0.3055
  922MPD2    H713556   2.163   1.072   0.164  0.6888  0.9466 -0.7714
  923MPD2     C13557   3.557   2.587   9.594  0.1219 -0.4048 -0.1825
  923MPD2    C113558   3.537   2.701   9.660 -0.1642  0.5773  0.1518
  923MPD2    C213559   3.630   2.735   9.757 -0.0360  0.4569  0.0752
  923MPD2    C313560   3.726   2.655   9.805 -0.1846 -0.7300  0.0669
  923MPD2    C413561   3.728   2.533   9.745  0.3648  0.5339  0.6807
  923MPD2    C513562   3.651   2.505   9.639  0.2478 -0.0330 -0.5066
  923MPD2     H13563   3.634   2.838   9.790  2.3245  1.0299 -1.9562
  923MPD2    H113564   3.807   2.463   9.771  0.1898  1.3412  3.4174
  923MPD2    H213565   3.492   2.557   9.512  0.3900  0.3786 -0.6746
  923MPD2    H313566   3.663   2.411   9.586  0.4739 -1.4099  1.9955
  923MPD2     N13567   3.810   2.683   9.914 -0.1934  0.3096 -0.1309
  923MPD2    H513568   3.868   2.607   9.948  1.9445  1.3889 -1.3704
  923MPD2    N113569   3.419   2.772   9.620 -0.0008  0.1099 -0.2058
  923MPD2    H713570   3.365   2.729   9.546 -1.1624  1.0279  0.1100
  924MPD2     C13571   2.981   1.271  16.092  0.1780  0.0421  0.0284
  924MPD2    C113572   3.058   1.298  16.202 -0.4564 -0.4549  0.0890
  924MPD2    C213573   3.167   1.377  16.184 -0.2406  1.0732  0.0019
  924MPD2    C313574   3.207   1.424  16.053 -0.1054 -0.5091  0.0214
  924MPD2    C413575   3.118   1.400  15.948 -0.3714 -0.4540 -0.9565
  924MPD2    C513576   3.004   1.329  15.976  0.8874  0.1082  0.0904
  924MPD2     H13577   3.218   1.409  16.274  2.3520 -2.2448 -0.2762
  924MPD2    H113578   3.136   1.447  15.852 -5.2302  0.5095 -1.4338
  924MPD2    H213579   2.898   1.201  16.095  0.5562 -0.3964  0.2697
  924MPD2    H313580   2.931   1.305  15.899  0.0640 -2.1760  1.5659
  924MPD2     N13581   3.317   1.507  16.026 -0.3247  0.6739 -0.0128
  924MPD2    H513582   3.318   1.552  15.935 -1.5174  1.1121  0.1999
  924MPD2    N113583   3.018   1.242  16.328 -0.3471  0.1834  0.3121
  924MPD2    H713584   2.940   1.178  16.335 -0.8042  0.3831 -2.7612
  925MPD2     C13585   1.935   3.953  14.864 -0.6211  0.0226  0.2935
  925MPD2    C113586   1.927   3.815  14.833  0.1204 -0.4653 -0.0356
  925MPD2    C213587   1.861   3.731  14.925  0.0673  0.0100  0.4623
  925MPD2    C313588   1.806   3.778  15.046 -0.2600  0.6968  0.6540
  925MPD2    C413589   1.822   3.915  15.073 -0.2427 -0.1076  0.4410
  925MPD2    C513590   1.875   4.002  14.983  0.0170  0.5524 -0.1297
  925MPD2     H13591   1.843   3.627  14.901  0.9662 -0.1355  0.3994
  925MPD2    H113592   1.771   3.953  15.161  1.7909  1.7333  0.8215
  925MPD2    H213593   1.977   4.022  14.792 -1.9476  3.0100  2.3839
  925MPD2    H313594   1.869   4.108  15.004  0.6922  0.9386 -1.9316
  925MPD2     N13595   1.746   3.693  15.138  0.3266  0.5632  0.3891
  925MPD2    H513596   1.699   3.611  15.099  2.8385 -0.0708 -1.3020
  925MPD2    N113597   1.959   3.756  14.708 -0.0630  0.1120  0.1731
  925MPD2    H713598   1.956   3.655  14.704  2.2902  0.0383  0.1366
  926MPD2     C13599   0.383   1.797  13.244 -0.4942  0.4599  0.9815
  926MPD2    C113600   0.382   1.925  13.294  0.3732 -0.0173 -0.3096
  926MPD2    C213601   0.457   2.020  13.223 -0.1883  0.4215 -0.4888
  926MPD2    C313602   0.522   1.988  13.103 -0.1353 -0.3827  0.1114
  926MPD2    C413603   0.518   1.859  13.054 -0.2459  0.2528  0.0529
  926MPD2    C513604   0.445   1.770  13.123  0.1969  0.1239 -0.2382
  926MPD2     H13605   0.442   2.122  13.256  0.7333  1.0042 -1.8777
  926MPD2    H113606   0.570   1.833  12.963  1.8476  0.5197  1.1661
  926MPD2    H213607   0.328   1.718  13.293  0.9754 -0.8446  0.5375
  926MPD2    H313608   0.451   1.669  13.082 -1.3169  0.0286 -0.2128
  926MPD2     N13609   0.589   2.077  13.025  0.2242 -0.4962 -0.5485
  926MPD2    H513610   0.607   2.050  12.929  2.2233  2.0765 -0.8858
  926MPD2    N113611   0.297   1.968  13.395 -0.2439  0.0355 -0.0930
  926MPD2    H713612   0.299   2.066  13.421 -1.1342  0.5985 -2.1463
  927MPD2     C13613   1.119   3.975   0.072 -0.3226 -0.9217 -0.4047
  927MPD2    C113614   0.995   3.957   0.020 -0.1859 -0.0205 -0.0334
  927MPD2    C213615   0.965   4.018  17.644 -0.0387 -0.4098 -0.6332
  927MPD2    C313616   1.058   4.078  17.577 -0.9720  0.4195 -0.4229
  927MPD2    C413617   1.183   4.083  17.629  0.5034 -0.1713 -0.2557
  927MPD2    C513618   1.216   4.039   0.002  0.0639  0.5893 -0.4321
  927MPD2     H13619   0.868   4.017  17.594 -0.9481  1.0725  1.1295
  927MPD2    H113620   1.263   4.126  17.570 -1.0350  2.8350 -0.1041
  927MPD2    H213621   1.139   3.947   0.175  2.1397 -0.0592 -0.6489
  927MPD2    H313622   1.317   4.046   0.041  0.4142 -2.0082 -0.9308
  927MPD2     N13623   1.015   4.152  17.458  0.2479  1.0109  0.4918
  927MPD2    H513624   0.923   4.142  17.417  1.1349  0.8167 -1.4202
  927MPD2    N113625   0.902   3.876   0.088 -0.0889 -0.1576  0.4052
  927MPD2    H713626   0.926   3.850   0.183  1.7830  1.4450  0.3711
  928MPD2     C13627   3.059   2.303   0.979 -0.1376  0.7470 -0.3912
  928MPD2    C113628   3.142   2.400   1.041  0.6352  0.0912 -0.3500
  928MPD2    C213629   3.253   2.450   0.967  0.5748 -0.4211  1.0173
  928MPD2    C313630   3.264   2.413   0.834 -0.6148  0.2545 -0.6378
  928MPD2    C413631   3.173   2.332   0.776  0.1139 -0.2333  0.0164
  928MPD2    C513632   3.073   2.272   0.847 -0.6193 -0.0485  0.3794
  928MPD2     H13633   3.322   2.526   1.002 -1.9209  2.8984 -1.3025
  928MPD2    H113634   3.182   2.303   0.672 -2.7545  1.0523 -0.5889
  928MPD2    H213635   2.988   2.244   1.037  1.8973 -1.3534 -0.0354
  928MPD2    H313636   3.010   2.201   0.795 -0.6325  1.0112 -1.0474
  928MPD2     N13637   3.357   2.470   0.748 -0.0320  0.0778 -0.1889
  928MPD2    H513638   3.348   2.460   0.647 -1.0281  0.3501 -0.1337
  928MPD2    N113639   3.120   2.423   1.180 -0.0000  0.3430  0.3697
  928MPD2    H713640   3.043   2.380   1.230  0.5674 -1.2960 -0.1778
  929MPD2     C13641   3.686   2.983  10.708 -0.1980 -0.2883  0.7635
  929MPD2    C113642   3.585   2.890  10.712  0.8097  0.0172  0.0618
  929MPD2    C213643   3.479   2.910  10.620  0.2738 -0.1870  0.2661
  929MPD2    C313644   3.466   3.040  10.571  0.9330  0.0132  0.1942
  929MPD2    C413645   3.562   3.132  10.579  0.3250 -0.2019  1.0772
  929MPD2    C513646   3.668   3.112  10.655  0.0309 -0.3026 -0.7716
  929MPD2     H13647   3.399   2.838  10.615  1.1418 -1.1903  0.8273
  929MPD2    H113648   3.547   3.231  10.537  0.6651 -0.4322  0.4132
  929MPD2    H213649   3.772   2.961  10.771  1.4670  3.4117 -0.1825
  929MPD2    H313650   3.749   3.184  10.656  0.4753 -0.8059  0.1273
  929MPD2     N13651   3.357   3.081  10.489  0.1632 -0.0582 -0.9295
  929MPD2    H513652   3.350   3.181  10.473  1.8605  0.6729  2.9541
  929MPD2    N113653   3.604   2.781  10.797  0.3201 -0.1028 -0.2491
  929MPD2    H713654   3.687   2.761  10.850  0.9707 -2.0352 -1.9710
  930MPD2     C13655   4.642   0.317  14.212 -0.4436  0.5338 -0.3834
  930MPD2    C113656   0.008   0.322  14.123 -0.2415  0.5016 -0.2435
  930MPD2    C213657   0.006   0.243  14.014 -0.1316 -0.1723  0.0352
  930MPD2    C313658   4.638   0.165  13.980  0.1146  0.2631  0.1430
  930MPD2    C413659   4.533   0.167  14.064 -0.0745 -0.0142  0.1119
  930MPD2    C513660   4.534   0.247  14.175 -0.2023  0.1530  0.3895
  930MPD2     H13661   0.094   0.231  13.952  0.1347 -0.0626  0.3902
  930MPD2    H113662   4.448   0.103  14.042 -2.1004  1.6315  3.0557
  930MPD2    H213663   4.631   0.361  14.310  1.3127 -0.7590  0.4099
  930MPD2    H313664   4.455   0.249  14.249  1.0087  1.3555  1.6446
  930MPD2     N13665   4.635   0.068  13.870  0.0760  0.5098  0.1758
  930MPD2    H513666   4.560   0.000  13.883 -1.9104  2.6045 -0.2343
  930MPD2    N113667   0.126   0.388  14.165  0.0656  0.4210  0.4814
  930MPD2    H713668   0.125   0.417  14.262 -0.5738 -0.0691  0.6228
  931MPD2     C13669   0.925   3.390   0.456 -0.8353  0.2777  0.1621
  931MPD2    C113670   0.847   3.481   0.517 -0.4256  0.0382 -0.8172
  931MPD2    C213671   0.835   3.477   0.657 -0.4510 -0.6702  0.3694
  931MPD2    C313672   0.915   3.387   0.725  0.7724 -0.3798 -0.0255
  931MPD2    C413673   0.984   3.294   0.661 -0.0661  0.3728 -0.0004
  931MPD2    C513674   0.986   3.286   0.525  0.4769  0.1619 -0.1911
  931MPD2     H13675   0.780   3.558   0.703  2.4644  2.4122 -1.5707
  931MPD2    H113676   1.051   3.222   0.708 -1.0230 -0.9221 -0.6201
  931MPD2    H213677   0.927   3.386   0.348 -0.5636 -0.0427  0.1763
  931MPD2    H313678   1.048   3.209   0.480  0.3888  1.0438 -1.8193
  931MPD2     N13679   0.921   3.378   0.871  1.0056  0.8026  0.3167
  931MPD2    H513680   0.973   3.305   0.919  1.3205 -0.6828 -2.3087
  931MPD2    N113681   0.775   3.578   0.440  0.0304 -0.2807  1.1205
  931MPD2    H713682   0.790   3.572   0.340  1.1393  1.5767  1.1832
  932MPD2     C13683   1.695   3.945  11.592  0.7694 -0.0185 -0.5380
  932MPD2    C113684   1.821   3.901  11.610  0.2693 -0.1043 -0.3478
  932MPD2    C213685   1.845   3.768  11.610 -0.0729  0.4227 -0.2985
  932MPD2    C313686   1.742   3.675  11.608  0.1521  0.5169  0.0681
  932MPD2    C413687   1.615   3.726  11.592  0.3544 -0.0687  0.0333
  932MPD2    C513688   1.593   3.861  11.574  0.2799  0.5697 -0.7518
  932MPD2     H13689   1.950   3.741  11.613 -0.5580 -1.4606 -0.0524
  932MPD2    H113690   1.534   3.654  11.597  1.5361 -1.4089 -0.2838
  932MPD2    H213691   1.677   4.052  11.589  1.3132  0.1149  0.7373
  932MPD2    H313692   1.495   3.903  11.554 -0.1072  0.3730  0.7609
  932MPD2     N13693   1.767   3.532  11.600 -0.4587 -0.2391 -0.5952
  932MPD2    H513694   1.690   3.466  11.590  0.3811 -1.3912  0.4332
  932MPD2    N113695   1.931   3.998  11.623  0.2878  0.2960 -0.3642
  932MPD2    H713696   2.024   3.958  11.629  0.3327  0.8727  3.2813
  933MPD2     C13697   2.537   2.403   1.420 -0.0640 -0.3260  0.6522
  933MPD2    C113698   2.616   2.496   1.471  0.4602 -0.3050 -0.0757
  933MPD2    C213699   2.560   2.616   1.513 -0.4010 -0.1997 -0.5088
  933MPD2    C313700   2.429   2.650   1.494  0.7694  0.0700 -0.2152
  933MPD2    C413701   2.345   2.549   1.443  0.2306  0.2443  0.1330
  933MPD2    C513702   2.403   2.430   1.406  0.0060 -0.6039  0.2171
  933MPD2     H13703   2.616   2.692   1.566  2.8930 -1.6907 -1.8377
  933MPD2    H113704   2.238   2.558   1.426  0.5111 -1.0952 -2.3312
  933MPD2    H213705   2.570   2.315   1.367  4.4368  1.7330  0.0846
  933MPD2    H313706   2.338   2.359   1.356 -1.7397  0.4952  0.9360
  933MPD2     N13707   2.387   2.778   1.534  0.3249 -0.8042  0.5978
  933MPD2    H513708   2.464   2.837   1.563  0.8168 -0.3714 -1.5847
  933MPD2    N113709   2.757   2.478   1.485  0.2709  0.2014  0.0802
  933MPD2    H713710   2.795   2.404   1.427  1.6507  0.9996 -0.0347
  934MPD2     C13711   0.281   0.492   1.931 -0.1322  0.4814  0.4244
  934MPD2    C113712   0.307   0.374   1.869  0.0429 -0.6410 -0.4027
  934MPD2    C213713   0.208   0.290   1.829 -0.1051 -0.6262 -0.3072
  934MPD2    C313714   0.074   0.319   1.859 -0.4067 -0.4968 -0.6349
  934MPD2    C413715   0.049   0.446   1.913 -0.8747  0.8648  0.4227
  934MPD2    C513716   0.151   0.534   1.950 -0.3585 -0.2013 -0.8293
  934MPD2     H13717   0.236   0.196   1.784  4.5272  0.4930  0.2505
  934MPD2    H113718   4.682   0.474   1.919 -1.3296 -0.4013 -1.5611
  934MPD2    H213719   0.357   0.560   1.968 -0.1296 -0.3266  1.8795
  934MPD2    H313720   0.133   0.632   1.994  0.2906  0.1835 -1.4150
  934MPD2     N13721   4.701   0.244   1.806  0.1020 -0.3820 -0.7408
  934MPD2    H513722   4.612   0.291   1.818 -0.1557 -1.4464  1.6517
  934MPD2    N113723   0.435   0.336   1.835 -0.2193 -0.1617  0.4111
  934MPD2    H713724   0.438   0.242   1.797  3.1487  0.0155  0.2517
  935MPD2     C13725   4.685   4.072   1.378 -0.1600  0.1060 -0.0878
  935MPD2    C113726   4.580   4.132   1.313  0.6745  0.5333 -0.1368
  935MPD2    C213727   4.538   4.259   1.353  0.2079 -0.0370  0.2845
  935MPD2    C313728   4.608   4.328   1.457  0.1647  0.5844  0.2490
  935MPD2    C413729   4.723   4.271   1.506 -0.3663  0.5002 -0.3114
  935MPD2    C513730   0.020   4.146   1.467  0.0600  0.4158 -0.3615
  935MPD2     H13731   4.450   4.304   1.308 -0.8022 -0.0389  2.2786
  935MPD2    H113732   0.046   4.317   1.584  1.4568 -0.8613 -0.9045
  935MPD2    H213733   4.725   3.973   1.357 -0.2809  0.2487 -1.0050
  935MPD2    H313734   0.119   4.117   1.502 -0.0429  0.5615  0.0505
  935MPD2     N13735   4.588   4.457   1.491 -0.8623  0.2062  0.0857
  935MPD2    H513736   4.647   4.482   1.569  1.8612 -0.2225 -1.7970
  935MPD2    N113737   4.513   4.068   1.205 -0.1526 -0.1061  0.4173
  935MPD2    H713738   4.428   4.116   1.177 -1.0990 -1.4019  1.0911
  936MPD2     C13739   2.327   1.590  12.595 -0.6691 -0.1136 -0.0879
  936MPD2    C113740   2.445   1.550  12.645  0.2307 -0.1808 -0.2062
  936MPD2    C213741   2.560   1.613  12.598  0.0606  0.0522 -0.0336
  936MPD2    C313742   2.552   1.710  12.510  0.4385  0.0311 -0.3688
  936MPD2    C413743   2.435   1.743  12.450 -0.6002 -0.0984  0.9830
  936MPD2    C513744   2.322   1.677  12.487 -0.2160  0.0964 -0.4238
  936MPD2     H13745   2.649   1.579  12.651 -0.0713  1.5826  1.1672
  936MPD2    H113746   2.430   1.826  12.380  1.9519 -0.9089 -0.1746
  936MPD2    H213747   2.235   1.550  12.636  0.3311 -0.6514  1.6520
  936MPD2    H313748   2.226   1.697  12.441 -0.9756  1.7619  1.8288
  936MPD2     N13749   2.671   1.788  12.455  0.5017 -0.0154  0.0324
  936MPD2    H513750   2.648   1.873  12.405  1.3125 -0.1339 -0.5305
  936MPD2    N113751   2.452   1.462  12.759  0.3649  0.1401  0.1361
  936MPD2    H713752   2.543   1.446  12.803 -1.3938 -0.2380  3.6255
  937MPD2     C13753   0.262   3.015  11.610 -0.6383  0.1678  0.2838
  937MPD2    C113754   0.262   3.152  11.629 -0.7533  0.1843 -0.1963
  937MPD2    C213755   0.364   3.225  11.565 -0.9359 -0.7941  0.0746
  937MPD2    C313756   0.471   3.158  11.518  0.0281  0.2815 -1.0021
  937MPD2    C413757   0.478   3.021  11.517 -0.1341 -0.4899 -0.0415
  937MPD2    C513758   0.372   2.951  11.557 -0.5381 -0.6131  0.2446
  937MPD2     H13759   0.360   3.334  11.560 -1.2170 -0.7189  1.9391
  937MPD2    H113760   0.568   2.972  11.481  1.3349  3.1558 -1.2986
  937MPD2    H213761   0.173   2.960  11.640 -0.8987  1.3654  1.6866
  937MPD2    H313762   0.372   2.844  11.540  0.1736 -0.2567 -2.0691
  937MPD2     N13763   0.586   3.235  11.487  0.0161  0.1255  0.8190
  937MPD2    H513764   0.588   3.332  11.517 -2.0003  0.3803  0.1264
  937MPD2    N113765   0.150   3.230  11.661  0.0281  0.9201  0.3493
  937MPD2    H713766   0.150   3.331  11.652 -0.7473  0.8703 -0.1508
  938MPD2     C13767   3.233   3.715   0.956  0.2714  0.3017  0.1469
  938MPD2    C113768   3.148   3.792   1.030  0.5478 -0.4856  0.4314
  938MPD2    C213769   3.040   3.727   1.084 -0.4039  0.3987 -0.0484
  938MPD2    C313770   3.014   3.592   1.074  0.1803 -0.2572  0.5523
  938MPD2    C413771   3.097   3.519   0.995  0.0782  0.3827 -0.2494
  938MPD2    C513772   3.201   3.581   0.930 -0.0780 -0.6081 -0.1864
  938MPD2     H13773   2.979   3.790   1.148 -0.1520 -0.3860  0.9583
  938MPD2    H113774   3.070   3.418   0.967  0.1667  1.0602 -2.8109
  938MPD2    H213775   3.329   3.748   0.918  0.0620 -1.3748 -1.8466
  938MPD2    H313776   3.264   3.514   0.872 -1.0834  0.2963 -2.3317
  938MPD2     N13777   2.903   3.533   1.142  0.5415 -0.1436  0.1698
  938MPD2    H513778   2.894   3.433   1.129 -0.7512  0.1521 -1.1903
  938MPD2    N113779   3.169   3.925   1.063  0.4334  0.3859 -0.5218
  938MPD2    H713780   3.090   3.966   1.112  0.2143 -2.3668  1.3715
  939MPD2     C13781   4.518   0.450   1.101  0.5598  0.4025  0.7920
  939MPD2    C113782   4.485   0.582   1.099 -0.1239 -0.8785  0.0701
  939MPD2    C213783   4.469   0.643   0.978  0.1123 -0.2170 -0.0622
  939MPD2    C313784   4.494   0.570   0.856 -0.1975  0.5392  0.6299
  939MPD2    C413785   4.523   0.438   0.866  0.0125  0.4891  0.1013
  939MPD2    C513786   4.535   0.377   0.986 -0.0357  0.1956 -0.0237
  939MPD2     H13787   4.422   0.740   0.967  0.3332 -0.1872 -0.7344
  939MPD2    H113788   4.541   0.379   0.777  1.1114 -0.1053  0.7172
  939MPD2    H213789   4.540   0.399   1.194  1.5229 -0.0158  0.3419
  939MPD2    H313790   4.576   0.278   0.998  2.0298  1.2774  1.7945
  939MPD2     N13791   4.471   0.638   0.732  0.4127  0.1833  0.5893
  939MPD2    H513792   4.448   0.736   0.742  0.1854  0.2732 -0.7014
  939MPD2    N113793   4.463   0.654   1.219 -0.4199 -0.0606 -0.1726
  939MPD2    H713794   4.475   0.607   1.308  0.6737 -0.2174 -0.4005
  940MPD2     C13795   3.749   1.951  13.533  0.2245 -0.3219  0.4706
  940MPD2    C113796   3.653   1.855  13.540  0.6114  0.0761  0.6518
  940MPD2    C213797   3.599   1.816  13.418 -1.0231  0.6226 -0.0541
  940MPD2    C313798   3.664   1.846  13.296  0.0832  0.6872  0.6710
  940MPD2    C413799   3.769   1.931  13.296  0.3333  0.1895 -0.1105
  940MPD2    C513800   3.809   1.988  13.413  0.0663 -0.0341 -0.3036
  940MPD2     H13801   3.516   1.746  13.421  0.6425 -1.3882 -0.0988
  940MPD2    H113802   3.821   1.955  13.203 -0.2207  1.8130 -0.0058
  940MPD2    H213803   3.788   2.000  13.622 -0.4516 -0.0479  0.6160
  940MPD2    H313804   3.876   2.073  13.417 -0.9828  0.7607  0.5661
  940MPD2     N13805   3.615   1.807  13.171 -0.2429 -0.7137 -0.0058
  940MPD2    H513806   3.674   1.834  13.092 -0.8489 -1.3366 -0.6719
  940MPD2    N113807   3.606   1.804  13.668  0.1111  0.2437 -1.3137
  940MPD2    H713808   3.537   1.730  13.660 -1.5714  1.5079  1.2660
  941MPD2     C13809   2.904   0.962   9.761 -0.1084 -0.1170  0.8102
  941MPD2    C113810   2.994   0.959   9.866  0.5811  0.3301 -0.1132
  941MPD2    C213811   2.986   0.864   9.971 -0.0682 -0.1067  0.1746
  941MPD2    C313812   2.889   0.761   9.964 -0.6800  0.1789  0.2625
  941MPD2    C413813   2.798   0.772   9.864  0.2475  0.3177 -0.6072
  941MPD2    C513814   2.809   0.859   9.759 -1.0413 -0.4296 -0.3184
  941MPD2     H13815   3.053   0.887  10.053 -0.3073  0.1733  0.2893
  941MPD2    H113816   2.720   0.701   9.841  1.1626 -0.7999 -0.2554
  941MPD2    H213817   2.911   1.028   9.675 -2.8292 -0.6042  0.2386
  941MPD2    H313818   2.746   0.851   9.671  2.4411  1.1058 -2.9854
  941MPD2     N13819   2.870   0.658  10.062  0.2157 -0.1309  0.0452
  941MPD2    H513820   2.784   0.606  10.053  0.7369 -0.7333 -1.4665
  941MPD2    N113821   3.093   1.055   9.887 -0.4967 -0.2109  0.0440
  941MPD2    H713822   3.133   1.051   9.980  1.0477 -2.0991 -0.7007
  942MPD2     C13823   2.596   2.474   8.518 -0.7971 -0.2869  0.0679
  942MPD2    C113824   2.596   2.445   8.651  0.0293 -0.2137  0.2826
  942MPD2    C213825   2.621   2.547   8.741  0.2571  0.0682 -0.0599
  942MPD2    C313826   2.651   2.681   8.701  0.2129  0.4861 -0.2274
  942MPD2    C413827   2.644   2.712   8.563 -0.0300  1.0986  0.2386
  942MPD2    C513828   2.616   2.606   8.476 -0.5323  0.6626  0.0369
  942MPD2     H13829   2.604   2.528   8.846  0.0207 -2.0864 -0.5044
  942MPD2    H113830   2.676   2.802   8.512 -1.6720  1.0488 -0.9077
  942MPD2    H213831   2.569   2.394   8.450  0.8678  0.6249 -1.6689
  942MPD2    H313832   2.606   2.620   8.369  0.8159 -1.2956 -0.3460
  942MPD2     N13833   2.683   2.789   8.787 -0.2498  0.7921 -0.3654
  942MPD2    H513834   2.676   2.880   8.744 -2.4273  0.4509 -0.6980
  942MPD2    N113835   2.556   2.317   8.701 -0.3852 -0.4803  0.0588
  942MPD2    H713836   2.535   2.308   8.799 -1.7887  2.6224  0.0316
  943MPD2     C13837   1.499   0.594  10.428  0.2541  0.3268  0.3257
  943MPD2    C113838   1.395   0.545  10.502  0.1635 -0.3544 -0.8713
  943MPD2    C213839   1.334   0.424  10.465  0.6359 -0.4159 -0.6353
  943MPD2    C313840   1.375   0.352  10.347  0.3851  0.1247 -0.1201
  943MPD2    C413841   1.481   0.404  10.275 -0.5565  0.5674 -1.0317
  943MPD2    C513842   1.542   0.519  10.322  1.2444  0.4874  0.2519
  943MPD2     H13843   1.246   0.389  10.518  0.7355  0.8985  0.3858
  943MPD2    H113844   1.526   0.366  10.184 -0.1002  1.5187 -1.2050
  943MPD2    H213845   1.551   0.681  10.469 -0.5993 -0.6681  3.5265
  943MPD2    H313846   1.626   0.552  10.261 -0.3790 -1.3143 -2.9522
  943MPD2     N13847   1.320   0.220  10.311 -0.7056 -0.1261  0.7197
  943MPD2    H513848   1.347   0.187  10.220  0.3181  1.8540  0.2875
  943MPD2    N113849   1.370   0.606  10.633  0.2195 -0.2375  0.4399
  943MPD2    H713850   1.432   0.675  10.672  0.8004  0.6897 -2.1422
  944MPD2     C13851   1.453   0.459  11.390  0.2431  0.2607  0.6378
  944MPD2    C113852   1.527   0.568  11.440 -0.6493 -0.1189  0.2933
  944MPD2    C213853   1.454   0.655  11.517 -0.2477 -0.0051  0.0993
  944MPD2    C313854   1.322   0.640  11.534 -0.1960 -0.5154 -0.1960
  944MPD2    C413855   1.253   0.528  11.486 -0.3119  0.8253  0.4620
  944MPD2    C513856   1.324   0.432  11.424 -0.5808 -0.3800 -0.1120
  944MPD2     H13857   1.504   0.745  11.552  0.1712 -0.0661 -0.3492
  944MPD2    H113858   1.146   0.515  11.482 -0.1671  0.2010 -1.5699
  944MPD2    H213859   1.506   0.383  11.333 -0.0678  1.6847 -1.5528
  944MPD2    H313860   1.284   0.338  11.390 -1.1006  0.1953 -1.0814
  944MPD2     N13861   1.246   0.740  11.600  0.0805 -0.2025 -1.0761
  944MPD2    H513862   1.292   0.830  11.608 -1.4820  0.1658  3.9994
  944MPD2    N113863   1.660   0.589  11.406 -0.3223 -0.3971 -0.4204
  944MPD2    H713864   1.695   0.530  11.332  0.6306 -0.8571  0.3930
    1TMC1    C113865   3.927   2.523  15.662  0.5907  0.9888 -0.5129
    1TMC1    C213866   3.985   2.403  15.657  0.5213 -0.2747  0.3652
    1TMC1    C313867   3.958   2.323  15.766  0.0846 -0.5610 -0.6844
    1TMC1    C413868   3.832   2.560  15.756 -0.5201  0.0785  0.0456
    1TMC1    C513869   3.798   2.476  15.859  0.4001 -0.0176  0.0521
    1TMC1    C613870   3.876   2.361  15.872 -0.2477  0.7721  0.3887
    1TMC1     C13871   3.950   2.616  15.548 -0.6774  0.1805  0.8790
    1TMC1     O13872   3.907   2.727  15.560 -0.1911  0.3095 -0.2916
    1TMC1     H13873   4.058   2.374  15.582 -1.5045 -2.4570 -0.7836
    1TMC1    H113874   3.791   2.661  15.754 -0.5420  0.0324 -1.2081
    1TMC1    H213875   3.858   2.295  15.957 -0.9993 -0.8141 -0.9975
    1TMC1    C713876   3.722   2.509  15.976 -0.3415 -0.2868  0.4594
    1TMC1    C813877   4.022   2.192  15.757 -0.2175  0.4587 -0.4628
    1TMC1    O113878   3.719   2.454  16.084  0.1053  0.8938  0.2587
    1TMC1    O213879   4.110   2.163  15.675  0.0547  0.3931 -0.4020
    1TMC1    O313880   3.661   2.633  15.950 -0.6313  0.5547 -0.0886
    1TMC1    H313881   3.648   2.636  15.853 -1.9820 -0.6124  0.0645
    1TMC1    O513882   3.991   2.115  15.867 -0.1619  0.1884 -0.5909
    1TMC1    H513883   3.898   2.119  15.896  0.0958 -0.1718  0.2750
    2MPD2     C13884   4.100   2.746  15.081 -0.6230 -0.5452 -0.0159
    2MPD2    C113885   4.098   2.610  15.088 -0.4645 -1.0443 -0.1909
    2MPD2    C213886   4.052   2.547  15.205  0.1964  0.3481 -0.2012
    2MPD2    C313887   4.023   2.628  15.313  0.1373  0.0690  0.1126
    2MPD2    C413888   4.035   2.764  15.306 -0.5853 -0.4233  0.1996
    2MPD2    C513889   4.068   2.823  15.190  0.2639 -0.1911 -0.4161
    2MPD2     H13890   4.050   2.439  15.208 -0.7543  0.4075  1.3921
    2MPD2    H113891   4.005   2.826  15.390 -2.9801 -2.0843  0.5898
    2MPD2    H213892   4.126   2.810  14.997  0.7303 -0.4191  0.5034
    2MPD2    H313893   4.076   2.930  15.183 -1.1643 -0.0686 -0.2722
    2MPD2     N13894   3.978   2.561  15.426 -0.1952  0.9244 -0.5623
    2MPD2    H513895   3.992   2.460  15.429 -1.5991  0.8014  2.1330
    2MPD2    N113896   4.136   2.538  14.973  0.1551  0.0489  0.0170
    2MPD2    H713897   4.147   2.599  14.892  0.8686  1.5377  1.2344
    3TMC2    C113898   4.206   2.369  14.838  0.0263  0.5276 -0.5283
    3TMC2    C213899   4.280   2.467  14.774 -0.1443  0.3071 -0.1988
    3TMC2    C313900   4.297   2.453  14.639 -0.6005 -0.7627  0.3860
    3TMC2    C413901   4.162   2.257  14.783 -0.2209  0.4792 -0.3359
    3TMC2    C513902   4.176   2.249  14.649 -0.5949  0.7777 -0.0272
    3TMC2    C613903   4.240   2.344  14.575 -0.7780  0.0300  0.2321
    3TMC2     C13904   4.144   2.403  14.965  0.3713  0.2779  0.3767
    3TMC2     O13905   4.106   2.313  15.043 -0.0836  0.2994 -0.1727
    3TMC2     H13906   4.306   2.562  14.819  2.3994 -1.1603  1.3976
    3TMC2    H113907   4.109   2.183  14.841  1.6080 -0.4832  0.1209
    3TMC2    H213908   4.264   2.327  14.470  0.1238 -1.2877  0.6442
    3TMC2    C713909   4.097   2.140  14.585 -0.0473  0.4031 -0.3283
    3TMC2    C813910   4.420   2.509  14.568  0.0814  0.6767  0.3354
    3TMC2    O113911   4.057   2.050  14.656  0.5705 -0.0623 -0.2195
    3TMC2    O213912   4.437   2.500  14.448 -0.3520  0.3151 -0.2129
    3TMC2    O513913   4.507   2.485  14.672 -0.6450 -0.5834 -0.2532
    3TMC2    H513914   4.478   2.489  14.765  2.4863 -0.3569  0.7194
    4TMC2    C113915   3.606   2.195  13.725  0.4476 -0.1982  0.7042
    4TMC2    C213916   3.650   2.299  13.640 -0.2849  0.3254 -0.4871
    4TMC2    C313917   3.771   2.365  13.667  0.0910  0.2043 -0.1965
    4TMC2    C413918   3.683   2.165  13.832  0.1288  0.2333 -0.4282
    4TMC2    C513919   3.803   2.225  13.852 -0.4713 -0.1066  0.0885
    4TMC2    C613920   3.845   2.330  13.776  0.1638  0.1167  0.1358
    4TMC2     C13921   3.456   2.154  13.727 -0.0301  0.4422 -0.3290
    4TMC2     O13922   3.426   2.095  13.828  0.2607  0.7555  0.7913
    4TMC2     H13923   3.607   2.323  13.544 -0.5561  1.6817 -0.0290
    4TMC2    H113924   3.650   2.089  13.902  2.8483 -1.2973 -0.7684
    4TMC2    H213925   3.940   2.376  13.801 -0.9716  2.8095 -0.5248
    4TMC2    C713926   3.867   2.215  13.985 -0.0910 -0.2144 -0.4142
    4TMC2    C813927   3.837   2.437  13.560 -0.9880 -0.2308 -0.4645
    4TMC2    O113928   3.917   2.317  14.031  0.8687 -0.1464  0.6185
    4TMC2    O213929   3.776   2.518  13.492 -0.2692 -0.2064  0.3120
    4TMC2    O513930   3.968   2.414  13.545  0.4434  0.1125 -0.2048
    4TMC2    H513931   3.994   2.338  13.601 -1.1984  0.6758  1.3336
    5MPD2     C13932   2.973   2.147  13.541  0.1435  0.2281 -0.4669
    5MPD2    C113933   3.057   2.202  13.452  0.1928  0.1675  0.1708
    5MPD2    C213934   3.195   2.212  13.472 -0.1602  0.1256  0.4124
    5MPD2    C313935   3.243   2.165  13.594 -0.5938  0.0991  0.8508
    5MPD2    C413936   3.162   2.096  13.681  0.6697  0.6392  0.0724
    5MPD2    C513937   3.027   2.089  13.652  0.3146  0.6168  0.8062
    5MPD2     H13938   3.259   2.261  13.399  2.6973 -0.0107  2.8410
    5MPD2    H113939   3.187   2.043  13.772  0.0683 -1.9678 -1.3017
    5MPD2    H213940   2.867   2.135  13.522  0.0655  0.1180  0.0349
    5MPD2    H313941   2.966   2.030  13.720 -1.5161 -1.0975 -2.3360
    5MPD2     N13942   3.381   2.196  13.618  0.3280 -0.0722 -0.0599
    5MPD2    H513943   3.423   2.253  13.545  1.0891  0.1231  0.5243
    5MPD2    N113944   2.995   2.239  13.328  0.0394  0.3816 -0.9853
    5MPD2    H713945   2.896   2.215  13.328  0.0137  0.4737 -2.3062
    6MPD1     C13946   2.391   3.754  13.678  0.2874  0.2587  0.2015
    6MPD1    C113947   2.403   3.796  13.549  0.2608 -0.1271  0.3142
    6MPD1    C213948   2.387   3.700  13.449 -0.2567 -0.1424 -0.1936
    6MPD1    C313949   2.341   3.580  13.488  0.0100  0.3541 -0.5884
    6MPD1    C413950   2.313   3.547  13.619 -0.1137 -0.0478  0.3218
    6MPD1    C513951   2.330   3.641  13.711  0.5051 -0.2706  0.9033
    6MPD1     H13952   2.403   3.719  13.343 -0.5471  0.6998 -0.0910
    6MPD1    H113953   2.271   3.449  13.637  0.8134 -0.9900 -2.5331
    6MPD1    H213954   2.425   3.818  13.759  0.4540 -1.2055  1.2923
    6MPD1    H313955   2.310   3.628  13.817 -0.4060 -1.3843  0.5823
    6MPD1     N13956   2.333   3.470  13.395 -0.4692  0.3449  0.4263
    6MPD1    H513957   2.289   3.388  13.437  0.5941 -1.3992 -1.8463
    6MPD1    N113958   2.464   3.923  13.517 -0.2404 -0.1406  0.1653
    6MPD1    H613959   2.466   3.961  13.423  1.1780 -0.7781 -0.0720
    6MPD1    H713960   2.446   4.006  13.573 -1.5199 -1.0224  1.0470
    7MPD2     C13961   2.356   2.679  13.427  0.7865 -0.0327 -0.3202
    7MPD2    C113962   2.408   2.731  13.309  0.5385 -0.7458  0.1873
    7MPD2    C213963   2.474   2.640  13.231 -0.6151 -0.4196  0.5621
    7MPD2    C313964   2.491   2.505  13.261 -0.1765  0.3053  0.1143
    7MPD2    C413965   2.438   2.460  13.374 -0.0221  0.5992 -0.8054
    7MPD2    C513966   2.369   2.548  13.455 -0.6036 -0.1487 -0.2169
    7MPD2     H13967   2.539   2.677  13.152  0.4317 -0.5447  1.3612
    7MPD2    H113968   2.442   2.359  13.412 -1.5312  1.0882  0.6624
    7MPD2    H213969   2.314   2.745  13.502 -0.8493 -1.5091  0.0370
    7MPD2    H313970   2.340   2.514  13.554 -2.0236  0.5222 -0.4089
    7MPD2     N13971   2.587   2.426  13.193 -0.0145 -0.2496 -0.2424
    7MPD2    H513972   2.618   2.339  13.234  2.0953  0.3714 -0.5296
    7MPD2    N113973   2.420   2.866  13.265  0.4837  0.1738  0.0719
    7MPD2    H713974   2.467   2.889  13.178  1.5997  1.3024  0.9751
    8TMC3    C113975   2.745   2.366  13.031  0.5329 -0.3289 -0.5619
    8TMC3    C213976   2.834   2.341  13.133  0.3726  0.1055  0.1519
    8TMC3    C313977   2.967   2.335  13.111 -0.6242  0.5353 -0.2869
    8TMC3    C413978   2.794   2.406  12.915  0.1204 -1.1528  0.0847
    8TMC3    C513979   2.932   2.424  12.897 -0.4645  0.8123  0.2335
    8TMC3    C613980   3.019   2.390  12.995 -0.6964  0.4867  0.1134
    8TMC3     C13981   2.626   2.440  13.063 -0.6673  1.0601 -0.6187
    8TMC3     O13982   2.612   2.534  12.990  0.1320 -0.1440 -0.4714
    8TMC3     H13983   2.802   2.327  13.236  1.3402 -0.4494  0.3875
    8TMC3    H113984   2.725   2.414  12.832 -2.0288  4.2091  2.3727
    8TMC3    H213985   3.124   2.400  12.970  0.0333 -0.3358  2.8715
    8TMC3    C713986   2.962   2.549  12.842 -0.2022  0.2376  0.1650
    8TMC3    C813987   3.058   2.301  13.222 -0.0417  0.1825 -0.1050
    8TMC3    O113988   3.076   2.573  12.808  0.0343 -0.1837 -0.7546
    8TMC3    O213989   3.178   2.323  13.199  0.3637 -0.3944 -0.0296
    9TMC3    C113990   2.399   3.326  13.215  0.5142 -0.2906  0.4444
    9TMC3    C213991   2.495   3.314  13.117 -0.8063  0.4005  0.3632
    9TMC3    C313992   2.554   3.190  13.098  0.2646  0.2269  0.5633
    9TMC3    C413993   2.363   3.217  13.300  0.3465 -0.1680  0.6273
    9TMC3    C513994   2.434   3.098  13.270 -0.0843  0.1242  0.3179
    9TMC3    C613995   2.530   3.086  13.173  0.5518  0.0677 -0.2880
    9TMC3     C13996   2.381   3.464  13.266  0.0596  0.2154 -0.5979
    9TMC3     O13997   2.437   3.557  13.199 -0.5981 -0.4619 -0.3237
    9TMC3     H13998   2.523   3.396  13.053  0.1971 -0.7451 -0.6460
    9TMC3    H113999   2.273   3.212  13.359  0.2784  1.6021  0.6813
    9TMC3    H214000   2.600   3.003  13.176  1.8132  1.2038  1.7109
    9TMC3    C714001   2.382   2.980  13.330 -0.6369 -0.6417 -0.8654
    9TMC3    C814002   2.650   3.178  12.991  0.3342 -0.0500  0.4327
    9TMC3    O114003   2.300   2.988  13.418  0.4404  0.1016  0.3306
    9TMC3    O214004   2.708   3.278  12.948  0.1613 -0.4267 -0.1736
   10MPD2     C14005   2.940   2.841  12.747 -0.0120  0.5057 -0.3034
   10MPD2    C114006   2.852   2.772  12.831  0.4628 -0.3902  0.1695
   10MPD2    C214007   2.755   2.847  12.892 -0.0703  0.1013 -0.6680
   10MPD2    C314008   2.753   2.988  12.876 -0.2437  0.1854 -0.5903
   10MPD2    C414009   2.843   3.059  12.794 -0.7119 -0.0422 -0.0694
   10MPD2    C514010   2.941   2.977  12.732  0.3722 -0.4338  0.1047
   10MPD2     H14011   2.687   2.798  12.960  0.6928 -0.0783 -0.0291
   10MPD2    H114012   2.845   3.167  12.786  0.7194 -0.2458 -2.7421
   10MPD2    H214013   3.019   2.786  12.698  0.6649  0.6450  0.6221
   10MPD2    H314014   3.017   3.025  12.673  1.2172  0.4466  1.9238
   10MPD2     N14015   2.648   3.051  12.946  0.6081  0.1120  0.1782
   10MPD2    H514016   2.573   2.995  12.986  0.5781  1.1631  1.5737
   10MPD2    N114017   2.855   2.633  12.864 -0.9715  0.2282 -0.0760
   10MPD2    H714018   2.776   2.591  12.912 -1.1864  1.7999  0.9386
   11MPD2     C14019   3.990   1.944  14.389 -0.1346  0.6354  0.8403
   11MPD2    C114020   3.996   2.080  14.371 -0.0711 -0.1689 -0.1612
   11MPD2    C214021   3.960   2.128  14.248  0.0791 -0.4880 -0.3264
   11MPD2    C314022   3.920   2.038  14.147  0.3478  1.1376  0.0450
   11MPD2    C414023   3.912   1.904  14.174 -0.0002 -0.0685  0.0132
   11MPD2    C514024   3.942   1.858  14.300  0.2463 -0.0410 -0.0299
   11MPD2     H14025   3.954   2.236  14.240 -0.6335 -0.6817 -2.5020
   11MPD2    H114026   3.870   1.828  14.110  0.9616  0.9361 -1.8192
   11MPD2    H214027   4.013   1.887  14.478  1.2741 -0.7446 -0.3904
   11MPD2    H314028   3.949   1.752  14.323  2.6735  0.2268  0.5086
   11MPD2     N14029   3.878   2.084  14.021  0.0499  0.2683 -0.5068
   11MPD2    H514030   3.833   2.014  13.962 -0.9726  0.7180 -0.2603
   11MPD2    N114031   4.053   2.170  14.468 -0.0236 -0.0374 -0.0899
   11MPD2    H714032   4.078   2.261  14.430 -1.9249  0.8039  0.6290
    1MPD1     C14033   1.380   2.743  17.600 -0.3858 -0.3302 -0.3519
    1MPD1    C114034   1.285   2.795  17.518  0.9676  0.5975  0.0711
    1MPD1    C214035   1.316   2.906  17.446  0.5501  0.1108 -0.2645
    1MPD1    C314036   1.451   2.944  17.440  0.4527 -0.3941  0.3487
    1MPD1    C414037   1.547   2.874  17.503  0.1342 -0.6651 -0.0095
    1MPD1    C514038   1.505   2.776  17.589  0.9453 -0.1771 -0.1612
    1MPD1     H14039   1.236   2.953  17.389  2.2172  1.6750 -1.3009
    1MPD1    H114040   1.648   2.912  17.504  0.1182 -0.5961 -0.6855
    1MPD1    H214041   1.359   2.668  17.675 -1.0083  2.0217  1.8434
    1MPD1    H314042   1.581   2.725  17.646 -2.1663  0.0254  4.1566
    1MPD1     N14043   1.502   3.044  17.354  0.4406 -0.3550 -0.3876
    1MPD1    H514044   1.603   3.057  17.363  0.6922 -1.7576 -1.2267
    1MPD1    N114045   1.157   2.753  17.530 -0.0276  1.2097  0.1645
    1MPD1    H614046   1.159   2.655  17.558 -0.3264  1.2181  0.2156
    1MPD1    H714047   1.121   2.756  17.434 -1.0474 -0.1390  0.5136
    2MPD1     C14048   2.348   3.469  17.337 -0.5482  0.3467  0.3742
    2MPD1    C114049   2.284   3.580  17.291  0.1112  0.1297  0.0169
    2MPD1    C214050   2.152   3.561  17.245  0.2869  0.2199 -0.1090
    2MPD1    C314051   2.083   3.446  17.272  0.7135 -0.4399 -0.8127
    2MPD1    C414052   2.147   3.335  17.324 -0.8193  0.3380  0.2761
    2MPD1    C514053   2.281   3.349  17.341  0.3779 -0.3533  0.6583
    2MPD1     H14054   2.087   3.640  17.210 -1.4157 -0.2687  1.9322
    2MPD1    H114055   2.105   3.235  17.330  1.8727 -0.8310 -0.7197
    2MPD1    H214056   2.453   3.472  17.363 -0.6844  1.8614  0.7443
    2MPD1    H314057   2.352   3.268  17.357  0.8545 -0.1802 -0.6375
    2MPD1     N14058   1.945   3.441  17.235  0.0007  0.5706  0.0707
    2MPD1    H514059   1.893   3.528  17.225  1.0991  1.4701  1.9896
    2MPD1    N114060   2.352   3.700  17.277 -0.0424  0.2481 -0.6998
    2MPD1    H614061   2.436   3.694  17.334  0.1516  1.6015 -0.8498
    2MPD1    H714062   2.294   3.779  17.303  0.4325  0.7063 -1.0381
    3TMC3    C114063   1.724   3.353  17.244 -0.7559  0.5765 -0.0396
    3TMC3    C214064   1.671   3.462  17.179 -0.1383  0.0331  0.5673
    3TMC3    C314065   1.533   3.478  17.182  0.4053 -0.0937  0.0538
    3TMC3    C414066   1.645   3.251  17.295  0.6529  0.9224  0.8018
    3TMC3    C514067   1.509   3.262  17.271 -0.0567  0.4750 -0.1408
    3TMC3    C614068   1.449   3.376  17.217 -0.5513 -0.3482 -0.1679
    3TMC3     C14069   1.868   3.328  17.236 -0.2079 -0.2001 -0.0027
    3TMC3     O14070   1.904   3.218  17.263 -0.0965  0.1845  0.1080
    3TMC3     H14071   1.737   3.533  17.131 -0.7610 -2.5439 -4.0555
    3TMC3    H114072   1.696   3.175  17.352 -0.4975 -1.9765 -2.0143
    3TMC3    H214073   1.340   3.383  17.215 -0.4818  0.6532 -0.5095
    3TMC3    C714074   1.429   3.146  17.303 -0.3162 -0.0280 -0.2014
    3TMC3    C814075   1.472   3.590  17.114 -0.0052 -0.1105 -0.3081
    3TMC3    O114076   1.311   3.152  17.280  0.3471 -0.3557 -0.1778
    3TMC3    O214077   1.353   3.578  17.090 -0.4860 -0.1578  0.3727
    4MPD1     C14078   1.533   4.067  16.889 -0.0236  0.5657  0.0690
    4MPD1    C114079   1.648   4.035  16.962 -0.4914  0.7403 -0.6456
    4MPD1    C214080   1.655   3.913  17.030 -0.4135 -0.7602  0.8677
    4MPD1    C314081   1.549   3.816  17.020  0.2092 -0.5506 -0.4408
    4MPD1    C414082   1.430   3.854  16.951  0.2778 -0.0922 -0.4294
    4MPD1    C514083   1.430   3.981  16.891  0.1896  0.4738 -0.4063
    4MPD1     H14084   1.746   3.887  17.082 -0.9381 -1.4013  1.4701
    4MPD1    H114085   1.349   3.783  16.940 -0.4177  1.0969 -2.8838
    4MPD1    H214086   1.502   4.163  16.849 -0.9864  0.0823 -0.3520
    4MPD1    H314087   1.338   4.001  16.837 -0.0022  1.9968  0.4744
    4MPD1     N14088   1.561   3.698  17.104  0.7060  0.1282  0.3793
    4MPD1    H514089   1.651   3.684  17.148  0.8590  1.6176  0.5310
    4MPD1    N114090   1.736   4.137  17.002 -0.6577  0.1671  0.0758
    4MPD1    H614091   1.830   4.101  17.009 -0.2869  0.8384 -1.5833
    4MPD1    H714092   1.727   4.217  16.940 -4.4054  0.0691  0.4545
    1TCq1    O114093   2.300   2.746  11.944 -0.6098 -0.1061 -0.3789
    1TCq1    C114094   2.277   2.878  11.940 -0.0365 -0.1845 -0.2564
    1TCq1    O214095   2.344   2.967  11.996 -0.4767  0.0436 -0.0970
    1TCq1    C214096   2.224   2.885  11.803  0.6217  0.4127 -0.6936
    1TCq1    C314097   2.120   2.804  11.764  0.6355 -0.0917 -0.5057
    1TCq1    C414098   2.071   2.822  11.641 -0.9590 -0.0773  0.1003
    1TCq1    C514099   2.104   2.929  11.562  0.0611  0.1329 -0.5366
    1TCq1    C614100   2.216   3.005  11.596  0.2658 -0.0568 -0.0390
    1TCq1    C714101   2.275   2.981  11.719  0.3293 -0.5923  0.0693
    1TCq1    C814102   2.279   3.090  11.496  0.0554 -0.4923  0.5330
    1TCq1    O414103   2.219   3.106  11.391 -0.1176 -0.3151 -0.1478
    1TCq1    C914104   1.939   2.765  11.611  0.3692 -0.2383  0.7943
    1TCq1    O514105   1.876   2.818  11.517 -0.4320  0.2848 -0.2219
    1TCq1    O614106   1.909   2.659  11.666 -0.0195 -0.5287  0.1156
    1TCq1    H114107   2.232   2.709  11.884 -0.3946 -2.4194  0.8066
    1TCq1    H214108   2.055   2.747  11.830  1.1752 -0.0821  0.0349
    1TCq1    H314109   2.047   2.947  11.472 -0.2248  1.5660 -0.0735
    1TCq1    H414110   2.362   3.035  11.755 -1.9798  1.3355  2.6825
    2MPD1     C14111   2.680   3.319  11.285  0.3410  0.0054  0.0158
    2MPD1    C114112   2.734   3.244  11.392 -0.7028  0.4512  0.3010
    2MPD1    C214113   2.638   3.181  11.477 -0.3482  0.7420  0.5745
    2MPD1    C314114   2.501   3.190  11.451 -0.1546  0.3181  0.3424
    2MPD1    C414115   2.461   3.262  11.335 -0.1238  0.6471  0.5806
    2MPD1    C514116   2.548   3.335  11.262  0.3430  0.8709 -0.1482
    2MPD1     H14117   2.678   3.132  11.565 -0.4953 -1.4224 -0.5845
    2MPD1    H114118   2.357   3.266  11.307 -0.0762  0.1931  0.3299
    2MPD1    H214119   2.754   3.364  11.220  0.2547 -0.1255 -0.1772
    2MPD1    H314120   2.528   3.381  11.166  0.9370 -0.9826 -1.1610
    2MPD1     N14121   2.411   3.119  11.527 -0.6542 -0.4139 -0.0885
    2MPD1    H514122   2.451   3.077  11.611  0.5687 -0.5832 -0.7693
    2MPD1    N114123   2.868   3.205  11.401  0.5493  0.1104  0.5520
    2MPD1    H614124   2.899   3.186  11.496  0.5068 -3.4297 -0.1321
    2MPD1    H714125   2.927   3.275  11.356 -0.8011  0.8633 -0.0735
    1TMC1    C114126   2.174   2.005   0.488 -1.3435  0.5831 -0.4775
    1TMC1    C214127   2.175   1.995   0.352 -0.4623 -0.5181  0.1574
    1TMC1    C314128   2.102   1.904   0.286 -0.3708  0.6526  0.5158
    1TMC1    C414129   2.110   1.917   0.569 -0.3590 -0.1917 -0.3329
    1TMC1    C514130   2.037   1.820   0.503  0.5818  0.4928  0.1696
    1TMC1    C614131   2.036   1.810   0.363 -0.4364  0.0342  0.1731
    1TMC1     C14132   2.234   2.119   0.548 -0.9123  0.2857 -0.0253
    1TMC1     O14133   2.271   2.101   0.662  0.5160 -0.2726 -0.7862
    1TMC1     H14134   2.233   2.060   0.287 -0.3778 -0.5719  0.1791
    1TMC1    H114135   2.106   1.925   0.677 -0.3523  1.6070 -0.4609
    1TMC1    H214136   1.981   1.721   0.335 -1.2320  1.6846 -3.5183
    1TMC1    C714137   1.966   1.716   0.578  0.0308 -0.7371 -0.2150
    1TMC1    C814138   2.082   1.907   0.144  0.0811  0.3397  0.0335
    1TMC1    O114139   1.885   1.633   0.538 -0.1543 -0.3214 -0.0297
    1TMC1    O214140   2.081   2.013   0.080  0.5441  0.3150  0.0670
    1TMC1    O314141   2.057   1.695   0.673  0.5107 -0.1499 -0.2085
    1TMC1    H314142   2.144   1.738   0.661 -0.1216  1.3512  0.6012
    1TMC1    O514143   2.054   1.782   0.100  0.1327  0.0510 -0.7128
    1TMC1    H514144   2.074   1.712   0.166  1.0377  0.5758 -0.4442
    2MPD1     C14145   2.419   2.589   0.506 -0.0814 -0.1682  0.3373
    2MPD1    C114146   2.318   2.573   0.411  0.8831  0.2055 -0.0275
    2MPD1    C214147   2.268   2.449   0.401 -0.3410 -0.0987  0.2933
    2MPD1    C314148   2.297   2.351   0.488  0.4136  0.0715  0.1001
    2MPD1    C414149   2.406   2.367   0.576 -0.2519 -0.2730 -0.8897
    2MPD1    C514150   2.461   2.487   0.588  0.8633 -0.3048 -0.4535
    2MPD1     H14151   2.195   2.431   0.323 -0.3223 -0.3727  0.3413
    2MPD1    H114152   2.455   2.290   0.635 -0.1263 -0.9135 -1.8260
    2MPD1    H214153   2.472   2.684   0.515 -1.0860  0.4438 -0.1434
    2MPD1    H314154   2.543   2.498   0.659 -0.7258 -0.1932  1.3754
    2MPD1     N14155   2.230   2.235   0.474 -0.7902  0.4680 -0.2640
    2MPD1    H514156   2.147   2.246   0.417 -0.3440  1.8458 -0.6250
    2MPD1    N114157   2.302   2.669   0.308 -0.3244 -0.1528  0.7222
    2MPD1    H614158   2.328   2.766   0.324  0.0235  0.1926 -1.8803
    2MPD1    H714159   2.214   2.672   0.257  0.4598  2.1712 -0.5087
    1MPD1     C14160   4.015   1.969  12.021 -0.0948 -0.0321 -0.4153
    1MPD1    C114161   4.027   1.995  12.155 -0.5739  0.1506  0.5467
    1MPD1    C214162   4.066   2.120  12.191 -0.2373 -0.5882 -0.4002
    1MPD1    C314163   4.122   2.203  12.100  0.0743 -0.3222 -0.6971
    1MPD1    C414164   4.143   2.163  11.966 -0.1027 -0.4534  0.0867
    1MPD1    C514165   4.078   2.044  11.924 -0.2482  0.3776 -0.0227
    1MPD1     H14166   4.054   2.146  12.295  0.1872 -0.9636 -0.2580
    1MPD1    H114167   4.187   2.225  11.889  2.4722 -1.3714  0.8143
    1MPD1    H214168   3.974   1.875  11.986  0.4652 -0.4641  0.1018
    1MPD1    H314169   4.080   2.001  11.825  0.6119 -0.0918  0.1960
    1MPD1     N14170   4.162   2.332  12.152  0.1715 -0.1469  0.6201
    1MPD1    H514171   4.143   2.355  12.249 -0.8766  1.7864 -0.0340
    1MPD1    N114172   3.961   1.914  12.248 -0.4405 -0.1874  0.1197
    1MPD1    H614173   3.977   1.815  12.228  0.0214 -0.0957  0.0366
    1MPD1    H714174   3.996   1.931  12.342  1.1364 -0.7998 -0.3626
    2MPD1     C14175   3.262   2.596  12.451 -0.1338  0.8854  0.8855
    2MPD1    C114176   3.293   2.472  12.400  0.3104  0.8622 -0.4848
    2MPD1    C214177   3.290   2.458  12.256 -0.0291 -0.1799 -0.1804
    2MPD1    C314178   3.298   2.579  12.179  1.0334 -0.0543 -0.6667
    2MPD1    C414179   3.276   2.699  12.239  0.5001 -0.3493  1.4205
    2MPD1    C514180   3.248   2.703  12.368 -0.0050  0.1544 -0.0033
    2MPD1     H14181   3.290   2.359  12.213  2.1873  0.6866 -2.1638
    2MPD1    H114182   3.285   2.786  12.176 -0.8733  1.1100  3.2470
    2MPD1    H214183   3.252   2.610  12.558 -1.2146  1.5448  0.6956
    2MPD1    H314184   3.224   2.800  12.409 -0.3707  0.0818 -0.0458
    2MPD1     N14185   3.354   2.575  12.045  0.6248 -0.1719 -0.4568
    2MPD1    H514186   3.366   2.665  12.001 -0.2282  0.9369  1.6069
    2MPD1    N114187   3.293   2.357  12.474 -0.3038 -0.3480 -0.5330
    2MPD1    H614188   3.325   2.384  12.567 -0.5665  0.8458 -0.7853
    2MPD1    H714189   3.346   2.278  12.436 -1.1685 -1.8056  1.2875
    3MPD1     C14190   3.200   2.430  11.036  0.2344 -0.4371  0.1299
    3MPD1    C114191   3.222   2.327  11.124 -0.0302 -0.6485 -0.2450
    3MPD1    C214192   3.279   2.366  11.239 -0.2453  0.6210 -0.0766
    3MPD1    C314193   3.326   2.493  11.265 -0.1681 -0.5655 -0.3613
    3MPD1    C414194   3.320   2.590  11.164  0.2862  0.4867 -0.4370
    3MPD1    C514195   3.245   2.558  11.052  0.8113  0.7904 -0.3759
    3MPD1     H14196   3.288   2.291  11.316 -1.4222  2.0646  1.4703
    3MPD1    H114197   3.358   2.691  11.165  0.2227  0.4831  1.2122
    3MPD1    H214198   3.153   2.428  10.938  1.4333 -0.8084 -0.4478
    3MPD1    H314199   3.237   2.638  10.980 -1.1881  0.7983 -0.1319
    3MPD1     N14200   3.379   2.522  11.391 -0.3417 -0.6812  0.1605
    3MPD1    H514201   3.427   2.611  11.400  1.2367 -1.6173  0.9702
    3MPD1    N114202   3.163   2.199  11.101 -0.0588 -0.3577  0.2460
    3MPD1    H614203   3.166   2.168  11.004 -0.7173 -1.5589  0.5968
    3MPD1    H714204   3.214   2.127  11.152 -0.7758 -1.8181 -1.1043
    4MPD2     C14205   3.954   2.953  12.561 -0.2339 -0.1752 -0.7959
    4MPD2    C114206   4.042   2.977  12.457 -0.2613  0.1586  0.2390
    4MPD2    C214207   4.037   3.100  12.385 -0.3796 -0.6775 -0.3940
    4MPD2    C314208   3.942   3.195  12.411  0.2566  0.0336 -0.1508
    4MPD2    C414209   3.859   3.169  12.517  0.3283 -0.0544 -0.5423
    4MPD2    C514210   3.866   3.056  12.587 -0.1056 -0.1432 -0.2830
    4MPD2     H14211   4.108   3.109  12.304 -1.6213 -1.5758 -1.5881
    4MPD2    H114212   3.783   3.242  12.541 -0.5128 -0.9741 -0.4587
    4MPD2    H214213   3.940   2.866  12.624  0.5283  2.1916  2.6194
    4MPD2    H314214   3.803   3.044  12.674  2.0097  0.5809  1.3551
    4MPD2     N14215   3.917   3.311  12.328 -0.1222 -0.1975  0.4462
    4MPD2    H514216   3.834   3.368  12.342  0.8107  0.2623  4.2305
    4MPD2    N114217   4.133   2.882  12.403  0.4962  0.2150  0.1970
    4MPD2    H714218   4.177   2.922  12.320 -0.3400 -1.6271 -1.1047
    5TMC3    C114219   4.241   2.684  12.345 -0.2636 -0.5923  0.2512
    5TMC3    C214220   4.194   2.569  12.277  0.7021 -0.0920  0.0858
    5TMC3    C314221   4.235   2.557  12.146 -0.1426  0.4844  0.4079
    5TMC3    C414222   4.322   2.774  12.287 -0.7510  0.4544  0.1857
    5TMC3    C514223   4.352   2.760  12.157 -0.3515  0.4761 -0.3382
    5TMC3    C614224   4.323   2.650  12.090 -0.4074 -0.1042 -0.1903
    5TMC3     C14225   4.148   2.751  12.431 -0.4526 -0.2606 -0.7948
    5TMC3     O14226   4.074   2.675  12.500 -0.3595 -0.2678 -0.3572
    5TMC3     H14227   4.106   2.519  12.316  0.3111  0.2523 -0.3506
    5TMC3    H114228   4.371   2.851  12.346  0.1239  0.4358 -0.5189
    5TMC3    H214229   4.350   2.656  11.986 -0.6293  0.9249 -0.1930
    5TMC3    C714230   4.314   2.874  12.086  0.2116  0.3486 -0.0194
    5TMC3    C814231   4.229   2.424  12.077  0.6986  0.0484  0.0475
    5TMC3    O114232   4.217   2.933  12.139  0.2210 -0.9541 -0.4921
    5TMC3    O214233   4.263   2.415  11.961  0.5416  0.1818  0.3814
    6TMC3    C114234   3.449   2.486  11.856  0.1576 -0.0812 -0.0498
    6TMC3    C214235   3.406   2.434  11.738  0.1775 -0.8170 -0.1188
    6TMC3    C314236   3.446   2.495  11.621 -0.0628 -0.1625 -0.1727
    6TMC3    C414237   3.537   2.597  11.858 -0.2150  0.2598  0.2402
    6TMC3    C514238   3.560   2.660  11.739  0.1310 -0.1155  0.2332
    6TMC3    C614239   3.517   2.615  11.618  0.6048  0.2838  0.5030
    6TMC3     C14240   3.380   2.459  11.979  0.3814 -0.0048  0.5923
    6TMC3     O14241   3.357   2.341  12.007 -0.1760  0.0656 -0.4860
    6TMC3     H14242   3.333   2.354  11.739  0.9554 -1.5169  1.4319
    6TMC3    H114243   3.588   2.636  11.946 -0.8539 -0.8190  1.0856
    6TMC3    H214244   3.534   2.660  11.521  0.7422 -0.0997  0.3488
    6TMC3    C714245   3.645   2.780  11.750 -0.3186 -0.0387  0.7402
    6TMC3    C814246   3.397   2.436  11.501 -0.3652  0.3320 -0.1964
    6TMC3    O114247   3.671   2.821  11.863  0.3167  0.5671 -0.0901
    6TMC3    O214248   3.367   2.316  11.511 -0.0898  0.4381 -0.2924
    7MPD2     C14249   4.315   3.235  11.721 -0.2277  0.1382  0.8005
    7MPD2    C114250   4.267   3.240  11.849 -0.3387 -0.9077 -0.1523
    7MPD2    C214251   4.297   3.137  11.936 -0.0609  0.3372 -0.3944
    7MPD2    C314252   4.350   3.020  11.889 -0.3014 -0.7940 -0.5082
    7MPD2    C414253   4.403   3.026  11.761  0.0562 -0.3353 -0.5813
    7MPD2    C514254   4.371   3.122  11.671  0.0714 -0.1010 -0.0851
    7MPD2     H14255   4.261   3.147  12.038 -1.0241  2.0696 -0.9065
    7MPD2    H114256   4.435   2.934  11.713 -3.6274 -1.3558 -1.0722
    7MPD2    H214257   4.298   3.317  11.651 -1.3430 -0.6955  0.0948
    7MPD2    H314258   4.413   3.114  11.571  0.1075  1.5710 -0.2039
    7MPD2     N14259   4.372   2.900  11.961 -0.3161  0.4408  0.4049
    7MPD2    H514260   4.409   2.821  11.909  0.5494  1.5829 -0.7426
    7MPD2    N114261   4.196   3.345  11.905 -0.3638 -0.0914  0.1905
    7MPD2    H714262   4.156   3.322  11.995  0.1921 -0.3149  0.3784
    8TMC3    C114263   4.034   3.508  11.917  0.5164 -0.4248 -0.4229
    8TMC3    C214264   3.909   3.487  11.861 -0.1547  0.2343  0.3411
    8TMC3    C314265   3.812   3.426  11.933 -0.4037 -0.1296 -0.4544
    8TMC3    C414266   4.053   3.486  12.053  0.7201  0.3106  0.4955
    8TMC3    C514267   3.950   3.439  12.128 -0.1189  0.0006  0.3179
    8TMC3    C614268   3.825   3.406  12.070 -0.4634 -0.3179  0.0454
    8TMC3     C14269   4.134   3.446  11.837  0.0148 -0.1669  0.1860
    8TMC3     O14270   4.133   3.479  11.714  0.0842  0.4415  0.2719
    8TMC3     H14271   3.882   3.510  11.758  1.1977 -1.0339 -0.3001
    8TMC3    H114272   4.148   3.506  12.102  1.8177 -3.5026 -0.1097
    8TMC3    H214273   3.739   3.361  12.118  0.4707 -0.6175  1.4197
    8TMC3    C714274   3.998   3.337  12.222  1.2700  0.2272 -0.1549
    8TMC3    C814275   3.761   3.308  11.867  0.7525 -0.2482  0.1777
    8TMC3    O114276   4.092   3.280  12.180 -0.5556  0.0427  0.1558
    8TMC3    O214277   3.674   3.238  11.928  0.3286 -0.4202  0.1782
    9MPD2     C14278   3.855   3.185  11.533  0.5510 -0.3824  0.3256
    9MPD2    C114279   3.810   3.172  11.667  0.0434 -0.1137  0.4314
    9MPD2    C214280   3.754   3.054  11.700 -0.3344 -0.0363 -0.7695
    9MPD2    C314281   3.751   2.949  11.606  0.3219  0.1054 -0.1889
    9MPD2    C414282   3.794   2.964  11.480 -0.2406 -0.7433 -0.0308
    9MPD2    C514283   3.855   3.079  11.448  0.1687  0.4011  0.1245
    9MPD2     H14284   3.705   3.042  11.796  0.5410  1.6550 -0.1075
    9MPD2    H114285   3.804   2.878  11.415 -0.3678 -0.5719 -0.2763
    9MPD2    H214286   3.900   3.273  11.488 -3.1641  1.5345  0.3839
    9MPD2    H314287   3.908   3.092  11.354 -0.0329  2.2975  0.2652
    9MPD2     N14288   3.693   2.829  11.631  0.3420 -0.1194  0.1254
    9MPD2    H514289   3.684   2.773  11.546  1.9238 -0.8293  0.4264
    9MPD2    N114290   3.826   3.283  11.751 -0.2462 -0.7322 -0.4585
    9MPD2    H714291   3.892   3.353  11.717 -0.1434 -0.1989  0.8348
    1MPD1     C14292   3.619   2.454  16.643  0.7081 -0.6875  0.0054
    1MPD1    C114293   3.719   2.508  16.564 -0.1876 -0.3342  0.3945
    1MPD1    C214294   3.850   2.471  16.588  0.0523 -0.4822 -0.7933
    1MPD1    C314295   3.865   2.354  16.660 -0.1670  0.1157 -0.7554
    1MPD1    C414296   3.767   2.298  16.733  0.1559 -0.2168 -0.3973
    1MPD1    C514297   3.644   2.346  16.720 -0.0081 -0.6456  0.2242
    1MPD1     H14298   3.934   2.524  16.544  0.1022  1.2862  1.3924
    1MPD1    H114299   3.782   2.207  16.790  0.2326  0.4015  0.5823
    1MPD1    H214300   3.513   2.467  16.629  0.8572 -0.9462 -1.3757
    1MPD1    H314301   3.564   2.292  16.767 -0.2053  0.8053  1.5708
    1MPD1     N14302   3.990   2.296  16.667 -0.0921  0.1508  0.1730
    1MPD1    H514303   4.007   2.220  16.733  0.6904 -0.2498 -0.4804
    1MPD1    N114304   3.700   2.621  16.487  0.6175 -0.2183 -0.2165
    1MPD1    H614305   3.773   2.623  16.416  0.4057 -1.1874 -0.4611
    1MPD1    H714306   3.605   2.623  16.450  1.2556 -1.3941 -1.9366
    2TMC2    C114307   4.424   2.159  16.541 -0.4508  0.4888  0.8041
    2TMC2    C214308   4.442   2.093  16.661 -0.2610 -0.3604 -0.4331
    2TMC2    C314309   4.345   2.113  16.756  0.1043  0.0398  0.4164
    2TMC2    C414310   4.317   2.237  16.514  0.2566 -0.2629 -0.4877
    2TMC2    C514311   4.223   2.246  16.614  0.8003  0.2191 -0.5892
    2TMC2    C614312   4.236   2.192  16.742  0.1855 -0.7503  0.4863
    2TMC2     C14313   4.527   2.129  16.443 -0.3006  0.2231 -0.0023
    2TMC2     O14314   4.637   2.092  16.483  0.3360  0.0418 -0.0103
    2TMC2     H14315   4.529   2.030  16.683 -0.2522 -0.0610  0.4052
    2TMC2    H114316   4.286   2.275  16.417 -1.4600  0.0437  0.1862
    2TMC2    H214317   4.158   2.200  16.817  0.0367  1.3925  0.1143
    2TMC2    C714318   4.101   2.324  16.585 -0.4217  0.2078  0.7016
    2TMC2    C814319   4.361   2.019  16.868  0.4450 -0.4149  0.5828
    2TMC2    O114320   4.115   2.404  16.493 -0.0892  0.0739  0.3998
    2TMC2    O214321   4.429   1.916  16.862  0.0854  0.5049  0.5185
    2TMC2    O514322   4.282   2.054  16.972  0.0641 -0.8124 -0.5276
    2TMC2    H514323   4.251   2.146  16.962  0.9974 -0.5485 -0.9699
    3MPD1     C14324   4.666   2.035  15.956 -0.0635  0.0595 -0.0518
    3MPD1    C114325   4.532   2.086  15.961 -1.0535 -0.2797 -0.1411
    3MPD1    C214326   4.464   2.102  16.082  0.0104 -0.4105  0.3998
    3MPD1    C314327   4.537   2.094  16.198 -0.2011  0.0530  0.2418
    3MPD1    C414328   4.671   2.051  16.191 -0.9180  0.2617  0.2128
    3MPD1    C514329   4.733   2.018  16.073 -0.1080  0.4006  0.8310
    3MPD1     H14330   4.360   2.132  16.083  0.3951  0.8251  2.6234
    3MPD1    H114331   4.725   2.031  16.283 -0.4374  1.4395  0.1836
    3MPD1    H214332   4.708   2.008  15.860  0.1019  1.2464 -0.3191
    3MPD1    H314333   0.095   1.977  16.068 -0.1635  0.3978 -0.1298
    3MPD1     N14334   4.468   2.132  16.320  0.7320 -0.5995 -0.3766
    3MPD1    H514335   4.378   2.179  16.316  0.7480 -0.5434 -0.1005
    3MPD1    N114336   4.460   2.091  15.841  0.2584  0.5796 -0.2662
    3MPD1    H614337   4.517   2.137  15.770 -3.2599  1.2079 -2.7212
    3MPD1    H714338   4.383   2.157  15.847 -0.6196 -0.4402 -0.3797
    1TMC1    C114339   1.849   1.020  13.049  0.0038  0.5422  0.3952
    1TMC1    C214340   1.821   1.095  12.938 -0.6332 -0.1036 -0.2755
    1TMC1    C314341   1.688   1.113  12.912 -0.6992  0.8026 -0.6351
    1TMC1    C414342   1.754   0.966  13.134  0.2321 -0.2196  0.5188
    1TMC1    C514343   1.623   0.974  13.093 -0.4135 -0.0177  0.3168
    1TMC1    C614344   1.583   1.053  12.989  0.5890  0.4475 -0.3959
    1TMC1     C14345   1.988   0.999  13.077 -1.1653  1.1570 -0.6393
    1TMC1     O14346   2.066   1.004  12.981 -0.1346  0.4786  0.1449
    1TMC1     H14347   1.893   1.145  12.873  1.1223  0.0167  1.7680
    1TMC1    H114348   1.793   0.885  13.194  0.1366 -1.4154 -1.0289
    1TMC1    H214349   1.482   1.093  12.988  1.1035  1.8564  2.8822
    1TMC1    C714350   1.517   0.932  13.184  0.2402  1.2951  1.3629
    1TMC1    C814351   1.651   1.198  12.804  0.3297 -0.2409 -0.0800
    1TMC1    O114352   1.404   0.907  13.143  0.1925 -0.2698 -0.1079
    1TMC1    O214353   1.550   1.264  12.791 -0.1010 -0.0205  0.1958
    1TMC1    O314354   1.563   0.916  13.307  0.6658 -0.8068 -0.2998
    1TMC1    H314355   1.655   0.942  13.329 -0.2174 -0.4695  3.0014
    1TMC1    O514356   1.728   1.172  12.697  0.7782 -0.3423 -0.2912
    1TMC1    H514357   1.797   1.103  12.702  0.4432 -0.6666 -0.0623
    2MPD2     C14358   2.259   1.003  13.201 -0.6232  0.3932  0.0863
    2MPD2    C114359   2.143   1.024  13.269  0.1767 -0.2447  0.2955
    2MPD2    C214360   2.158   1.050  13.402 -0.3122 -0.1662  0.1797
    2MPD2    C314361   2.286   1.062  13.462 -0.3175  0.1725 -0.7788
    2MPD2    C414362   2.398   1.047  13.389 -0.9839 -0.5778 -0.0081
    2MPD2    C514363   2.382   1.020  13.257 -0.1346  0.5338 -0.0721
    2MPD2     H14364   2.066   1.053  13.459 -0.6119 -0.9896 -0.2628
    2MPD2    H114365   2.498   1.049  13.431 -0.7102  0.9469 -0.6957
    2MPD2    H214366   2.256   0.983  13.095  0.3604  2.0332 -0.2677
    2MPD2    H314367   2.466   1.020  13.189  0.4591  1.8342  0.6565
    2MPD2     N14368   2.282   1.066  13.602  0.0676 -0.6581 -0.0140
    2MPD2    H514369   2.190   1.071  13.646  1.0729 -0.6437  2.0840
    2MPD2    N114370   2.016   1.012  13.209  0.2579  0.4790  1.0297
    2MPD2    H714371   1.937   1.020  13.272  0.0523  0.8432  0.7298
    3TCq1    O114372   2.073   1.098  14.182  0.0100  1.1143  0.3640
    3TCq1    C114373   2.109   1.158  14.067 -0.5965  0.0675  0.0667
    3TCq1    O214374   2.025   1.211  13.990 -0.1817  0.1250 -0.2503
    3TCq1    C214375   2.218   1.080  14.007  0.4727  0.5909 -0.5855
    3TCq1    C314376   2.319   1.045  14.093 -0.3990  0.6898  0.3118
    3TCq1    C414377   2.439   1.019  14.039 -0.7295 -0.2639 -0.7581
    3TCq1    C514378   2.466   1.031  13.910  0.2098  0.2765 -0.8216
    3TCq1    C614379   2.367   1.069  13.825 -1.3324 -0.1760 -0.7512
    3TCq1    C714380   2.244   1.103  13.878  0.0183 -0.3739 -0.3914
    3TCq1    C814381   2.393   1.055  13.683  0.4115  0.5420  0.4380
    3TCq1    O414382   2.511   1.039  13.654 -0.3822  0.1753  0.3614
    3TCq1    C914383   2.537   0.960  14.120 -0.0236  0.4473  0.4447
    3TCq1    O514384   2.657   0.976  14.076 -0.5165 -0.5670 -0.3337
    3TCq1    O614385   2.508   0.899  14.223 -0.0137 -0.1682 -0.7654
    3TCq1    H114386   2.140   1.041  14.226 -0.7966 -0.4861 -0.4818
    3TCq1    H214387   2.305   1.026  14.199 -1.3107 -0.3163  0.0073
    3TCq1    H314388   2.558   0.989  13.870  2.5806  2.2407  2.6205
    3TCq1    H414389   2.169   1.128  13.804 -0.0385 -1.5645 -0.7493
    1MPD2     C14390   1.973   2.290  14.849  0.3379  0.3286  0.2182
    1MPD2    C114391   1.840   2.298  14.835 -0.4600 -0.4889 -0.2950
    1MPD2    C214392   1.767   2.190  14.790 -0.2088  0.5203 -0.4518
    1MPD2    C314393   1.823   2.073  14.768  0.3250 -0.0521 -0.5549
    1MPD2    C414394   1.962   2.060  14.791  0.3780  0.3543 -0.6507
    1MPD2    C514395   2.026   2.172  14.833 -0.1689 -0.2320 -0.2933
    1MPD2     H14396   1.667   2.209  14.755  0.2748 -0.6804 -2.4980
    1MPD2    H114397   2.005   1.961  14.779  2.6828  1.1731  0.8929
    1MPD2    H214398   2.031   2.374  14.885 -1.5447  1.3616  0.8268
    1MPD2    H314399   2.131   2.152  14.855 -0.9090 -0.4753  3.0883
    1MPD2     N14400   1.743   1.962  14.716  0.1489 -0.0957 -0.1530
    1MPD2    H514401   1.650   1.986  14.683  0.2461 -2.8840 -2.5318
    1MPD2    N114402   1.776   2.426  14.841  0.7949 -0.3947 -0.0096
    1MPD2    H714403   1.833   2.506  14.863  2.5211 -1.5621 -0.1936
    2TMC3    C114404   1.597   2.575  14.877  0.4812  0.9882  0.5055
    2TMC3    C214405   1.454   2.566  14.892  0.3334 -0.2546  0.2733
    2TMC3    C314406   1.381   2.636  14.799  0.0191  0.3588  0.4953
    2TMC3    C414407   1.650   2.666  14.788  0.2227 -0.2633 -0.6168
    2TMC3    C514408   1.568   2.732  14.696 -0.4315  0.5504  0.1578
    2TMC3    C614409   1.432   2.713  14.694 -0.5386  0.3772  0.4820
    2TMC3     C14410   1.640   2.442  14.861  0.3757  0.1058  0.1303
    2TMC3     O14411   1.551   2.358  14.845  0.3939  0.3890  0.1233
    2TMC3     H14412   1.408   2.513  14.975 -0.6185  1.6322  0.9728
    2TMC3    H114413   1.757   2.660  14.775  0.2147 -1.9111  0.0959
    2TMC3    H214414   1.360   2.750  14.622 -1.6769 -0.0086  1.4429
    2TMC3    C714415   1.599   2.857  14.634  0.2043  0.0733  0.0585
    2TMC3    C814416   1.257   2.569  14.766  0.4421 -0.9140 -0.4969
    2TMC3    O114417   1.497   2.921  14.616 -0.1962  0.9827  0.6080
    2TMC3    O214418   1.161   2.631  14.722 -0.5911  0.2136  0.3081
    3TCq1    O114419   2.477   3.618  15.084  0.2522 -0.1049 -0.2000
    3TCq1    C114420   2.359   3.657  15.033  0.0463 -0.0065 -0.5377
    3TCq1    O214421   2.273   3.702  15.106  0.6903  0.8240  0.0192
    3TCq1    C214422   2.340   3.564  14.923 -0.4035 -0.0068  0.6065
    3TCq1    C314423   2.453   3.496  14.878  0.7810 -0.2455 -0.5415
    3TCq1    C414424   2.429   3.382  14.808 -0.1890 -0.5406 -0.4860
    3TCq1    C514425   2.304   3.334  14.786  0.4429 -0.3355  0.1534
    3TCq1    C614426   2.203   3.411  14.835 -0.3443  0.0617 -0.2676
    3TCq1    C714427   2.216   3.527  14.905 -0.2922 -0.6072 -0.1707
    3TCq1    C814428   2.080   3.395  14.761  0.0315 -0.3332  0.8432
    3TCq1    O414429   2.027   3.496  14.722 -0.0705  0.0107  0.1261
    3TCq1    C914430   2.545   3.323  14.741  0.6044 -0.2024 -0.1999
    3TCq1    O514431   2.532   3.223  14.665  0.1279 -0.2446  0.0155
    3TCq1    O614432   2.650   3.394  14.749 -0.0929  0.2885 -0.7412
    3TCq1    H114433   2.548   3.594  15.021  1.2458  1.3337  0.3655
    3TCq1    H214434   2.557   3.527  14.885  0.5310 -0.1359  2.4760
    3TCq1    H314435   2.294   3.250  14.719 -1.4923  0.1663 -0.1612
    3TCq1    H414436   2.132   3.590  14.935 -0.5826 -0.7225 -0.7508
    4MPD2     C14437   1.854   3.297  14.607 -0.3886  0.3637 -0.2900
    4MPD2    C114438   1.931   3.214  14.686 -0.2970 -0.1875  0.2024
    4MPD2    C214439   1.888   3.083  14.702 -0.2295 -0.2103 -0.5192
    4MPD2    C314440   1.765   3.040  14.645  0.5588 -1.0443  0.2873
    4MPD2    C414441   1.689   3.134  14.581 -0.2982  1.1380 -0.1363
    4MPD2    C514442   1.735   3.258  14.559 -0.5791  0.0978  1.0536
    4MPD2     H14443   1.941   3.021  14.773  0.7356  1.6396  0.3479
    4MPD2    H114444   1.597   3.110  14.530  0.2413  2.0694 -1.5364
    4MPD2    H214445   1.877   3.401  14.592  1.6281 -0.3184 -1.8861
    4MPD2    H314446   1.657   3.321  14.520 -2.3177 -3.4155 -1.1479
    4MPD2     N14447   1.731   2.906  14.655  0.6297 -0.1206 -0.5075
    4MPD2    H514448   1.802   2.845  14.694  0.8952  1.6982  1.8445
    4MPD2    N114449   2.047   3.261  14.746  0.8552 -0.4584  0.5624
    4MPD2    H714450   2.107   3.197  14.797 -0.3830 -1.9942  0.0910
    5TMC2    C114451   1.444   1.808  14.637  0.2586 -0.4871  0.9859
    5TMC2    C214452   1.404   1.708  14.723 -0.3399  0.4953  0.5177
    5TMC2    C314453   1.502   1.621  14.759 -0.0437 -0.0850 -1.3227
    5TMC2    C414454   1.571   1.822  14.601 -0.4711 -0.0291 -0.3849
    5TMC2    C514455   1.673   1.750  14.656  0.8408  0.6909  0.4024
    5TMC2    C614456   1.636   1.646  14.735 -0.4685  0.1932  0.1131
    5TMC2     C14457   1.392   1.939  14.658  0.1659  1.2293  0.4784
    5TMC2     O14458   1.475   2.028  14.649 -0.1120  0.0910 -0.0432
    5TMC2     H14459   1.302   1.688  14.755  0.0655 -2.6898 -0.1961
    5TMC2    H114460   1.605   1.889  14.523  1.1862 -1.3252 -0.7892
    5TMC2    H214461   1.709   1.587  14.789 -0.4915 -0.1539 -0.2328
    5TMC2    C714462   1.781   1.830  14.713  0.1079 -0.9018 -0.2443
    5TMC2    C814463   1.461   1.511  14.853  0.6555  0.2186  0.3524
    5TMC2    O114464   1.887   1.778  14.732 -0.4120  0.0774  0.2324
    5TMC2    O214465   1.366   1.524  14.924  0.3005 -0.4109  0.0446
    5TMC2    O514466   1.559   1.426  14.880 -0.3480  0.1347  0.0728
    5TMC2    H514467   1.640   1.415  14.826  0.2839  0.0001  1.0663
    6MPD2     C14468   1.072   2.333  14.713 -0.1060 -0.0651  0.5427
    6MPD2    C114469   1.204   2.320  14.745  0.5590  0.0408  0.0971
    6MPD2    C214470   1.265   2.194  14.744  0.1769 -0.2114  0.6463
    6MPD2    C314471   1.191   2.082  14.691  0.0931 -0.6928  0.0255
    6MPD2    C414472   1.056   2.105  14.672  0.4079 -0.3643 -0.9143
    6MPD2    C514473   0.992   2.226  14.690  0.6512  0.3457 -0.1256
    6MPD2     H14474   1.363   2.175  14.787 -0.4996 -0.1929  2.2310
    6MPD2    H114475   1.000   2.022  14.631  0.7874 -1.7353  1.3655
    6MPD2    H214476   1.021   2.428  14.723  0.2522  0.0894  0.9115
    6MPD2    H314477   0.886   2.239  14.677  1.1114  2.3211 -1.8265
    6MPD2     N14478   1.251   1.955  14.665 -0.1940  0.2043  0.6843
    6MPD2    H514479   1.185   1.880  14.654 -1.1721  0.9947  1.2198
    6MPD2    N114480   1.282   2.431  14.786 -0.4951 -0.4793  0.0647
    6MPD2    H714481   1.377   2.398  14.801  0.1416  0.8145 -1.0290
  945NH3     N114482   0.533   2.542   0.576  0.1484 -0.6773 -0.1116
  945NH3     H214483   0.514   2.554   0.477  0.3201 -2.9395 -0.4120
  945NH3     H314484   0.634   2.534   0.572  0.3042  1.4473 -0.5768
  945NH3     H414485   0.529   2.634   0.619 -0.1327 -0.5325 -0.4462
  946SOD     NA14486   3.760   2.844  12.096 -0.4223 -0.5146  0.1644
  947SOD     NA14487   1.727   3.428  12.605  0.3340 -0.0577  0.1498
  948SOD     NA14488   3.423   2.043   3.806  0.2279  0.0741  0.0318
  949SOD     NA14489   1.392   3.162  12.509  0.1784  0.6503 -0.1693
  950SOD     NA14490   4.296   1.750   3.288  0.1887 -0.3365 -0.3574
  951SOD     NA14491   4.569   1.144   7.435 -0.2085 -0.0070  0.4297
  952SOD     NA14492   4.154   0.198   0.195 -0.5995  0.2836  0.1401
  953SOD     NA14493   3.524   0.695  13.639 -0.1616 -0.4076 -0.2286
  954SOL     OW14494   2.700   4.023   5.275 -0.0200  0.1419  0.2624
  954SOL    HW114495   2.622   4.032   5.329 -0.9705  1.3464 -1.3167
  954SOL    HW214496   2.770   4.017   5.339  0.7966 -0.4639 -0.6787
  955SOL     OW14497   4.114   4.433   2.638  0.7082  0.2070 -0.1588
  955SOL    HW114498   4.146   4.467   2.554 -0.8003  1.8473 -0.0767
  955SOL    HW214499   4.108   4.510   2.695 -0.8125 -1.6518  2.1827
  956SOL     OW14500   4.137   1.044   7.342  0.0170 -0.3219  0.2720
  956SOL    HW114501   4.103   1.123   7.384 -1.9851 -0.4911 -1.0300
  956SOL    HW214502   4.064   1.016   7.287 -0.6501 -0.4958  1.2462
  957SOL     OW14503   3.616   0.746   6.916  0.2447 -0.1159  0.6235
  957SOL    HW114504   3.533   0.792   6.908 -0.0400 -0.2684  2.7835
  957SOL    HW214505   3.613   0.706   7.003 -1.3248  0.7000  0.9434
  958SOL     OW14506   0.625   1.299  15.647  0.4888  0.0802 -0.2628
  958SOL    HW114507   0.547   1.298  15.703  0.8540 -1.4138  0.2239
  958SOL    HW214508   0.614   1.383  15.603 -2.2417  0.7002  1.5728
  959SOL     OW14509   2.095   1.696   4.441  0.0856  0.4856 -0.0981
  959SOL    HW114510   2.096   1.647   4.359 -1.4661  1.6120 -0.8036
  959SOL    HW214511   2.189   1.709   4.449  0.2042  1.0054 -2.2645
  960SOL     OW14512   0.922   2.876  10.802 -0.0054  0.2851  0.0717
  960SOL    HW114513   0.938   2.839  10.889  1.9048 -0.2790 -0.5235
  960SOL    HW214514   1.014   2.893  10.783 -0.2116 -0.6743 -1.7404
  961SOL     OW14515   2.046   2.921   9.307  0.1220 -0.3733 -0.1390
  961SOL    HW114516   2.005   2.845   9.265  1.2940 -0.9109 -0.3191
  961SOL    HW214517   2.075   2.884   9.391 -0.3112 -0.3661  0.0144
  962SOL     OW14518   4.115   2.645   6.935  0.4955  0.0772  0.0577
  962SOL    HW114519   4.152   2.557   6.940 -0.2535 -0.3144 -1.4296
  962SOL    HW214520   4.198   2.691   6.922 -0.4399  1.8109  0.3405
  963SOL     OW14521   1.178   3.714  10.305  0.4584 -0.2000  0.8916
  963SOL    HW114522   1.107   3.733  10.366 -1.4597  0.7728 -1.6636
  963SOL    HW214523   1.154   3.752  10.221 -4.2526 -1.6850  1.5654
  964SOL     OW14524   2.752   2.273  14.826 -0.4808 -0.2046 -0.0261
  964SOL    HW114525   2.792   2.187  14.813 -0.6845 -0.3555  0.3492
  964SOL    HW214526   2.702   2.289  14.745  1.4670 -1.8142 -1.5359
  965SOL     OW14527   4.662   0.308   0.468 -0.3127  0.2132  0.0228
  965SOL    HW114528   4.600   0.283   0.400  0.6531 -0.9438 -0.4143
  965SOL    HW214529   4.613   0.357   0.535  3.1917  1.6289  1.5771
  966SOL     OW14530   1.823   1.853   1.188  0.1543 -0.6317 -0.2893
  966SOL    HW114531   1.829   1.773   1.240 -1.1167  1.3131  2.8487
  966SOL    HW214532   1.757   1.899   1.239 -0.1873 -1.4736  0.0255
  967SOL     OW14533   3.724   3.957   5.058 -0.4095 -0.4244  0.0524
  967SOL    HW114534   3.652   4.020   5.060  0.3212  0.4350 -0.7270
  967SOL    HW214535   3.790   3.985   5.121  1.3353  0.2612 -2.0962
  968SOL     OW14536   1.442   4.152   8.981  0.3632 -0.3670 -0.3315
  968SOL    HW114537   1.420   4.235   8.938 -3.2777  0.1712  2.4878
  968SOL    HW214538   1.382   4.097   8.930  0.6614  1.0300 -2.1946
  969SOL     OW14539   2.433   1.386   7.222 -1.1544 -0.3220 -0.0300
  969SOL    HW114540   2.527   1.369   7.225 -1.4603 -2.1248 -1.1196
  969SOL    HW214541   2.432   1.446   7.148 -0.7706 -0.2997 -0.0164
  970SOL     OW14542   1.840   4.316   4.131  0.5052 -0.7113  0.0375
  970SOL    HW114543   1.812   4.341   4.043 -2.6250  0.7773  1.4503
  970SOL    HW214544   1.760   4.329   4.183  0.1118  1.1504 -1.0422
  971SOL     OW14545   1.215   2.506   5.451 -0.3444  0.2620 -0.1294
  971SOL    HW114546   1.280   2.440   5.475  0.0936  0.3693 -1.0146
  971SOL    HW214547   1.149   2.459   5.400 -1.9992 -0.0266  2.2981
  972SOL     OW14548   0.365   3.685   3.980  0.5387 -0.2522 -0.4636
  972SOL    HW114549   0.365   3.689   4.076 -1.4420  1.6834 -0.5265
  972SOL    HW214550   0.294   3.748   3.965 -0.3440 -1.4035 -1.1037
  973SOL     OW14551   2.473   4.631  10.861 -0.0760 -0.1426 -0.4349
  973SOL    HW114552   2.560   4.595  10.880 -0.1047  0.8674  1.5818
  973SOL    HW214553   2.491   4.692  10.790 -1.4445 -2.0569 -2.4118
  974SOL     OW14554   0.820   2.627   2.820  0.2995 -0.0174  0.2204
  974SOL    HW114555   0.857   2.539   2.830  1.7550  0.7125  1.2573
  974SOL    HW214556   0.802   2.633   2.726 -2.4763 -1.8912  0.6200
  975SOL     OW14557   4.065   1.379   5.494  0.0531 -0.3158  0.1493
  975SOL    HW114558   4.082   1.465   5.532 -0.3143  0.0834 -0.5890
  975SOL    HW214559   4.153   1.342   5.493  0.2066  0.0454  0.8640
  976SOL     OW14560   1.858   3.875   7.095 -0.4749 -0.0579 -0.3590
  976SOL    HW114561   1.824   3.954   7.053 -0.6351  0.0461 -0.0270
  976SOL    HW214562   1.816   3.864   7.180  1.8110 -0.3438  0.7390
  977SOL     OW14563   1.315   4.288  11.723 -0.0579  0.4000 -0.0213
  977SOL    HW114564   1.410   4.288  11.720 -0.0971  2.0376 -1.2602
  977SOL    HW214565   1.292   4.217  11.663 -1.0092  0.9830 -0.3509
  978SOL     OW14566   2.816   2.869   5.302 -0.5323 -0.1090  0.1903
  978SOL    HW114567   2.892   2.878   5.244 -1.8704  1.4573 -1.3144
  978SOL    HW214568   2.863   2.854   5.384  3.0178  1.8583 -1.4882
  979SOL     OW14569   2.471   3.725   6.290 -0.1796  0.0672  0.2016
  979SOL    HW114570   2.541   3.776   6.330  0.7871  0.6349 -2.1664
  979SOL    HW214571   2.514   3.640   6.274  0.3999  0.7905 -2.1673
  980SOL     OW14572   4.555   4.476   5.176 -0.0680  0.0838  0.0201
  980SOL    HW114573   4.466   4.510   5.179 -0.2387 -0.4017  0.3626
  980SOL    HW214574   4.583   4.491   5.266 -2.8860 -2.6973  1.3634
  981SOL     OW14575   1.782   0.113   4.030  0.0241  0.1589 -0.2215
  981SOL    HW114576   1.752   0.162   4.106 -1.5006 -0.3405 -0.5004
  981SOL    HW214577   1.787   0.026   4.069 -0.4874 -0.9592 -2.6632
  982SOL     OW14578   0.888   4.517  14.554 -0.6652  0.3475 -0.3104
  982SOL    HW114579   0.918   4.599  14.595 -1.6153 -0.0869  1.2762
  982SOL    HW214580   0.866   4.456  14.624  0.8009  0.6594  0.4309
  983SOL     OW14581   2.952   2.331   5.049 -0.2347  0.1415  0.8386
  983SOL    HW114582   3.017   2.311   4.982 -0.7239  0.1574  0.3544
  983SOL    HW214583   2.874   2.367   5.006 -0.6431  0.1884  1.6153
  984SOL     OW14584   2.949   1.902   7.201  0.1461  0.6052 -0.9184
  984SOL    HW114585   2.899   1.835   7.154  2.6653 -1.4554 -0.6175
  984SOL    HW214586   3.033   1.895   7.155 -0.7371  0.3144 -2.5012
  985SOL     OW14587   1.555   4.668   4.774  0.7931 -0.1339  0.2828
  985SOL    HW114588   1.570   4.654   4.868 -1.0091  1.3500  0.7790
  985SOL    HW214589   1.571   4.584   4.730  3.1112 -0.5024  1.7580
  986SOL     OW14590   4.203   0.874   4.178 -0.3176 -0.0198  0.0817
  986SOL    HW114591   4.288   0.896   4.138 -0.0424 -1.1210  0.0719
  986SOL    HW214592   4.217   0.784   4.208  1.1246  0.2182  0.1526
  987SOL     OW14593   4.119   2.450   3.459 -0.1244  0.1284 -0.2329
  987SOL    HW114594   4.054   2.521   3.456  0.0215  0.2273 -1.0778
  987SOL    HW214595   4.127   2.435   3.364 -2.5181 -1.0804 -0.2578
  988SOL     OW14596   1.634   2.109  15.320  0.5164 -0.4410 -0.3355
  988SOL    HW114597   1.705   2.155  15.365  0.4578 -0.3525 -0.3317
  988SOL    HW214598   1.667   2.096  15.231  2.7517  0.1096  0.4150
  989SOL     OW14599   0.103   2.208   7.544  0.6992  0.0212 -0.0584
  989SOL    HW114600   0.127   2.269   7.614  1.2522 -1.6324  1.1935
  989SOL    HW214601   0.012   2.196   7.570  0.5978  3.3553  1.0791
  990SOL     OW14602   0.001   0.897   3.153  0.6634  0.1611  0.2951
  990SOL    HW114603   0.032   0.895   3.062  0.1904 -0.8029  0.1646
  990SOL    HW214604   4.645   0.897   3.134  0.6734  0.0544  0.2462
  991SOL     OW14605   1.355   3.163   8.970 -0.2136  0.4979 -0.1689
  991SOL    HW114606   1.431   3.198   8.925  0.3331  0.4318  0.7116
  991SOL    HW214607   1.314   3.097   8.914  0.2352  1.4273 -1.6010
  992SOL     OW14608   1.197   4.006   9.729 -0.4557  0.3976  0.0127
  992SOL    HW114609   1.111   4.047   9.738 -0.6666 -0.2900  1.2715
  992SOL    HW214610   1.172   3.930   9.676 -1.8331 -0.5347  1.9785
  993SOL     OW14611   0.441   2.956   3.896  0.5006  0.7450 -0.0971
  993SOL    HW114612   0.481   2.972   3.810  1.9776 -0.0336  0.4565
  993SOL    HW214613   0.356   2.924   3.864 -0.2175  2.2822  0.3099
  994SOL     OW14614   1.876   3.996  12.980  0.2090  0.4267  0.1300
  994SOL    HW114615   1.820   3.940  12.927  0.7298 -2.8956  3.0847
  994SOL    HW214616   1.872   4.080  12.934 -0.3837 -0.6366 -1.7557
  995SOL     OW14617   2.359   1.382  14.078  0.3152 -0.1097 -0.1977
  995SOL    HW114618   2.380   1.427  13.996  0.5528  0.3180  0.0950
  995SOL    HW214619   2.433   1.324  14.097  1.6127  1.8725  0.7924
  996SOL     OW14620   4.580   1.675  15.919  0.4216 -0.1152 -0.7999
  996SOL    HW114621   4.576   1.656  16.013  0.2171  2.1364 -0.3714
  996SOL    HW214622   4.596   1.769  15.914 -1.2751  0.1407 -1.2590
  997SOL     OW14623   0.125   3.735   5.251 -0.3272 -0.2872 -0.6384
  997SOL    HW114624   0.055   3.670   5.241 -0.7729  0.2245 -0.8062
  997SOL    HW214625   0.119   3.744   5.346  0.9656 -0.1881 -0.5619
  998SOL     OW14626   2.522   0.435  16.567  0.0696  0.0775  0.6396
  998SOL    HW114627   2.585   0.485  16.515  0.9603 -1.1348  0.5546
  998SOL    HW214628   2.481   0.506  16.617  1.6717 -0.8729  3.3230
  999SOL     OW14629   3.946   4.285   7.018  0.0135 -0.8257  0.1871
  999SOL    HW114630   3.869   4.233   7.039 -0.9202  0.0637 -1.0601
  999SOL    HW214631   3.973   4.238   6.939  0.6634  0.5541 -0.4033
 1000SOL     OW14632   0.809   4.012   1.478 -0.1146  0.3733 -0.4968
 1000SOL    HW114633   0.903   4.003   1.496 -0.5240 -0.6571  1.0452
 1000SOL    HW214634   0.779   3.929   1.515  2.0804  0.2379  0.9625
 1001SOL     OW14635   2.347   3.083   3.981  0.0169  0.3862  0.3592
 1001SOL    HW114636   2.378   3.171   3.963 -0.9782  0.3032 -1.7797
 1001SOL    HW214637   2.262   3.086   3.937  0.1912  2.7317  0.2002
 1002SOL     OW14638   4.076   3.960   3.749  0.3159 -0.7526 -0.0955
 1002SOL    HW114639   4.003   3.932   3.695 -0.5472 -0.6755  1.0191
 1002SOL    HW214640   4.070   4.053   3.726  2.1338 -0.7475 -0.5803
 1003SOL     OW14641   0.772   0.099  11.924  0.2385 -0.0513 -0.3016
 1003SOL    HW114642   0.834   0.151  11.873  0.8893 -1.5101 -0.9782
 1003SOL    HW214643   0.721   0.170  11.964 -1.2546 -0.1126 -2.0580
 1004SOL     OW14644   2.169   2.224   3.783  0.2708  0.0652 -0.3721
 1004SOL    HW114645   2.098   2.164   3.804 -1.0286  2.3172  1.6935
 1004SOL    HW214646   2.195   2.242   3.873 -1.7569 -0.5953  0.3322
 1005SOL     OW14647   1.277   4.021  13.359 -0.4537  0.7097 -0.0726
 1005SOL    HW114648   1.311   4.108  13.340  0.9184 -0.0315 -1.0572
 1005SOL    HW214649   1.187   4.035  13.331 -0.5911 -1.3759 -0.7206
 1006SOL     OW14650   2.600   0.043   8.324  0.9306  0.1607  0.4852
 1006SOL    HW114651   2.610   4.685   8.321 -2.5275 -0.1378 -1.8626
 1006SOL    HW214652   2.653   0.070   8.249 -3.1233 -1.4331 -2.9695
 1007SOL     OW14653   2.840   4.388   4.568 -0.4808 -0.4797  0.0228
 1007SOL    HW114654   2.905   4.320   4.550  0.5533  1.3188 -2.9997
 1007SOL    HW214655   2.854   4.444   4.492  0.4121  0.3945  0.8205
 1008SOL     OW14656   3.035   2.244  12.389  0.2342  0.6829  0.3165
 1008SOL    HW114657   2.996   2.321  12.431  2.5489  2.4196 -0.7144
 1008SOL    HW214658   3.124   2.252  12.424  0.5956  1.5757 -0.7923
 1009SOL     OW14659   3.813   3.102  15.783  0.2686  0.2895 -0.3645
 1009SOL    HW114660   3.892   3.072  15.739  3.5715  2.8063  3.8645
 1009SOL    HW214661   3.830   3.067  15.871  0.5407 -0.4917 -0.7307
 1010SOL     OW14662   1.909   0.278   0.590  0.2143 -0.2963  0.3802
 1010SOL    HW114663   1.929   0.282   0.684  0.6590  1.5685  0.2177
 1010SOL    HW214664   1.909   0.184   0.576 -0.1550 -0.2919  0.3398
 1011SOL     OW14665   1.271   3.348  11.658 -0.2781 -0.2064  0.2408
 1011SOL    HW114666   1.280   3.443  11.654 -0.7227 -0.2111 -0.9361
 1011SOL    HW214667   1.275   3.320  11.566 -3.0027 -2.0396  0.6822
 1012SOL     OW14668   3.400   4.282   6.478 -0.0617 -0.1733 -0.0153
 1012SOL    HW114669   3.439   4.308   6.394  2.5723  0.5984  1.4643
 1012SOL    HW214670   3.469   4.312   6.536 -0.3352  1.2525 -0.4237
 1013SOL     OW14671   3.782   1.455  11.456 -0.4506 -0.2382 -0.0665
 1013SOL    HW114672   3.805   1.392  11.524 -0.5539 -1.3148 -1.0313
 1013SOL    HW214673   3.694   1.419  11.447 -0.4679  0.1418 -1.4311
 1014SOL     OW14674   3.758   1.369   9.278 -0.2637  0.1744  0.1791
 1014SOL    HW114675   3.816   1.392   9.351  0.5292  0.1667 -0.4567
 1014SOL    HW214676   3.809   1.308   9.225 -1.5222  0.3578 -1.2476
 1015SOL     OW14677   0.688   3.475   5.941  0.5080  0.3073  0.1246
 1015SOL    HW114678   0.682   3.404   5.878  1.0941 -0.7410  1.2454
 1015SOL    HW214679   0.722   3.543   5.883 -0.0595  0.5250  0.0426
 1016SOL     OW14680   1.954   3.938  15.949  0.0317 -0.1573 -0.4133
 1016SOL    HW114681   1.947   3.974  16.038  0.4100  0.3898 -0.6092
 1016SOL    HW214682   2.006   3.999  15.898 -0.2287 -0.7269 -1.3458
 1017SOL     OW14683   0.905   3.470   7.592  0.6068  0.2375  0.0455
 1017SOL    HW114684   0.829   3.419   7.621  1.5190 -1.1077  0.0843
 1017SOL    HW214685   0.969   3.399   7.595  0.5412  0.2063  0.6004
 1018SOL     OW14686   0.863   4.715   5.035  0.2974 -0.2195 -0.3493
 1018SOL    HW114687   0.948   4.704   5.078  1.1870  0.2608 -1.9964
 1018SOL    HW214688   0.809   4.728   5.114  1.5485 -1.9600  0.7926
 1019SOL     OW14689   2.808   2.565   7.916 -0.4886 -0.1253 -0.2151
 1019SOL    HW114690   2.793   2.647   7.869 -0.8964 -1.0886 -1.7597
 1019SOL    HW214691   2.899   2.541   7.898  0.0942  3.5745 -2.1783
 1020SOL     OW14692   3.582   0.405  11.941 -0.2451 -0.2097  0.0988
 1020SOL    HW114693   3.497   0.442  11.918 -0.4006 -0.0555  0.9338
 1020SOL    HW214694   3.585   0.319  11.898  0.0954  0.7982 -1.8944
 1021SOL     OW14695   2.611   0.332   1.503  0.0733 -0.5336 -0.0168
 1021SOL    HW114696   2.618   0.368   1.414  0.0589 -0.2132  0.1096
 1021SOL    HW214697   2.607   0.408   1.562  0.4858  0.0679 -0.7599
 1022SOL     OW14698   1.408   3.024   3.401 -0.2431 -0.0420  0.3824
 1022SOL    HW114699   1.388   3.064   3.317 -0.3495  1.5704  1.1581
 1022SOL    HW214700   1.317   3.003   3.423 -0.5049 -0.6527 -1.2783
 1023SOL     OW14701   2.709   3.959   4.030  0.1806  0.0478 -0.0592
 1023SOL    HW114702   2.716   4.032   3.969  0.4895  0.4015  0.3937
 1023SOL    HW214703   2.623   3.921   4.014  1.0626 -2.1905  0.4189
 1024SOL     OW14704   1.501   0.490   6.939 -0.1831 -0.0805 -0.1590
 1024SOL    HW114705   1.481   0.397   6.946 -1.3169  0.0058 -2.2683
 1024SOL    HW214706   1.455   0.501   6.856  2.2134  0.8874 -1.3493
 1025SOL     OW14707   4.398   0.664  15.382 -0.1814 -0.1215  0.7613
 1025SOL    HW114708   4.468   0.652  15.318 -1.8542  0.0095 -1.0618
 1025SOL    HW214709   4.398   0.579  15.424 -0.5917 -0.9460 -0.9167
 1026SOL     OW14710   4.030   1.904  10.560 -0.1030 -0.1484  0.0043
 1026SOL    HW114711   4.000   1.818  10.530 -0.9276 -0.0073  0.4085
 1026SOL    HW214712   4.096   1.922  10.493  0.7884  1.2430  1.2872
 1027SOL     OW14713   3.156   2.055   6.123  0.2067  0.8932 -0.4485
 1027SOL    HW114714   3.191   2.073   6.210  0.7362 -0.5342 -0.3592
 1027SOL    HW214715   3.106   2.132   6.098  0.2761  0.4554 -1.9467
 1028SOL     OW14716   2.050   0.303   1.814 -0.0317  0.1762 -0.1813
 1028SOL    HW114717   2.089   0.388   1.835 -1.2390  1.2480 -2.2499
 1028SOL    HW214718   1.966   0.326   1.775  0.9562  3.9261 -0.0908
 1029SOL     OW14719   4.317   0.029   0.196  0.3074  0.0184  0.2928
 1029SOL    HW114720   4.319   4.679   0.235  2.1397 -0.9659 -2.0161
 1029SOL    HW214721   4.409   0.053   0.187 -0.2845  1.8367 -0.8420
 1030SOL     OW14722   3.396   2.261  14.941 -0.0799  0.2114  0.2362
 1030SOL    HW114723   3.475   2.249  14.889 -0.6904  0.3114 -0.7009
 1030SOL    HW214724   3.385   2.171  14.972 -0.6470 -0.0581 -0.7283
 1031SOL     OW14725   3.215   0.416   7.693 -0.0123  0.0885 -0.2932
 1031SOL    HW114726   3.211   0.508   7.667 -0.4989  0.1022 -0.1697
 1031SOL    HW214727   3.262   0.423   7.775 -0.6451 -0.7969  0.1504
 1032SOL     OW14728   3.376   4.169   3.151 -0.2333 -0.5324  1.1305
 1032SOL    HW114729   3.390   4.217   3.069  1.6791 -1.6126  0.8060
 1032SOL    HW214730   3.418   4.083   3.140 -2.7866 -1.5078 -0.9731
 1033SOL     OW14731   3.826   1.621   7.579 -0.3636 -0.0880 -0.2475
 1033SOL    HW114732   3.860   1.576   7.502  1.4597 -0.5118  0.8028
 1033SOL    HW214733   3.803   1.550   7.638  0.4316 -1.8861 -2.0964
 1034SOL     OW14734   2.559   3.331   0.536  0.3888  0.2725  0.3424
 1034SOL    HW114735   2.534   3.400   0.599  0.0558  1.2959 -0.9188
 1034SOL    HW214736   2.647   3.312   0.567  1.1320  1.0109 -1.3647
 1035SOL     OW14737   4.308   1.784  13.460 -0.1303  0.2999 -0.5419
 1035SOL    HW114738   4.354   1.792  13.544 -0.2022 -0.2468 -0.4519
 1035SOL    HW214739   4.372   1.733  13.411  1.3768  2.3223 -0.6568
 1036SOL     OW14740   1.655   3.102   4.933  0.7988  1.2825  0.1197
 1036SOL    HW114741   1.653   3.195   4.953  1.5994  2.1678 -3.8898
 1036SOL    HW214742   1.676   3.067   5.019  1.2187 -0.1216 -0.5414
 1037SOL     OW14743   4.211   3.525   2.400  0.1307 -0.0675  0.0743
 1037SOL    HW114744   4.148   3.475   2.453  0.1933  0.5596  0.7509
 1037SOL    HW214745   4.232   3.603   2.452 -2.8140  0.9183 -0.2468
 1038SOL     OW14746   1.048   4.295   2.971 -0.5530  0.4073 -0.1531
 1038SOL    HW114747   1.086   4.208   2.960 -1.2981  0.0382  0.1639
 1038SOL    HW214748   1.055   4.338   2.886  1.2149  0.1867 -0.1125
 1039SOL     OW14749   2.615   1.051   3.846 -0.1549 -0.5571  0.0603
 1039SOL    HW114750   2.575   1.133   3.874 -0.8177 -0.9972  0.4063
 1039SOL    HW214751   2.543   0.988   3.842  1.5970 -2.5163 -1.2401
 1040SOL     OW14752   1.898   0.497   7.205  0.7258  0.2689 -0.0984
 1040SOL    HW114753   1.859   0.575   7.167  0.0830  0.6192  1.2939
 1040SOL    HW214754   1.828   0.460   7.258  0.0132  0.0559 -1.1741
 1041SOL     OW14755   3.322   3.001  16.124 -0.3049  0.7985  0.4461
 1041SOL    HW114756   3.272   2.930  16.165 -2.7014  1.0642 -2.0305
 1041SOL    HW214757   3.305   3.000  16.029  1.1539  2.3658  0.1762
 1042SOL     OW14758   0.026   2.941  13.073 -0.1312 -0.1883  0.1513
 1042SOL    HW114759   0.071   2.973  13.152  0.0969  1.1375 -0.5015
 1042SOL    HW214760   4.677   2.916  13.107 -0.5228  0.5274 -0.3153
 1043SOL     OW14761   0.550   4.606   7.583  0.6308  0.4588  0.5125
 1043SOL    HW114762   0.458   4.608   7.611  0.2164  2.1760 -1.0284
 1043SOL    HW214763   0.593   4.533   7.628 -1.2612 -0.1063  1.4310
 1044SOL     OW14764   1.858   3.652   5.169  0.1732 -0.4155  0.1298
 1044SOL    HW114765   1.787   3.695   5.216  0.8563 -0.1417  0.9099
 1044SOL    HW214766   1.838   3.689   5.083  1.2670 -1.0675 -0.3947
 1045SOL     OW14767   4.346   0.118   7.092 -0.0078 -0.7144  0.6736
 1045SOL    HW114768   4.396   0.150   7.168 -0.4833  0.0877  0.6592
 1045SOL    HW214769   4.325   0.031   7.125 -4.5026 -0.0075 -0.3183
 1046SOL     OW14770   0.970   0.888   6.082  0.2449 -0.2364 -0.0499
 1046SOL    HW114771   0.955   0.864   6.173  1.7263  1.2535  0.5769
 1046SOL    HW214772   0.978   0.983   6.085 -0.1302 -0.2901  1.9770
 1047SOL     OW14773   4.434   4.673   6.780 -0.3232 -0.6767 -0.2492
 1047SOL    HW114774   4.434   4.616   6.856  0.3446 -0.2188  0.0902
 1047SOL    HW214775   4.350   4.719   6.789  0.2169 -0.1916  2.1792
 1048SOL     OW14776   1.199   0.258   5.952  0.6761 -0.2308 -0.5893
 1048SOL    HW114777   1.149   0.188   5.910  0.8130 -0.3426 -0.5656
 1048SOL    HW214778   1.207   0.233   6.044  1.8403  0.7326 -0.4265
 1049SOL     OW14779   3.220   3.789  16.926  0.7549  0.1128  0.0202
 1049SOL    HW114780   3.297   3.837  16.896  1.2900 -0.6901  0.0950
 1049SOL    HW214781   3.211   3.722  16.858  3.0119 -1.1890  0.9945
 1050SOL     OW14782   4.021   0.011   7.179 -0.0406  0.2345 -0.3129
 1050SOL    HW114783   4.038   4.677   7.116  1.8403 -0.3236  0.8072
 1050SOL    HW214784   4.049   4.710   7.262  0.2712  0.7814 -0.1705
 1051SOL     OW14785   1.337   0.344   8.616  0.5474  0.1268  0.1605
 1051SOL    HW114786   1.359   0.334   8.709  1.2576 -0.8462 -0.1170
 1051SOL    HW214787   1.392   0.277   8.576 -1.0004 -0.8545 -0.3232
 1052SOL     OW14788   3.684   2.898  15.663 -0.0135 -0.1977  0.4241
 1052SOL    HW114789   3.710   2.982  15.702 -0.0219  0.0024  0.0070
 1052SOL    HW214790   3.760   2.885  15.607 -0.3751 -1.0464  0.1331
 1053SOL     OW14791   2.510   1.580   2.008 -0.8097 -0.0218 -0.2812
 1053SOL    HW114792   2.416   1.564   2.011 -0.9942  1.0239 -0.7863
 1053SOL    HW214793   2.534   1.492   1.976  3.3329 -0.0243  2.7556
 1054SOL     OW14794   0.073   3.634  15.945  0.1240  0.0409  0.0701
 1054SOL    HW114795   0.091   3.632  15.851 -2.1560  1.3801 -0.4054
 1054SOL    HW214796   0.047   3.544  15.962 -1.4884  0.2679 -1.1390
 1055SOL     OW14797   0.015   4.026   2.662 -0.3903 -0.4724 -0.4381
 1055SOL    HW114798   0.062   4.080   2.726  0.4114 -0.8038 -0.7587
 1055SOL    HW214799   0.085   4.010   2.599  1.6806 -0.5395  1.8462
 1056SOL     OW14800   2.143   0.096   6.677 -0.0631 -0.5109 -0.6067
 1056SOL    HW114801   2.123   0.078   6.769 -0.3582  0.4498 -0.4879
 1056SOL    HW214802   2.057   0.111   6.639  1.0609  2.2579 -2.0676
 1057SOL     OW14803   1.334   1.600   9.667  0.9588 -0.8566  0.2001
 1057SOL    HW114804   1.355   1.515   9.629  0.9923 -0.8906  0.2948
 1057SOL    HW214805   1.335   1.657   9.590 -1.4580 -1.4841 -0.2910
 1058SOL     OW14806   4.403   2.838  11.333  0.0652  0.1991 -1.2054
 1058SOL    HW114807   4.498   2.827  11.347 -0.1653 -0.7783 -0.3782
 1058SOL    HW214808   4.393   2.799  11.247  1.5882 -0.2409 -1.1913
 1059SOL     OW14809   1.854   0.881   0.073  0.3295 -0.4151  0.0227
 1059SOL    HW114810   1.843   0.842   0.160 -1.3528  3.6133  1.5958
 1059SOL    HW214811   1.766   0.889   0.038  0.9645 -0.0972 -1.4651
 1060SOL     OW14812   0.552   3.471  12.067 -0.3289 -0.3758  0.2712
 1060SOL    HW114813   0.604   3.397  12.036 -0.6341 -1.2001  1.7200
 1060SOL    HW214814   0.461   3.453  12.042  0.5804  0.1749 -3.5235
 1061SOL     OW14815   0.462   3.463  13.661  0.3236  0.3898  0.2854
 1061SOL    HW114816   0.498   3.481  13.575  0.0553  1.9861  0.5225
 1061SOL    HW214817   0.417   3.545  13.680 -2.1889 -1.1940  1.1824
 1062SOL     OW14818   0.431   2.478   5.912 -0.0348  0.2250  0.9991
 1062SOL    HW114819   0.364   2.436   5.858 -1.0516  0.1676  2.3114
 1062SOL    HW214820   0.458   2.544   5.847 -0.2843 -1.0732 -0.4231
 1063SOL     OW14821   1.375   3.507  16.477 -0.1847 -0.2118  0.1104
 1063SOL    HW114822   1.312   3.574  16.450 -0.2028  0.2787  1.3510
 1063SOL    HW214823   1.448   3.536  16.422 -0.6856 -0.5104 -0.7128
 1064SOL     OW14824   4.559   2.103   3.430  0.0591 -0.3927 -0.0122
 1064SOL    HW114825   4.465   2.090   3.420 -0.3338 -0.2567  3.6241
 1064SOL    HW214826   4.576   2.109   3.335  0.5864 -1.6864 -0.0010
 1065SOL     OW14827   1.933   3.349   8.760  0.0437 -0.0801  0.0040
 1065SOL    HW114828   1.916   3.263   8.797  0.0558  0.7074  1.8130
 1065SOL    HW214829   2.010   3.330   8.706 -0.0548 -0.8269  0.1292
 1066SOL     OW14830   1.977   2.669   8.445  0.3514 -0.1163 -0.6172
 1066SOL    HW114831   1.983   2.633   8.357  2.7603 -1.2530  0.0070
 1066SOL    HW214832   2.047   2.733   8.448  0.2334 -0.0949  1.9151
 1067SOL     OW14833   4.257   3.935   7.353  0.0508  0.1663  0.0751
 1067SOL    HW114834   4.250   3.862   7.292 -0.3468 -0.0802  0.4138
 1067SOL    HW214835   4.172   3.926   7.395  0.0462  2.5479  0.5842
 1068SOL     OW14836   0.805   3.734   7.931 -0.0557  0.5797 -0.1648
 1068SOL    HW114837   0.839   3.645   7.927  0.0246  0.4921  2.2081
 1068SOL    HW214838   0.879   3.777   7.888  1.3129  0.6520  2.2688
 1069SOL     OW14839   4.024   3.461   2.594 -0.5205 -0.0295  0.0097
 1069SOL    HW114840   3.977   3.392   2.547 -1.2023 -0.5040  1.3989
 1069SOL    HW214841   4.015   3.426   2.682 -0.6745  0.4909  0.2042
 1070SOL     OW14842   1.043   4.254   2.465 -0.6959 -0.4493 -0.0979
 1070SOL    HW114843   1.076   4.170   2.497  1.5767  0.4230 -0.1312
 1070SOL    HW214844   1.095   4.272   2.387  1.7562  0.7137  1.7866
 1071SOL     OW14845   3.409   4.627  15.389 -0.1612  0.2966 -0.0088
 1071SOL    HW114846   3.455   4.578  15.457  0.0302  0.6925  0.1444
 1071SOL    HW214847   3.330   4.576  15.372  0.3900 -0.3578 -0.6244
 1072SOL     OW14848   2.764   2.327   0.455 -0.3040  0.0925  0.0695
 1072SOL    HW114849   2.765   2.238   0.490 -1.5608  0.1020  0.1188
 1072SOL    HW214850   2.784   2.377   0.534 -1.9075  0.9752 -0.0765
 1073SOL     OW14851   2.452   3.721   3.624  0.3092 -0.1474  0.7792
 1073SOL    HW114852   2.392   3.753   3.557  2.0664 -0.0825 -0.7639
 1073SOL    HW214853   2.460   3.634   3.585  0.3406  2.0218 -4.0109
 1074SOL     OW14854   0.076   4.482  13.830 -0.8139  0.1708  0.0002
 1074SOL    HW114855   0.067   4.543  13.757  0.0839 -1.0994 -1.1628
 1074SOL    HW214856   0.098   4.541  13.902 -0.6541  0.5340 -0.3465
 1075SOL     OW14857   2.484   0.905   2.084  0.4559 -0.7400 -0.0717
 1075SOL    HW114858   2.554   0.969   2.075 -1.2215  1.1097 -0.1791
 1075SOL    HW214859   2.500   0.861   2.000 -0.8728  1.1635 -1.3262
 1076SOL     OW14860   4.074   3.445   9.083  0.1208  0.6033  0.2324
 1076SOL    HW114861   4.051   3.537   9.075 -1.0797  0.2522 -0.4369
 1076SOL    HW214862   4.108   3.425   8.995 -2.6406  1.3546 -1.0014
 1077SOL     OW14863   1.107   0.735  17.399 -0.3013 -0.2241 -0.2759
 1077SOL    HW114864   1.066   0.695  17.475  0.8433 -0.0151  0.4513
 1077SOL    HW214865   1.146   0.816  17.431  0.6414 -0.3914 -0.9951
 1078SOL     OW14866   0.796   4.531   8.394 -0.1551  0.0130 -0.1732
 1078SOL    HW114867   0.811   4.437   8.380  0.1210 -0.1708  1.3905
 1078SOL    HW214868   0.874   4.561   8.440 -1.2151  1.1762  0.8604
 1079SOL     OW14869   1.055   0.107  11.327 -0.1164  0.0214  0.2329
 1079SOL    HW114870   0.996   0.099  11.252  2.9038 -0.1366 -2.1312
 1079SOL    HW214871   0.992   0.147  11.387 -0.4183 -0.3180  0.1454
 1080SOL     OW14872   2.350   0.036   9.928  0.0402  0.0983 -0.2977
 1080SOL    HW114873   2.328   0.065   9.840 -0.8141  0.2090 -0.0482
 1080SOL    HW214874   2.294   4.695   9.926  1.1359 -0.6971 -0.1812
 1081SOL     OW14875   0.773   2.776   5.088  0.3164  0.0464  0.2138
 1081SOL    HW114876   0.812   2.789   5.002  1.6424 -0.6633  0.7040
 1081SOL    HW214877   0.712   2.703   5.078  1.0438 -0.6923  1.1957
 1082SOL     OW14878   1.903   2.754   6.562  0.6351 -0.0392 -0.2571
 1082SOL    HW114879   1.845   2.746   6.638 -0.2799  0.8487 -0.8694
 1082SOL    HW214880   1.906   2.849   6.552  0.3948 -0.2895 -2.6190
 1083SOL     OW14881   4.107   3.545  15.031  0.2383 -0.0188 -0.3261
 1083SOL    HW114882   4.172   3.475  15.026  0.7323  0.3569  0.9460
 1083SOL    HW214883   4.043   3.491  14.982  0.6417  0.7230 -1.6822
 1084SOL     OW14884   1.739   0.805  15.872  0.0405 -0.1531  0.4309
 1084SOL    HW114885   1.770   0.807  15.962 -0.5273 -1.1247  0.6400
 1084SOL    HW214886   1.818   0.776  15.826  0.2700 -2.0468  2.0592
 1085SOL     OW14887   1.727   1.507   0.733 -0.1748  0.2988 -0.2330
 1085SOL    HW114888   1.762   1.534   0.647  2.1620  0.2888  0.6988
 1085SOL    HW214889   1.810   1.506   0.781  0.3776  2.2178 -1.1084
 1086SOL     OW14890   1.923   0.788   4.447  0.2608  0.2631  0.8501
 1086SOL    HW114891   1.857   0.851   4.475 -0.5774 -0.6772  0.9793
 1086SOL    HW214892   1.968   0.752   4.524 -0.5859 -1.1331  0.7033
 1087SOL     OW14893   3.174   1.405   4.064 -0.6735  0.4977 -0.6319
 1087SOL    HW114894   3.241   1.361   4.116 -1.7162 -0.0170  0.3013
 1087SOL    HW214895   3.181   1.490   4.107 -0.7335  1.4223 -2.4513
 1088SOL     OW14896   1.002   0.196   3.277  0.2584  0.5733 -0.0170
 1088SOL    HW114897   1.087   0.151   3.272 -0.1448 -0.0261 -1.6988
 1088SOL    HW214898   0.953   0.129   3.230  0.6628  1.3941 -1.6057
 1089SOL     OW14899   0.523   3.406  10.788 -0.1229  0.2338  0.1362
 1089SOL    HW114900   0.561   3.418  10.701  0.3505 -1.0657  0.1683
 1089SOL    HW214901   0.553   3.492  10.816 -1.3906  0.4065  0.9577
 1090SOL     OW14902   2.118   2.804  10.162  0.3525 -0.4653  0.6693
 1090SOL    HW114903   2.081   2.726  10.201  0.3848  0.0872  1.7942
 1090SOL    HW214904   2.116   2.869  10.232 -2.7403 -0.4709  0.5642
 1091SOL     OW14905   3.966   0.500   9.753 -0.5236 -0.2837 -0.2797
 1091SOL    HW114906   3.997   0.503   9.662 -0.3651 -0.1644 -0.2216
 1091SOL    HW214907   3.877   0.467   9.743 -0.6668 -0.0686  0.3386
 1092SOL     OW14908   0.582   1.558  15.560 -0.3229 -0.0653 -0.1992
 1092SOL    HW114909   0.577   1.584  15.652  2.5755  1.4655 -0.4752
 1092SOL    HW214910   0.665   1.604  15.544 -0.7254  0.5105 -0.6214
 1093SOL     OW14911   2.898   2.862   0.199 -0.0446  0.2573 -0.0903
 1093SOL    HW114912   2.866   2.951   0.187 -1.1511  0.2487  2.8600
 1093SOL    HW214913   2.853   2.815   0.129 -0.7921 -0.5189  0.9191
 1094SOL     OW14914   1.486   0.720   1.429  0.5275  0.4346  0.1474
 1094SOL    HW114915   1.403   0.681   1.458  0.2774  0.7424 -0.1496
 1094SOL    HW214916   1.553   0.700   1.495 -0.3748  2.6063  1.7354
 1095SOL     OW14917   2.759   1.394   0.953  0.2864  0.1708  0.0880
 1095SOL    HW114918   2.663   1.404   0.951  0.6712  3.9138 -0.1805
 1095SOL    HW214919   2.778   1.424   0.864 -1.2453  0.2041 -0.2461
 1096SOL     OW14920   2.088   2.961   4.442 -0.4307  0.1391  0.1850
 1096SOL    HW114921   2.172   2.916   4.443 -1.2519 -1.4023  0.4948
 1096SOL    HW214922   2.087   3.004   4.528  1.5798  1.6266 -0.5458
 1097SOL     OW14923   2.509   2.260   7.270  0.2234 -0.0022  0.5798
 1097SOL    HW114924   2.484   2.339   7.223 -3.1663 -1.9229 -0.9089
 1097SOL    HW214925   2.442   2.258   7.338 -0.2226  1.7340  0.1799
 1098SOL     OW14926   2.160   2.270  11.910  0.3114  0.1036 -0.7155
 1098SOL    HW114927   2.211   2.203  11.865  0.1740 -0.0870 -0.5871
 1098SOL    HW214928   2.109   2.317  11.845  2.2365 -0.7657 -2.8366
 1099SOL     OW14929   2.780   2.317   5.610  0.1304  0.3937  0.3330
 1099SOL    HW114930   2.875   2.308   5.615  0.1140  0.1284  0.2122
 1099SOL    HW214931   2.773   2.408   5.582  0.3425 -0.4193 -2.4103
 1100SOL     OW14932   1.970   1.325   6.045  0.1804  0.6050 -0.2281
 1100SOL    HW114933   2.052   1.330   6.094 -0.9464 -0.9970  1.8621
 1100SOL    HW214934   1.961   1.420   6.043  0.3557  0.6710  1.5291
 1101SOL     OW14935   1.978   3.395   1.930  0.2305  0.0751  0.4098
 1101SOL    HW114936   1.948   3.461   1.993  0.4443  0.1193  0.4684
 1101SOL    HW214937   1.992   3.319   1.986  1.0895 -0.7811 -0.9618
 1102SOL     OW14938   1.484   2.594   9.377 -0.4016 -0.0190  0.5619
 1102SOL    HW114939   1.556   2.657   9.382  2.4664 -3.2465 -0.7460
 1102SOL    HW214940   1.536   2.527   9.334 -2.5775 -1.8701  0.7846
 1103SOL     OW14941   4.018   0.785   2.893  0.1019  0.3787 -0.3566
 1103SOL    HW114942   3.928   0.757   2.874  0.4993 -0.0022 -1.6773
 1103SOL    HW214943   4.017   0.765   2.986  0.0155 -0.8384 -0.6194
 1104SOL     OW14944   4.530   2.350  11.965 -0.1323 -0.3826  0.0049
 1104SOL    HW114945   4.442   2.350  11.928  0.7062 -1.9956 -2.0345
 1104SOL    HW214946   4.523   2.417  12.033 -0.3691 -0.0803 -0.3187
 1105SOL     OW14947   1.435   4.048   2.424  0.3162 -0.4895 -0.5333
 1105SOL    HW114948   1.372   4.095   2.371 -0.3197  1.1542  1.6631
 1105SOL    HW214949   1.389   3.969   2.452 -2.5302  2.1244  2.0648
 1106SOL     OW14950   1.846   3.551   3.920  0.3499 -0.4239 -0.2481
 1106SOL    HW114951   1.765   3.602   3.926  0.2281 -1.3535  5.5204
 1106SOL    HW214952   1.906   3.609   3.966  0.0919 -0.1764 -0.2206
 1107SOL     OW14953   2.276   4.589  16.654  0.5494 -0.0847 -0.0029
 1107SOL    HW114954   2.317   4.644  16.587  0.2277  1.6327  1.2357
 1107SOL    HW214955   2.214   4.547  16.594  1.0312  1.2821 -1.4709
 1108SOL     OW14956   1.847   1.781  11.382 -0.3525 -0.0758  0.3624
 1108SOL    HW114957   1.759   1.752  11.361  0.0508 -0.7304 -0.4389
 1108SOL    HW214958   1.857   1.872  11.353 -1.6536 -1.0548 -3.1719
 1109SOL     OW14959   3.573   1.238  14.656  0.6873  0.0993  0.1372
 1109SOL    HW114960   3.561   1.153  14.615  0.9967  0.0609  0.1257
 1109SOL    HW214961   3.667   1.234  14.674  0.8490 -1.6735 -1.1079
 1110SOL     OW14962   2.303   1.096   7.875 -0.0755 -0.9253  0.2646
 1110SOL    HW114963   2.321   1.183   7.910  0.2315 -0.1707 -1.7215
 1110SOL    HW214964   2.328   1.038   7.946  2.2849 -0.0572  0.1189
 1111SOL     OW14965   1.712   3.498   7.115 -0.5536  0.3929 -0.4918
 1111SOL    HW114966   1.804   3.523   7.104 -0.5701  0.2654 -0.9184
 1111SOL    HW214967   1.667   3.578   7.089 -1.3533 -0.2008 -0.9190
 1112SOL     OW14968   2.617   2.294   2.806 -0.2654  0.0300  0.1313
 1112SOL    HW114969   2.587   2.233   2.873 -1.0051 -0.8639 -1.0006
 1112SOL    HW214970   2.706   2.316   2.836 -0.7054  0.6053  1.0070
 1113SOL     OW14971   3.400   2.163   3.131 -0.5271  0.2204 -0.1906
 1113SOL    HW114972   3.460   2.111   3.077 -0.2099  2.1166 -1.6739
 1113SOL    HW214973   3.366   2.087   3.178 -1.2483  0.7163  0.0791
 1114SOL     OW14974   2.627   1.638   5.217 -0.5998 -0.5141 -0.5493
 1114SOL    HW114975   2.550   1.653   5.162 -0.8566 -0.3927 -0.1513
 1114SOL    HW214976   2.596   1.631   5.307 -0.2589 -2.2684 -0.5602
 1115SOL     OW14977   2.693   0.903   5.237 -0.2047  0.3789 -0.5154
 1115SOL    HW114978   2.617   0.927   5.184  0.1106  2.5328 -0.0082
 1115SOL    HW214979   2.759   0.862   5.182 -1.1148 -2.5528  0.5842
 1116SOL     OW14980   2.901   0.732  16.348 -0.3417 -0.9406 -0.4205
 1116SOL    HW114981   2.978   0.684  16.318  0.8170  1.3436 -1.1102
 1116SOL    HW214982   2.842   0.662  16.377 -0.8695  0.8153  2.7199
 1117SOL     OW14983   1.468   0.624   4.055 -0.3572 -0.7638  0.1564
 1117SOL    HW114984   1.563   0.636   4.043 -0.1937 -0.3284  1.9261
 1117SOL    HW214985   1.445   0.698   4.111  0.3237 -1.1260  0.9190
 1118SOL     OW14986   4.667   1.973  10.259  0.2473  0.0549 -0.0750
 1118SOL    HW114987   4.677   1.924  10.341  0.8305 -0.6933 -0.5933
 1118SOL    HW214988   4.654   1.894  10.207 -0.7176  0.0734  0.1353
 1119SOL     OW14989   1.001   1.776   4.788  0.6165 -0.2757 -1.0587
 1119SOL    HW114990   1.076   1.767   4.847 -0.5768 -1.3617  0.3011
 1119SOL    HW214991   0.985   1.687   4.756  0.6676 -0.0801 -1.6357
 1120SOL     OW14992   2.028   1.341  12.613  0.1744  0.6593  0.1958
 1120SOL    HW114993   2.117   1.331  12.646  0.3414 -0.3292 -0.5565
 1120SOL    HW214994   1.993   1.253  12.598  0.5415  0.5034  0.2658
 1121SOL     OW14995   0.880   2.714   4.024 -0.1217 -0.0558 -0.3092
 1121SOL    HW114996   0.847   2.660   3.953 -1.6400 -0.3965  0.6684
 1121SOL    HW214997   0.805   2.770   4.043 -0.4931  0.2173 -2.6388
 1122SOL     OW14998   0.673   1.869   2.896  0.2902 -0.1399  0.2514
 1122SOL    HW114999   0.742   1.844   2.835 -0.6059 -1.0478 -0.3822
 1122SOL    HW215000   0.596   1.822   2.864  0.6880 -2.4060  2.6419
 1123SOL     OW15001   0.519   3.725  13.443 -0.5390  0.2167 -0.6002
 1123SOL    HW115002   0.546   3.654  13.385 -0.2436  0.1030 -0.3254
 1123SOL    HW215003   0.435   3.693  13.474  0.2185  0.1094  1.3152
 1124SOL     OW15004   2.682   4.327   2.485 -0.5682 -0.7864 -0.6786
 1124SOL    HW115005   2.748   4.295   2.423 -0.1134 -1.1199 -0.0296
 1124SOL    HW215006   2.670   4.244   2.531 -1.3137 -0.9000 -1.0851
 1125SOL     OW15007   1.854   1.729   7.223  0.1416 -0.1593  0.1508
 1125SOL    HW115008   1.840   1.665   7.153  1.8547  1.2180 -1.4639
 1125SOL    HW215009   1.927   1.696   7.276 -0.6890 -2.1209  0.0422
 1126SOL     OW15010   0.436   2.380   9.035 -0.6232 -0.1555 -0.6723
 1126SOL    HW115011   0.522   2.422   9.041 -0.7667 -0.0428  0.5324
 1126SOL    HW215012   0.439   2.321   9.110  1.9371  0.0494 -0.6048
 1127SOL     OW15013   1.182   1.493  13.463  0.3787 -0.1754  0.9239
 1127SOL    HW115014   1.107   1.523  13.513 -1.3646 -0.6656 -1.3965
 1127SOL    HW215015   1.152   1.405  13.442  0.3564 -0.4178  2.0071
 1128SOL     OW15016   0.553   4.317  11.977  0.2354  0.1040 -0.0642
 1128SOL    HW115017   0.565   4.391  12.036 -1.4831  0.0093  0.4242
 1128SOL    HW215018   0.550   4.363  11.893  3.5572  0.6965  0.1607
 1129SOL     OW15019   4.160   4.453   5.449 -0.8127  0.0763  0.3795
 1129SOL    HW115020   4.222   4.516   5.414  0.2064  0.1192  2.2326
 1129SOL    HW215021   4.108   4.500   5.514 -0.3037  0.8567  0.2159
 1130SOL     OW15022   0.060   4.031   8.653  0.0797  0.0476 -0.4846
 1130SOL    HW115023   0.021   3.969   8.592  1.2742 -1.4445  0.2891
 1130SOL    HW215024   0.079   3.978   8.730  1.6749 -0.8099 -1.4879
 1131SOL     OW15025   3.936   2.017   0.743  0.2806 -0.2149  0.1214
 1131SOL    HW115026   4.003   2.065   0.792 -0.6428  1.1986 -0.0076
 1131SOL    HW215027   3.931   2.063   0.659 -0.8290 -1.6040 -0.5723
 1132SOL     OW15028   0.967   1.701   9.042 -0.3512 -0.3839  0.5883
 1132SOL    HW115029   1.058   1.732   9.039 -0.6601  0.1847 -2.2395
 1132SOL    HW215030   0.955   1.648   8.964  1.6084 -0.0520  0.0633
 1133SOL     OW15031   0.672   3.733   6.842 -0.1099 -0.1505  0.2015
 1133SOL    HW115032   0.700   3.772   6.925  0.8405 -1.0839  0.3284
 1133SOL    HW215033   0.684   3.638   6.849  0.7105 -0.0746 -0.2053
 1134SOL     OW15034   1.678   0.797   4.020  0.0273  0.8521 -0.1738
 1134SOL    HW115035   1.695   0.759   4.107 -3.0448 -0.3274 -0.1039
 1134SOL    HW215036   1.648   0.886   4.032 -1.7935  0.4399 -1.7445
 1135SOL     OW15037   0.117   2.809   4.654  0.0916 -0.0312 -0.3728
 1135SOL    HW115038   0.106   2.754   4.732 -3.5062 -0.4330 -1.2004
 1135SOL    HW215039   0.170   2.749   4.600  0.6077 -1.8171  2.1024
 1136SOL     OW15040   3.271   4.172   6.800 -0.4356 -0.0911 -0.0781
 1136SOL    HW115041   3.194   4.218   6.833  0.5316  2.1229 -0.8875
 1136SOL    HW215042   3.237   4.137   6.718 -2.4876  3.5851 -0.8126
 1137SOL     OW15043   0.887   0.805  14.380 -0.5530  0.1581 -0.0921
 1137SOL    HW115044   0.833   0.884  14.371  0.3093  0.8019  0.4617
 1137SOL    HW215045   0.845   0.742  14.322  1.2349 -0.5911 -0.5529
 1138SOL     OW15046   1.984   1.049   8.348  0.5146 -0.6186 -0.0212
 1138SOL    HW115047   1.916   1.077   8.410 -0.0678 -0.3766 -0.7757
 1138SOL    HW215048   2.022   1.133   8.321 -2.1332  0.3586 -0.7208
 1139SOL     OW15049   3.210   4.596  13.963  0.1219  0.3492  0.1336
 1139SOL    HW115050   3.295   4.566  13.929 -0.0914  2.0763 -1.9029
 1139SOL    HW215051   3.205   4.512  14.010  1.8373 -1.2526 -2.5169
 1140SOL     OW15052   2.410   2.701   2.799  0.4174  0.6337 -0.2036
 1140SOL    HW115053   2.362   2.620   2.782  1.5029 -0.5492  2.2154
 1140SOL    HW215054   2.498   2.689   2.764 -0.4309 -0.6411 -1.8820
 1141SOL     OW15055   0.019   1.851  16.945 -0.2894 -0.2572  0.2160
 1141SOL    HW115056   4.668   1.835  16.910 -0.7509  0.9491  0.8220
 1141SOL    HW215057   0.051   1.761  16.949  0.8431  0.1380 -0.1321
 1142SOL     OW15058   0.699   0.365  10.060 -0.2721  0.0226 -0.5170
 1142SOL    HW115059   0.785   0.374  10.020  0.0619  3.1855  0.9378
 1142SOL    HW215060   0.645   0.399   9.988 -0.1622  1.8236  0.2369
 1143SOL     OW15061   3.514   4.311  15.812  0.1546 -0.0195 -0.1299
 1143SOL    HW115062   3.498   4.377  15.879 -0.3596 -0.4922  0.2111
 1143SOL    HW215063   3.494   4.240  15.873  0.7575 -0.8576 -0.9028
 1144SOL     OW15064   2.336   2.053   5.457  0.1750 -0.2956 -0.0111
 1144SOL    HW115065   2.247   2.079   5.433  0.4373 -0.1400 -0.8267
 1144SOL    HW215066   2.352   2.114   5.529 -1.5036  0.9941 -0.7387
 1145SOL     OW15067   0.286   2.086  14.784  0.4729  0.0748 -0.2946
 1145SOL    HW115068   0.272   2.173  14.747  3.4658  0.5935 -0.2385
 1145SOL    HW215069   0.357   2.060  14.725  0.5780  0.2332 -0.2394
 1146SOL     OW15070   1.321   2.533   4.241  0.4901  0.1035 -0.0569
 1146SOL    HW115071   1.346   2.498   4.326 -0.0416  3.0117  1.3066
 1146SOL    HW215072   1.229   2.510   4.229  0.1170  1.3625  0.3945
 1147SOL     OW15073   2.664   1.489   1.367  0.3957  0.4217 -0.1252
 1147SOL    HW115074   2.708   1.405   1.376 -0.2896  0.0762 -0.0650
 1147SOL    HW215075   2.651   1.514   1.458 -2.4405 -0.1198 -0.3921
 1148SOL     OW15076   1.361   2.808   0.722 -0.2112 -0.2581  0.2798
 1148SOL    HW115077   1.300   2.790   0.650  0.0445  0.9955 -0.2505
 1148SOL    HW215078   1.322   2.743   0.781  1.4740 -1.0259  0.5423
 1149SOL     OW15079   2.078   1.842   6.581 -0.3486 -0.3979 -0.6641
 1149SOL    HW115080   2.103   1.763   6.628  3.3043  0.0501 -1.8765
 1149SOL    HW215081   2.020   1.800   6.517  0.4566 -0.0367 -1.6272
 1150SOL     OW15082   0.959   0.927   7.181  0.3438  0.3922  0.2614
 1150SOL    HW115083   0.911   0.870   7.120 -1.0052  2.1347 -0.3036
 1150SOL    HW215084   0.953   0.998   7.117  2.8483  0.2117 -0.1712
 1151SOL     OW15085   0.471   2.838  14.115  0.1386  0.1904 -0.2741
 1151SOL    HW115086   0.400   2.868  14.058  0.0802 -0.0108 -0.3094
 1151SOL    HW215087   0.504   2.924  14.139 -0.8332  0.8812 -1.3727
 1152SOL     OW15088   0.724   3.349   3.936 -0.1255  0.4039  0.3362
 1152SOL    HW115089   0.657   3.417   3.942  0.4886  1.1596 -1.7507
 1152SOL    HW215090   0.798   3.396   3.976  1.0607 -1.0139 -0.1746
 1153SOL     OW15091   1.652   3.889  15.622 -0.1060 -0.2595  0.3187
 1153SOL    HW115092   1.693   3.842  15.550  0.1254  0.3030  0.0798
 1153SOL    HW215093   1.700   3.855  15.697 -0.4347 -0.7014  0.3241
 1154SOL     OW15094   0.520   0.334   3.910 -0.2521 -0.3190 -0.6862
 1154SOL    HW115095   0.543   0.241   3.918  0.5436 -0.0242  0.4275
 1154SOL    HW215096   0.580   0.369   3.976 -1.5512 -1.2400  0.9974
 1155SOL     OW15097   0.407   2.828   3.193 -0.3047  0.0200 -0.0176
 1155SOL    HW115098   0.461   2.905   3.176  1.8852 -0.9407  2.4823
 1155SOL    HW215099   0.459   2.759   3.153 -0.4596 -0.6204  0.8678
 1156SOL     OW15100   3.695   2.197   1.834 -0.3572  0.2021 -0.1771
 1156SOL    HW115101   3.677   2.285   1.800 -2.0614 -0.5500 -1.2298
 1156SOL    HW215102   3.759   2.168   1.769 -2.9865 -1.3412 -2.0998
 1157SOL     OW15103   4.120   2.141   2.690 -0.7022 -0.4602  0.5253
 1157SOL    HW115104   4.142   2.234   2.701 -0.6216 -0.3478 -0.5246
 1157SOL    HW215105   4.027   2.156   2.672 -0.2760  2.7579  0.9001
 1158SOL     OW15106   2.579   2.733   5.179 -0.1356 -0.1111  0.0719
 1158SOL    HW115107   2.626   2.664   5.131  1.6120  1.2578 -0.1886
 1158SOL    HW215108   2.653   2.780   5.217  0.4706 -0.7614 -0.2949
 1159SOL     OW15109   1.856   2.080   6.926  0.2893  0.1607  0.3008
 1159SOL    HW115110   1.936   2.058   6.879  0.0163  0.5479 -0.3408
 1159SOL    HW215111   1.858   2.024   7.004 -0.0942 -0.1358  0.0970
 1160SOL     OW15112   2.795   2.489   1.162  0.0934 -0.3156 -0.3500
 1160SOL    HW115113   2.757   2.472   1.076 -0.9838 -0.9907  0.2569
 1160SOL    HW215114   2.785   2.405   1.206 -1.0846  0.4371  0.8518
 1161SOL     OW15115   1.011   1.779   6.256 -0.3086  0.0890 -0.1524
 1161SOL    HW115116   1.099   1.794   6.221 -0.5858 -0.1945 -0.9702
 1161SOL    HW215117   1.024   1.783   6.351 -1.1205  2.1249 -0.1285
 1162SOL     OW15118   0.235   2.339  11.901 -0.0757 -0.0135  0.1319
 1162SOL    HW115119   0.322   2.345  11.942 -0.0861  0.7896  0.0412
 1162SOL    HW215120   0.231   2.415  11.843  1.7699 -1.2486 -1.6429
 1163SOL     OW15121   4.128   2.983   6.910 -0.3831 -0.4333  0.1378
 1163SOL    HW115122   4.081   2.906   6.941  0.1004 -0.4592  0.8072
 1163SOL    HW215123   4.211   2.939   6.897 -0.1230 -0.4157  1.7241
 1164SOL     OW15124   4.027   3.281   0.748 -0.1806  0.3402 -0.3288
 1164SOL    HW115125   4.011   3.374   0.760 -1.7679  0.0698 -0.3202
 1164SOL    HW215126   4.121   3.272   0.762 -0.0943  1.7119 -0.0745
 1165SOL     OW15127   1.437   1.407   9.098 -0.4876  0.6615 -0.0612
 1165SOL    HW115128   1.480   1.470   9.155  1.5268 -0.1904 -0.6513
 1165SOL    HW215129   1.486   1.327   9.119  0.1484  1.0712 -0.0007
 1166SOL     OW15130   3.926   4.456   3.547  0.2011  0.6342  0.1450
 1166SOL    HW115131   3.876   4.517   3.601 -2.0435 -0.4377 -0.6935
 1166SOL    HW215132   3.913   4.493   3.460 -0.0381  2.3388  0.9068
 1167SOL     OW15133   1.722   0.932   9.347  0.0846 -0.1622  0.5677
 1167SOL    HW115134   1.642   0.879   9.343  0.8783 -1.0957 -3.5692
 1167SOL    HW215135   1.703   1.010   9.399 -1.1026 -1.4531  2.0561
 1168SOL     OW15136   3.451   2.171   5.565 -0.1322 -0.3605  0.5892
 1168SOL    HW115137   3.511   2.238   5.534  1.7859 -0.7611  3.4976
 1168SOL    HW215138   3.475   2.089   5.520 -1.6413 -0.5480  0.1093
 1169SOL     OW15139   0.790   2.738   8.665  0.1255  0.5592  0.1321
 1169SOL    HW115140   0.716   2.799   8.662  0.7255  1.3010  0.3661
 1169SOL    HW215141   0.801   2.735   8.570  2.6112  1.5838  0.3967
 1170SOL     OW15142   1.547   0.580   6.380  0.7300  0.5598 -0.0584
 1170SOL    HW115143   1.634   0.597   6.344  1.2833 -3.1456 -0.4675
 1170SOL    HW215144   1.524   0.670   6.405 -0.9388 -0.3750  1.7873
 1171SOL     OW15145   1.219   1.891   2.568 -0.2863 -0.5968  0.1323
 1171SOL    HW115146   1.205   1.819   2.629 -1.9854  0.0608  0.5064
 1171SOL    HW215147   1.189   1.855   2.485  0.5878 -1.7866  0.3338
 1172SOL     OW15148   1.055   2.859   8.649 -0.1012  0.0411  0.5611
 1172SOL    HW115149   0.967   2.826   8.668  0.3463  0.6922  3.6648
 1172SOL    HW215150   1.082   2.793   8.585 -1.1149 -0.5970  0.7946
 1173SOL     OW15151   2.920   4.167  17.175 -0.1884 -0.2350  0.0257
 1173SOL    HW115152   3.001   4.187  17.222 -0.6217  0.0702  0.6429
 1173SOL    HW215153   2.955   4.133  17.093  0.8959 -1.8205  1.1538
 1174SOL     OW15154   2.956   2.980   8.043  0.0214  0.4537 -0.7592
 1174SOL    HW115155   2.977   3.072   8.027  2.0669  0.2428  0.8145
 1174SOL    HW215156   2.887   2.964   7.978 -1.9229 -3.2090  2.2736
 1175SOL     OW15157   1.554   3.393   3.276 -0.7066  0.3098  0.2019
 1175SOL    HW115158   1.498   3.394   3.197  0.1355  0.2034 -0.3955
 1175SOL    HW215159   1.588   3.483   3.274 -1.1739  0.4280 -2.4436
 1176SOL     OW15160   1.729   3.913   7.600 -0.4232  0.0139  0.0996
 1176SOL    HW115161   1.773   3.959   7.529  1.2366  0.0868  1.1848
 1176SOL    HW215162   1.778   3.934   7.680 -1.2646 -1.9487  1.1260
 1177SOL     OW15163   2.464   1.656   3.432  0.0782 -0.4498 -0.0069
 1177SOL    HW115164   2.524   1.611   3.373  0.0463 -2.4272  1.4742
 1177SOL    HW215165   2.479   1.747   3.405  1.2435 -0.2270  1.4251
 1178SOL     OW15166   1.803   1.957  17.213  0.2532  0.3715 -0.2974
 1178SOL    HW115167   1.894   1.972  17.187  0.0677  2.0340  0.0338
 1178SOL    HW215168   1.808   1.963  17.308 -0.5272 -1.3116 -0.1452
 1179SOL     OW15169   0.569   2.479   6.351 -0.0280 -1.2059 -0.6454
 1179SOL    HW115170   0.595   2.425   6.426 -0.4989 -0.1613  0.2754
 1179SOL    HW215171   0.648   2.484   6.298  2.2530  0.5747  2.9485
 1180SOL     OW15172   3.460   1.154  16.816  0.0525 -0.7235 -0.8709
 1180SOL    HW115173   3.421   1.095  16.752  0.1168 -0.0182 -1.5596
 1180SOL    HW215174   3.522   1.095  16.859  0.0085  0.3602  0.6813
 1181SOL     OW15175   3.927   1.645  16.886  0.2223  0.7518 -0.4160
 1181SOL    HW115176   3.889   1.634  16.973 -0.2371 -0.7639 -0.8019
 1181SOL    HW215177   3.966   1.732  16.890 -1.0447  1.2743  0.3078
 1182SOL     OW15178   1.673   3.406   4.418  0.1011 -0.2108 -0.4789
 1182SOL    HW115179   1.720   3.416   4.335  0.1950  1.3339 -0.2380
 1182SOL    HW215180   1.713   3.324   4.444  1.1780  1.6604  3.6722
 1183SOL     OW15181   2.260   2.964   6.866 -0.3088  0.1975  0.5281
 1183SOL    HW115182   2.184   2.912   6.839 -0.8047  1.0107  0.3868
 1183SOL    HW215183   2.260   3.026   6.793  0.9647  0.7392  0.9894
 1184SOL     OW15184   2.693   1.965  14.564 -0.8216 -0.0681 -0.6326
 1184SOL    HW115185   2.689   2.060  14.554  1.2676  0.0888 -0.1093
 1184SOL    HW215186   2.702   1.944  14.657  1.4625 -3.3321 -1.5875
 1185SOL     OW15187   1.169   0.169   4.759  0.8459 -0.8210  0.7575
 1185SOL    HW115188   1.120   0.251   4.765 -0.3600 -1.3405 -2.0227
 1185SOL    HW215189   1.107   0.097   4.749 -0.4826  0.6157 -1.4440
 1186SOL     OW15190   2.213   3.411   2.191  0.2735 -0.0482 -0.4107
 1186SOL    HW115191   2.151   3.482   2.182 -1.4990 -1.4953  0.4158
 1186SOL    HW215192   2.269   3.428   2.115 -0.1204 -0.3168 -0.7579
 1187SOL     OW15193   1.149   4.001  10.550  0.1908  0.1581  0.3740
 1187SOL    HW115194   1.180   4.071  10.608  1.7510 -1.3639  1.3886
 1187SOL    HW215195   1.227   3.952  10.527  0.2477  0.4173  0.0226
 1188SOL     OW15196   1.379   3.557   1.266 -0.2248 -0.2750  0.3033
 1188SOL    HW115197   1.433   3.596   1.197  1.3891 -1.5000  0.8957
 1188SOL    HW215198   1.396   3.464   1.254 -1.1754 -0.2542 -1.1912
 1189SOL     OW15199   2.780   1.613   1.824  0.7146 -0.1503  0.4080
 1189SOL    HW115200   2.799   1.629   1.732 -1.0363 -1.0021 -0.1194
 1189SOL    HW215201   2.684   1.606   1.828  0.5353  1.1458 -1.7634
 1190SOL     OW15202   1.127   4.547  10.782 -0.2826 -0.4986 -0.2896
 1190SOL    HW115203   1.116   4.614  10.850 -3.2104 -0.8365 -0.4404
 1190SOL    HW215204   1.162   4.474  10.833 -0.8710 -0.5683  0.0205
 1191SOL     OW15205   2.811   2.651   8.186 -0.0300 -0.1896 -0.2158
 1191SOL    HW115206   2.797   2.602   8.104  1.7870 -1.1235  0.0527
 1191SOL    HW215207   2.890   2.608   8.217  0.1248  1.3980  1.5305
 1192SOL     OW15208   1.367   2.410  12.970  0.3489  0.3586  0.5181
 1192SOL    HW115209   1.425   2.367  13.033  0.3113  0.8498  0.8955
 1192SOL    HW215210   1.312   2.462  13.030  0.0235 -0.6696  1.1106
 1193SOL     OW15211   3.607   4.463   2.233 -1.2171 -0.3606  0.1094
 1193SOL    HW115212   3.541   4.528   2.257  0.5893  1.3355  0.4826
 1193SOL    HW215213   3.559   4.392   2.190  1.1463 -0.0988 -2.9436
 1194SOL     OW15214   2.422   1.911   6.041 -0.3772 -0.3449 -0.1328
 1194SOL    HW115215   2.336   1.954   6.043  0.1677  0.7827 -0.4992
 1194SOL    HW215216   2.422   1.871   5.954 -2.0220  1.6298 -1.0452
 1195SOL     OW15217   1.480   2.390   9.664 -0.2472 -0.0042 -0.2706
 1195SOL    HW115218   1.562   2.388   9.713 -0.5201  2.5938  0.2503
 1195SOL    HW215219   1.454   2.481   9.669  0.2647  0.0242  1.7923
 1196SOL     OW15220   3.373   1.561   7.412 -0.3712 -0.2315  0.0866
 1196SOL    HW115221   3.376   1.531   7.321 -0.9341  0.9204 -0.3209
 1196SOL    HW215222   3.285   1.597   7.407 -0.5330 -0.4924  1.2059
 1197SOL     OW15223   2.731   2.556   6.098 -0.7875  0.2778 -0.3141
 1197SOL    HW115224   2.686   2.483   6.055 -0.5295 -0.5614  0.8465
 1197SOL    HW215225   2.761   2.600   6.018  2.2401 -3.2208 -1.1036
 1198SOL     OW15226   2.375   3.488  17.674 -0.2449  0.0710  0.1085
 1198SOL    HW115227   2.440   3.443  17.619  0.1376  0.2306  0.4379
 1198SOL    HW215228   2.388   3.450   0.014  1.1781  0.3699  0.0138
 1199SOL     OW15229   3.068   4.210   8.407  0.5803 -0.1019 -0.0231
 1199SOL    HW115230   3.162   4.198   8.419  0.6818  0.2362 -0.5020
 1199SOL    HW215231   3.070   4.257   8.324 -0.3189 -1.2962 -0.7138
 1200SOL     OW15232   2.241   1.763   7.089  0.0987 -0.5091 -0.3721
 1200SOL    HW115233   2.256   1.749   6.995 -2.4470  1.2231 -1.0304
 1200SOL    HW215234   2.151   1.797   7.093  0.0254 -0.7006 -0.3784
 1201SOL     OW15235   0.123   0.043   9.020 -0.5727  0.1154 -0.1388
 1201SOL    HW115236   0.091   0.019   8.933 -1.2954 -0.0363  0.1737
 1201SOL    HW215237   0.193   4.716   9.033  0.8961  1.4456 -1.4224
 1202SOL     OW15238   3.222   1.973   2.130  0.1108 -0.4514 -0.0232
 1202SOL    HW115239   3.140   1.988   2.084 -0.0721  0.8624  0.7184
 1202SOL    HW215240   3.290   2.005   2.071 -0.6610 -1.1711 -1.2896
 1203SOL     OW15241   3.241   3.809   4.139  0.3658 -0.2974 -0.4995
 1203SOL    HW115242   3.231   3.813   4.234 -1.5749  2.8452 -0.8347
 1203SOL    HW215243   3.335   3.797   4.126  0.6312  0.1067  1.0047
 1204SOL     OW15244   3.687   0.279   6.283  0.0238 -0.0015 -0.3577
 1204SOL    HW115245   3.690   0.185   6.268 -1.7839 -0.2613  0.8834
 1204SOL    HW215246   3.600   0.306   6.252 -1.9189 -0.7902  4.4495
 1205SOL     OW15247   3.505   3.935   6.625 -0.1816  0.5290 -0.3062
 1205SOL    HW115248   3.467   3.910   6.709 -1.2727  2.0272 -0.3522
 1205SOL    HW215249   3.550   4.012   6.660 -2.2066  1.0238  1.2435
 1206SOL     OW15250   4.118   4.028  15.563 -0.3510 -0.8297  1.2625
 1206SOL    HW115251   4.212   4.042  15.566 -0.4595  0.5024 -1.5745
 1206SOL    HW215252   4.094   4.104  15.510  1.5146 -0.6334  0.7193
 1207SOL     OW15253   2.052   0.833   7.882  0.0484 -0.4534 -0.0978
 1207SOL    HW115254   2.073   0.838   7.975  0.0034 -1.4758 -0.0361
 1207SOL    HW215255   1.974   0.779   7.884  0.2117 -0.7542 -1.5836
 1208SOL     OW15256   2.785   1.830   7.826  0.0962  0.2586 -0.1584
 1208SOL    HW115257   2.814   1.867   7.742 -0.2929  0.4887 -0.1887
 1208SOL    HW215258   2.831   1.895   7.878 -0.6019  1.7427 -1.3985
 1209SOL     OW15259   2.416   2.675   3.244 -0.0396 -0.5546 -0.0808
 1209SOL    HW115260   2.471   2.597   3.241  0.4803 -0.1269 -1.7118
 1209SOL    HW215261   2.418   2.697   3.337  3.5025  0.7027 -0.4601
 1210SOL     OW15262   2.974   0.727   1.227  0.1923  0.0296  0.1126
 1210SOL    HW115263   3.053   0.698   1.273 -0.3033 -0.5859  0.5585
 1210SOL    HW215264   3.013   0.795   1.172  0.1010  0.6288  0.7777
 1211SOL     OW15265   2.672   4.680  16.891  0.0644 -0.3271 -1.0169
 1211SOL    HW115266   2.683   4.726  16.975  1.6558  0.1106 -1.4684
 1211SOL    HW215267   2.577   4.670  16.884  0.1784 -1.8555 -0.5276
 1212SOL     OW15268   3.235   0.621   2.082 -0.0728 -0.2670  0.6908
 1212SOL    HW115269   3.157   0.638   2.029 -0.5000  0.4617  1.5562
 1212SOL    HW215270   3.302   0.661   2.025 -1.3572  0.1766 -0.5094
 1213SOL     OW15271   0.742   0.877   8.177  0.2800 -0.2286  0.3784
 1213SOL    HW115272   0.822   0.839   8.213 -0.0444  0.2799  1.6515
 1213SOL    HW215273   0.780   0.963   8.163  1.3207 -1.1084 -2.1261
 1214SOL     OW15274   3.543   1.401   6.555 -1.4056 -0.0509 -0.0176
 1214SOL    HW115275   3.592   1.360   6.484 -0.8805  0.8793 -0.1941
 1214SOL    HW215276   3.490   1.461   6.503 -1.7163 -0.0510  0.2954
 1215SOL     OW15277   3.172   0.496   4.622  0.1523 -0.1315  0.0217
 1215SOL    HW115278   3.102   0.433   4.607  0.9041 -0.4050 -2.3752
 1215SOL    HW215279   3.179   0.481   4.716  1.7173  0.8420  0.0556
 1216SOL     OW15280   0.443   3.221   1.435  0.4427 -0.4262 -0.0202
 1216SOL    HW115281   0.506   3.279   1.393 -3.1347  2.4047 -1.4595
 1216SOL    HW215282   0.495   3.148   1.469 -1.1031 -0.9176  1.3011
 1217SOL     OW15283   4.555   4.039   4.109  0.1693  0.0748  0.6991
 1217SOL    HW115284   4.529   4.116   4.159 -0.5683  0.2231  0.0914
 1217SOL    HW215285   4.593   4.075   4.028 -1.2282  1.8691  0.8281
 1218SOL     OW15286   2.779   1.799   0.845 -0.2547  0.9674 -0.6626
 1218SOL    HW115287   2.841   1.772   0.777  0.5721 -2.0826  1.3370
 1218SOL    HW215288   2.749   1.883   0.809 -0.5494  1.8519  1.6908
 1219SOL     OW15289   0.563   1.099  10.934 -0.4578 -0.2386 -0.2586
 1219SOL    HW115290   0.547   1.005  10.928  0.8943 -0.4570 -0.4658
 1219SOL    HW215291   0.514   1.137  10.862  0.5134  1.7204  0.1227
 1220SOL     OW15292   2.166   4.321  12.960 -0.2397 -0.0865  0.0272
 1220SOL    HW115293   2.174   4.355  13.049 -0.9044 -0.7897  0.3629
 1220SOL    HW215294   2.202   4.388  12.903 -0.7832 -0.4274 -0.7144
 1221SOL     OW15295   2.711   3.487   4.752  0.4751 -1.0595  0.0548
 1221SOL    HW115296   2.765   3.461   4.827  2.4325  2.2079 -0.2212
 1221SOL    HW215297   2.727   3.426   4.680 -0.8740 -0.1992 -0.9586
 1222SOL     OW15298   4.020   1.226   7.526  0.1238 -0.2344 -0.0331
 1222SOL    HW115299   4.011   1.307   7.476  0.7425  0.4030  0.8768
 1222SOL    HW215300   3.942   1.234   7.581  0.9451  0.4625  1.0313
 1223SOL     OW15301   0.081   1.245   6.870  0.5738  0.1231 -0.1424
 1223SOL    HW115302   4.726   1.241   6.896  0.4518  2.6982 -0.1572
 1223SOL    HW215303   0.065   1.205   6.785 -0.1527  0.3986 -0.1349
 1224SOL     OW15304   0.653   1.302   1.097 -0.4762  0.4951 -0.2875
 1224SOL    HW115305   0.677   1.345   1.015  2.5863 -0.4650  0.0930
 1224SOL    HW215306   0.664   1.374   1.159  1.2485 -0.7380  0.8575
 1225SOL     OW15307   2.639   3.889   1.347 -0.4025  0.1607 -0.2959
 1225SOL    HW115308   2.684   3.913   1.428  1.3625 -0.0138 -1.2164
 1225SOL    HW215309   2.693   3.816   1.317 -2.1756 -1.0883 -0.4703
 1226SOL     OW15310   1.796   4.491   3.392  0.5518  0.6382 -0.3070
 1226SOL    HW115311   1.766   4.565   3.339  1.4914 -0.3003 -2.1218
 1226SOL    HW215312   1.784   4.415   3.336 -0.8576  0.1979  0.5788
 1227SOL     OW15313   4.255   4.008   9.409 -0.0576 -0.0726 -0.2685
 1227SOL    HW115314   4.180   3.950   9.425  1.6446 -1.7216  1.7225
 1227SOL    HW215315   4.266   4.050   9.495  0.7318  0.5566 -0.6791
 1228SOL     OW15316   0.295   3.287   4.645  0.0827  0.5997  0.0840
 1228SOL    HW115317   0.373   3.248   4.607 -1.3065 -2.6968  0.6059
 1228SOL    HW215318   0.233   3.227   4.604  0.0353 -0.9055  2.3439
 1229SOL     OW15319   0.419   3.551  16.815 -0.4394  0.2645  0.4728
 1229SOL    HW115320   0.399   3.593  16.731 -0.6310  1.0211  0.8929
 1229SOL    HW215321   0.422   3.461  16.784 -2.6618  1.1760 -2.3190
 1230SOL     OW15322   1.767   2.037   2.271  0.4791  0.1699  0.2332
 1230SOL    HW115323   1.740   2.106   2.211  0.3671 -0.0123  0.0754
 1230SOL    HW215324   1.780   1.960   2.217 -0.9905 -0.0149  0.1523
 1231SOL     OW15325   0.031   0.534   6.970 -0.3661 -0.0312 -0.5149
 1231SOL    HW115326   0.123   0.550   6.947 -1.0871  1.9947 -2.0225
 1231SOL    HW215327   0.034   0.460   7.030  1.0418  1.0947  0.7969
 1232SOL     OW15328   3.772   4.038   9.568 -0.6599 -0.6986  0.4017
 1232SOL    HW115329   3.846   4.097   9.580 -0.5221 -0.7716 -0.0864
 1232SOL    HW215330   3.700   4.095   9.595  1.9599  2.3247  0.8920
 1233SOL     OW15331   2.599   0.223   9.918  0.2491 -0.5941  0.1018
 1233SOL    HW115332   2.510   0.194   9.899 -0.8730  2.2010  1.0642
 1233SOL    HW215333   2.636   0.201   9.832  0.3065  0.1635 -0.0653
 1234SOL     OW15334   0.867   3.421   1.742  0.0202 -0.1611 -0.1247
 1234SOL    HW115335   0.819   3.403   1.661 -1.3685  1.0761  0.4462
 1234SOL    HW215336   0.814   3.488   1.783  1.6820  1.8692 -1.3049
 1235SOL     OW15337   1.406   4.439   1.837 -0.5613 -0.0326  0.0115
 1235SOL    HW115338   1.440   4.501   1.901  0.3378  0.2151 -0.7131
 1235SOL    HW215339   1.432   4.355   1.875 -2.7909 -0.1141  1.3683
 1236SOL     OW15340   3.411   1.733   0.252 -0.0296  0.7648 -0.3470
 1236SOL    HW115341   3.465   1.717   0.174  0.8558  2.1727 -0.0300
 1236SOL    HW215342   3.346   1.664   0.244 -1.8394  2.2335  1.8744
 1237SOL     OW15343   2.352   0.511  11.980 -1.2421  0.3447  0.5607
 1237SOL    HW115344   2.271   0.486  11.937 -2.5140  2.2939  1.8083
 1237SOL    HW215345   2.411   0.436  11.969 -0.9076  0.6395  0.3275
 1238SOL     OW15346   3.628   2.976   2.922  0.5530 -0.0025 -0.7108
 1238SOL    HW115347   3.647   2.927   2.843 -3.0322 -2.4738 -0.0428
 1238SOL    HW215348   3.627   3.061   2.879  1.7496 -0.6841 -2.0403
 1239SOL     OW15349   0.539   3.039  10.031  0.2139  0.2851  0.1906
 1239SOL    HW115350   0.526   2.981   9.956  0.8958  0.0531  0.2443
 1239SOL    HW215351   0.456   3.086  10.041 -1.2790 -2.3549  0.0177
 1240SOL     OW15352   1.811   1.048   7.318 -0.0425  0.6275  0.0714
 1240SOL    HW115353   1.863   1.103   7.260 -0.5789 -0.3353 -1.3424
 1240SOL    HW215354   1.752   1.003   7.258 -0.2715  1.5068 -0.3611
 1241SOL     OW15355   2.283   0.778   2.794  0.3325  0.5754 -0.0446
 1241SOL    HW115356   2.324   0.750   2.875  2.3447  2.7224 -0.3162
 1241SOL    HW215357   2.343   0.733   2.735  2.5774  3.6524 -0.0867
 1242SOL     OW15358   4.083   1.642  12.223 -0.2350  0.1662  0.2607
 1242SOL    HW115359   4.117   1.570  12.172  0.2685  0.4881  0.1464
 1242SOL    HW215360   4.035   1.590  12.288  1.0208 -2.5429 -1.0293
 1243SOL     OW15361   1.711   2.850  16.993 -0.2314  0.0084 -0.0542
 1243SOL    HW115362   1.758   2.929  16.966  0.5666 -0.1656  0.8587
 1243SOL    HW215363   1.766   2.825  17.067  1.3545  1.8605 -0.6027
 1244SOL     OW15364   1.762   2.399   1.463 -0.8187  0.6642 -0.2681
 1244SOL    HW115365   1.771   2.319   1.514 -1.6640  1.7150  1.5273
 1244SOL    HW215366   1.675   2.397   1.423 -0.2061  0.8072 -1.6078
 1245SOL     OW15367   2.611   2.407   3.994  0.2151 -0.2905 -0.1226
 1245SOL    HW115368   2.570   2.458   3.924 -0.6723 -2.5991 -1.2831
 1245SOL    HW215369   2.701   2.399   3.962  0.7871 -0.2948  1.5106
 1246SOL     OW15370   0.782   1.868  14.490  0.1583  0.0917  0.1297
 1246SOL    HW115371   0.819   1.838  14.572  1.5890  2.2293  0.2605
 1246SOL    HW215372   0.695   1.827  14.494  0.4526 -0.4762  0.5678
 1247SOL     OW15373   4.098   0.467  15.365 -0.2802  0.2657  0.1298
 1247SOL    HW115374   4.077   0.381  15.328  0.9350  1.6207 -3.7246
 1247SOL    HW215375   4.061   0.522  15.296  0.6934 -0.3915 -0.9280
 1248SOL     OW15376   0.594   3.587   3.876 -0.2980  0.4763  0.1622
 1248SOL    HW115377   0.523   3.636   3.917  0.7110  2.4983 -0.5168
 1248SOL    HW215378   0.568   3.604   3.786  0.4665  1.1928  0.0847
 1249SOL     OW15379   0.907   1.268   2.113 -0.4233  0.2449  0.6509
 1249SOL    HW115380   0.816   1.295   2.106 -1.4034 -3.0077  0.5712
 1249SOL    HW215381   0.901   1.207   2.187  1.9493 -0.8168 -0.0251
 1250SOL     OW15382   0.142   1.314   5.716  0.3156 -0.3123  0.0445
 1250SOL    HW115383   0.155   1.254   5.643 -0.5153  0.8434 -1.0644
 1250SOL    HW215384   0.234   1.340   5.716 -0.3841  2.2550 -4.1256
 1251SOL     OW15385   1.467   3.419   0.635  0.4317 -0.2101  0.1471
 1251SOL    HW115386   1.490   3.328   0.620  1.1587  0.0476 -0.3036
 1251SOL    HW215387   1.547   3.455   0.597 -0.1308  2.5276  1.5372
 1252SOL     OW15388   3.373   1.750   2.206  0.6789  0.3175 -0.0261
 1252SOL    HW115389   3.343   1.659   2.204  0.5511  0.3612 -0.0675
 1252SOL    HW215390   3.297   1.800   2.178  0.2123  0.0881  0.8302
 1253SOL     OW15391   3.434   4.323   0.054  0.3733  0.5191  0.5791
 1253SOL    HW115392   3.524   4.327   0.023  0.4481  1.1185  0.8742
 1253SOL    HW215393   3.451   4.251   0.115  1.9402  0.0230 -0.4330
 1254SOL     OW15394   2.048   0.426   3.299 -0.1323  0.0614  0.2416
 1254SOL    HW115395   2.060   0.480   3.377 -0.5876  1.0854 -0.4076
 1254SOL    HW215396   2.049   0.495   3.233 -2.8317 -0.3318 -0.2256
 1255SOL     OW15397   1.935   4.673   5.861  0.3654 -1.1005  0.0126
 1255SOL    HW115398   1.927   4.606   5.929 -0.0908  0.1789  1.1964
 1255SOL    HW215399   1.924   4.625   5.779 -1.1858 -1.3679  0.3777
 1256SOL     OW15400   1.509   1.107  12.176  0.3794  0.2475 -0.4763
 1256SOL    HW115401   1.465   1.123  12.260 -0.5247 -0.2464 -0.8510
 1256SOL    HW215402   1.515   1.197  12.144 -0.1168  0.2795 -0.4871
 1257SOL     OW15403   0.738   0.178   6.995 -0.9756 -0.5669  0.0955
 1257SOL    HW115404   0.688   0.255   6.967  0.7813  0.1702 -1.0451
 1257SOL    HW215405   0.676   0.114   6.963 -1.1473 -0.8474  0.9938
 1258SOL     OW15406   1.623   0.917   7.160 -0.5603  0.2426  0.5935
 1258SOL    HW115407   1.543   0.922   7.212 -0.6180  3.2279  0.2551
 1258SOL    HW215408   1.591   0.957   7.079 -0.5997 -0.1066  0.4373
 1259SOL     OW15409   1.566   3.009   1.015 -0.0800 -0.0947 -0.2938
 1259SOL    HW115410   1.473   3.015   0.992 -0.9554  0.8231  3.4334
 1259SOL    HW215411   1.564   2.952   1.092  0.7630  0.1461 -0.0973
 1260SOL     OW15412   2.287   0.346  11.711 -0.0424  0.0707 -0.2266
 1260SOL    HW115413   2.301   0.358  11.617  2.2164  0.2787  0.1238
 1260SOL    HW215414   2.225   0.417  11.729 -1.0763 -0.4399 -1.8255
 1261SOL     OW15415   1.534   4.650   0.797  0.3100 -0.8169  0.3017
 1261SOL    HW115416   1.516   4.690   0.882  0.7993 -1.7194  0.8336
 1261SOL    HW215417   1.498   4.562   0.807 -2.4550  0.2498 -0.1939
 1262SOL     OW15418   3.557   3.797   8.536 -0.1310  0.0002  0.3184
 1262SOL    HW115419   3.480   3.763   8.583  0.6259  0.9307  2.2196
 1262SOL    HW215420   3.519   3.831   8.455 -0.3986  0.9035  0.8276
 1263SOL     OW15421   1.961   3.576   7.759  0.4488  0.6086  0.3779
 1263SOL    HW115422   1.923   3.506   7.813  1.7929  0.3932  1.0550
 1263SOL    HW215423   1.946   3.538   7.673 -1.8305 -0.0154  1.0439
 1264SOL     OW15424   3.683   4.463   9.476 -0.1236 -0.0553  0.0099
 1264SOL    HW115425   3.676   4.556   9.457  0.3407 -0.2605 -1.1550
 1264SOL    HW215426   3.737   4.469   9.555 -0.7802  0.9631  0.3738
 1265SOL     OW15427   3.945   1.668  10.431  0.8223  0.9349  0.0251
 1265SOL    HW115428   4.035   1.637  10.444  0.0660 -0.4795  2.0085
 1265SOL    HW215429   3.897   1.613  10.493  0.7434  0.7228 -0.2239
 1266SOL     OW15430   1.385   3.500   4.224 -0.0724 -0.4734 -0.4971
 1266SOL    HW115431   1.300   3.466   4.198 -0.1972 -0.9055  0.4662
 1266SOL    HW215432   1.360   3.530   4.312 -1.2333  0.5348 -1.1667
 1267SOL     OW15433   2.263   0.409   8.050 -0.2039 -0.2874 -0.0081
 1267SOL    HW115434   2.317   0.488   8.060  2.3704 -2.2854  1.8146
 1267SOL    HW215435   2.240   0.417   7.958 -2.1825  4.6786  0.9426
 1268SOL     OW15436   3.833   0.842   1.842 -0.0001  0.0127  0.3919
 1268SOL    HW115437   3.807   0.760   1.798  0.4181  1.0761 -1.8562
 1268SOL    HW215438   3.836   0.821   1.935 -3.2670 -0.6783  0.3642
 1269SOL     OW15439   3.142   3.686   7.411  0.5753 -0.3784 -0.1576
 1269SOL    HW115440   3.168   3.672   7.320  1.1840 -0.9683  0.1089
 1269SOL    HW215441   3.149   3.780   7.428  3.2874 -0.6520  0.2611
 1270SOL     OW15442   4.058   1.147  15.377  0.0279  0.4734  0.2231
 1270SOL    HW115443   4.120   1.161  15.448 -0.8645 -1.3916  1.3881
 1270SOL    HW215444   3.987   1.090  15.407  0.1046 -0.5488 -1.5159
 1271SOL     OW15445   0.737   2.166  13.762 -0.1786  0.7045 -0.3683
 1271SOL    HW115446   0.658   2.215  13.739 -1.4221 -1.3216 -0.4352
 1271SOL    HW215447   0.787   2.165  13.681 -0.4803 -3.3285 -0.4906
 1272SOL     OW15448   1.841   4.700   7.180  0.6919 -0.1617  0.2693
 1272SOL    HW115449   1.877   4.615   7.203  0.3341 -0.1906  0.7130
 1272SOL    HW215450   1.755   4.681   7.217  1.6668 -0.2056  2.5445
 1273SOL     OW15451   4.641   4.177   3.881  0.3886  0.2495 -0.1053
 1273SOL    HW115452   4.677   4.265   3.895  0.0972  0.5943 -1.5473
 1273SOL    HW215453   4.550   4.204   3.874 -1.0700 -4.5736  0.5080
 1274SOL     OW15454   1.742   4.232   2.497  0.2658  0.1480  0.1382
 1274SOL    HW115455   1.738   4.216   2.591  3.4011 -1.7334 -0.0556
 1274SOL    HW215456   1.783   4.318   2.499 -0.3291  0.4333  0.0788
 1275SOL     OW15457   0.944   0.802   6.350  0.0506  0.2416 -0.4071
 1275SOL    HW115458   0.990   0.750   6.415 -0.5615  0.9114  0.5733
 1275SOL    HW215459   0.910   0.879   6.396 -0.4125  0.2676 -0.7909
 1276SOL     OW15460   2.686   0.949   7.734 -0.2785 -0.3822  0.4289
 1276SOL    HW115461   2.696   1.032   7.689  0.4733 -0.3118  0.7321
 1276SOL    HW215462   2.592   0.940   7.714 -0.1668 -1.2899  0.2927
 1277SOL     OW15463   0.685   3.754   4.415 -0.0610 -0.1093 -0.5004
 1277SOL    HW115464   0.637   3.738   4.496  3.5832 -2.2959  1.2006
 1277SOL    HW215465   0.654   3.845   4.414 -0.8339 -0.3722  0.0280
 1278SOL     OW15466   4.667   3.914   9.086  0.6804 -0.4873 -0.4518
 1278SOL    HW115467   4.656   3.986   9.148 -1.1383 -0.6547 -0.5777
 1278SOL    HW215468   4.682   3.840   9.146  2.9147  2.8465  3.1190
 1279SOL     OW15469   0.104   1.534   4.037  0.1796 -0.0758  0.7861
 1279SOL    HW115470   0.137   1.624   4.046 -0.7426  0.4697 -1.1848
 1279SOL    HW215471   0.038   1.536   4.106 -0.6463 -0.8174  0.0068
 1280SOL     OW15472   2.670   3.134   1.239  0.2241  0.6404 -0.5280
 1280SOL    HW115473   2.719   3.055   1.257 -4.8513 -2.3359  0.2261
 1280SOL    HW215474   2.581   3.104   1.256  0.1923  1.2148  0.2973
 1281SOL     OW15475   4.019   4.360  11.458 -0.2489  0.4722 -0.3881
 1281SOL    HW115476   4.046   4.435  11.511 -0.4941 -0.5879  1.2338
 1281SOL    HW215477   3.928   4.347  11.484 -0.5256  2.7474 -0.2030
 1282SOL     OW15478   3.159   4.382   7.892 -0.2931  0.1127  0.1440
 1282SOL    HW115479   3.184   4.474   7.880 -0.6490  0.3574  1.2541
 1282SOL    HW215480   3.235   4.335   7.857  1.1765  2.7063 -0.1726
 1283SOL     OW15481   4.450   1.279  14.790 -0.2658 -0.2770 -0.5291
 1283SOL    HW115482   4.388   1.288  14.863 -0.4397  1.3809 -0.8786
 1283SOL    HW215483   4.495   1.203  14.828 -2.0358 -1.2143 -0.2984
 1284SOL     OW15484   3.261   4.597   2.640  0.1316  0.8690  0.4627
 1284SOL    HW115485   3.184   4.652   2.656 -0.8951 -0.8269  1.3109
 1284SOL    HW215486   3.334   4.659   2.643 -1.3794  2.6331  1.2746
 1285SOL     OW15487   3.966   3.541   0.797 -0.0615 -0.2369 -0.1775
 1285SOL    HW115488   4.005   3.628   0.809 -0.7480  0.2436 -1.3926
 1285SOL    HW215489   3.906   3.538   0.872  2.1520 -0.0272  1.5935
 1286SOL     OW15490   3.207   0.992  12.275  0.0525 -0.7126 -0.5374
 1286SOL    HW115491   3.140   0.961  12.335 -0.2692  0.4753 -0.2802
 1286SOL    HW215492   3.153   1.048  12.219  0.7366 -1.8367 -2.3104
 1287SOL     OW15493   1.814   0.063   6.914 -0.2132  0.2846 -0.5308
 1287SOL    HW115494   1.787   0.144   6.958 -2.4732  0.2333 -1.8184
 1287SOL    HW215495   1.871   0.025   6.980 -0.5938  0.7775  0.0768
 1288SOL     OW15496   0.626   2.046   2.520 -0.1183 -0.2825  0.3663
 1288SOL    HW115497   0.604   2.136   2.497  0.0704 -0.8502 -2.0318
 1288SOL    HW215498   0.721   2.050   2.507 -0.0928  0.6995  0.8463
 1289SOL     OW15499   1.633   3.546   6.270 -0.0460  0.1117 -0.1766
 1289SOL    HW115500   1.654   3.540   6.363 -1.6748  1.1692  0.2621
 1289SOL    HW215501   1.547   3.587   6.282 -0.7719 -1.2620 -0.5688
 1290SOL     OW15502   2.252   4.578   0.314  0.0785 -0.4534 -0.0828
 1290SOL    HW115503   2.171   4.567   0.265  0.0898  0.0778 -0.2269
 1290SOL    HW215504   2.281   4.663   0.281 -1.1429  0.1561  0.3680
 1291SOL     OW15505   2.948   4.548  16.847 -0.1741 -0.1673  0.4460
 1291SOL    HW115506   2.969   4.573  16.937  0.0885 -2.0472  0.9080
 1291SOL    HW215507   2.856   4.525  16.859  0.3992 -1.8034  1.7387
 1292SOL     OW15508   1.729   4.444  11.941 -0.3868  0.2616  0.2740
 1292SOL    HW115509   1.711   4.362  11.896  0.3264 -1.5636  3.2698
 1292SOL    HW215510   1.820   4.436  11.971 -0.5738  4.0484  1.7549
 1293SOL     OW15511   3.625   2.717   4.679 -0.1767 -0.4177  0.2418
 1293SOL    HW115512   3.613   2.812   4.687  1.1389 -0.0842 -1.7326
 1293SOL    HW215513   3.633   2.691   4.770  0.5137  1.0554  0.6088
 1294SOL     OW15514   3.137   4.545  14.777  0.3221  0.0594 -0.0387
 1294SOL    HW115515   3.163   4.610  14.711  1.5289 -0.5246 -0.1329
 1294SOL    HW215516   3.218   4.520  14.821  0.7667 -1.2780 -1.6191
 1295SOL     OW15517   3.018   0.567  13.718  0.1616 -0.4372 -0.0904
 1295SOL    HW115518   3.080   0.578  13.790 -0.4514 -0.4279  0.4453
 1295SOL    HW215519   2.987   0.478  13.732 -1.2638  0.3834  2.2083
 1296SOL     OW15520   2.089   0.966   2.093  0.6181  0.4407  0.0180
 1296SOL    HW115521   2.077   0.950   2.187  0.8346 -0.6838 -0.1451
 1296SOL    HW215522   2.001   1.002   2.088 -0.1199 -1.0699  1.7341
 1297SOL     OW15523   3.015   0.579   8.246  0.1987  0.0384  0.1592
 1297SOL    HW115524   3.100   0.534   8.244 -1.0118 -2.3030  1.7203
 1297SOL    HW215525   2.969   0.527   8.312 -0.3065  0.0726 -0.1698
 1298SOL     OW15526   1.212   4.221   7.506  0.7673 -0.0891 -0.3107
 1298SOL    HW115527   1.158   4.143   7.517 -1.5075  1.7538  1.5822
 1298SOL    HW215528   1.208   4.233   7.411 -0.5812 -0.6521 -0.3131
 1299SOL     OW15529   1.746   1.286   7.002  0.1828  0.3192  0.0757
 1299SOL    HW115530   1.655   1.279   7.032  0.8197 -1.8079  1.5014
 1299SOL    HW215531   1.776   1.340   7.075  0.5696  1.7625 -1.1393
 1300SOL     OW15532   2.818   3.608  14.766  0.1633 -0.0360  0.3661
 1300SOL    HW115533   2.775   3.525  14.788  0.8351 -0.2496  0.8505
 1300SOL    HW215534   2.791   3.612  14.674  2.2006 -1.9387 -0.3007
 1301SOL     OW15535   1.643   0.688   7.388 -0.1640 -0.3534 -0.4042
 1301SOL    HW115536   1.701   0.713   7.460 -0.5673 -0.3042 -0.0987
 1301SOL    HW215537   1.565   0.665   7.438 -0.1355  2.2046  0.8150
 1302SOL     OW15538   2.499   3.192   5.932  0.0953 -0.2096 -0.1910
 1302SOL    HW115539   2.529   3.128   5.997  0.5343 -1.5729 -1.7288
 1302SOL    HW215540   2.565   3.168   5.867 -0.7655  2.4744 -2.0591
 1303SOL     OW15541   2.666   3.093   2.502  0.3872  0.1931 -0.1710
 1303SOL    HW115542   2.752   3.104   2.543  0.6468 -0.4366 -0.5450
 1303SOL    HW215543   2.631   3.182   2.491 -0.9204 -0.1811  1.0185
 1304SOL     OW15544   1.451   0.202   9.044  0.3905  0.9651  0.3927
 1304SOL    HW115545   1.523   0.140   9.056  0.2032  0.5314 -0.7015
 1304SOL    HW215546   1.394   0.169   8.975  0.6470  1.0664  0.1290
 1305SOL     OW15547   2.412   3.185   6.974  0.4329 -0.3375  0.1172
 1305SOL    HW115548   2.501   3.166   6.945  1.3944  2.1770  1.3798
 1305SOL    HW215549   2.358   3.106   6.969  0.9700 -0.7032  0.0287
 1306SOL     OW15550   0.853   4.616   9.065  0.2047 -0.1102 -0.1712
 1306SOL    HW115551   0.853   4.706   9.034 -5.1671  0.6621  2.0268
 1306SOL    HW215552   0.888   4.566   8.991  3.0131 -0.5237  1.4414
 1307SOL     OW15553   3.420   4.608  13.034 -0.0341 -0.2871 -0.0081
 1307SOL    HW115554   3.376   4.526  13.013  1.4532 -1.6485  2.3201
 1307SOL    HW215555   3.353   4.672  13.056 -0.6436 -0.7469 -0.5276
 1308SOL     OW15556   0.608   3.913   7.808 -0.4227 -0.1492 -0.1182
 1308SOL    HW115557   0.666   3.880   7.877 -0.7693  0.1579  0.3177
 1308SOL    HW215558   0.607   3.849   7.738  0.9113  0.3982 -0.6409
 1309SOL     OW15559   3.541   0.965  13.279  0.3768 -0.4874  0.9231
 1309SOL    HW115560   3.475   0.968  13.211  0.7144  0.9933  0.6525
 1309SOL    HW215561   3.540   1.054  13.316 -0.4795  0.6210 -1.7435
 1310SOL     OW15562   3.806   0.909   7.226 -0.3324  0.1535  0.0919
 1310SOL    HW115563   3.822   0.996   7.189 -1.3754  0.6042  0.7164
 1310SOL    HW215564   3.711   0.919   7.223 -0.3040  0.1216 -1.1389
 1311SOL     OW15565   3.465   3.432   6.668 -0.0093  0.1411 -0.1712
 1311SOL    HW115566   3.373   3.458   6.679 -0.2766 -0.6440 -0.5359
 1311SOL    HW215567   3.491   3.422   6.759 -0.0852  0.9321 -0.0636
 1312SOL     OW15568   3.275   0.786  16.522 -0.2383 -0.2806 -0.2168
 1312SOL    HW115569   3.222   0.720  16.477  0.2373  0.5074 -1.9536
 1312SOL    HW215570   3.361   0.786  16.480 -1.0697 -0.7323 -1.9201
 1313SOL     OW15571   0.449   1.575   1.037 -0.6714 -0.5079 -0.0844
 1313SOL    HW115572   0.525   1.587   0.979  0.2399  0.7405  1.3765
 1313SOL    HW215573   0.399   1.657   1.035  0.9950  0.5210  0.2651
 1314SOL     OW15574   2.945   2.266   0.161 -0.0498 -0.3095 -0.0864
 1314SOL    HW115575   3.012   2.302   0.219  0.1383  2.2515 -1.8943
 1314SOL    HW215576   2.967   2.304   0.076  0.3229 -0.0971  0.1061
 1315SOL     OW15577   1.686   0.868   4.673  0.3174 -0.9469  0.2045
 1315SOL    HW115578   1.745   0.810   4.721  1.6916  0.5724  0.3492
 1315SOL    HW215579   1.671   0.934   4.740  1.0781 -0.5660 -0.0071
 1316SOL     OW15580   2.479   1.528   0.705 -0.0140 -0.1213  0.1514
 1316SOL    HW115581   2.574   1.524   0.701 -0.0294 -0.5140  0.2046
 1316SOL    HW215582   2.451   1.482   0.626 -0.9918  2.3396 -0.9606
 1317SOL     OW15583   0.683   0.155   7.601 -0.3082 -0.0799 -0.2835
 1317SOL    HW115584   0.652   0.081   7.654 -0.3795 -0.5268 -0.9515
 1317SOL    HW215585   0.631   0.138   7.522  0.6532  1.8339 -1.3317
 1318SOL     OW15586   0.857   4.080   9.708  0.1598  0.7238  0.0396
 1318SOL    HW115587   0.885   4.131   9.632  0.7987 -0.6017 -0.6136
 1318SOL    HW215588   0.838   3.995   9.666 -1.7240  1.5841 -0.8491
 1319SOL     OW15589   1.115   1.586  14.489 -0.7366  0.0305 -0.2829
 1319SOL    HW115590   1.020   1.582  14.493 -0.6724 -1.4679 -0.2134
 1319SOL    HW215591   1.141   1.514  14.548  1.1590  1.4967  0.6762
 1320SOL     OW15592   0.825   4.173  10.259  0.6456  0.5657  0.2656
 1320SOL    HW115593   0.855   4.264  10.269  0.2494  0.6063  1.0318
 1320SOL    HW215594   0.808   4.145  10.349  0.3635 -2.4161 -0.7292
 1321SOL     OW15595   3.899   2.148   6.773  0.0712 -0.0056  0.1991
 1321SOL    HW115596   3.876   2.220   6.714  0.3957 -2.1700 -2.5547
 1321SOL    HW215597   3.912   2.194   6.856 -0.8091 -0.7601  0.7657
 1322SOL     OW15598   4.461   1.095   1.004 -0.3546 -0.3292 -0.0637
 1322SOL    HW115599   4.384   1.138   1.042 -1.1053 -1.2505 -0.5392
 1322SOL    HW215600   4.467   1.027   1.072  1.2040  0.1978  0.3238
 1323SOL     OW15601   3.558   0.490   4.769  0.0259 -0.0901  0.7558
 1323SOL    HW115602   3.552   0.576   4.810 -0.3971 -0.1646  0.8432
 1323SOL    HW215603   3.522   0.520   4.685 -1.6459 -0.5918  1.2993
 1324SOL     OW15604   0.367   2.757   1.924  0.0971  0.4943  0.5137
 1324SOL    HW115605   0.273   2.765   1.910  0.5307  2.6588 -1.0806
 1324SOL    HW215606   0.375   2.815   1.999 -0.7575  1.3415 -0.0606
 1325SOL     OW15607   1.345   3.690   5.746  0.0547  0.0027  0.5882
 1325SOL    HW115608   1.352   3.601   5.783 -0.0316 -0.6593 -0.9780
 1325SOL    HW215609   1.432   3.708   5.711 -1.2051  0.4519 -2.2617
 1326SOL     OW15610   2.598   4.656   9.763 -0.7476 -0.1140 -0.2827
 1326SOL    HW115611   2.601   4.604   9.683  2.0953 -0.2053 -0.1196
 1326SOL    HW215612   2.529   4.609   9.808 -0.3020  0.5154  1.0499
 1327SOL     OW15613   2.200   1.117   5.879  0.5704 -0.4046  0.0621
 1327SOL    HW115614   2.110   1.112   5.849  0.8628 -1.1887 -0.6922
 1327SOL    HW215615   2.248   1.088   5.801  1.6689 -2.4455  1.4837
 1328SOL     OW15616   2.775   0.249   1.166  0.4021  0.2358  0.1312
 1328SOL    HW115617   2.686   0.284   1.177 -0.0933 -0.1990 -2.4307
 1328SOL    HW215618   2.821   0.324   1.128  0.1366  0.3916  0.1183
 1329SOL     OW15619   1.547   3.741   0.776  0.0282  0.2172 -0.6049
 1329SOL    HW115620   1.542   3.730   0.681 -0.4155 -1.7453 -0.3518
 1329SOL    HW215621   1.639   3.745   0.802  0.0750  0.7749 -0.8460
 1330SOL     OW15622   1.160   1.566  15.083  0.6061  0.0386 -0.1518
 1330SOL    HW115623   1.240   1.588  15.035  1.3736  0.7081  1.4496
 1330SOL    HW215624   1.121   1.653  15.095  1.0673  0.4045 -1.2885
 1331SOL     OW15625   3.739   4.534   7.322 -0.0770  0.2356 -0.4000
 1331SOL    HW115626   3.804   4.586   7.370  1.3732 -1.8833 -0.0454
 1331SOL    HW215627   3.712   4.595   7.253  1.7516  2.3991  0.7907
 1332SOL     OW15628   3.381   2.400   7.767 -0.7514  0.6439  0.0693
 1332SOL    HW115629   3.371   2.337   7.838  1.0801  0.2891  0.0163
 1332SOL    HW215630   3.350   2.344   7.696 -0.3456  0.8531 -0.2710
 1333SOL     OW15631   3.337   2.804   3.021  0.0585  0.2303  0.4632
 1333SOL    HW115632   3.360   2.772   2.934 -2.6950 -0.8937  0.1695
 1333SOL    HW215633   3.423   2.834   3.051  0.6794  0.0153 -1.0919
 1334SOL     OW15634   0.444   2.306   2.479 -0.0229  0.1791  0.4966
 1334SOL    HW115635   0.406   2.245   2.416 -0.7027  0.0402  1.0499
 1334SOL    HW215636   0.378   2.296   2.547  1.8140  1.6668  2.5144
 1335SOL     OW15637   4.583   1.948  13.271 -0.0446 -0.2587 -0.0981
 1335SOL    HW115638   4.542   2.012  13.330 -0.8964 -0.9100  0.0128
 1335SOL    HW215639   4.607   2.007  13.199 -2.4361  2.7987  1.6184
 1336SOL     OW15640   4.175   0.622   5.839 -0.2318  0.4706 -0.6128
 1336SOL    HW115641   4.254   0.656   5.797 -0.5033  1.5888 -0.1935
 1336SOL    HW215642   4.213   0.560   5.901 -0.1113  0.3125 -0.8434
 1337SOL     OW15643   3.069   0.005   6.994 -0.4429 -0.4961  0.0771
 1337SOL    HW115644   2.984   4.714   7.029 -1.2581 -0.0314 -1.5359
 1337SOL    HW215645   3.130   0.007   7.067  1.3445  2.5531 -1.5214
 1338SOL     OW15646   4.120   0.793   4.688  0.1129  0.1509 -0.1967
 1338SOL    HW115647   4.118   0.851   4.612  0.0591 -0.9951 -1.0692
 1338SOL    HW215648   4.051   0.837   4.737  0.8817  0.6128  0.4821
 1339SOL     OW15649   0.662   2.986   2.947 -0.4012  0.6331 -0.1464
 1339SOL    HW115650   0.677   3.028   3.031 -1.6702  0.2042  0.2947
 1339SOL    HW215651   0.734   3.026   2.898  0.2311 -1.6635 -1.0828
 1340SOL     OW15652   0.612   3.992   8.939 -0.1776 -0.1405  0.5665
 1340SOL    HW115653   0.536   4.004   8.883 -0.3989  2.2023  1.3738
 1340SOL    HW215654   0.603   3.903   8.974  0.3606 -0.0807  0.8615
 1341SOL     OW15655   3.924   0.139   4.769 -0.0903  0.4195  0.3883
 1341SOL    HW115656   3.902   0.133   4.676 -1.2924 -0.1798  0.7127
 1341SOL    HW215657   4.012   0.174   4.756 -0.5429  0.9088 -1.3930
 1342SOL     OW15658   3.444   0.001   3.723 -0.4277 -0.2405  0.2506
 1342SOL    HW115659   3.397   4.654   3.722  0.7794 -0.9014 -0.4280
 1342SOL    HW215660   3.516   4.718   3.782  1.8271 -0.2693 -2.5080
 1343SOL     OW15661   3.378   0.829   3.051 -0.0130  0.1261 -0.4095
 1343SOL    HW115662   3.424   0.778   3.118 -1.0769  0.1253  0.3285
 1343SOL    HW215663   3.287   0.818   3.079  0.5050 -0.2888  1.1259
 1344SOL     OW15664   4.516   0.017   3.762  0.6746  0.2208 -0.0873
 1344SOL    HW115665   4.456   0.043   3.691 -1.1288  0.4017  1.5025
 1344SOL    HW215666   4.603   0.038   3.729  0.8660  0.2798  0.4644
 1345SOL     OW15667   1.956   0.676  15.071 -0.3924  0.3150 -0.3079
 1345SOL    HW115668   1.888   0.660  15.137  0.2096  0.0443  0.2501
 1345SOL    HW215669   1.902   0.678  14.992  0.3643  0.9500 -0.8117
 1346SOL     OW15670   2.128   4.258   1.366  0.0781  0.3248  1.0630
 1346SOL    HW115671   2.052   4.276   1.422 -1.2055 -0.6057 -0.3720
 1346SOL    HW215672   2.197   4.298   1.419  0.4354 -1.8062  2.1739
 1347SOL     OW15673   1.204   2.694   5.001 -0.0221  0.1782 -0.4704
 1347SOL    HW115674   1.244   2.691   4.914  2.1113 -0.2830  0.5234
 1347SOL    HW215675   1.222   2.609   5.041  3.5233 -0.2187 -2.9031
 1348SOL     OW15676   1.939   1.349   9.397 -0.6436 -0.7355 -0.1633
 1348SOL    HW115677   1.853   1.382   9.424 -1.2100  0.8139 -3.8110
 1348SOL    HW215678   1.905   1.325   9.310 -0.8296  1.3818 -0.6909
 1349SOL     OW15679   3.411   4.526   2.859 -0.1251  0.6537 -0.5062
 1349SOL    HW115680   3.392   4.609   2.901 -1.0644  0.6801 -0.9968
 1349SOL    HW215681   3.371   4.533   2.772 -2.3914  1.1957  0.5911
 1350SOL     OW15682   3.789   3.688   3.444  0.2378  0.5594 -0.1045
 1350SOL    HW115683   3.816   3.597   3.457 -0.4374  0.7391  2.7274
 1350SOL    HW215684   3.696   3.674   3.428  0.9019  0.7714 -4.1241
 1351SOL     OW15685   2.598   1.414  13.571 -0.3439  0.2056  0.2951
 1351SOL    HW115686   2.636   1.326  13.565 -1.4721 -0.2236 -0.5206
 1351SOL    HW215687   2.617   1.443  13.481 -1.5535  0.2477  0.0533
 1352SOL     OW15688   0.300   0.747  11.904 -0.4943 -0.3684  0.2689
 1352SOL    HW115689   0.348   0.820  11.943 -1.5415 -0.7636  2.2639
 1352SOL    HW215690   0.208   0.772  11.911 -0.9931 -2.6675  2.0381
 1353SOL     OW15691   3.365   2.198  15.691 -0.7507  0.4244  0.6105
 1353SOL    HW115692   3.361   2.109  15.656 -1.1405  0.1709  1.3237
 1353SOL    HW215693   3.384   2.255  15.616  0.1432 -0.0614  0.4755
 1354SOL     OW15694   4.564   4.378  15.894 -0.2400  0.6079  0.1764
 1354SOL    HW115695   4.506   4.345  15.825 -1.7086  2.4407  0.5243
 1354SOL    HW215696   4.625   4.305  15.905 -3.7645 -2.1442  1.4817
 1355SOL     OW15697   4.383   3.443   8.274  0.1998 -0.2902 -0.0249
 1355SOL    HW115698   4.351   3.495   8.200  1.9954 -2.0139 -1.9861
 1355SOL    HW215699   4.355   3.490   8.353 -3.1869 -1.8477 -0.2835
 1356SOL     OW15700   4.305   1.803  12.257 -0.2500  0.4248 -0.2349
 1356SOL    HW115701   4.322   1.777  12.347  1.5062  0.1168 -0.6503
 1356SOL    HW215702   4.216   1.768  12.244  0.1488 -0.7669  0.2280
 1357SOL     OW15703   1.458   4.120  16.507 -0.0560 -0.4078 -0.0570
 1357SOL    HW115704   1.440   4.121  16.413  0.8993 -1.9649 -0.2598
 1357SOL    HW215705   1.376   4.089  16.546  0.3001  0.9482  1.7775
 1358SOL     OW15706   3.445   0.188   9.234 -0.2713  0.3920  0.2423
 1358SOL    HW115707   3.427   0.211   9.143  0.6370  0.2722  0.0303
 1358SOL    HW215708   3.428   0.096   9.211 -0.5021  0.4265  0.2778
 1359SOL     OW15709   2.798   2.303   7.318 -0.1141 -0.6545  0.0207
 1359SOL    HW115710   2.800   2.357   7.397 -2.0249 -2.4045  1.2883
 1359SOL    HW215711   2.705   2.289   7.303  0.0786 -0.5004 -1.3078
 1360SOL     OW15712   3.586   0.098   4.247 -0.0927  0.0681  0.0651
 1360SOL    HW115713   3.638   0.111   4.168 -0.6371  0.1801 -0.2731
 1360SOL    HW215714   3.641   0.045   4.304  2.6674  2.9024  0.0608
 1361SOL     OW15715   2.863   3.260   3.899  0.0488  0.3000  0.3176
 1361SOL    HW115716   2.864   3.338   3.845  3.0995  0.2541  0.2832
 1361SOL    HW215717   2.899   3.293   3.982  0.9544 -0.0038  0.0488
 1362SOL     OW15718   2.625   2.936  16.518  0.0885 -0.9500 -0.6993
 1362SOL    HW115719   2.606   2.842  16.517 -2.4207 -0.4488 -0.0129
 1362SOL    HW215720   2.694   2.935  16.584 -0.9155 -0.3763  0.3753
 1363SOL     OW15721   0.217   3.403   2.942 -0.2552 -0.0047  0.4635
 1363SOL    HW115722   0.240   3.314   2.969  0.4856  0.2517  0.6758
 1363SOL    HW215723   0.129   3.398   2.905  0.3876 -0.4699 -0.9950
 1364SOL     OW15724   1.126   3.606   4.965  0.2525  0.3403 -0.2750
 1364SOL    HW115725   1.058   3.544   4.940  0.8110 -1.4807  2.6617
 1364SOL    HW215726   1.080   3.675   5.013  0.9824  0.5734  0.0899
 1365SOL     OW15727   3.216   0.062   4.817 -0.2905  0.3630  0.2252
 1365SOL    HW115728   3.279   4.727   4.806 -0.4993  0.4106 -1.2381
 1365SOL    HW215729   3.214   0.088   4.725 -1.1564  0.4136  0.2598
 1366SOL     OW15730   3.860   2.125   3.309 -0.0005 -0.3514 -0.4871
 1366SOL    HW115731   3.924   2.116   3.238  1.3654  0.4106  0.6586
 1366SOL    HW215732   3.790   2.070   3.273 -1.9399  0.1088  2.5741
 1367SOL     OW15733   4.216   0.213  15.994 -0.3001 -0.4898  0.7245
 1367SOL    HW115734   4.228   0.188  15.902  3.7058  0.5346  0.9509
 1367SOL    HW215735   4.217   0.127  16.037 -0.8994 -0.9636 -0.2158
 1368SOL     OW15736   2.107   1.012   5.089 -0.2474 -0.2145  0.5082
 1368SOL    HW115737   2.115   0.971   5.175 -0.9733 -0.3504  0.5119
 1368SOL    HW215738   2.030   1.063   5.113 -1.4867 -1.4685 -0.7722
 1369SOL     OW15739   2.890   1.352   6.288 -0.5534 -0.3273 -0.3201
 1369SOL    HW115740   2.919   1.292   6.356  2.5093  3.5580  1.7609
 1369SOL    HW215741   2.795   1.344   6.285 -0.4853 -2.0056  2.3663
 1370SOL     OW15742   0.132   0.997   9.346 -0.7469  0.1395  0.3833
 1370SOL    HW115743   0.160   0.951   9.267  0.3042  0.1804  0.7324
 1370SOL    HW215744   0.091   0.924   9.393  0.9867 -1.0294  0.0785
 1371SOL     OW15745   2.998   4.718   2.681 -0.5890  0.5823 -0.3532
 1371SOL    HW115746   2.939   0.015   2.748  1.6139 -1.6493  2.7447
 1371SOL    HW215747   2.951   4.636   2.665  0.0779 -0.5006  3.2668
 1372SOL     OW15748   0.496   1.868   2.666  0.1560 -1.2306  0.4732
 1372SOL    HW115749   0.555   1.931   2.625 -0.4478 -0.3926  0.8996
 1372SOL    HW215750   0.446   1.846   2.587  2.6536 -1.4700 -1.0644
 1373SOL     OW15751   1.427   2.877   5.877 -0.0433 -0.3193  0.5620
 1373SOL    HW115752   1.493   2.933   5.838 -1.3003  1.3591  0.8671
 1373SOL    HW215753   1.395   2.830   5.800  0.8513  1.6010 -0.9715
 1374SOL     OW15754   0.904   1.756  14.726 -0.1034  0.0883  0.5030
 1374SOL    HW115755   0.893   1.710  14.809  1.0547  0.7890  1.0392
 1374SOL    HW215756   0.871   1.694  14.660 -0.5875  1.4880 -0.5829
 1375SOL     OW15757   4.443   2.387   6.446 -0.0613 -0.6778  0.2127
 1375SOL    HW115758   4.512   2.426   6.392  1.1319 -1.2780  1.2992
 1375SOL    HW215759   4.426   2.455   6.512  1.3126  0.7658 -0.9364
 1376SOL     OW15760   0.545   4.519   7.123 -0.1712 -0.0089  0.2718
 1376SOL    HW115761   0.493   4.445   7.153 -2.2261  0.6677 -1.5775
 1376SOL    HW215762   0.593   4.554   7.199 -0.7208 -2.3810  1.6881
 1377SOL     OW15763   4.116   1.350  14.395  0.1715  0.2348 -0.2193
 1377SOL    HW115764   4.118   1.306  14.479 -3.8452  0.6009  0.0727
 1377SOL    HW215765   4.088   1.440  14.410 -2.4755 -0.5261 -0.5565
 1378SOL     OW15766   0.270   1.517   7.883 -0.0790 -0.0954 -0.1592
 1378SOL    HW115767   0.323   1.594   7.906  1.1177 -1.2283  0.8757
 1378SOL    HW215768   0.318   1.463   7.946  0.1498 -0.3972 -0.5969
 1379SOL     OW15769   2.701   0.183   6.304  0.3234 -0.0148  0.2203
 1379SOL    HW115770   2.612   0.188   6.269  0.5271 -1.8765 -0.5670
 1379SOL    HW215771   2.688   0.230   6.387  1.2578  0.5979  0.0108
 1380SOL     OW15772   2.410   0.272   6.631  0.3814  0.8128  0.5805
 1380SOL    HW115773   2.373   0.329   6.564 -1.3943  0.9363  1.6557
 1380SOL    HW215774   2.329   0.254   6.678  0.5717  0.8305  0.9163
 1381SOL     OW15775   4.082   2.022   7.971 -0.2174  0.3046  0.1732
 1381SOL    HW115776   4.021   2.088   7.940 -2.6359 -1.8142  0.4434
 1381SOL    HW215777   4.058   2.028   8.063  2.8786  1.2372  0.9125
 1382SOL     OW15778   1.952   1.223   7.829  0.3310  0.0021 -0.0739
 1382SOL    HW115779   2.002   1.150   7.792  0.7802 -0.2245  0.9877
 1382SOL    HW215780   1.871   1.174   7.841 -0.4770  1.2494 -0.4209
 1383SOL     OW15781   1.072   3.449  15.595  0.4591 -0.0633  0.3109
 1383SOL    HW115782   1.159   3.484  15.613 -0.0618 -0.2734  3.3595
 1383SOL    HW215783   1.016   3.526  15.609 -0.0740 -0.2071 -1.0701
 1384SOL     OW15784   0.273   3.062   6.420  0.1843  0.7446 -0.3783
 1384SOL    HW115785   0.269   3.150   6.382  0.8755  0.8496 -0.2159
 1384SOL    HW215786   0.260   3.080   6.513  2.7179  1.8319 -0.2189
 1385SOL     OW15787   3.453   4.462  10.070  0.0188 -0.0384  0.3171
 1385SOL    HW115788   3.515   4.473  10.142  0.9294  0.2981 -0.5152
 1385SOL    HW215789   3.386   4.420  10.123  0.6004 -1.4974 -0.1135
 1386SOL     OW15790   3.260   3.770   4.695 -0.3851  0.5399  0.3324
 1386SOL    HW115791   3.181   3.717   4.688  1.5286 -2.3931  1.1340
 1386SOL    HW215792   3.235   3.821   4.773  0.6319  1.0018  0.3637
 1387SOL     OW15793   0.272   0.885  13.296 -0.1652 -0.2343 -0.1573
 1387SOL    HW115794   0.341   0.907  13.359 -0.5611 -0.3815  0.3262
 1387SOL    HW215795   0.273   0.968  13.248 -2.2849 -0.1599 -0.0620
 1388SOL     OW15796   0.662   0.982   5.330 -0.2508 -0.1311 -0.1848
 1388SOL    HW115797   0.641   1.050   5.394 -0.0548 -0.0901 -0.1631
 1388SOL    HW215798   0.731   1.031   5.286  0.7982 -1.0233  0.4778
 1389SOL     OW15799   4.218   2.434   2.678  0.2713  0.0374  0.1438
 1389SOL    HW115800   4.288   2.479   2.631  1.9754  0.1179  2.7288
 1389SOL    HW215801   4.166   2.414   2.600  0.4824  1.7474 -0.4342
 1390SOL     OW15802   2.034   3.991   7.796  0.3622 -0.1436  0.2514
 1390SOL    HW115803   1.939   3.980   7.803  0.2919  0.8264  0.8279
 1390SOL    HW215804   2.046   3.915   7.739 -0.8937  1.1116 -1.6659
 1391SOL     OW15805   0.599   1.961   6.298  0.2504 -0.0382  0.5686
 1391SOL    HW115806   0.684   1.955   6.342 -0.8317 -1.2254  2.5119
 1391SOL    HW215807   0.629   2.016   6.226 -2.0503 -1.0223 -1.1667
 1392SOL     OW15808   0.600   1.455   8.966 -0.1262 -0.2377  0.1383
 1392SOL    HW115809   0.642   1.433   9.049 -1.6582  0.8394  1.2001
 1392SOL    HW215810   0.524   1.398   8.978  0.5481 -0.8834  1.3673
 1393SOL     OW15811   0.948   0.047  16.959  0.1020  0.3733  0.1569
 1393SOL    HW115812   0.861   0.006  16.960  0.0893  0.4039  0.3107
 1393SOL    HW215813   0.930   0.138  16.933  0.0773  0.4409  0.4073
 1394SOL     OW15814   1.971   2.181   1.262  0.6520 -0.5912  0.5195
 1394SOL    HW115815   1.890   2.175   1.314  0.4352 -0.5425  0.1868
 1394SOL    HW215816   2.025   2.141   1.330  1.2055  0.7955  0.8771
 1395SOL     OW15817   1.959   2.315   1.964  0.5874  0.6344 -0.1553
 1395SOL    HW115818   1.989   2.319   2.055 -0.1501 -1.7948  0.2183
 1395SOL    HW215819   2.021   2.249   1.933  1.0703 -0.2636  2.6966
 1396SOL     OW15820   1.085   2.993   6.761  0.3992  0.1141 -0.3347
 1396SOL    HW115821   1.149   2.936   6.804  1.6686  1.3928 -0.5012
 1396SOL    HW215822   1.098   3.067   6.820  0.1937  0.3875 -0.6304
 1397SOL     OW15823   3.873   1.626   1.499 -0.4387  0.2449  0.1837
 1397SOL    HW115824   3.925   1.618   1.419 -0.7723 -0.3530  0.0236
 1397SOL    HW215825   3.909   1.546   1.539  3.4681  1.9206  0.0627
 1398SOL     OW15826   2.943   1.145   6.890 -0.1768 -0.2324  0.2291
 1398SOL    HW115827   2.991   1.088   6.830  3.1910  2.1139  0.6651
 1398SOL    HW215828   3.004   1.168   6.961 -0.6284  1.7537 -0.0231
 1399SOL     OW15829   4.660   2.672   6.886 -0.4395 -0.4271 -0.8536
 1399SOL    HW115830   4.701   2.601   6.934 -0.3199  0.3444  0.1967
 1399SOL    HW215831   4.650   2.738   6.955  2.1870  1.8141 -2.6317
 1400SOL     OW15832   3.450   4.491   4.313 -0.5903  0.0176  0.0844
 1400SOL    HW115833   3.482   4.445   4.390 -1.7231 -1.5746 -0.3908
 1400SOL    HW215834   3.379   4.437   4.279  0.3732 -1.2850  0.1462
 1401SOL     OW15835   3.094   4.330   2.192  0.5195 -0.3860  0.4234
 1401SOL    HW115836   3.059   4.410   2.232  1.0028 -0.2970  0.6711
 1401SOL    HW215837   3.097   4.266   2.264  0.0914 -0.4039  0.4235
 1402SOL     OW15838   1.116   4.735   5.994  0.3488 -0.0769  0.3146
 1402SOL    HW115839   1.203   4.694   6.000  0.3069 -0.0356  1.2204
 1402SOL    HW215840   1.063   4.667   6.036  0.1600 -0.1272 -0.0056
 1403SOL     OW15841   2.674   4.635  14.987 -0.3464 -0.9801  0.2836
 1403SOL    HW115842   2.768   4.621  14.976  0.0731  3.7445 -1.9087
 1403SOL    HW215843   2.664   4.626  15.082 -2.7489  1.7122  0.2587
 1404SOL     OW15844   0.422   0.460  11.509 -0.4477  0.2236 -0.3796
 1404SOL    HW115845   0.466   0.457  11.424 -0.6144  0.7343 -0.4844
 1404SOL    HW215846   0.412   0.553  11.530  0.4247  0.9641 -3.1942
 1405SOL     OW15847   1.277   3.716  12.226 -0.3969  0.1645 -0.2862
 1405SOL    HW115848   1.236   3.637  12.262  0.9494  0.4741  1.9354
 1405SOL    HW215849   1.365   3.679  12.234 -0.6426 -0.0468  1.4263
 1406SOL     OW15850   1.264   1.783  11.313 -0.1318  0.0983 -0.2425
 1406SOL    HW115851   1.296   1.744  11.395  1.3523  1.5025 -0.1687
 1406SOL    HW215852   1.243   1.705  11.261  0.8188  0.0231 -0.5013
 1407SOL     OW15853   1.766   3.952   7.873 -0.2292  0.7492  0.3370
 1407SOL    HW115854   1.779   3.881   7.936  1.0319  1.9420  1.4352
 1407SOL    HW215855   1.673   3.966   7.893 -0.1498  0.4360  0.9358
 1408SOL     OW15856   0.517   3.769   9.040 -0.1200 -0.5408 -0.0104
 1408SOL    HW115857   0.486   3.809   9.122  0.1256  1.2664 -0.7958
 1408SOL    HW215858   0.574   3.700   9.075  1.4114  0.1786 -1.1084
 1409SOL     OW15859   4.551   1.052   7.006 -0.1318  0.5622  0.0097
 1409SOL    HW115860   4.567   0.966   6.967  1.3250  0.4318  0.8932
 1409SOL    HW215861   4.510   1.028   7.089 -1.5251  1.7486 -0.3452
 1410SOL     OW15862   1.352   1.232  10.098 -0.3628 -0.6569  0.0040
 1410SOL    HW115863   1.376   1.209  10.008 -3.2287 -0.0983 -0.9081
 1410SOL    HW215864   1.434   1.266  10.135 -0.1021 -1.4940  0.1902
 1411SOL     OW15865   1.006   2.038   6.703 -0.3281  0.2978  0.1450
 1411SOL    HW115866   1.087   2.023   6.752 -0.3729  0.9642  0.4288
 1411SOL    HW215867   0.942   2.003   6.766  0.4148  0.0323  0.7482
 1412SOL     OW15868   2.902   1.977   4.671  0.0886 -0.1441  0.1337
 1412SOL    HW115869   2.931   1.889   4.648  0.7354 -0.0692  0.6617
 1412SOL    HW215870   2.872   2.006   4.585  0.2570 -0.4004 -0.0101
 1413SOL     OW15871   3.831   2.212   9.077 -0.1089  0.2872 -0.1170
 1413SOL    HW115872   3.752   2.213   9.023 -0.5204  0.4126  0.4804
 1413SOL    HW215873   3.889   2.273   9.031 -0.3120  0.0379 -0.6983
 1414SOL     OW15874   1.956   3.408   5.035  0.0510 -0.1499  0.1035
 1414SOL    HW115875   1.912   3.479   5.081 -0.9876  0.1550 -1.4016
 1414SOL    HW215876   1.905   3.338   5.077 -1.0672  0.2292 -0.6429
 1415SOL     OW15877   2.863   0.995   1.389  0.4200  0.1550  0.2323
 1415SOL    HW115878   2.909   1.048   1.455 -1.7217  0.6615  1.3409
 1415SOL    HW215879   2.921   0.960   1.322  2.7717  2.2289  1.1764
 1416SOL     OW15880   1.437   0.406   3.579 -0.4436  0.2677 -0.4925
 1416SOL    HW115881   1.499   0.378   3.647  0.0803  0.9584 -0.6884
 1416SOL    HW215882   1.429   0.497   3.606 -0.4421  0.5100 -1.2935
 1417SOL     OW15883   2.098   4.523   9.272 -0.2310 -0.1991 -0.0942
 1417SOL    HW115884   2.012   4.484   9.281 -1.4646  2.7943  0.9171
 1417SOL    HW215885   2.142   4.447   9.232 -1.2125 -0.1750 -1.2227
 1418SOL     OW15886   2.370   4.583   3.708  0.3695  0.4518 -0.6243
 1418SOL    HW115887   2.304   4.629   3.656  0.0753  0.1029 -0.5596
 1418SOL    HW215888   2.404   4.655   3.761  0.3107  0.1981 -0.2435
 1419SOL     OW15889   4.194   4.280  12.548 -0.1528  0.2490  0.2455
 1419SOL    HW115890   4.144   4.249  12.624 -2.8353  1.0360 -1.2137
 1419SOL    HW215891   4.283   4.281  12.584 -1.1532 -0.4049  2.7330
 1420SOL     OW15892   2.499   1.671   6.863 -0.3705  0.0587  0.0123
 1420SOL    HW115893   2.493   1.680   6.768  2.3754 -0.6193 -0.2234
 1420SOL    HW215894   2.529   1.759   6.887  1.0305 -0.6369  0.8340
 1421SOL     OW15895   2.651   1.628   5.796  0.4000 -0.4419 -0.7349
 1421SOL    HW115896   2.705   1.647   5.719 -0.4838 -2.4415 -1.8309
 1421SOL    HW215897   2.709   1.618   5.872 -1.8165 -0.5053  0.9625
 1422SOL     OW15898   3.268   1.276   6.243 -0.0206  0.0962 -0.1355
 1422SOL    HW115899   3.311   1.350   6.200  0.7693 -1.0289 -1.2979
 1422SOL    HW215900   3.290   1.203   6.184  0.6570  0.2927 -0.1320
 1423SOL     OW15901   3.652   0.512   8.354 -0.2393 -0.1471 -0.2381
 1423SOL    HW115902   3.706   0.444   8.315  1.3073  0.6909  0.4259
 1423SOL    HW215903   3.597   0.458   8.411 -0.5952  1.0682  0.5788
 1424SOL     OW15904   1.246   2.774   5.325  0.1923 -0.3511 -0.0431
 1424SOL    HW115905   1.336   2.740   5.330  0.0232 -1.3571 -3.4861
 1424SOL    HW215906   1.197   2.695   5.347  1.1996 -0.6031  1.3249
 1425SOL     OW15907   0.005   3.139   5.203 -0.3873  0.3559 -0.3343
 1425SOL    HW115908   4.692   3.190   5.267  2.4494  1.4157  1.0834
 1425SOL    HW215909   0.009   3.048   5.232  0.8464  0.5081 -0.0160
 1426SOL     OW15910   2.958   2.387   6.750 -0.2410  0.4514 -0.0712
 1426SOL    HW115911   2.964   2.393   6.845 -0.5368 -1.8790  0.0762
 1426SOL    HW215912   2.957   2.477   6.715 -0.2707  0.0233 -1.1668
 1427SOL     OW15913   2.552   0.997   2.725  0.2391  0.4071 -0.5918
 1427SOL    HW115914   2.529   0.922   2.669 -4.1587 -0.1740  1.9806
 1427SOL    HW215915   2.588   0.968   2.809 -0.8268 -1.7464 -0.8797
 1428SOL     OW15916   2.579   1.261   2.793 -0.3162  0.0347  0.4166
 1428SOL    HW115917   2.579   1.172   2.757 -2.7358  0.0643  0.3588
 1428SOL    HW215918   2.674   1.276   2.793 -0.2383 -0.4821 -0.6861
 1429SOL     OW15919   2.391   3.434   3.339  0.0127 -0.4870 -0.0945
 1429SOL    HW115920   2.380   3.360   3.398 -2.2143  0.2147  0.3704
 1429SOL    HW215921   2.345   3.416   3.257  0.7692  0.5101 -0.7405
 1430SOL     OW15922   3.482   0.042   7.243 -0.5507  0.3058  0.6087
 1430SOL    HW115923   3.477   0.123   7.192 -1.2596 -0.2926 -0.2756
 1430SOL    HW215924   3.564   0.014   7.202 -0.0788  0.2374  1.5967
 1431SOL     OW15925   2.616   1.854  15.758  0.1224 -0.0786  0.7015
 1431SOL    HW115926   2.539   1.841  15.703  0.8392  0.8710 -0.5321
 1431SOL    HW215927   2.624   1.785  15.824 -3.2386  0.7578  1.9767
 1432SOL     OW15928   1.627   4.556   5.929  0.6103  0.1970 -0.5213
 1432SOL    HW115929   1.543   4.600   5.942  0.3486 -1.0617  2.0561
 1432SOL    HW215930   1.685   4.626   5.960 -0.3981  0.7361  0.1634
 1433SOL     OW15931   4.246   1.284  16.661  0.4113 -0.3215 -0.0122
 1433SOL    HW115932   4.168   1.229  16.650 -0.1747  0.9169 -2.0049
 1433SOL    HW215933   4.270   1.241  16.743  1.3600  0.0003 -0.1219
 1434SOL     OW15934   4.390   2.761  17.382 -0.7444 -0.1449 -0.4102
 1434SOL    HW115935   4.430   2.784  17.466  1.1441  0.0457 -1.3547
 1434SOL    HW215936   4.301   2.794  17.391 -0.5429  0.0161  0.9136
 1435SOL     OW15937   3.940   1.322   1.163  0.2477  0.2277  0.5899
 1435SOL    HW115938   3.941   1.414   1.188  0.3270  0.1670  0.8053
 1435SOL    HW215939   3.985   1.321   1.078 -0.0715 -0.2004  0.4298
 1436SOL     OW15940   0.886   2.791   1.269  0.6178 -0.0218 -0.5233
 1436SOL    HW115941   0.949   2.862   1.260 -1.0742  1.5694  0.3465
 1436SOL    HW215942   0.811   2.803   1.210  0.6515  1.2089 -0.3025
 1437SOL     OW15943   4.591   0.677  14.256  0.3391  0.3652 -0.1963
 1437SOL    HW115944   4.564   0.713  14.172 -1.1280 -2.1112 -0.7976
 1437SOL    HW215945   4.682   0.649  14.243 -0.2429 -1.0035 -1.3875
 1438SOL     OW15946   1.358   1.543  11.968  0.3766 -0.0677 -0.2053
 1438SOL    HW115947   1.451   1.526  11.982  0.4061  0.8070  0.6941
 1438SOL    HW215948   1.374   1.564  11.876 -0.9188  0.5789 -0.2886
 1439SOL     OW15949   3.366   3.203  17.137  0.3649  0.6757  0.1299
 1439SOL    HW115950   3.437   3.147  17.104 -0.3208 -0.8657  1.2533
 1439SOL    HW215951   3.286   3.152  17.124  0.6779  0.0683  0.5906
 1440SOL     OW15952   2.483   4.494   4.741  0.3254  0.0328 -0.6732
 1440SOL    HW115953   2.478   4.576   4.791  0.1908 -0.3173 -0.1180
 1440SOL    HW215954   2.576   4.470   4.743 -0.2861 -2.3640 -1.4995
 1441SOL     OW15955   1.154   0.282   3.731  0.1069  0.0996  0.1569
 1441SOL    HW115956   1.178   0.200   3.774 -0.8145  0.5726  1.5810
 1441SOL    HW215957   1.159   0.257   3.639 -2.4362 -2.0661  0.5872
 1442SOL     OW15958   0.966   1.912  10.534 -0.3663 -0.0960  0.0832
 1442SOL    HW115959   0.899   1.888  10.469  1.0299 -0.6958 -1.1259
 1442SOL    HW215960   0.928   1.893  10.619 -0.4123  3.0820  0.7863
 1443SOL     OW15961   0.108   4.165   4.264 -0.6023  0.3223  0.2139
 1443SOL    HW115962   0.188   4.216   4.252 -0.7184  0.4247 -0.1487
 1443SOL    HW215963   0.035   4.225   4.254 -1.1504 -0.2459  0.7975
 1444SOL     OW15964   2.651   2.901  12.190  0.1598  0.6491  0.0440
 1444SOL    HW115965   2.579   2.891  12.252 -0.0731 -1.4895 -0.5550
 1444SOL    HW215966   2.645   2.996  12.182 -3.8649  0.2790 -1.1511
 1445SOL     OW15967   0.746   0.576   6.318 -0.3115  0.7600 -0.4082
 1445SOL    HW115968   0.809   0.625   6.370  0.8840 -2.8815  1.5954
 1445SOL    HW215969   0.806   0.525   6.263  1.2845  2.7681 -0.5135
 1446SOL     OW15970   0.234   1.684   3.213 -0.2757  0.5144  0.2369
 1446SOL    HW115971   0.145   1.683   3.176  0.9239  0.6970 -2.6437
 1446SOL    HW215972   0.230   1.777   3.234 -0.4041  0.3619  0.8855
 1447SOL     OW15973   1.835   4.041   5.590  0.0596 -0.2458 -0.3803
 1447SOL    HW115974   1.925   4.053   5.621 -0.0382  0.0364 -0.2068
 1447SOL    HW215975   1.849   3.980   5.517  2.7673 -1.9565  1.5934
 1448SOL     OW15976   2.954   1.306   3.489 -0.4349 -0.8774  0.1355
 1448SOL    HW115977   2.893   1.301   3.564  0.1982 -0.8194  0.6533
 1448SOL    HW215978   3.040   1.284   3.525 -0.2567  0.2602  0.3952
 1449SOL     OW15979   1.473   2.714  15.581  0.0937  0.3679  0.3773
 1449SOL    HW115980   1.488   2.801  15.542  0.8829 -0.1078 -0.3803
 1449SOL    HW215981   1.560   2.701  15.618  1.2197  0.7428 -2.1008
 1450SOL     OW15982   3.623   1.553   0.801  0.1074  0.0846 -0.0925
 1450SOL    HW115983   3.717   1.541   0.789  0.1738  1.9943 -1.5086
 1450SOL    HW215984   3.615   1.482   0.864  1.3722  0.2214  0.2193
 1451SOL     OW15985   4.176   1.576   2.645  0.1704  0.5404  0.7058
 1451SOL    HW115986   4.183   1.635   2.569 -0.2318  1.0106  1.0381
 1451SOL    HW215987   4.157   1.498   2.593 -1.5752  0.1975  1.8756
 1452SOL     OW15988   2.390   1.543   2.534 -0.4839  0.3862 -0.4747
 1452SOL    HW115989   2.340   1.511   2.459  0.4185 -0.1221 -0.8549
 1452SOL    HW215990   2.342   1.504   2.608 -0.9776  1.8042 -0.0397
 1453SOL     OW15991   0.155   3.809   2.982  0.0040 -1.0162  0.1649
 1453SOL    HW115992   0.164   3.902   3.003  2.7964 -1.1181 -0.6060
 1453SOL    HW215993   0.241   3.777   3.007 -0.3335 -1.1650  1.1468
 1454SOL     OW15994   4.594   4.498   2.427 -0.0146  0.5986  0.0652
 1454SOL    HW115995   4.636   4.578   2.394  1.8161  0.8169  2.8794
 1454SOL    HW215996   4.532   4.493   2.355 -0.1156  1.3005  0.0990
 1455SOL     OW15997   4.315   0.932   8.538 -0.3020 -0.2114  0.1781
 1455SOL    HW115998   4.389   0.906   8.593 -0.0198  0.8391  0.2908
 1455SOL    HW215999   4.303   0.854   8.484  0.1135  1.4618 -2.2866
 1456SOL     OW16000   1.104   2.686   2.308 -0.2034  0.6783 -0.0474
 1456SOL    HW116001   1.111   2.746   2.383  1.4934  0.6146 -0.1517
 1456SOL    HW216002   1.067   2.747   2.244 -0.0238  0.3272 -0.4809
 1457SOL     OW16003   0.019   1.009  11.710 -0.1213  0.1884  0.3110
 1457SOL    HW116004   0.060   1.021  11.624 -0.6792 -1.2279 -0.1612
 1457SOL    HW216005   0.016   1.097  11.747 -1.1336  0.8646 -1.3824
 1458SOL     OW16006   2.601   1.315   6.307  0.2644 -0.6865 -0.0587
 1458SOL    HW116007   2.590   1.341   6.399 -0.7718  1.0455 -0.6704
 1458SOL    HW216008   2.552   1.234   6.320 -1.5897  0.3879 -0.3859
 1459SOL     OW16009   4.174   4.499   1.235  0.8739  0.2697 -0.6953
 1459SOL    HW116010   4.259   4.498   1.280  0.8422 -0.6879 -0.6661
 1459SOL    HW216011   4.205   4.540   1.154 -1.5932 -0.0638 -1.8126
 1460SOL     OW16012   4.509   2.009  11.430  0.0781 -0.2170 -0.3520
 1460SOL    HW116013   4.499   2.018  11.335  0.2174  0.3380 -0.3144
 1460SOL    HW216014   4.455   2.082  11.459 -0.5435 -0.2411 -1.4489
 1461SOL     OW16015   3.489   4.469   6.273  0.0396  0.3863  0.2976
 1461SOL    HW116016   3.583   4.480   6.257 -0.6136  0.8461 -3.2019
 1461SOL    HW216017   3.455   4.438   6.189 -1.6103  1.2852  0.6286
 1462SOL     OW16018   1.297   0.016   5.511  0.2615  0.3581  0.1864
 1462SOL    HW116019   1.304   4.672   5.462 -0.9718  0.6618 -0.4807
 1462SOL    HW216020   1.286   4.724   5.601 -0.9991  1.3234  0.3459
 1463SOL     OW16021   0.309   4.535   6.193  0.1049 -0.7539 -0.8120
 1463SOL    HW116022   0.338   4.619   6.228 -0.4969 -0.7997 -0.2137
 1463SOL    HW216023   0.356   4.525   6.110  0.3555  1.3934 -0.9134
 1464SOL     OW16024   0.223   1.352   4.296  0.4206  0.1572  0.5643
 1464SOL    HW116025   0.143   1.394   4.262 -0.8525 -0.9914  2.1585
 1464SOL    HW216026   0.284   1.426   4.298  0.2667  0.2975  0.0626
 1465SOL     OW16027   0.970   2.218   3.842 -0.4270  0.4743  0.4418
 1465SOL    HW116028   1.036   2.251   3.903 -1.0005 -0.0219  1.3208
 1465SOL    HW216029   0.920   2.299   3.832  0.1217  0.9832  1.7712
 1466SOL     OW16030   3.351   3.558  12.749  0.0070 -0.5091  0.9324
 1466SOL    HW116031   3.314   3.530  12.833  0.9773  0.1477  1.5842
 1466SOL    HW216032   3.271   3.588  12.707  0.9480 -0.6883 -0.9869
 1467SOL     OW16033   1.397   1.665   6.408 -0.3821 -0.1088  0.7929
 1467SOL    HW116034   1.465   1.709   6.460  1.1667 -0.9692 -0.4768
 1467SOL    HW216035   1.347   1.738   6.372  2.1212  1.2576  0.0770
 1468SOL     OW16036   4.041   4.333   7.270 -0.5493  0.1289 -0.0512
 1468SOL    HW116037   4.124   4.291   7.251 -0.6734  0.2116 -0.7627
 1468SOL    HW216038   3.994   4.318   7.189  0.1662  0.4126 -0.5176
 1469SOL     OW16039   1.350   3.100  12.060  0.0369  0.1719  0.1886
 1469SOL    HW116040   1.278   3.037  12.063  2.0701 -2.1346  0.5237
 1469SOL    HW216041   1.299   3.167  12.015 -2.0714  0.0519  2.3948
 1470SOL     OW16042   2.999   0.508   3.993  0.5298  0.4267 -0.4467
 1470SOL    HW116043   2.971   0.488   4.083  2.4656 -1.9146 -0.3743
 1470SOL    HW216044   2.986   0.417   3.966 -0.9349  0.2094  0.9942
 1471SOL     OW16045   0.021   4.232   3.209  0.2296  0.1741  0.0702
 1471SOL    HW116046   0.106   4.277   3.215 -0.2095  1.1150 -0.8715
 1471SOL    HW216047   4.696   4.303   3.194 -0.7268 -0.4826  0.9538
 1472SOL     OW16048   0.383   3.724   6.380 -0.5363  0.3171 -0.1923
 1472SOL    HW116049   0.423   3.642   6.409  0.9955  0.4025 -2.0973
 1472SOL    HW216050   0.424   3.788   6.438  1.8593 -3.3541  2.2028
 1473SOL     OW16051   4.497   0.068   8.615 -0.2856  0.1229 -0.5984
 1473SOL    HW116052   4.435   0.023   8.559  1.5065 -0.5385 -2.0298
 1473SOL    HW216053   4.469   0.035   8.701  2.7953  0.1608  0.4457
 1474SOL     OW16054   2.056   2.417   5.685  0.0203 -0.0386 -0.5364
 1474SOL    HW116055   1.971   2.403   5.644  0.7032 -2.7009 -1.0588
 1474SOL    HW216056   2.043   2.500   5.731 -0.2906 -0.1804 -0.3725
 1475SOL     OW16057   3.441   0.313   2.280 -0.1113 -0.2155  0.1773
 1475SOL    HW116058   3.390   0.337   2.202  0.5950 -0.6534 -0.4204
 1475SOL    HW216059   3.374   0.264   2.327  1.4144 -2.6158 -0.1900
 1476SOL     OW16060   1.455   2.248   4.764  0.1921 -0.7513  0.3382
 1476SOL    HW116061   1.468   2.243   4.859 -1.5821 -2.6220  0.4785
 1476SOL    HW216062   1.547   2.246   4.739 -0.0249  0.2839 -0.5522
 1477SOL     OW16063   1.503   3.032   0.655  0.5155  0.1312  0.5867
 1477SOL    HW116064   1.480   2.945   0.688  0.6962  1.0278  3.1061
 1477SOL    HW216065   1.434   3.082   0.700  0.4846 -1.2263  2.0723
 1478SOL     OW16066   1.985   2.669   9.213  0.0259  0.0755 -0.4254
 1478SOL    HW116067   1.977   2.630   9.126  1.2222  0.7478 -0.8411
 1478SOL    HW216068   1.892   2.680   9.231 -0.1189 -1.9863  0.0998
 1479SOL     OW16069   2.179   2.211   2.484 -0.8077 -0.1583  0.6025
 1479SOL    HW116070   2.164   2.217   2.389  1.1819  0.0842  0.3103
 1479SOL    HW216071   2.112   2.148   2.511  0.0957 -2.4718 -2.5330
 1480SOL     OW16072   2.497   3.282   4.863 -0.5485  0.1601 -0.0193
 1480SOL    HW116073   2.529   3.358   4.815  2.0927 -0.5563  0.6429
 1480SOL    HW216074   2.515   3.298   4.956 -0.7592  0.3825 -0.0160
 1481SOL     OW16075   0.284   1.896  14.965 -0.8987 -0.0007  0.1724
 1481SOL    HW116076   0.270   1.941  14.882 -1.7620  0.5886  0.6440
 1481SOL    HW216077   0.379   1.889  14.976 -0.8353 -0.5685 -0.7071
 1482SOL     OW16078   1.517   2.816   2.825  0.1690  0.0812  0.2089
 1482SOL    HW116079   1.478   2.795   2.910 -0.8439  1.5458  0.1112
 1482SOL    HW216080   1.589   2.754   2.814 -2.0510 -2.1801 -1.5403
 1483SOL     OW16081   2.771   2.337   4.191 -0.1149  0.2545  0.9575
 1483SOL    HW116082   2.834   2.402   4.162 -0.8301 -0.2308 -1.6740
 1483SOL    HW216083   2.692   2.353   4.140 -0.9269 -3.5703  0.9591
 1484SOL     OW16084   1.211   3.944   9.037 -0.8154 -0.1756  0.1542
 1484SOL    HW116085   1.139   4.005   9.051  0.4273  1.1303  0.7686
 1484SOL    HW216086   1.166   3.860   9.023  2.1380 -1.1615 -3.5623
 1485SOL     OW16087   0.611   0.106   3.986  0.4105 -0.1856  0.1649
 1485SOL    HW116088   0.700   0.100   3.951 -0.2955  0.5851 -1.7492
 1485SOL    HW216089   0.624   0.065   4.071 -0.7769  1.4556  1.1399
 1486SOL     OW16090   2.978   3.155   7.371 -0.1656  0.1493  0.2652
 1486SOL    HW116091   2.924   3.122   7.443 -0.1941 -0.2159  0.0755
 1486SOL    HW216092   3.027   3.229   7.408 -1.0728  1.0311 -0.2868
 1487SOL     OW16093   3.045   1.262   7.155  0.1494  0.0648 -0.1967
 1487SOL    HW116094   3.059   1.265   7.250  1.0259 -0.6222 -0.2964
 1487SOL    HW216095   3.057   1.356   7.141  1.4721 -0.1794 -0.7019
 1488SOL     OW16096   1.283   1.867   2.881 -0.2271 -0.1946  0.0079
 1488SOL    HW116097   1.319   1.782   2.855 -3.3371 -1.5267  0.0928
 1488SOL    HW216098   1.359   1.908   2.922 -0.9052  1.8683 -0.8113
 1489SOL     OW16099   3.036   4.335   8.142  0.5469  0.1197 -0.2872
 1489SOL    HW116100   3.015   4.423   8.172  2.7755  0.4340  0.2706
 1489SOL    HW216101   3.077   4.358   8.059 -1.0549  0.2819 -1.0476
 1490SOL     OW16102   3.246   3.608  12.978  0.2012 -0.2993 -0.0935
 1490SOL    HW116103   3.241   3.532  13.036 -0.6927  0.5406  0.9428
 1490SOL    HW216104   3.178   3.664  13.015  1.0748 -0.5054  1.8260
 1491SOL     OW16105   4.712   0.800   4.569  0.1378 -0.3051 -0.2745
 1491SOL    HW116106   4.711   0.879   4.623  0.8014 -0.3262 -0.2240
 1491SOL    HW216107   4.705   0.727   4.631 -0.1832 -1.8268 -2.0860
 1492SOL     OW16108   3.842   2.446   1.168  0.1317 -0.4627  0.0064
 1492SOL    HW116109   3.844   2.539   1.193  1.1209 -0.2654 -0.8154
 1492SOL    HW216110   3.746   2.438   1.170  0.3453 -2.6087  1.6769
 1493SOL     OW16111   4.537   3.781   8.677  0.6791 -0.7688 -0.4753
 1493SOL    HW116112   4.501   3.857   8.724 -0.4599 -0.2294 -2.2490
 1493SOL    HW216113   4.460   3.735   8.645  0.5388  0.5911 -2.1008
 1494SOL     OW16114   3.020   0.921   6.462 -0.1932  0.6095 -0.2164
 1494SOL    HW116115   2.947   0.882   6.511  0.7050 -0.3848  0.3159
 1494SOL    HW216116   3.076   0.845   6.449 -0.4971  0.2949  0.3366
 1495SOL     OW16117   1.693   0.219   2.552 -0.3653  0.1463  0.5854
 1495SOL    HW116118   1.697   0.193   2.459 -3.3697 -0.1361  0.5521
 1495SOL    HW216119   1.601   0.217   2.576 -0.8832  0.3972 -1.3214
 1496SOL     OW16120   1.306   2.409   7.263  0.0955  0.0054 -0.1351
 1496SOL    HW116121   1.310   2.315   7.246  0.0011 -0.1201  0.5264
 1496SOL    HW216122   1.227   2.418   7.210 -0.4150 -0.5466  0.5303
 1497SOL     OW16123   1.084   3.714   9.546 -0.8861 -0.4214  0.0471
 1497SOL    HW116124   1.017   3.671   9.492  1.7234 -2.4803 -1.5266
 1497SOL    HW216125   1.153   3.726   9.480 -0.6354  0.3235  0.4463
 1498SOL     OW16126   1.201   1.976   1.765  0.2860  0.0969 -0.0920
 1498SOL    HW116127   1.245   1.918   1.828  1.7259  0.8371 -0.4134
 1498SOL    HW216128   1.123   1.998   1.815  0.6624  2.3120 -0.4991
 1499SOL     OW16129   3.816   3.818   7.283  0.9328  0.3040  0.2717
 1499SOL    HW116130   3.753   3.794   7.214  1.0032  2.2677 -0.4693
 1499SOL    HW216131   3.894   3.814   7.228  1.2141  0.4849  0.6589
 1500SOL     OW16132   1.457   2.392   7.967  0.3492  0.2228 -0.2666
 1500SOL    HW116133   1.521   2.433   8.025  0.8040 -2.2616  0.9834
 1500SOL    HW216134   1.511   2.322   7.929  1.3910  0.4610  0.7894
 1501SOL     OW16135   3.694   3.481  12.361  0.0372  0.4216  0.0266
 1501SOL    HW116136   3.608   3.505  12.395 -1.0305 -1.9674 -0.9305
 1501SOL    HW216137   3.730   3.569  12.351  1.0876 -0.2282 -1.9746
 1502SOL     OW16138   2.637   3.457   2.072  0.0494 -0.1713  0.0446
 1502SOL    HW116139   2.682   3.440   1.989  2.4576  0.2828  1.2436
 1502SOL    HW216140   2.550   3.481   2.042  0.7581  2.3787  0.0020
 1503SOL     OW16141   4.019   2.483   9.899  0.0586  0.1568 -0.1453
 1503SOL    HW116142   4.047   2.395   9.876 -1.7366 -0.5378  0.3734
 1503SOL    HW216143   4.050   2.525   9.819  1.8331 -0.9366 -0.0237
 1504SOL     OW16144   4.121   3.176   8.037  0.2778 -0.2923 -0.0141
 1504SOL    HW116145   4.204   3.216   8.009 -0.2355  1.0241  0.3232
 1504SOL    HW216146   4.071   3.176   7.955 -0.6186  1.5285  0.5359
 1505SOL     OW16147   0.819   2.655   7.674  0.0427 -0.1984  0.4306
 1505SOL    HW116148   0.801   2.708   7.596 -2.2615  0.0304  1.1159
 1505SOL    HW216149   0.788   2.717   7.740  0.2669 -0.8320  1.1302
 1506SOL     OW16150   2.851   2.113  12.212  0.7940 -0.4832 -0.1817
 1506SOL    HW116151   2.908   2.168  12.266 -0.5891  0.7218  0.0545
 1506SOL    HW216152   2.909   2.042  12.184  1.1610 -0.8856  1.6049
 1507SOL     OW16153   3.071   0.267   1.412  0.2843 -0.6248 -0.2993
 1507SOL    HW116154   3.018   0.234   1.339  1.0479 -1.2142 -0.5970
 1507SOL    HW216155   3.133   0.312   1.354  0.2915 -0.7943 -0.4241
 1508SOL     OW16156   4.108   2.827  17.354 -0.7308  0.0523 -0.3134
 1508SOL    HW116157   4.050   2.832  17.430  0.1402 -0.8737  0.4254
 1508SOL    HW216158   4.054   2.865  17.286  2.0738 -0.3035 -2.7480
 1509SOL     OW16159   1.153   3.832   3.730  0.1231  0.3809  0.3346
 1509SOL    HW116160   1.133   3.879   3.811  0.6268 -1.4301  1.5255
 1509SOL    HW216161   1.075   3.845   3.677 -0.4017  1.1212  1.3025
 1510SOL     OW16162   2.916   3.484   8.126  0.0537  0.1808 -0.0384
 1510SOL    HW116163   2.922   3.536   8.206 -2.5073  1.8421 -0.9149
 1510SOL    HW216164   2.850   3.536   8.079  0.8863 -1.7915 -3.4215
 1511SOL     OW16165   3.588   0.791   3.512 -0.1373 -0.5501  0.5401
 1511SOL    HW116166   3.527   0.828   3.576 -0.6778 -1.1678  0.3891
 1511SOL    HW216167   3.653   0.763   3.577  0.3445  0.7705  0.6129
 1512SOL     OW16168   2.629   2.366   2.032  0.3236 -0.3151  0.0583
 1512SOL    HW116169   2.668   2.340   2.116  1.1684 -1.5559 -0.7172
 1512SOL    HW216170   2.541   2.327   2.033  0.8776 -1.5930 -0.6479
 1513SOL     OW16171   1.962   0.771  12.763 -0.6498  0.2873 -0.4160
 1513SOL    HW116172   1.992   0.773  12.853  0.3300 -0.4297 -0.7248
 1513SOL    HW216173   2.038   0.737  12.717 -1.1730 -0.4943 -0.7003
 1514SOL     OW16174   1.521   1.204   9.881  0.4767 -0.5389  0.1751
 1514SOL    HW116175   1.610   1.226   9.910  0.1151  1.1444 -0.0074
 1514SOL    HW216176   1.488   1.280   9.833 -1.2384 -1.2713  0.1971
 1515SOL     OW16177   1.784   2.388   5.604  0.6055 -0.0302  0.0682
 1515SOL    HW116178   1.734   2.428   5.675  0.2320  0.3054 -0.3918
 1515SOL    HW216179   1.737   2.305   5.594  0.3747  0.4318 -2.6447
 1516SOL     OW16180   1.278   0.082   4.995 -0.0109 -0.0830  0.0127
 1516SOL    HW116181   1.354   0.037   4.960  0.6642  1.8080 -0.9093
 1516SOL    HW216182   1.230   0.120   4.922 -0.2600 -0.0978  0.1650
 1517SOL     OW16183   3.668   1.381   0.053 -0.2923  0.1230 -0.0514
 1517SOL    HW116184   3.684   1.309  17.740 -0.6313  1.4986 -1.8111
 1517SOL    HW216185   3.756   1.377   0.090 -0.3133  1.5085  0.1442
 1518SOL     OW16186   2.515   0.126   3.117  0.0123 -0.1688  0.0076
 1518SOL    HW116187   2.506   0.214   3.081 -0.0356  0.2050  0.9087
 1518SOL    HW216188   2.427   0.101   3.088 -0.8506  0.5819  1.9326
 1519SOL     OW16189   0.301   3.835  10.807  0.2903  0.5671  0.1554
 1519SOL    HW116190   0.223   3.890  10.807 -0.5701 -0.6308 -1.7107
 1519SOL    HW216191   0.287   3.775  10.880  1.5961  0.6373  0.4720
 1520SOL     OW16192   0.497   0.568   6.266 -0.1791  0.0076  0.4142
 1520SOL    HW116193   0.585   0.542   6.290 -0.9411 -0.1720  3.0201
 1520SOL    HW216194   0.485   0.517   6.187 -0.0399 -0.8441  0.9426
 1521SOL     OW16195   0.627   4.599  14.075 -0.8540 -0.0769 -0.6604
 1521SOL    HW116196   0.680   4.522  14.055 -1.1488 -0.8111  1.3175
 1521SOL    HW216197   0.585   4.606  13.990 -2.5302  2.3165  0.3602
 1522SOL     OW16198   1.925   1.824   4.712 -0.4404 -0.4153  0.0712
 1522SOL    HW116199   1.903   1.838   4.620 -1.8587 -2.8844  0.0236
 1522SOL    HW216200   1.851   1.774   4.748 -0.6702 -1.3025 -1.6471
 1523SOL     OW16201   0.615   1.610   5.331 -0.6193  0.1869 -0.1625
 1523SOL    HW116202   0.533   1.659   5.334 -1.6212 -1.5268  0.4868
 1523SOL    HW216203   0.596   1.540   5.269 -0.6328  1.4090 -1.5335
 1524SOL     OW16204   0.226   3.464   1.988 -0.0896 -0.2227  0.1287
 1524SOL    HW116205   0.208   3.415   2.069 -2.8478 -0.0180 -0.3340
 1524SOL    HW216206   0.195   3.552   2.008 -0.2599  0.3065 -2.5164
 1525SOL     OW16207   1.368   1.619   0.414  0.6836 -0.4979 -0.1760
 1525SOL    HW116208   1.450   1.573   0.434  0.6156  0.0008  1.2949
 1525SOL    HW216209   1.362   1.624   0.319  1.9575 -0.4451 -0.2517
 1526SOL     OW16210   1.821   4.720   4.358  0.2343  0.0027 -0.1351
 1526SOL    HW116211   1.915   4.732   4.353  0.1047  0.9470 -0.3026
 1526SOL    HW216212   1.788   0.073   4.366  0.8946  0.3542 -1.4185
 1527SOL     OW16213   3.359   3.951   7.921 -0.2939  0.0667  0.4459
 1527SOL    HW116214   3.372   4.020   7.856  0.7932 -0.5981 -0.0320
 1527SOL    HW216215   3.389   3.869   7.882 -1.4863  0.3632 -1.0796
 1528SOL     OW16216   2.043   3.067   3.867  0.3516  0.1847 -1.0349
 1528SOL    HW116217   1.952   3.097   3.876  0.9287  1.6418 -0.1484
 1528SOL    HW216218   2.029   2.974   3.854  0.6548  0.2933 -2.1945
 1529SOL     OW16219   2.290   0.258   9.379 -0.0170  0.2201 -0.3526
 1529SOL    HW116220   2.237   0.318   9.432  0.1110 -0.7228  0.8265
 1529SOL    HW216221   2.234   0.180   9.374 -2.6522  1.9209  2.7170
 1530SOL     OW16222   1.893   4.257  12.855 -0.0981 -0.6550  0.3588
 1530SOL    HW116223   1.870   4.350  12.857 -1.6116 -0.9446 -2.3161
 1530SOL    HW216224   1.988   4.269  12.855 -0.4244  1.9330  0.4486
 1531SOL     OW16225   1.325   0.003   5.795  0.0462  0.2739 -0.1879
 1531SOL    HW116226   1.347   0.080   5.743  1.7554  0.8821  1.4380
 1531SOL    HW216227   1.337   0.032   5.886 -1.4226  0.0075  0.0934
 1532SOL     OW16228   1.913   0.808   8.537 -0.6855  0.3284  0.2326
 1532SOL    HW116229   1.976   0.834   8.470  0.0462 -2.2558 -0.0762
 1532SOL    HW216230   1.857   0.743   8.495 -1.3282  1.1177 -0.1360
 1533SOL     OW16231   0.651   1.190   0.460 -0.4699  0.1255 -0.4288
 1533SOL    HW116232   0.619   1.270   0.503 -2.8919 -1.6479  1.0207
 1533SOL    HW216233   0.746   1.202   0.466 -0.4443 -0.8028  1.0327
 1534SOL     OW16234   3.923   2.597   8.083 -0.1487  0.4900  0.2949
 1534SOL    HW116235   3.902   2.679   8.127  0.1296  0.5772  0.2639
 1534SOL    HW216236   3.954   2.621   7.996  1.5950 -0.8360  0.5360
 1535SOL     OW16237   3.344   1.016   5.876 -0.0622 -0.1410  0.3030
 1535SOL    HW116238   3.334   0.957   5.801  0.0908 -1.0687  1.0227
 1535SOL    HW216239   3.438   1.026   5.889 -0.3619  0.5446  1.8632
 1536SOL     OW16240   0.289   1.689   9.051 -0.1891 -0.0118  0.5014
 1536SOL    HW116241   0.231   1.617   9.075  1.7492 -1.0254  2.1844
 1536SOL    HW216242   0.304   1.678   8.957 -1.1973 -0.7066  0.4259
 1537SOL     OW16243   2.660   4.681   5.598  0.1663  0.1120  0.3889
 1537SOL    HW116244   2.622   4.666   5.511  0.7553  1.9561 -0.1813
 1537SOL    HW216245   2.629   4.609   5.653  4.0176 -2.3189 -0.5978
 1538SOL     OW16246   2.510   2.084   0.765  0.7574 -0.0049  0.2372
 1538SOL    HW116247   2.430   2.115   0.723  0.9495  0.2627  0.0683
 1538SOL    HW216248   2.495   1.997   0.803  0.1695  1.3529  3.1386
 1539SOL     OW16249   3.427   2.196   8.614 -0.4011  0.2432  0.0304
 1539SOL    HW116250   3.492   2.127   8.627 -1.3706 -0.4027  1.3888
 1539SOL    HW216251   3.371   2.154   8.549 -0.0899 -0.4796  0.2253
 1540SOL     OW16252   0.483   3.563   7.363  0.2537 -0.0876  0.0889
 1540SOL    HW116253   0.399   3.535   7.399 -0.0552  0.2935 -0.3344
 1540SOL    HW216254   0.530   3.480   7.357  0.6455 -0.0588  2.4559
 1541SOL     OW16255   2.858   2.408  10.355  0.6012  0.2715  0.5183
 1541SOL    HW116256   2.773   2.429  10.392  1.1798  1.5734  1.1041
 1541SOL    HW216257   2.918   2.480  10.374 -0.3904  1.0666  0.5734
 1542SOL     OW16258   4.676   3.297  10.923 -0.1474 -0.3179  0.4145
 1542SOL    HW116259   4.664   3.270  10.832  2.4221 -0.4978  0.1255
 1542SOL    HW216260   4.641   3.222  10.971 -0.8511 -1.6537 -2.1382
 1543SOL     OW16261   1.493   1.663   9.879 -0.3881 -0.0238  0.2538
 1543SOL    HW116262   1.446   1.618   9.949  0.1611  0.4059  0.9107
 1543SOL    HW216263   1.441   1.648   9.800  3.6320 -0.7052 -2.2640
 1544SOL     OW16264   3.595   3.599  11.739  0.1433  0.1244  0.1507
 1544SOL    HW116265   3.611   3.684  11.697  1.1276 -2.2184 -4.1013
 1544SOL    HW216266   3.549   3.551  11.672 -1.8457  1.9237  0.2318
 1545SOL     OW16267   4.713   4.641   8.199 -0.0987  0.3104  0.2250
 1545SOL    HW116268   0.046   4.676   8.144  1.4688 -1.7618  0.9116
 1545SOL    HW216269   4.705   4.715   8.259 -0.6797  0.1684  0.3227
 1546SOL     OW16270   2.546   2.080   4.478 -0.5795  0.1521  0.2317
 1546SOL    HW116271   2.498   2.158   4.505 -2.4621 -0.9598  0.1020
 1546SOL    HW216272   2.622   2.130   4.448 -1.8332  1.8635 -0.0454
 1547SOL     OW16273   3.397   0.442   1.625  0.1644  0.0588 -0.3099
 1547SOL    HW116274   3.410   0.384   1.550 -0.9382  1.2953 -1.4618
 1547SOL    HW216275   3.459   0.410   1.691  0.3129 -1.1916 -1.0622
 1548SOL     OW16276   2.950   3.966   5.469  0.4087 -0.6822 -0.0984
 1548SOL    HW116277   2.972   3.895   5.409  2.6704  0.7042 -0.9023
 1548SOL    HW216278   2.900   3.916   5.534 -2.5409  0.5188 -1.4552
 1549SOL     OW16279   3.780   1.547   6.708  0.2611 -0.3955 -0.4317
 1549SOL    HW116280   3.829   1.565   6.627 -0.5910  1.7001 -0.4708
 1549SOL    HW216281   3.747   1.460   6.687  0.9847 -0.5010 -1.1456
 1550SOL     OW16282   0.091   2.021   4.352 -0.8766  0.0961 -0.2656
 1550SOL    HW116283   0.050   2.100   4.317 -1.3946 -0.8538 -1.7964
 1550SOL    HW216284   0.019   1.969   4.388 -1.7788  1.0824 -0.6424
 1551SOL     OW16285   1.177   1.709   3.095 -0.0555  0.6788  0.1632
 1551SOL    HW116286   1.271   1.697   3.112  0.3902  1.9787 -1.2718
 1551SOL    HW216287   1.177   1.787   3.039 -0.8016  2.1946  2.2761
 1552SOL     OW16288   4.719   0.518  17.343 -0.4092 -0.3091  0.1721
 1552SOL    HW116289   0.041   0.590  17.361 -2.6199  1.7752 -0.9482
 1552SOL    HW216290   0.048   0.461  17.302 -1.6193 -1.7277  0.1739
 1553SOL     OW16291   2.050   2.072   6.749 -0.4175 -0.0909 -0.0058
 1553SOL    HW116292   2.145   2.063   6.745 -0.3257 -0.0980  2.1312
 1553SOL    HW216293   2.028   1.988   6.708 -0.2632 -0.8409  1.4436
 1554SOL     OW16294   1.818   1.284  12.029  0.4723 -0.3204  0.5479
 1554SOL    HW116295   1.910   1.299  12.047  0.2538  2.9037 -0.9391
 1554SOL    HW216296   1.804   1.191  12.047 -0.3129  0.0709  1.9316
 1555SOL     OW16297   0.543   3.957  14.098 -0.0947 -0.0387 -0.5877
 1555SOL    HW116298   0.570   3.898  14.168  0.4141 -0.7829 -1.4110
 1555SOL    HW216299   0.516   3.895  14.029 -0.9686  0.9214 -1.1115
 1556SOL     OW16300   0.642   1.510   8.456 -0.4469  0.1811  0.5551
 1556SOL    HW116301   0.727   1.549   8.438 -0.8496  0.1009 -1.5459
 1556SOL    HW216302   0.656   1.459   8.536 -0.6557  1.8103  1.6386
 1557SOL     OW16303   2.038   3.034   3.443  0.0785 -0.2182 -0.5019
 1557SOL    HW116304   1.983   3.014   3.518  0.4730  1.2459  0.1880
 1557SOL    HW216305   2.024   2.959   3.385 -0.2204 -0.5739  0.0375
 1558SOL     OW16306   4.473   4.545   2.670  0.3140  0.4094  0.1562
 1558SOL    HW116307   4.463   4.461   2.714  1.7999  1.5146  2.6755
 1558SOL    HW216308   4.514   4.505   2.593 -0.3032  0.7448 -0.3450
 1559SOL     OW16309   3.241   4.201   6.079 -0.4067 -0.4517 -0.8055
 1559SOL    HW116310   3.189   4.254   6.140  2.8060  0.6690  0.9444
 1559SOL    HW216311   3.292   4.269   6.034  0.0764 -0.6223 -0.5067
 1560SOL     OW16312   1.719   0.338   7.555  0.3943 -0.0196  0.7011
 1560SOL    HW116313   1.769   0.260   7.581  0.5915 -0.4580 -0.9724
 1560SOL    HW216314   1.727   0.323   7.461 -2.0818  0.6825  0.3600
 1561SOL     OW16315   3.392   0.082   2.913 -0.4770  0.4262 -0.4350
 1561SOL    HW116316   3.343   0.142   2.858 -0.6567  0.0867 -0.6451
 1561SOL    HW216317   3.328   0.074   2.983 -0.6597  0.9514 -0.5473
 1562SOL     OW16318   4.454   2.573  12.755  0.4716  0.2237 -0.2003
 1562SOL    HW116319   4.373   2.523  12.756 -0.1563  1.2856  1.6039
 1562SOL    HW216320   4.470   2.575  12.849  0.1458  1.1514 -0.1618
 1563SOL     OW16321   4.630   0.282   3.461 -0.4189 -0.3939 -0.3264
 1563SOL    HW116322   4.717   0.318   3.440 -0.2803 -2.1349 -2.7771
 1563SOL    HW216323   4.599   0.336   3.533  0.2898 -0.4107 -0.0033
 1564SOL     OW16324   2.222   0.752   7.405 -0.0600  0.2715  0.2609
 1564SOL    HW116325   2.202   0.684   7.340  0.1787  0.8187 -0.3953
 1564SOL    HW216326   2.133   0.785   7.416 -0.0248 -0.0220  1.3716
 1565SOL     OW16327   1.443   1.718   2.166  0.4270 -0.3694 -0.0780
 1565SOL    HW116328   1.516   1.722   2.228 -0.0089 -0.6968  0.4510
 1565SOL    HW216329   1.368   1.681   2.213  2.8210 -1.1341  3.1484
 1566SOL     OW16330   1.321   1.738   7.705  1.0404 -0.1135 -0.1414
 1566SOL    HW116331   1.345   1.646   7.698  0.5215 -0.3264  0.8759
 1566SOL    HW216332   1.307   1.752   7.612  1.0091 -0.1721 -0.1453
 1567SOL     OW16333   3.843   4.563  12.980 -0.0899 -0.3635  0.1668
 1567SOL    HW116334   3.908   4.575  13.049  0.0850 -0.1106 -0.0418
 1567SOL    HW216335   3.770   4.556  13.042  0.0554  1.5942  0.5657
 1568SOL     OW16336   3.903   0.513   8.892  0.0995  0.3498 -0.0728
 1568SOL    HW116337   3.900   0.593   8.840  0.9863 -1.4140 -2.7921
 1568SOL    HW216338   3.882   0.551   8.978 -0.2498 -3.6415  1.6182
 1569SOL     OW16339   2.347   0.469  12.637  0.2428 -0.4508  0.4060
 1569SOL    HW116340   2.279   0.404  12.618  1.8093 -2.8655  3.1213
 1569SOL    HW216341   2.425   0.416  12.651  0.0382 -1.0012 -0.5570
 1570SOL     OW16342   0.911   3.827   8.256 -0.1430 -0.5608  0.5711
 1570SOL    HW116343   0.952   3.782   8.330  1.1976 -1.7405 -0.9060
 1570SOL    HW216344   0.822   3.841   8.291 -0.4179  0.9829 -0.7386
 1571SOL     OW16345   3.433   2.351  14.170  0.3007 -0.0444 -0.1877
 1571SOL    HW116346   3.375   2.334  14.096 -0.2920  1.7466 -0.1365
 1571SOL    HW216347   3.499   2.410  14.134  1.0487 -1.0739 -0.5097
 1572SOL     OW16348   4.568   1.394  17.289  0.1579 -0.2078 -0.3176
 1572SOL    HW116349   4.608   1.462  17.235  0.8246  0.6739  1.3096
 1572SOL    HW216350   4.505   1.436  17.347  1.5182 -0.2115  1.1539
 1573SOL     OW16351   0.807   0.153   9.285  0.0230  0.2916 -0.1430
 1573SOL    HW116352   0.717   0.173   9.310  0.2198  1.7870 -0.6633
 1573SOL    HW216353   0.792   0.131   9.193 -1.0449 -2.6698  0.7265
 1574SOL     OW16354   2.856   2.349   8.446  0.1428  0.1067  0.2682
 1574SOL    HW116355   2.916   2.330   8.518  0.3685  1.6509  0.4864
 1574SOL    HW216356   2.771   2.311   8.468  0.0091 -0.7022 -1.6505
 1575SOL     OW16357   2.492   0.776   4.329 -0.0984  0.0325 -0.4002
 1575SOL    HW116358   2.466   0.685   4.340 -0.4256  0.2522  0.5995
 1575SOL    HW216359   2.433   0.824   4.387 -1.1288 -2.2696  0.4151
 1576SOL     OW16360   0.239   2.358   5.762 -0.3157 -0.3591 -0.4237
 1576SOL    HW116361   0.174   2.363   5.832 -1.0887  0.8319 -1.2276
 1576SOL    HW216362   0.197   2.407   5.692 -0.1573  0.6307  0.1854
 1577SOL     OW16363   2.221   3.182   4.285 -1.2169  0.6660  0.0225
 1577SOL    HW116364   2.233   3.132   4.366 -0.4176  0.8709  0.0301
 1577SOL    HW216365   2.277   3.136   4.223  0.4839  1.5363  0.8953
 1578SOL     OW16366   3.909   2.561   9.427  0.7188  0.5384 -0.3031
 1578SOL    HW116367   3.850   2.514   9.367 -2.8946  1.5449  2.4482
 1578SOL    HW216368   3.907   2.509   9.507  0.6047 -0.1040 -0.7243
 1579SOL     OW16369   3.747   0.543   5.579 -0.0074  0.4004 -0.8855
 1579SOL    HW116370   3.661   0.505   5.562 -0.0276 -0.8248  1.9732
 1579SOL    HW216371   3.754   0.542   5.675 -1.1608  1.6241 -0.7966
 1580SOL     OW16372   0.056   0.050   2.939  0.1296 -0.9044  0.2434
 1580SOL    HW116373   0.011   0.131   2.914 -2.8909 -2.4022  0.7401
 1580SOL    HW216374   0.078   0.069   3.030 -2.1003 -0.6659  0.7269
 1581SOL     OW16375   3.020   2.011  17.530  0.2505 -0.1314 -0.2983
 1581SOL    HW116376   2.995   2.011  17.622  2.0714  0.8058  0.1923
 1581SOL    HW216377   3.037   1.918  17.515 -0.3719  0.1123 -2.5254
 1582SOL     OW16378   2.879   0.020   4.750 -0.1046 -0.0261  0.1153
 1582SOL    HW116379   2.892   0.087   4.682 -2.5956  1.4219  1.0992
 1582SOL    HW216380   2.952   4.696   4.735  0.8682  0.6641  2.0005
 1583SOL     OW16381   0.567   3.086   2.420  0.2227 -0.6251  0.1476
 1583SOL    HW116382   0.495   3.069   2.359 -1.3349 -0.8764  2.0769
 1583SOL    HW216383   0.522   3.106   2.502  1.1115  1.3828  0.1408
 1584SOL     OW16384   1.804   0.813   0.354 -0.0882  0.3111 -0.3969
 1584SOL    HW116385   1.733   0.763   0.395 -0.6149  1.3164 -0.0775
 1584SOL    HW216386   1.860   0.830   0.430 -1.3540  0.5581  0.4849
 1585SOL     OW16387   1.122   3.837   5.657  0.7900 -0.5427 -0.1711
 1585SOL    HW116388   1.130   3.817   5.564  0.4844 -1.5839  0.0327
 1585SOL    HW216389   1.207   3.808   5.687 -0.0481 -1.5086  1.2454
 1586SOL     OW16390   2.339   0.800  11.950 -0.3308 -0.3709  0.2273
 1586SOL    HW116391   2.266   0.777  11.892  0.1455 -2.2087  0.3341
 1586SOL    HW216392   2.375   0.713  11.969  2.3743  0.9425  0.9476
 1587SOL     OW16393   4.135   3.618   5.663 -0.1833 -0.7955 -0.3102
 1587SOL    HW116394   4.147   3.589   5.573  4.1535 -1.0591  0.3827
 1587SOL    HW216395   4.145   3.712   5.651 -1.1110 -0.7664 -0.8429
 1588SOL     OW16396   4.561   3.627  12.315  0.0908 -0.2278  0.1227
 1588SOL    HW116397   4.523   3.631  12.227  2.6491  0.8524 -0.9556
 1588SOL    HW216398   4.574   3.717  12.345  3.1286  0.0242 -1.9667
 1589SOL     OW16399   0.580   0.524   4.849 -0.5011  0.0171 -0.0624
 1589SOL    HW116400   0.609   0.600   4.799 -0.3677  1.2621  1.9207
 1589SOL    HW216401   0.582   0.560   4.937  1.4095  2.8771 -1.2950
 1590SOL     OW16402   4.653   3.013   1.918 -0.4374 -1.0703 -0.3861
 1590SOL    HW116403   4.641   3.061   1.837 -0.2164 -0.7339 -0.2162
 1590SOL    HW216404   4.565   3.016   1.957 -0.4258 -0.3205 -0.4275
 1591SOL     OW16405   2.143   1.467  14.962  0.6276 -0.2424  0.3230
 1591SOL    HW116406   2.049   1.452  14.958  0.9121 -2.2517  1.2790
 1591SOL    HW216407   2.152   1.548  14.911  0.2459 -0.6632 -0.4054
 1592SOL     OW16408   4.601   2.048   1.533 -0.3531 -0.0035  0.6566
 1592SOL    HW116409   4.511   2.074   1.512  0.4382 -1.1609 -4.2256
 1592SOL    HW216410   4.590   1.997   1.613  1.1870 -2.9958 -1.0321
 1593SOL     OW16411   4.228   2.822  12.951  0.0763  0.2334 -0.3269
 1593SOL    HW116412   4.149   2.816  13.004  0.5116  3.1392  0.6283
 1593SOL    HW216413   4.194   2.802  12.864  1.9617  1.0400 -1.2600
 1594SOL     OW16414   0.193   1.110   3.825 -0.5149 -0.3016  0.5020
 1594SOL    HW116415   0.162   1.199   3.808  0.5546  0.2205  1.2963
 1594SOL    HW216416   0.227   1.121   3.914 -1.6828 -3.3059  1.3300
 1595SOL     OW16417   1.104   4.681   9.473  0.3735  0.7707  0.1953
 1595SOL    HW116418   1.025   4.661   9.422  0.6125 -2.1532  0.9910
 1595SOL    HW216419   1.169   4.618   9.443  2.9024  3.2497  0.4627
 1596SOL     OW16420   2.239   2.405   8.715  0.3787  0.5491 -0.4280
 1596SOL    HW116421   2.298   2.466   8.760  1.2242 -0.6504  0.0952
 1596SOL    HW216422   2.232   2.335   8.780  0.7049  0.7359 -0.1862
 1597SOL     OW16423   4.063   4.388  13.871 -0.3221 -0.1378 -0.1016
 1597SOL    HW116424   4.112   4.464  13.901 -0.0409  0.5789 -2.3558
 1597SOL    HW216425   4.043   4.359  13.960  1.3740  0.9742  0.6471
 1598SOL     OW16426   2.336   2.756   8.640 -0.4368 -0.9318 -0.0543
 1598SOL    HW116427   2.367   2.695   8.707  1.7380  1.2460  0.9292
 1598SOL    HW216428   2.380   2.717   8.564  0.2517  1.3960 -0.8428
 1599SOL     OW16429   1.744   2.122   4.658 -0.2801  0.0584 -0.2167
 1599SOL    HW116430   1.819   2.176   4.682 -1.2676  1.9121 -1.2083
 1599SOL    HW216431   1.724   2.084   4.743  0.4751 -1.8937 -0.9031
 1600SOL     OW16432   1.854   1.279   9.143 -0.4876 -0.1900 -0.5904
 1600SOL    HW116433   1.766   1.253   9.115 -0.0204 -1.3682 -0.9487
 1600SOL    HW216434   1.902   1.204   9.107 -0.5910  0.1672 -1.4669
 1601SOL     OW16435   0.163   2.790  16.663 -0.6375  0.1380 -0.3184
 1601SOL    HW116436   0.184   2.722  16.600  0.6845 -0.4469  0.7290
 1601SOL    HW216437   0.253   2.819  16.681 -1.8935  5.3763 -2.4166
 1602SOL     OW16438   2.611   2.841   8.198 -0.3242 -0.4457  0.7519
 1602SOL    HW116439   2.695   2.796   8.207  0.8463  1.1625 -1.8905
 1602SOL    HW216440   2.644   2.931   8.186 -0.1011 -0.4912  1.0064
 1603SOL     OW16441   4.276   0.727   7.110  0.1185 -0.1530 -0.2573
 1603SOL    HW116442   4.186   0.753   7.093 -0.0301 -0.3751  0.2028
 1603SOL    HW216443   4.266   0.635   7.085  1.0498  0.1094 -1.6125
 1604SOL     OW16444   2.666   2.438   0.913 -0.4505 -0.0952 -0.2867
 1604SOL    HW116445   2.581   2.399   0.891 -0.2040 -1.3927  1.0617
 1604SOL    HW216446   2.655   2.533   0.910 -1.2424 -0.1834 -0.2119
 1605SOL     OW16447   0.173   0.423  12.295 -0.2429  0.1707 -0.0402
 1605SOL    HW116448   0.156   0.329  12.289 -1.6781  0.3906  0.5388
 1605SOL    HW216449   0.215   0.444  12.212 -0.0627 -2.7138 -0.6824
 1606SOL     OW16450   0.226   3.733  14.407 -0.3643  0.2316  0.2611
 1606SOL    HW116451   0.203   3.743  14.315  1.8639  1.0417 -0.2058
 1606SOL    HW216452   0.143   3.748  14.452  0.2378 -2.8563  2.4086
 1607SOL     OW16453   3.643   1.769   7.344 -0.7021 -0.0613  0.2900
 1607SOL    HW116454   3.636   1.756   7.439  0.6156  3.3448  0.8779
 1607SOL    HW216455   3.715   1.831   7.334 -0.2567 -1.0877 -2.8590
 1608SOL     OW16456   0.161   1.643   5.596 -0.1403  0.0199 -0.1014
 1608SOL    HW116457   0.213   1.582   5.544  1.0360  0.3192  0.7185
 1608SOL    HW216458   0.219   1.663   5.669  0.6125  2.5154 -1.3845
 1609SOL     OW16459   2.495   3.339   7.969  0.0943  0.0373 -0.2573
 1609SOL    HW116460   2.469   3.382   7.888  3.3764 -1.0606 -1.8788
 1609SOL    HW216461   2.417   3.351   8.025 -0.6781 -2.1464 -0.8704
 1610SOL     OW16462   0.848   3.971   3.098 -0.5433 -0.6553 -0.1897
 1610SOL    HW116463   0.834   4.064   3.081  0.1541 -0.0328  2.7264
 1610SOL    HW216464   0.924   3.967   3.156 -1.9063  0.4327  1.6737
 1611SOL     OW16465   3.004   2.554   6.184 -0.0442 -0.3831  0.0402
 1611SOL    HW116466   2.922   2.514   6.156 -0.7717  0.0686  1.4813
 1611SOL    HW216467   2.976   2.620   6.248  2.0822 -1.7563  2.3860
 1612SOL     OW16468   2.492   4.267   8.502  0.1176  0.1467  0.0406
 1612SOL    HW116469   2.492   4.195   8.565 -0.9971 -0.6127 -0.8273
 1612SOL    HW216470   2.471   4.340   8.559 -1.2591  0.0323 -0.3252
 1613SOL     OW16471   2.058   0.179  15.518  0.9056 -0.1569  0.1899
 1613SOL    HW116472   1.989   0.237  15.487  1.4445  0.6214  0.4515
 1613SOL    HW216473   2.086   0.221  15.599 -3.5054  1.6875  0.7417
 1614SOL     OW16474   3.471   3.285  14.792 -0.1949  0.1063  0.4112
 1614SOL    HW116475   3.390   3.304  14.839 -0.9754  0.1458 -0.9466
 1614SOL    HW216476   3.469   3.331  14.708 -1.5115  0.9251  0.8932
 1615SOL     OW16477   3.664   1.765   9.268  0.5179  0.2712  0.3587
 1615SOL    HW116478   3.607   1.838   9.244 -2.6007 -1.4356  2.5939
 1615SOL    HW216479   3.736   1.771   9.205  0.2128  2.6461  0.2528
 1616SOL     OW16480   0.559   3.842   6.059 -0.2608 -0.0171 -0.2960
 1616SOL    HW116481   0.502   3.766   6.065  0.5879 -0.6239  0.0830
 1616SOL    HW216482   0.520   3.901   6.123 -1.3650 -1.2501  0.1593
 1617SOL     OW16483   0.150   3.423  13.938  0.5282 -0.7635  0.4478
 1617SOL    HW116484   0.233   3.391  13.904  0.3258 -1.3337  0.4836
 1617SOL    HW216485   0.173   3.440  14.030 -1.8637 -0.7454  1.0400
 1618SOL     OW16486   3.104   0.599   1.828  0.2254  0.0220 -0.5512
 1618SOL    HW116487   3.012   0.615   1.851  0.9329  1.2805  1.3555
 1618SOL    HW216488   3.124   0.693   1.831 -0.4685  0.0595  2.4722
 1619SOL     OW16489   1.376   2.186   7.122 -0.0502  0.1344  0.2800
 1619SOL    HW116490   1.452   2.127   7.116 -0.5056 -0.2594 -1.6807
 1619SOL    HW216491   1.342   2.188   7.032  0.6470 -0.8387 -0.0036
 1620SOL     OW16492   3.034   3.641   4.016 -0.2840 -0.3889 -0.2652
 1620SOL    HW116493   3.082   3.705   4.069  1.3670  0.1488 -2.3904
 1620SOL    HW216494   2.986   3.702   3.960 -0.2995 -1.0441 -0.9618
 1621SOL     OW16495   1.253   3.273   2.760  0.3021  0.8214 -0.1572
 1621SOL    HW116496   1.170   3.253   2.716  1.4309 -1.0385 -1.4298
 1621SOL    HW216497   1.296   3.188   2.759 -1.4450 -0.0527 -0.4952
 1622SOL     OW16498   3.182   2.870   6.263 -0.5376 -0.8760  0.2663
 1622SOL    HW116499   3.230   2.792   6.235  2.2782  1.0085 -0.0445
 1622SOL    HW216500   3.158   2.901   6.176 -1.6705 -0.1128  0.8596
 1623SOL     OW16501   2.324   3.785   7.853 -0.5993 -0.2626  0.1937
 1623SOL    HW116502   2.317   3.878   7.830  1.0890 -0.0932  0.3980
 1623SOL    HW216503   2.230   3.771   7.865  0.2144 -3.7454  2.3014
 1624SOL     OW16504   1.113   1.058  17.211 -0.1753 -0.1340 -0.8400
 1624SOL    HW116505   1.174   1.058  17.137  1.1827  1.4049  0.3013
 1624SOL    HW216506   1.161   1.104  17.279 -0.8529 -0.5146 -0.1000
 1625SOL     OW16507   3.777   3.186   8.864  0.5878 -0.4453 -0.1153
 1625SOL    HW116508   3.779   3.103   8.910  0.7537  0.1057  0.8723
 1625SOL    HW216509   3.695   3.171   8.816  1.1042  1.8739 -1.7340
 1626SOL     OW16510   0.066   3.268   4.243 -0.1857 -0.0124 -0.2255
 1626SOL    HW116511   0.083   3.355   4.208  2.1863  0.7607  2.8474
 1626SOL    HW216512   0.131   3.212   4.203 -1.4313 -0.5096 -1.5553
 1627SOL     OW16513   1.279   0.828   5.414 -0.5040  0.0224 -0.5504
 1627SOL    HW116514   1.270   0.884   5.337 -1.1289 -3.2190 -2.8176
 1627SOL    HW216515   1.341   0.763   5.382  0.5488  1.7263 -1.9615
 1628SOL     OW16516   1.833   0.170   6.252  0.6118  0.3004 -0.3846
 1628SOL    HW116517   1.918   0.214   6.254 -0.2243  1.8086  1.0739
 1628SOL    HW216518   1.806   0.201   6.338  0.9117 -0.8072  0.0972
 1629SOL     OW16519   1.050   0.131   8.728  0.4394 -0.2915  0.2756
 1629SOL    HW116520   0.957   0.115   8.710  0.4453 -0.1186  0.0892
 1629SOL    HW216521   1.073   0.148   8.637 -0.0492 -0.0273  0.1950
 1630SOL     OW16522   3.553   2.670  15.712 -0.1993 -0.8858  0.3744
 1630SOL    HW116523   3.582   2.757  15.686 -0.9554 -0.1861  1.8044
 1630SOL    HW216524   3.486   2.650  15.647 -0.3316 -1.3235  0.6481
 1631SOL     OW16525   4.334   3.944   3.989  0.4793  0.3931 -0.2945
 1631SOL    HW116526   4.389   4.006   4.037 -0.7437  1.0430  0.2600
 1631SOL    HW216527   4.328   3.982   3.902  0.7859  2.3821  0.5644
 1632SOL     OW16528   2.741   3.834   2.612 -0.0692  0.2588  0.2063
 1632SOL    HW116529   2.667   3.842   2.672 -0.0293 -0.6073  0.3684
 1632SOL    HW216530   2.710   3.760   2.560  2.6822 -1.0347  0.3995
 1633SOL     OW16531   4.523   0.363   3.188  0.0879 -0.3211  0.2142
 1633SOL    HW116532   4.555   0.452   3.199 -0.8191  0.1383 -0.9075
 1633SOL    HW216533   4.560   0.316   3.263 -0.6989 -1.5704 -0.1788
 1634SOL     OW16534   1.341   1.123  17.025  0.2201  0.2934 -0.3755
 1634SOL    HW116535   1.375   1.137  16.937  0.3645  0.5282 -0.2833
 1634SOL    HW216536   1.374   1.204  17.063  1.3182 -0.7989  1.0001
 1635SOL     OW16537   3.079   2.882  11.023  0.2357 -0.3901  0.2861
 1635SOL    HW116538   3.028   2.808  11.055  0.7740 -0.4984  0.9178
 1635SOL    HW216539   3.041   2.953  11.075  2.7751 -1.6058  3.8340
 1636SOL     OW16540   1.343   0.611   8.289 -0.2548 -0.0976  0.0006
 1636SOL    HW116541   1.412   0.626   8.353 -1.2572 -0.9200  1.2997
 1636SOL    HW216542   1.273   0.568   8.340 -0.4232  1.0382  0.7242
 1637SOL     OW16543   2.010   2.818  13.447 -0.2186  0.4087 -0.4932
 1637SOL    HW116544   1.980   2.867  13.523  1.0684 -0.9276  0.8780
 1637SOL    HW216545   2.076   2.877  13.410  0.9771 -2.0906 -2.3230
 1638SOL     OW16546   1.950   3.534   5.954  0.1276  0.3441 -0.4073
 1638SOL    HW116547   2.039   3.501   5.941 -0.4587 -0.9437 -1.2447
 1638SOL    HW216548   1.956   3.618   5.909 -0.5294  0.5390 -0.1340
 1639SOL     OW16549   0.390   2.731  16.880 -0.0297 -0.1687  0.3300
 1639SOL    HW116550   0.359   2.650  16.839 -4.2054  2.2858 -1.3338
 1639SOL    HW216551   0.306   2.767  16.908 -1.6915 -2.4528 -1.7736
 1640SOL     OW16552   3.811   3.831   1.113 -0.2354  0.6474 -0.2790
 1640SOL    HW116553   3.726   3.874   1.124  0.0774  1.2093 -0.0992
 1640SOL    HW216554   3.858   3.893   1.058  0.2254 -1.6155 -2.4248
 1641SOL     OW16555   0.911   3.665   3.635 -0.5995  0.0359  0.1000
 1641SOL    HW116556   0.867   3.692   3.554 -0.6539 -2.1148 -0.5919
 1641SOL    HW216557   0.858   3.589   3.658  0.3689 -0.0812  1.9448
 1642SOL     OW16558   1.885   0.528   1.967 -0.3354  0.2919 -0.4190
 1642SOL    HW116559   1.835   0.609   1.979  1.7155  1.4101  0.3792
 1642SOL    HW216560   1.835   0.493   1.892 -3.0170 -0.0155  1.5215
 1643SOL     OW16561   0.519   3.912   6.533  0.1568 -0.1367 -0.4535
 1643SOL    HW116562   0.563   3.997   6.533 -0.5077  0.2146  0.6282
 1643SOL    HW216563   0.506   3.906   6.628 -1.8545  0.5244 -0.6960
 1644SOL     OW16564   2.852   3.484   3.102  0.4187 -0.1576  0.1979
 1644SOL    HW116565   2.778   3.477   3.163 -3.9339  0.7784 -4.9022
 1644SOL    HW216566   2.831   3.402   3.056  0.0839 -0.2459  0.5088
 1645SOL     OW16567   1.678   3.320   1.968 -0.6194  0.1158 -0.9469
 1645SOL    HW116568   1.641   3.402   1.935 -0.7893 -0.1189 -1.3446
 1645SOL    HW216569   1.627   3.247   1.934 -1.3133 -0.5866  1.5848
 1646SOL     OW16570   2.738   0.858   8.400  0.3936 -0.5069  0.5039
 1646SOL    HW116571   2.713   0.780   8.450  0.0096 -0.5468  0.2461
 1646SOL    HW216572   2.829   0.835   8.381  0.0396 -2.1795  0.8330
 1647SOL     OW16573   2.022   0.626   0.218  0.0795 -0.4206 -0.0294
 1647SOL    HW116574   2.046   0.536   0.195  0.6222 -0.6943  1.6630
 1647SOL    HW216575   1.933   0.628   0.254 -0.6235 -1.1951 -1.7118
 1648SOL     OW16576   3.732   0.829   7.740  0.0628 -0.6733  0.2455
 1648SOL    HW116577   3.662   0.880   7.781  1.6960  0.8937  1.1165
 1648SOL    HW216578   3.747   0.881   7.661 -1.4266  0.6692  0.8567
 1649SOL     OW16579   1.484   0.318   9.528 -0.3470 -0.6009 -0.0708
 1649SOL    HW116580   1.449   0.257   9.463  0.8220 -0.8993 -0.4121
 1649SOL    HW216581   1.474   0.402   9.483 -2.8833  0.3116  2.2018
 1650SOL     OW16582   1.699   0.738  12.839 -0.3488  0.4131 -0.2252
 1650SOL    HW116583   1.783   0.774  12.809  0.3892 -0.9431  0.1982
 1650SOL    HW216584   1.635   0.767  12.775  1.7658  1.9714 -1.6481
 1651SOL     OW16585   1.473   4.304   1.265  0.0677 -0.6403  0.1941
 1651SOL    HW116586   1.565   4.320   1.288 -0.1997  0.1353  0.7422
 1651SOL    HW216587   1.491   4.231   1.206  0.8126 -0.1372 -0.2054
 1652SOL     OW16588   3.438   3.440  16.709  0.3415  0.8862 -0.4100
 1652SOL    HW116589   3.480   3.436  16.794 -2.2565  2.3304  0.9394
 1652SOL    HW216590   3.501   3.420  16.639  2.2090 -1.4609  1.9511
 1653SOL     OW16591   2.807   0.221  16.402  0.7103  0.2836  0.0080
 1653SOL    HW116592   2.860   0.159  16.352 -0.7746 -1.2570  0.3452
 1653SOL    HW216593   2.794   0.167  16.480 -1.0276  4.0058  2.3008
 1654SOL     OW16594   1.776   2.898   4.450  0.4904  0.0704  0.4579
 1654SOL    HW116595   1.869   2.888   4.434  0.8654  3.0568  0.7453
 1654SOL    HW216596   1.749   2.809   4.469  0.4843 -0.2316 -1.0237
 1655SOL     OW16597   3.529   4.101   4.328 -0.5757 -0.1467  0.8779
 1655SOL    HW116598   3.466   4.047   4.375 -0.9482 -0.1266  0.4026
 1655SOL    HW216599   3.506   4.186   4.366  0.2829  0.2839  0.4238
 1656SOL     OW16600   1.266   1.812   7.954 -0.0398 -0.3367  0.0895
 1656SOL    HW116601   1.307   1.895   7.981 -2.6187  1.7151 -2.3085
 1656SOL    HW216602   1.310   1.800   7.870  1.1977  0.7639  0.5765
 1657SOL     OW16603   0.829   1.566   6.508 -0.0956 -0.1095 -0.1851
 1657SOL    HW116604   0.792   1.550   6.595  0.9959 -0.5476  0.1909
 1657SOL    HW216605   0.853   1.483   6.467 -1.5557  0.0598 -1.4244
 1658SOL     OW16606   1.542   2.879  15.059  0.4832  0.0365  0.1416
 1658SOL    HW116607   1.566   2.811  15.123  2.4118  1.4186  0.8883
 1658SOL    HW216608   1.446   2.878  15.059  0.4982 -0.8901  0.1409
 1659SOL     OW16609   0.583   2.590   4.676  0.7759 -0.2136  0.1545
 1659SOL    HW116610   0.592   2.673   4.628  0.2149 -2.1265 -3.2891
 1659SOL    HW216611   0.646   2.599   4.746 -0.1668 -0.7958  1.0776
 1660SOL     OW16612   3.605   3.194   5.956 -0.5952 -0.7974 -0.2303
 1660SOL    HW116613   3.622   3.280   5.919 -0.0224 -0.9335 -0.2876
 1660SOL    HW216614   3.650   3.134   5.897 -1.0966 -1.9953  0.6091
 1661SOL     OW16615   3.274   1.877   0.701 -0.0091  0.0951 -0.0603
 1661SOL    HW116616   3.335   1.945   0.672  2.9847 -1.6052  2.2264
 1661SOL    HW216617   3.324   1.797   0.680 -0.0596 -0.0504  0.3836
 1662SOL     OW16618   3.428   4.303  12.796 -0.4987  0.2661 -0.1839
 1662SOL    HW116619   3.379   4.330  12.874 -0.0398  0.8587 -0.0989
 1662SOL    HW216620   3.508   4.272  12.838 -0.5669  0.7575  0.3090
 1663SOL     OW16621   0.822   1.815   8.724 -0.1015 -0.0028  0.6691
 1663SOL    HW116622   0.850   1.728   8.750  1.9130  1.0538  2.0473
 1663SOL    HW216623   0.749   1.832   8.783  1.0664 -0.2534  2.1859
 1664SOL     OW16624   4.075   1.532   6.127 -0.0376  0.0590 -0.3209
 1664SOL    HW116625   4.121   1.594   6.183 -0.8042 -0.3443  0.7568
 1664SOL    HW216626   3.993   1.519   6.173  0.7893 -0.7904  0.9098
 1665SOL     OW16627   3.856   2.116   7.617  0.2875  0.3971  0.1386
 1665SOL    HW116628   3.923   2.058   7.653  1.9785  1.7288 -0.8528
 1665SOL    HW216629   3.906   2.197   7.606  0.3567  0.1090 -1.7247
 1666SOL     OW16630   2.222   4.490   1.973  0.4221  0.0253 -0.0143
 1666SOL    HW116631   2.247   4.419   2.031 -2.4244 -0.5808  0.4649
 1666SOL    HW216632   2.175   4.550   2.032 -0.8036 -0.3339 -0.6254
 1667SOL     OW16633   3.193   0.667   0.677  0.3917 -0.5158  0.4887
 1667SOL    HW116634   3.108   0.701   0.651  0.6260 -1.0667 -1.0079
 1667SOL    HW216635   3.259   0.722   0.634 -0.2991 -0.3099 -0.3122
 1668SOL     OW16636   2.618   2.038   8.291 -0.1097  0.1248 -0.9419
 1668SOL    HW116637   2.525   2.015   8.300 -0.8444  2.6736 -1.9326
 1668SOL    HW216638   2.632   2.101   8.362 -0.9383  0.5914 -1.1876
 1669SOL     OW16639   3.403   4.064   5.082 -0.0273  0.1152 -0.4349
 1669SOL    HW116640   3.460   4.138   5.104  1.0323 -0.3170 -1.7451
 1669SOL    HW216641   3.357   4.051   5.165 -0.6413  0.9328 -0.6497
 1670SOL     OW16642   1.215   1.781   7.441  0.6104  0.6163 -0.0123
 1670SOL    HW116643   1.211   1.867   7.400 -0.5041 -0.3827 -2.0217
 1670SOL    HW216644   1.126   1.769   7.474  0.2499 -0.9570 -1.5606
 1671SOL     OW16645   0.254   2.730   4.038  0.3905  0.1100 -0.4028
 1671SOL    HW116646   0.310   2.751   4.113 -1.3300  0.7639  0.7010
 1671SOL    HW216647   0.215   2.809   4.000  0.6695  0.3664 -0.1515
 1672SOL     OW16648   0.899   2.178   2.169  0.1609 -0.5906 -0.0640
 1672SOL    HW116649   0.950   2.244   2.215  0.2613 -0.3680 -0.4924
 1672SOL    HW216650   0.843   2.236   2.117  0.3595  0.5053  0.9372
 1673SOL     OW16651   1.406   4.166   2.881 -0.3394 -0.1011 -0.2651
 1673SOL    HW116652   1.403   4.220   2.802 -2.0797  0.7470  0.3900
 1673SOL    HW216653   1.363   4.084   2.857 -0.3713  0.0018 -0.5588
 1674SOL     OW16654   1.257   0.192   3.510  0.4812  0.4898  0.1363
 1674SOL    HW116655   1.297   0.139   3.441 -0.4710  1.3445 -1.0835
 1674SOL    HW216656   1.327   0.255   3.527  0.6932  0.0825  0.7702
 1675SOL     OW16657   0.065   2.589   6.075 -0.1113  0.1388 -0.2510
 1675SOL    HW116658   0.158   2.577   6.090  0.0872  0.8782 -0.9009
 1675SOL    HW216659   0.044   2.663   6.133 -0.5890  1.4724 -2.1370
 1676SOL     OW16660   3.631   4.062   2.991 -0.3441  0.0002  0.3013
 1676SOL    HW116661   3.698   4.068   2.924 -0.1661  2.1065  0.6883
 1676SOL    HW216662   3.569   4.114   2.941  0.0293  0.7448  0.6251
 1677SOL     OW16663   3.640   4.317  11.167 -0.0255  0.2144 -0.5473
 1677SOL    HW116664   3.614   4.387  11.107  1.8108  1.2599 -0.1417
 1677SOL    HW216665   3.664   4.254  11.099 -2.0680 -1.5503  0.3745
 1678SOL     OW16666   3.694   2.056   1.346  0.2783 -0.0494  0.3863
 1678SOL    HW116667   3.617   2.090   1.300  0.5046 -0.5646 -0.3661
 1678SOL    HW216668   3.761   2.122   1.328  0.1706  0.4993  2.0094
 1679SOL     OW16669   0.423   1.134   1.674 -0.1648 -0.0511 -0.2441
 1679SOL    HW116670   0.478   1.211   1.660 -0.3424  0.2185  0.5399
 1679SOL    HW216671   0.414   1.090   1.589 -2.1477 -2.4331  1.2089
 1680SOL     OW16672   4.358   3.394   8.618  0.3883  0.4002  0.2343
 1680SOL    HW116673   4.283   3.355   8.663 -0.7095 -0.3892 -2.2791
 1680SOL    HW216674   4.322   3.481   8.601  3.3966  1.6204  0.0819
 1681SOL     OW16675   1.945   3.187   6.792  0.1859 -0.0799  0.0612
 1681SOL    HW116676   2.033   3.194   6.828 -0.3464  1.0749  1.1047
 1681SOL    HW216677   1.975   3.198   6.701 -0.6977 -0.2681 -0.2504
 1682SOL     OW16678   1.833   3.701   3.595  0.4658 -0.2624 -0.2565
 1682SOL    HW116679   1.789   3.630   3.547 -2.0475  3.1521 -2.9605
 1682SOL    HW216680   1.905   3.647   3.627  1.3087  2.1867  1.9003
 1683SOL     OW16681   2.793   3.795   1.816 -0.0647  0.2130 -0.7027
 1683SOL    HW116682   2.797   3.827   1.726 -0.8711  2.1334 -0.0537
 1683SOL    HW216683   2.865   3.733   1.827  0.3985  1.2436  2.0496
 1684SOL     OW16684   2.317   0.996   7.489  0.1952  0.5160 -0.2720
 1684SOL    HW116685   2.290   1.047   7.413  0.5207 -1.2803 -1.5872
 1684SOL    HW216686   2.255   0.924   7.472  0.7560  0.3292 -1.4817
 1685SOL     OW16687   3.458   3.973   9.096  0.1159 -0.1197 -0.1085
 1685SOL    HW116688   3.515   3.943   9.167  2.7745 -0.3347 -2.3368
 1685SOL    HW216689   3.519   4.040   9.066 -1.5740  1.5581  0.2029
 1686SOL     OW16690   0.646   2.595  10.551 -0.3973 -0.2719 -0.2631
 1686SOL    HW116691   0.600   2.614  10.469 -0.9454  0.6991  0.2707
 1686SOL    HW216692   0.704   2.671  10.555 -0.4784 -0.2313  0.0955
 1687SOL     OW16693   0.660   2.265   4.349 -0.3312 -0.2441  0.0161
 1687SOL    HW116694   0.704   2.315   4.417  2.3705 -1.6826 -0.6892
 1687SOL    HW216695   0.731   2.201   4.348 -0.5533 -0.4952  0.3683
 1688SOL     OW16696   2.516   1.429  13.834  0.1720 -0.0018 -0.2565
 1688SOL    HW116697   2.539   1.432  13.742 -1.5390 -2.3434 -0.7749
 1688SOL    HW216698   2.584   1.375  13.874 -0.5011 -0.1773  0.6719
 1689SOL     OW16699   2.919   3.892   1.563 -0.0402 -0.2203  0.3794
 1689SOL    HW116700   2.943   3.973   1.518 -1.0706 -0.9506 -1.4728
 1689SOL    HW216701   2.987   3.837   1.523  1.0675 -0.4612  2.6006
 1690SOL     OW16702   2.156   3.582   1.041 -0.2415 -0.3416  0.0970
 1690SOL    HW116703   2.171   3.676   1.050 -0.2816 -0.0117 -3.2490
 1690SOL    HW216704   2.235   3.552   0.996 -1.7880  0.6496 -3.2898
 1691SOL     OW16705   4.392   0.857   5.240 -0.3257 -0.0489  0.2211
 1691SOL    HW116706   4.427   0.770   5.259 -0.8294 -0.5357 -1.0185
 1691SOL    HW216707   4.452   0.872   5.167 -0.7763  2.3734  0.3782
 1692SOL     OW16708   4.548   0.514  13.947  0.1559 -0.7016  0.7828
 1692SOL    HW116709   4.513   0.596  13.983  0.5207 -0.1678 -0.0826
 1692SOL    HW216710   4.525   0.454  14.018 -1.8499 -0.4541  0.3502
 1693SOL     OW16711   1.375   2.956   6.414 -0.1075  0.8001 -0.3753
 1693SOL    HW116712   1.325   2.888   6.460 -1.9398  1.9026 -0.7270
 1693SOL    HW216713   1.461   2.918   6.428  0.2883  1.8534  0.0693
 1694SOL     OW16714   4.442   3.546   3.126 -0.1871 -0.1650 -0.3321
 1694SOL    HW116715   4.459   3.553   3.220  2.2899 -0.6634 -0.7565
 1694SOL    HW216716   4.363   3.492   3.124  0.8857 -1.7456 -0.1612
 1695SOL     OW16717   3.111   0.552  11.403 -0.0290 -0.4318 -0.0069
 1695SOL    HW116718   3.183   0.493  11.379 -0.0385 -0.5127  0.1613
 1695SOL    HW216719   3.040   0.504  11.361 -0.0835  1.3199 -1.8867
 1696SOL     OW16720   2.982   3.392   6.945  0.3933  0.0088 -0.0554
 1696SOL    HW116721   2.990   3.311   6.996  0.9292  0.1800  0.1385
 1696SOL    HW216722   2.936   3.445   7.011  1.8177 -0.1874  1.1006
 1697SOL     OW16723   1.237   4.176   9.412 -0.0365 -0.1839  0.2543
 1697SOL    HW116724   1.162   4.118   9.401 -0.7630  0.4629  1.7440
 1697SOL    HW216725   1.303   4.141   9.353  1.1750  0.0859  1.4507
 1698SOL     OW16726   2.157   3.328   4.849  0.4173  0.1352  0.3009
 1698SOL    HW116727   2.206   3.403   4.816 -0.1538  0.2155 -0.3656
 1698SOL    HW216728   2.093   3.369   4.908 -0.7989  0.2739 -1.1132
 1699SOL     OW16729   0.927   1.786  15.220  0.0646  0.3041 -0.1212
 1699SOL    HW116730   0.976   1.846  15.163  0.6235  1.5762  1.7201
 1699SOL    HW216731   0.854   1.839  15.249  2.5043  3.8377 -0.4446
 1700SOL     OW16732   1.633   4.606   9.966  0.2938  0.3132 -0.4200
 1700SOL    HW116733   1.543   4.599   9.997  1.4250 -1.0633  2.5926
 1700SOL    HW216734   1.669   4.573  10.048 -2.9813 -1.1370  0.4504
 1701SOL     OW16735   3.175   2.732  15.243  0.2841 -0.0877  0.4945
 1701SOL    HW116736   3.161   2.782  15.163 -0.1427 -3.5067 -1.5744
 1701SOL    HW216737   3.163   2.644  15.207 -0.1580 -0.0248  0.4943
 1702SOL     OW16738   2.097   4.005   3.192 -0.3030  0.0510  0.2664
 1702SOL    HW116739   2.028   3.968   3.247  1.7589 -0.8188  2.2452
 1702SOL    HW216740   2.121   3.927   3.141  1.1327  2.0218 -2.0845
 1703SOL     OW16741   0.924   0.804   4.647 -0.2014  0.0576 -0.0412
 1703SOL    HW116742   0.999   0.863   4.648 -0.3588  0.2744 -1.0573
 1703SOL    HW216743   0.936   0.769   4.559 -0.2222  0.5057 -0.2255
 1704SOL     OW16744   3.348   3.674   2.833  0.1612  0.0320  0.5098
 1704SOL    HW116745   3.266   3.688   2.785  1.3218  1.1593 -1.1420
 1704SOL    HW216746   3.410   3.720   2.776  0.7435 -0.4816  0.7388
 1705SOL     OW16747   3.047   0.420   2.265  0.6234 -0.5224 -0.0490
 1705SOL    HW116748   3.053   0.371   2.183  1.9077 -1.2383  0.4702
 1705SOL    HW216749   3.076   0.363   2.337 -0.3178  1.0667  1.5991
 1706SOL     OW16750   1.278   3.303   9.857 -0.1667  0.0274  0.6544
 1706SOL    HW116751   1.370   3.314   9.833  0.2329  0.0345  2.1617
 1706SOL    HW216752   1.264   3.353   9.937  0.4769 -1.8654  1.9637
 1707SOL     OW16753   1.748   4.509  11.206 -0.1647 -0.6013  0.1199
 1707SOL    HW116754   1.811   4.554  11.150  0.5932 -2.6881 -0.6730
 1707SOL    HW216755   1.669   4.510  11.153 -1.5479 -1.6319  2.1457
 1708SOL     OW16756   4.408   3.123   9.043 -0.0655  0.4314 -0.2985
 1708SOL    HW116757   4.344   3.085   8.983 -0.6533 -0.6416  1.0002
 1708SOL    HW216758   4.387   3.216   9.051  1.2217  0.7688 -0.8937
 1709SOL     OW16759   3.750   2.956   4.978  0.3957 -0.2879  0.1649
 1709SOL    HW116760   3.734   2.862   4.976 -2.4024  0.1642  1.8348
 1709SOL    HW216761   3.845   2.965   4.991  0.3595  1.8745 -1.0556
 1710SOL     OW16762   4.495   3.164   9.811 -0.0188  0.2407 -0.5305
 1710SOL    HW116763   4.498   3.250   9.852 -1.2709 -0.2102  0.4934
 1710SOL    HW216764   4.400   3.155   9.807  0.1547 -2.3488  1.2807
 1711SOL     OW16765   4.218   0.228  17.074 -0.2113 -0.6375  0.1368
 1711SOL    HW116766   4.171   0.288  17.016 -0.1892  1.4306  2.2257
 1711SOL    HW216767   4.247   0.172  17.003  0.2946 -0.6552  0.3556
 1712SOL     OW16768   0.893   0.220  11.117  0.1704  0.0596  0.2369
 1712SOL    HW116769   0.922   0.312  11.112 -0.2893  0.1069 -1.3572
 1712SOL    HW216770   0.869   0.202  11.027  2.0799  0.0467 -0.2701
 1713SOL     OW16771   2.813   1.015   2.843  0.2331  0.0540  0.1547
 1713SOL    HW116772   2.864   0.937   2.866  0.7601  0.8469  1.6913
 1713SOL    HW216773   2.760   1.034   2.921 -2.4213 -1.3698 -1.2688
 1714SOL     OW16774   2.872   0.500   1.574  0.1117  0.9281 -0.3965
 1714SOL    HW116775   2.946   0.441   1.576  0.5366  1.5453  1.9971
 1714SOL    HW216776   2.919   0.573   1.535 -1.5078  1.5438 -1.2126
 1715SOL     OW16777   1.644   2.545   4.857 -0.0423  0.0242  0.3685
 1715SOL    HW116778   1.582   2.562   4.786 -0.1768  0.7571  0.6657
 1715SOL    HW216779   1.684   2.632   4.862 -1.3684  0.6282  0.5197
 1716SOL     OW16780   0.817   3.467  16.986  0.1643 -0.1390  0.2000
 1716SOL    HW116781   0.817   3.562  16.974 -1.0225 -0.3361 -1.3301
 1716SOL    HW216782   0.867   3.443  16.908  2.3294  2.0939  0.8786
 1717SOL     OW16783   4.553   4.402   5.925 -0.5216 -0.0439 -0.6686
 1717SOL    HW116784   4.599   4.427   5.845  1.4033  1.5885  0.9344
 1717SOL    HW216785   4.493   4.473   5.945  1.5200  1.5175 -0.0820
 1718SOL     OW16786   3.496   3.553  14.658  0.4167  0.1843  0.0491
 1718SOL    HW116787   3.530   3.489  14.595  0.6880 -0.4966  0.8834
 1718SOL    HW216788   3.408   3.560  14.622  0.0610  0.6527  1.0040
 1719SOL     OW16789   0.341   3.521  13.081  0.1964  0.6133  0.6016
 1719SOL    HW116790   0.270   3.483  13.030  1.3166 -2.6782  1.5151
 1719SOL    HW216791   0.301   3.601  13.115 -1.2349 -0.2047  0.8291
 1720SOL     OW16792   2.372   3.905  12.215  0.3871 -0.0853  0.1525
 1720SOL    HW116793   2.358   3.998  12.196  0.6843  0.2425  1.5238
 1720SOL    HW216794   2.424   3.917  12.294  0.0835  0.1934  0.3137
 1721SOL     OW16795   1.452   4.019   0.818 -0.5954 -0.1058  0.2381
 1721SOL    HW116796   1.472   3.925   0.814  0.2439  0.0862 -0.1282
 1721SOL    HW216797   1.410   4.027   0.732  1.4043  0.3409 -0.7145
 1722SOL     OW16798   1.898   2.082   1.034 -0.3346  0.3946 -0.6198
 1722SOL    HW116799   1.928   2.127   1.113  1.0734  1.5274 -1.7887
 1722SOL    HW216800   1.911   1.989   1.048 -0.4159  0.6165  0.8873
 1723SOL     OW16801   0.485   2.558   2.854  0.2828  0.2871  0.0407
 1723SOL    HW116802   0.489   2.567   2.758  2.2838 -1.4808 -0.0350
 1723SOL    HW216803   0.552   2.490   2.862 -1.0904 -1.0790 -0.0996
 1724SOL     OW16804   0.824   0.407   5.238 -0.0531 -0.2347 -0.3031
 1724SOL    HW116805   0.880   0.456   5.178 -2.6268  1.2674 -1.4802
 1724SOL    HW216806   0.737   0.419   5.198  1.1415  1.6214 -2.3714
 1725SOL     OW16807   2.396   3.222   7.596 -0.3247 -0.0904  0.0744
 1725SOL    HW116808   2.423   3.225   7.505 -0.2460 -1.8031  0.0420
 1725SOL    HW216809   2.413   3.309   7.634  0.7746 -1.0045  1.6506
 1726SOL     OW16810   1.239   1.841   3.536  0.8463  0.1370  0.4129
 1726SOL    HW116811   1.323   1.887   3.534 -0.1558  1.9192 -1.3869
 1726SOL    HW216812   1.186   1.896   3.594  0.3305  0.2382 -0.1394
 1727SOL     OW16813   3.380   1.025   2.706 -0.3892 -0.2520  0.1222
 1727SOL    HW116814   3.348   1.066   2.625 -2.7881 -1.0594  0.6589
 1727SOL    HW216815   3.297   0.989   2.737 -0.7115  0.1192 -0.3075
 1728SOL     OW16816   4.117   3.968   8.507  0.5785  0.1314  0.0897
 1728SOL    HW116817   4.036   3.919   8.490 -2.0609  4.2266  0.8480
 1728SOL    HW216818   4.159   3.903   8.564  1.9227 -0.6113 -1.7568
 1729SOL     OW16819   3.384   4.285  11.273 -0.2432 -0.5073 -0.1072
 1729SOL    HW116820   3.466   4.270  11.225 -0.1715 -1.0350  0.1793
 1729SOL    HW216821   3.405   4.235  11.352  1.3086  2.9558  1.6639
 1730SOL     OW16822   2.616   4.155   7.511 -0.0417 -0.3237 -0.1451
 1730SOL    HW116823   2.657   4.157   7.597  0.2783  0.5539 -0.3278
 1730SOL    HW216824   2.554   4.227   7.524 -0.7165 -0.9315  0.0592
 1731SOL     OW16825   1.663   0.094   5.116  0.7196 -0.5868  0.3805
 1731SOL    HW116826   1.599   0.110   5.185  0.8786  2.3514 -0.1504
 1731SOL    HW216827   1.680   0.176   5.069  0.7626 -0.0875  1.2738
 1732SOL     OW16828   4.579   1.640   2.753 -0.7089 -0.7146 -0.4692
 1732SOL    HW116829   4.517   1.569   2.735 -0.9270 -0.9490  1.2201
 1732SOL    HW216830   4.585   1.698   2.677  0.5734 -0.8399 -0.4643
 1733SOL     OW16831   2.809   2.024   3.279  0.4507 -0.3362  0.3647
 1733SOL    HW116832   2.771   1.945   3.241  0.9948  0.2856 -1.4642
 1733SOL    HW216833   2.862   1.976   3.342  0.0734 -1.8788 -0.5130
 1734SOL     OW16834   2.955   1.977   7.977  0.0311  0.1077 -0.2206
 1734SOL    HW116835   3.010   1.954   8.053 -1.2608 -2.4464 -0.0454
 1734SOL    HW216836   3.020   1.989   7.909  0.9315 -0.7011  0.4855
 1735SOL     OW16837   3.182   1.174   3.889 -0.1915 -0.2894 -0.1318
 1735SOL    HW116838   3.239   1.165   3.966 -2.3728 -2.1241  1.2593
 1735SOL    HW216839   3.123   1.241   3.924 -2.3828 -0.8183 -2.8652
 1736SOL     OW16840   0.645   3.331   5.657 -0.2674  0.0439 -0.4161
 1736SOL    HW116841   0.553   3.305   5.659 -0.4079  0.8660  2.4284
 1736SOL    HW216842   0.663   3.378   5.575  1.5783  0.7958  0.3997
 1737SOL     OW16843   2.047   3.951   6.530  0.2482  0.1148 -0.1918
 1737SOL    HW116844   2.004   3.876   6.489  1.8828  0.1326 -1.9677
 1737SOL    HW216845   2.004   4.020   6.479  1.0842  0.4668 -0.4187
 1738SOL     OW16846   1.927   4.642   8.464 -0.2995 -0.2594 -0.2929
 1738SOL    HW116847   1.895   4.699   8.394  0.1501  0.3326 -0.0119
 1738SOL    HW216848   1.983   4.701   8.514  0.0250 -0.1326 -0.8084
 1739SOL     OW16849   2.165   1.497   9.428 -0.1868  0.6871 -0.1740
 1739SOL    HW116850   2.084   1.451   9.408 -1.0707  2.4935 -0.7108
 1739SOL    HW216851   2.162   1.507   9.523 -0.3028  1.2052 -0.2335
 1740SOL     OW16852   1.121   0.457   2.844  0.5587  0.7605  0.9641
 1740SOL    HW116853   1.212   0.432   2.860  0.8317  1.7345  0.9233
 1740SOL    HW216854   1.094   0.372   2.812  2.7575  0.1473  0.7121
 1741SOL     OW16855   2.179   2.573   4.004 -0.1462 -0.1828 -0.2499
 1741SOL    HW116856   2.094   2.615   4.012 -0.5908 -1.3006  0.8696
 1741SOL    HW216857   2.233   2.641   4.047  0.9037 -0.8118 -0.5680
 1742SOL     OW16858   3.006   3.904   9.713  0.5389 -0.0830  0.3434
 1742SOL    HW116859   3.082   3.848   9.729  1.2410  0.5069 -0.9370
 1742SOL    HW216860   3.002   3.954   9.794 -0.4247 -0.2554  0.4030
 1743SOL     OW16861   0.775   3.895  14.404 -0.6325  0.0022 -0.1052
 1743SOL    HW116862   0.729   3.870  14.485 -0.8976  1.0222  0.0606
 1743SOL    HW216863   0.761   3.815  14.354  0.0017 -0.4365  0.4228
 1744SOL     OW16864   3.097   0.470   4.277  0.3201 -0.0596 -0.2626
 1744SOL    HW116865   3.016   0.480   4.326  0.3480  1.4814 -0.5332
 1744SOL    HW216866   3.110   0.375   4.283  2.7809  0.2117 -1.0180
 1745SOL     OW16867   3.922   3.813   2.163  0.6900 -0.1485  0.0043
 1745SOL    HW116868   3.922   3.798   2.257  0.3974  0.1541  0.0546
 1745SOL    HW216869   4.017   3.806   2.157  0.8900  0.2229  2.8174
 1746SOL     OW16870   1.515   0.558   1.685  0.3000  0.2332 -0.1821
 1746SOL    HW116871   1.437   0.540   1.633  0.9071 -0.3165 -0.9028
 1746SOL    HW216872   1.490   0.638   1.731  0.2907  1.6366 -2.6156
 1747SOL     OW16873   0.863   4.077   7.274 -0.1157 -0.6051 -0.5939
 1747SOL    HW116874   0.809   4.081   7.353  0.4175 -2.2135 -0.1505
 1747SOL    HW216875   0.875   4.172   7.263 -3.0220  0.0224  1.7503
 1748SOL     OW16876   3.713   3.720   4.268  0.7467 -0.5536  0.3510
 1748SOL    HW116877   3.721   3.800   4.319 -0.2861  0.7179 -1.4855
 1748SOL    HW216878   3.778   3.665   4.312 -1.3917 -0.9852  2.9815
 1749SOL     OW16879   4.648   2.813  11.214 -0.8563  0.3967  0.1581
 1749SOL    HW116880   4.610   2.804  11.127 -0.7010  1.5382 -0.0327
 1749SOL    HW216881   4.702   2.735  11.202 -1.3149 -0.1899  1.8274
 1750SOL     OW16882   1.565   1.763   9.100  0.0214  0.4954  0.0283
 1750SOL    HW116883   1.628   1.834   9.110  1.0835 -0.4591  0.1210
 1750SOL    HW216884   1.624   1.710   9.046 -1.6398 -0.0090 -1.2985
 1751SOL     OW16885   1.256   0.036   7.867  0.3591 -0.1722 -0.8739
 1751SOL    HW116886   1.289   4.683   7.864 -1.1660 -0.7149 -1.7607
 1751SOL    HW216887   1.161   0.030   7.855  0.1153 -0.6938  1.4267
 1752SOL     OW16888   1.677   3.574   8.953 -0.5118  0.3077 -0.2773
 1752SOL    HW116889   1.706   3.648   9.007 -0.2251 -0.1791  0.2358
 1752SOL    HW216890   1.584   3.593   8.944 -0.6254  0.4798  1.3664
 1753SOL     OW16891   3.676   0.086   5.082 -0.2889 -0.8215 -0.5422
 1753SOL    HW116892   3.583   0.107   5.074  0.0834  0.5349 -1.2379
 1753SOL    HW216893   3.699   0.151   5.015  2.1965 -1.5680 -0.4012
 1754SOL     OW16894   0.096   1.412   6.185 -0.0342  0.2721  0.1519
 1754SOL    HW116895   0.073   1.499   6.220 -0.1848 -0.9359  3.0110
 1754SOL    HW216896   0.020   1.390   6.130  0.2944 -0.6350  0.0738
 1755SOL     OW16897   0.031   3.434   9.100  0.3284 -0.2244  1.1782
 1755SOL    HW116898   0.061   3.460   9.013 -3.8112  0.5606 -0.0306
 1755SOL    HW216899   0.017   3.339   9.096  0.5326 -0.1307 -1.7675
 1756SOL     OW16900   2.395   0.588  11.029 -0.0683  0.3837 -0.4317
 1756SOL    HW116901   2.383   0.674  10.989  0.5879  1.1840  1.0786
 1756SOL    HW216902   2.303   0.559  11.027 -0.4933  1.6735  0.6441
 1757SOL     OW16903   0.752   1.191   5.899  0.4383 -0.0515  0.0387
 1757SOL    HW116904   0.763   1.286   5.898  0.6988 -0.0863 -0.4331
 1757SOL    HW216905   0.832   1.158   5.857  1.3354  1.5543  0.4483
 1758SOL     OW16906   1.527   0.170  16.493  0.1854  0.4559 -0.2460
 1758SOL    HW116907   1.437   0.170  16.458 -0.3262  1.3196  1.0851
 1758SOL    HW216908   1.504   0.162  16.585 -0.3250 -0.2042 -0.4295
 1759SOL     OW16909   4.159   3.668  13.676  0.2242 -0.2462  0.1558
 1759SOL    HW116910   4.254   3.669  13.672  0.2438  3.4464  1.2227
 1759SOL    HW216911   4.144   3.753  13.718 -1.0888 -0.8331  0.8848
 1760SOL     OW16912   1.237   1.625   0.655 -0.4801  0.2374  0.2159
 1760SOL    HW116913   1.149   1.595   0.633 -0.8403  2.2782 -1.1262
 1760SOL    HW216914   1.287   1.612   0.574  0.2304 -0.8106  0.8239
 1761SOL     OW16915   2.487   0.950   5.060  0.2397 -0.2319  0.8590
 1761SOL    HW116916   2.420   0.883   5.070 -0.0194 -0.0503  0.3522
 1761SOL    HW216917   2.426   1.014   5.025  2.4536  1.4757  0.0638
 1762SOL     OW16918   0.435   1.782  11.737 -0.4540  0.1743 -0.1246
 1762SOL    HW116919   0.449   1.715  11.803  3.7779  1.8045  0.6299
 1762SOL    HW216920   0.383   1.839  11.793 -0.0156  1.2949 -0.8656
 1763SOL     OW16921   0.305   2.671   9.559  0.2301  0.0878 -0.3720
 1763SOL    HW116922   0.360   2.606   9.514 -2.8166 -1.2514 -2.1118
 1763SOL    HW216923   0.250   2.614   9.613  1.2584 -1.5118 -1.0187
 1764SOL     OW16924   0.107   3.705  10.953 -0.0143  0.4456 -0.0811
 1764SOL    HW116925   0.030   3.707  11.010 -0.4802  2.7371 -0.7932
 1764SOL    HW216926   0.125   3.611  10.959  0.3053  0.6989  2.9346
 1765SOL     OW16927   1.505   0.078  15.154  0.1488 -0.0018 -0.5806
 1765SOL    HW116928   1.422   0.125  15.152 -0.4781 -1.0612  0.8886
 1765SOL    HW216929   1.480   4.723  15.155 -0.6570  0.2138 -0.8561
 1766SOL     OW16930   1.695   4.283   7.306 -0.6714 -0.4417 -0.2118
 1766SOL    HW116931   1.725   4.373   7.297 -0.3673 -0.5649 -0.4205
 1766SOL    HW216932   1.599   4.285   7.312 -0.5492  1.4867  1.1227
 1767SOL     OW16933   4.261   1.153   7.760 -0.1558 -0.0392  0.3697
 1767SOL    HW116934   4.313   1.222   7.802 -2.0290  1.0177  0.9285
 1767SOL    HW216935   4.182   1.197   7.730 -0.6237 -0.4015  1.0730
 1768SOL     OW16936   4.467   1.892   6.299 -0.4495  0.0838 -0.9692
 1768SOL    HW116937   4.489   1.850   6.216  0.3295  1.1159 -1.2765
 1768SOL    HW216938   4.523   1.969   6.304 -1.8778  1.0430  0.5301
 1769SOL     OW16939   4.023   3.518  13.447  0.2284  0.1918 -0.5511
 1769SOL    HW116940   3.961   3.589  13.463 -0.2194  0.3156 -2.7666
 1769SOL    HW216941   3.970   3.442  13.470  0.5783 -0.2012 -1.0484
 1770SOL     OW16942   1.781   4.157   7.059 -0.9282 -0.1444  0.1964
 1770SOL    HW116943   1.696   4.180   7.022 -1.7911 -2.1321  0.9645
 1770SOL    HW216944   1.760   4.197   7.144  0.9233  1.0961  0.0704
 1771SOL     OW16945   3.324   3.973   1.482  0.6744  0.2417  0.1837
 1771SOL    HW116946   3.400   4.004   1.433 -0.0048 -0.0111 -1.0193
 1771SOL    HW216947   3.279   4.055   1.501 -1.3156 -0.5776 -1.0935
 1772SOL     OW16948   2.014   0.143   3.300  0.4396 -0.1082 -0.3059
 1772SOL    HW116949   1.987   0.235   3.295  1.7606  0.3175  0.4123
 1772SOL    HW216950   1.989   0.111   3.387 -0.2721  1.1283 -0.0578
 1773SOL     OW16951   3.248   3.141   6.838 -0.2822  0.2980 -0.2012
 1773SOL    HW116952   3.219   3.050   6.827  1.3525  0.0271 -2.2183
 1773SOL    HW216953   3.342   3.131   6.828 -0.1510  2.5800 -1.2081
 1774SOL     OW16954   2.075   0.354   2.428 -0.6125 -0.5831  0.5019
 1774SOL    HW116955   2.161   0.333   2.393  0.1649  2.8375  0.4112
 1774SOL    HW216956   2.019   0.310   2.363 -0.3808  0.7774 -0.6086
 1775SOL     OW16957   2.050   2.759   7.285  0.3381  0.0268  0.1206
 1775SOL    HW116958   2.026   2.744   7.376  0.4181  0.0172  0.1400
 1775SOL    HW216959   2.000   2.688   7.244  1.3888  0.0539 -1.2004
 1776SOL     OW16960   4.655   0.812  10.363  0.6196 -0.1316  0.3103
 1776SOL    HW116961   4.663   0.753  10.288 -1.5710  1.5508 -1.2077
 1776SOL    HW216962   4.641   0.754  10.438 -1.8930  0.1938  0.0694
 1777SOL     OW16963   0.633   1.735   7.271 -0.3247  0.9168 -0.1248
 1777SOL    HW116964   0.652   1.642   7.261  0.6555  1.1506 -0.3643
 1777SOL    HW216965   0.551   1.741   7.221 -1.3226 -0.1284  1.3921
 1778SOL     OW16966   2.001   1.315   2.629  0.0687 -0.2834  0.4398
 1778SOL    HW116967   1.999   1.219   2.635 -1.1856 -0.2389  0.7053
 1778SOL    HW216968   1.990   1.344   2.539  1.8464  1.9285  0.9422
 1779SOL     OW16969   3.429   4.186   8.838 -0.3114 -0.4669  0.2926
 1779SOL    HW116970   3.358   4.123   8.825 -1.1217  0.1631  1.5882
 1779SOL    HW216971   3.499   4.145   8.788 -1.6722 -0.5014 -1.5904
 1780SOL     OW16972   0.099   0.808   3.379  0.0114  0.2409 -0.5308
 1780SOL    HW116973   0.137   0.869   3.442 -2.2340  1.6735 -0.5829
 1780SOL    HW216974   0.068   0.862   3.307  0.5948  0.2860 -0.7513
 1781SOL     OW16975   2.520   4.617   4.236 -0.5246 -0.1546  0.1264
 1781SOL    HW116976   2.522   4.693   4.178 -1.0303 -0.3737 -0.1794
 1781SOL    HW216977   2.589   4.629   4.301  1.5685 -1.0658 -1.9002
 1782SOL     OW16978   2.263   1.195  14.918 -0.1967  0.1217 -0.0137
 1782SOL    HW116979   2.244   1.288  14.917 -0.9296 -0.0415 -0.6111
 1782SOL    HW216980   2.227   1.174  15.004  2.3194 -0.9079  0.8085
 1783SOL     OW16981   2.532   1.192   4.845 -0.2971  0.5680  0.1854
 1783SOL    HW116982   2.448   1.147   4.845  0.5949 -1.0795 -0.0958
 1783SOL    HW216983   2.559   1.161   4.758 -0.8973  0.9496 -0.1348
 1784SOL     OW16984   2.831   2.462  14.253 -0.5204  0.7120 -0.1618
 1784SOL    HW116985   2.874   2.468  14.338  1.0197  2.1786 -1.0532
 1784SOL    HW216986   2.745   2.433  14.286 -1.3274  0.2238 -2.6685
 1785SOL     OW16987   1.750   3.500   4.793  0.3320  0.2862  0.3292
 1785SOL    HW116988   1.709   3.469   4.874 -0.0427 -0.6446 -0.2145
 1785SOL    HW216989   1.802   3.423   4.767 -0.1205 -0.2588  1.0220
 1786SOL     OW16990   1.507   2.047   3.788  0.7195 -0.4019  0.4466
 1786SOL    HW116991   1.540   1.971   3.835 -1.0719  0.1897  2.6524
 1786SOL    HW216992   1.457   2.087   3.859  0.9338  0.6928 -0.0259
 1787SOL     OW16993   1.758   1.513   6.338  0.0457 -0.3684  0.1807
 1787SOL    HW116994   1.792   1.599   6.315  0.2571 -0.8740 -1.3846
 1787SOL    HW216995   1.773   1.517   6.432  0.0281  0.3744  0.1499
 1788SOL     OW16996   0.204   3.130   6.678  0.2894  0.6778  0.3616
 1788SOL    HW116997   0.231   3.076   6.752  0.6077 -0.1133 -0.3240
 1788SOL    HW216998   0.228   3.220   6.701  1.9979  0.9320 -2.3177
 1789SOL     OW16999   4.370   2.789   6.921  0.2958 -0.7264  0.3939
 1789SOL    HW117000   4.426   2.713   6.903  0.6864 -0.3375 -0.0401
 1789SOL    HW217001   4.391   2.804   7.013 -1.9133 -1.1254  0.9559
 1790SOL     OW17002   1.453   0.527   6.666  0.0093  0.2851 -0.4701
 1790SOL    HW117003   1.447   0.488   6.579  1.1176 -0.4327 -0.2327
 1790SOL    HW217004   1.470   0.620   6.648  2.5678 -0.3132 -1.2547
 1791SOL     OW17005   0.168   0.446   5.048  0.4858  0.3158 -0.2479
 1791SOL    HW117006   0.186   0.527   5.000  0.5435  0.7806  0.5634
 1791SOL    HW217007   0.115   0.475   5.122 -1.7726 -0.4007 -1.5781
 1792SOL     OW17008   2.526   1.066   8.772  0.3262 -0.2091  0.3659
 1792SOL    HW117009   2.440   1.062   8.815  0.1166  4.6787  0.4351
 1792SOL    HW217010   2.560   1.153   8.792  1.5918 -0.7592  0.5642
 1793SOL     OW17011   3.962   0.988  11.499 -0.2932 -0.7273 -0.3448
 1793SOL    HW117012   3.917   0.924  11.553 -0.2796 -0.9644 -0.6155
 1793SOL    HW217013   4.053   0.972  11.522  0.8130  0.8792 -3.5265
 1794SOL     OW17014   1.652   3.504   1.770  0.2181  0.9897 -0.5568
 1794SOL    HW117015   1.712   3.462   1.708 -0.1478 -1.9138  1.0279
 1794SOL    HW217016   1.704   3.581   1.796  0.5361  0.8664 -0.8219
 1795SOL     OW17017   3.887   0.300   4.289  0.1589 -0.5206 -0.1510
 1795SOL    HW117018   3.967   0.274   4.244  0.1531 -0.8381  0.0157
 1795SOL    HW217019   3.846   0.361   4.228 -2.0541 -2.1860 -0.3379
 1796SOL     OW17020   2.802   0.323   2.939 -1.1561 -0.0985 -0.0543
 1796SOL    HW117021   2.867   0.389   2.916 -0.6421 -0.6158 -0.0647
 1796SOL    HW217022   2.783   0.357   3.027  0.5206  3.0210 -0.9269
 1797SOL     OW17023   2.239   3.592   6.854  0.3353 -0.0659 -0.1559
 1797SOL    HW117024   2.328   3.576   6.823  0.7260  0.9396  0.4311
 1797SOL    HW217025   2.229   3.685   6.831 -0.5786 -0.2603 -0.5402
 1798SOL     OW17026   3.673   3.457   7.579  0.3505  0.6671  0.1059
 1798SOL    HW117027   3.695   3.467   7.487 -0.7715  2.5692  0.0613
 1798SOL    HW217028   3.619   3.532   7.600 -1.0526  0.1427 -1.6896
 1799SOL     OW17029   1.450   2.072   1.979 -0.4068 -0.7967 -0.4002
 1799SOL    HW117030   1.519   2.036   2.035 -0.8170  1.2736  1.4591
 1799SOL    HW217031   1.428   1.981   1.959  1.0967 -1.2537  0.0567
 1800SOL     OW17032   0.867   4.685   2.694 -0.8108 -0.3953  0.1142
 1800SOL    HW117033   0.871   0.018   2.759 -1.1021  0.9441 -1.3200
 1800SOL    HW217034   0.787   4.706   2.645 -0.7231 -0.3435 -0.0069
 1801SOL     OW17035   1.931   1.496   5.095  0.2236  0.0717  0.5175
 1801SOL    HW117036   1.980   1.531   5.021 -4.2286  0.4324 -2.2782
 1801SOL    HW217037   1.865   1.565   5.104 -0.2585 -0.0855 -1.8271
 1802SOL     OW17038   3.592   2.308   2.967  0.6994  0.0956 -0.4826
 1802SOL    HW117039   3.584   2.330   3.060  0.7886 -1.3282 -0.1399
 1802SOL    HW217040   3.521   2.366   2.939 -0.1660 -0.3363  0.8218
 1803SOL     OW17041   4.167   3.517   9.718 -0.1412  0.3350  0.5876
 1803SOL    HW117042   4.167   3.541   9.811 -1.1772  0.9074  0.4241
 1803SOL    HW217043   4.087   3.465   9.714  1.0108 -1.4142 -0.0263
 1804SOL     OW17044   3.657   1.532   4.181 -0.5866  0.0597 -0.2204
 1804SOL    HW117045   3.619   1.495   4.261 -0.0333  0.9083  0.4337
 1804SOL    HW217046   3.680   1.620   4.212 -0.9231  0.2260 -0.4450
 1805SOL     OW17047   0.227   0.049  14.781  0.1326  0.1463 -0.3106
 1805SOL    HW117048   0.280   0.046  14.701  0.5335 -3.3518  0.1077
 1805SOL    HW217049   0.291   0.025  14.848  1.0081 -0.0565 -1.2194
 1806SOL     OW17050   1.578   4.183   0.993 -0.0278 -0.1078  0.2154
 1806SOL    HW117051   1.649   4.125   1.021  1.5820  0.6930 -2.2646
 1806SOL    HW217052   1.545   4.135   0.916  1.3929 -0.2787 -0.2821
 1807SOL     OW17053   4.083   2.835   3.886  0.6888  0.5326 -1.3989
 1807SOL    HW117054   4.111   2.832   3.795  0.8059 -0.0787 -1.3375
 1807SOL    HW217055   4.053   2.926   3.893 -0.8042 -0.0004 -0.7585
 1808SOL     OW17056   0.352   0.355   9.916  0.2057 -0.0486 -0.9487
 1808SOL    HW117057   0.269   0.309   9.928  0.1546 -0.7507 -3.9179
 1808SOL    HW217058   0.392   0.306   9.844  0.1103 -3.7882  1.5171
 1809SOL     OW17059   4.208   1.613   9.811  0.4761 -0.0966  0.6204
 1809SOL    HW117060   4.147   1.540   9.797  0.7064 -0.4817  1.6833
 1809SOL    HW217061   4.238   1.583   9.897  0.0533 -1.6836  0.2233
 1810SOL     OW17062   2.608   2.081  12.319  0.3996 -0.0578 -0.7177
 1810SOL    HW117063   2.699   2.102  12.296  0.9799 -1.6367  0.1049
 1810SOL    HW217064   2.568   2.165  12.296 -2.5639 -0.7009  2.1033
 1811SOL     OW17065   3.505   1.419   1.482  0.0941 -0.8540  0.4945
 1811SOL    HW117066   3.592   1.379   1.474  0.5131  0.2053 -0.1946
 1811SOL    HW217067   3.518   1.502   1.435 -0.5368 -1.3391 -0.5332
 1812SOL     OW17068   2.838   0.651   3.844 -0.1017  0.4281  0.1530
 1812SOL    HW117069   2.807   0.721   3.902 -0.2865  0.8350 -0.4435
 1812SOL    HW217070   2.897   0.605   3.904  0.4842 -0.6077 -1.2430
 1813SOL     OW17071   1.769   3.757   5.660  0.0163 -0.3572 -0.0257
 1813SOL    HW117072   1.841   3.698   5.634  0.7131 -0.3233  1.8280
 1813SOL    HW217073   1.813   3.798   5.735 -1.7666  1.4369  0.0226
 1814SOL     OW17074   2.403   4.099  15.883  0.2197  0.0306  0.0656
 1814SOL    HW117075   2.383   4.080  15.975 -1.7792 -1.0579 -0.5948
 1814SOL    HW217076   2.446   4.016  15.863 -0.7309  0.2327 -2.8850
 1815SOL     OW17077   1.316   2.915  12.805 -0.0779  0.6102  0.5973
 1815SOL    HW117078   1.262   2.990  12.826 -0.1251  1.0506 -1.0965
 1815SOL    HW217079   1.390   2.949  12.754 -0.1166  1.1950  0.9378
 1816SOL     OW17080   1.033   2.569   3.134  0.3870  0.3979  0.7546
 1816SOL    HW117081   1.129   2.572   3.142  0.3544 -0.3469  1.4310
 1816SOL    HW217082   1.013   2.534   3.047  0.1654 -0.5842  1.1917
 1817SOL     OW17083   3.249   4.699   8.187  0.1149  0.1093 -0.4724
 1817SOL    HW117084   3.314   0.026   8.160  0.1037  0.1270 -0.4576
 1817SOL    HW217085   3.285   4.656   8.265 -2.1081 -1.4568 -0.3037
 1818SOL     OW17086   2.445   0.364   5.877  0.1054 -0.2175 -0.3770
 1818SOL    HW117087   2.351   0.355   5.861 -0.1807  1.5033  0.3276
 1818SOL    HW217088   2.481   0.303   5.811  0.7520 -1.0090  0.7057
 1819SOL     OW17089   1.658   4.161  17.481  0.2872 -0.4077  0.2725
 1819SOL    HW117090   1.701   4.245  17.495 -0.1267 -0.5467  2.3935
 1819SOL    HW217091   1.621   4.175  17.394 -0.7801  0.6597  0.9144
 1820SOL     OW17092   2.136   0.022   3.962  0.4220 -0.0386 -0.2161
 1820SOL    HW117093   2.132   0.095   4.024  3.4105 -1.9303  2.1810
 1820SOL    HW217094   2.149   4.683   4.019  0.2642  1.0392  1.2686
 1821SOL     OW17095   2.311   1.829   2.330  0.2151  0.8617 -0.4133
 1821SOL    HW117096   2.279   1.850   2.418 -0.5186 -1.3126 -0.1667
 1821SOL    HW217097   2.403   1.807   2.346 -0.4668 -0.5847  1.4763
 1822SOL     OW17098   3.123   1.638  12.278 -0.2040 -0.3433  0.1974
 1822SOL    HW117099   3.208   1.660  12.316 -1.2908  2.5653  0.9829
 1822SOL    HW217100   3.127   1.546  12.252 -0.7756  0.3822 -2.5427
 1823SOL     OW17101   3.741   4.460   3.829 -0.6958  0.1624  0.4500
 1823SOL    HW117102   3.761   4.366   3.821 -1.1426  0.1048  0.0094
 1823SOL    HW217103   3.812   4.478   3.890  1.4932 -1.2105 -1.6823
 1824SOL     OW17104   2.057   2.043  11.271 -0.4421 -0.0439  0.0806
 1824SOL    HW117105   2.020   2.082  11.193  0.0436  2.4098  1.0860
 1824SOL    HW217106   1.987   2.073  11.328 -1.3859 -1.4612 -0.3266
 1825SOL     OW17107   1.807   2.193  10.080 -0.7093  0.2935  0.5077
 1825SOL    HW117108   1.807   2.102  10.050 -0.1360  0.7560 -0.8870
 1825SOL    HW217109   1.740   2.180  10.146 -0.4460  1.0441  0.9162
 1826SOL     OW17110   0.139   3.121   4.510  0.1713  0.3892  0.5470
 1826SOL    HW117111   0.111   3.146   4.422  1.0499  2.5151  0.8716
 1826SOL    HW217112   0.195   3.048   4.484 -1.0798 -0.5162  0.3712
 1827SOL     OW17113   3.065   0.201  11.802 -0.0948 -0.1444  0.2226
 1827SOL    HW117114   3.143   0.174  11.754 -0.1521 -1.9456  1.1347
 1827SOL    HW217115   3.081   0.295  11.811  0.7373 -0.3796  1.1471
 1828SOL     OW17116   0.675   0.044   2.508  0.1434 -0.5529 -0.6851
 1828SOL    HW117117   0.682   0.133   2.542  1.2732  0.2769 -3.1104
 1828SOL    HW217118   0.581   0.032   2.522  0.0117  0.6521 -0.5043
 1829SOL     OW17119   2.470   3.192   7.321 -0.3563  0.4769  0.0335
 1829SOL    HW117120   2.533   3.213   7.252 -0.8368 -0.1361 -0.5890
 1829SOL    HW217121   2.388   3.190   7.271 -0.3215 -1.3000  0.0662
 1830SOL     OW17122   0.891   0.415   3.687  0.1294  0.1262 -0.0117
 1830SOL    HW117123   0.899   0.498   3.736  0.9911 -0.9306  1.6427
 1830SOL    HW217124   0.977   0.378   3.704  0.1003 -0.9648 -2.2574
 1831SOL     OW17125   3.854   1.923  15.415  0.1400  0.2039  0.0719
 1831SOL    HW117126   3.849   1.847  15.473  0.4979  0.1097 -0.0144
 1831SOL    HW217127   3.940   1.957  15.441  0.0750  1.2472 -1.0308
 1832SOL     OW17128   0.100   2.534   5.145  0.3061  0.3704  0.3474
 1832SOL    HW117129   0.176   2.583   5.175  0.0809  0.1891  1.1922
 1832SOL    HW217130   0.142   2.451   5.123 -2.1937 -0.6467 -0.5856
 1833SOL     OW17131   4.390   3.494  17.353  0.0123  0.0653  0.0586
 1833SOL    HW117132   4.457   3.508  17.420 -0.3350  2.4770 -0.1182
 1833SOL    HW217133   4.424   3.555  17.287 -1.0322 -0.0175 -0.5557
 1834SOL     OW17134   3.979   3.086   3.876  0.5906 -0.0125 -0.2826
 1834SOL    HW117135   3.931   3.147   3.931  1.3901 -1.4229  2.0081
 1834SOL    HW217136   4.061   3.135   3.870 -0.4448  1.8487  0.9143
 1835SOL     OW17137   3.201   4.470   8.576  0.2842  1.1264  0.6777
 1835SOL    HW117138   3.159   4.543   8.531  0.5627  1.7080  1.3720
 1835SOL    HW217139   3.167   4.486   8.664 -1.8410 -2.0311  0.4473
 1836SOL     OW17140   0.895   1.046  14.784 -0.1347  0.1741  0.0629
 1836SOL    HW117141   0.952   1.021  14.712  0.4466 -0.4463  0.7388
 1836SOL    HW217142   0.838   1.111  14.742 -2.5165 -0.1377  2.7765
 1837SOL     OW17143   0.975   4.392   4.280  0.4028 -0.2944 -0.3092
 1837SOL    HW117144   0.889   4.412   4.317  0.4449 -3.1545  1.3261
 1837SOL    HW217145   1.008   4.353   4.361 -2.0432 -0.4247  0.6374
 1838SOL     OW17146   3.213   3.473   3.924 -0.2767  1.1848  0.2611
 1838SOL    HW117147   3.158   3.535   3.973  0.9710  3.2679 -0.9603
 1838SOL    HW217148   3.300   3.502   3.952  0.8884 -2.5668  0.5423
 1839SOL     OW17149   1.340   0.876   8.192 -0.0518 -0.0899  0.2943
 1839SOL    HW117150   1.342   0.784   8.215 -0.2107  0.3383  1.9873
 1839SOL    HW217151   1.388   0.919   8.263  2.0289 -0.1888 -1.0358
 1840SOL     OW17152   3.666   1.815   7.609  0.0837  0.2545  0.3452
 1840SOL    HW117153   3.744   1.759   7.606 -1.5333 -1.9847  0.4708
 1840SOL    HW217154   3.682   1.871   7.685  0.3380 -0.9337  1.1633
 1841SOL     OW17155   1.742   3.232   1.172 -0.5835 -0.0091 -0.0099
 1841SOL    HW117156   1.780   3.145   1.182 -1.9466 -0.6144 -0.1039
 1841SOL    HW217157   1.717   3.251   1.262 -0.3470  0.7324 -0.1007
 1842SOL     OW17158   4.718   1.212   3.591  0.0186  0.0605  0.2652
 1842SOL    HW117159   0.059   1.243   3.546  0.1786  0.1944  0.6366
 1842SOL    HW217160   4.697   1.278   3.659  0.3637  0.6960 -0.2467
 1843SOL     OW17161   2.725   4.465   4.076  0.4464 -0.2375 -0.2366
 1843SOL    HW117162   2.662   4.418   4.022 -0.4540  0.9805 -0.2350
 1843SOL    HW217163   2.679   4.548   4.077  1.9828  0.6000  0.6613
 1844SOL     OW17164   3.292   2.130   8.188  1.0527 -0.3909 -0.1129
 1844SOL    HW117165   3.231   2.060   8.165 -0.3381  1.6066 -2.5033
 1844SOL    HW217166   3.337   2.095   8.265  1.8324  2.7767  0.8566
 1845SOL     OW17167   2.384   2.170  11.014 -0.6471 -0.3928  0.6249
 1845SOL    HW117168   2.342   2.135  10.935 -0.0521  0.9222 -0.2553
 1845SOL    HW217169   2.478   2.159  11.002 -1.0330 -2.6119 -0.3234
 1846SOL     OW17170   4.598   2.432   9.028  0.6519  0.2487  0.0908
 1846SOL    HW117171   4.596   2.522   8.996  3.3658  0.8568  1.7258
 1846SOL    HW217172   4.524   2.438   9.088 -1.1387  0.7698 -2.1530
 1847SOL     OW17173   1.052   3.942   3.358  0.3742 -0.3177  0.0058
 1847SOL    HW117174   1.137   3.956   3.400  0.1247 -1.9805  1.0558
 1847SOL    HW217175   1.058   3.856   3.317  1.8240 -0.2536  0.0965
 1848SOL     OW17176   1.397   3.902   7.539  0.5933 -0.2976  0.7795
 1848SOL    HW117177   1.308   3.868   7.550  0.0963  1.0186  0.7694
 1848SOL    HW217178   1.394   3.927   7.446 -0.5305 -1.2512  0.5628
 1849SOL     OW17179   1.758   4.508  10.440 -0.4514 -0.3464  0.0415
 1849SOL    HW117180   1.728   4.492  10.351 -0.1209  0.1198 -0.1514
 1849SOL    HW217181   1.730   4.427  10.484 -2.1292 -0.1593 -0.6967
 1850SOL     OW17182   1.074   0.583  16.831 -0.0770  0.4003 -0.6176
 1850SOL    HW117183   0.998   0.585  16.773 -0.9128  1.9345  0.5344
 1850SOL    HW217184   1.035   0.603  16.916  0.9403  2.0996 -0.5548
 1851SOL     OW17185   2.244   3.157  13.647  0.3737  0.2772  0.7148
 1851SOL    HW117186   2.264   3.097  13.576 -0.5352 -1.2981  1.7804
 1851SOL    HW217187   2.309   3.129  13.711  1.8405  2.2349  0.0749
 1852SOL     OW17188   2.138   2.603   7.004  0.0466 -0.0776  0.0610
 1852SOL    HW117189   2.052   2.644   7.005 -0.3895 -1.0477  1.7172
 1852SOL    HW217190   2.191   2.682   6.987 -0.2491 -0.3593 -2.1911
 1853SOL     OW17191   3.600   4.139   4.032  0.0925 -0.1281  0.1114
 1853SOL    HW117192   3.680   4.129   4.084  1.5851 -1.2069 -2.3507
 1853SOL    HW217193   3.638   4.176   3.952 -0.4656 -0.9434 -0.5314
 1854SOL     OW17194   1.723   3.593  12.446  0.2537 -0.0019 -0.0945
 1854SOL    HW117195   1.726   3.556  12.358  1.6294  0.1151 -0.0873
 1854SOL    HW217196   1.712   3.685  12.420  0.6511  0.1636  0.3162
 1855SOL     OW17197   3.655   2.088   2.069  0.0317  0.0398 -0.4380
 1855SOL    HW117198   3.742   2.090   2.109 -0.4220 -0.1694  0.5695
 1855SOL    HW217199   3.662   2.128   1.982  1.9813  1.4085  0.3422
 1856SOL     OW17200   2.024   0.387   4.060 -0.1133  0.0070 -0.2741
 1856SOL    HW117201   2.081   0.364   3.986  0.1788  0.8693 -0.3202
 1856SOL    HW217202   2.015   0.305   4.108  3.0067  0.8290  1.7239
 1857SOL     OW17203   4.314   1.337   5.127  0.0706  0.7628  0.1049
 1857SOL    HW117204   4.335   1.247   5.101 -2.1890 -0.6801  3.2622
 1857SOL    HW217205   4.349   1.332   5.216  0.7359  1.7146 -0.1034
 1858SOL     OW17206   2.405   2.752   7.158  0.8021  0.1609 -0.5455
 1858SOL    HW117207   2.433   2.821   7.218  0.6622 -1.3544  1.2762
 1858SOL    HW217208   2.469   2.758   7.088  1.6441  1.9508  0.3914
 1859SOL     OW17209   0.992   3.364  10.592 -0.0472 -0.0947  0.4831
 1859SOL    HW117210   1.044   3.398  10.520 -1.3339  2.5260  0.7900
 1859SOL    HW217211   1.027   3.276  10.577  4.0086  1.8689 -1.5565
 1860SOL     OW17212   1.123   3.054   3.496  0.2892 -0.5352 -1.2896
 1860SOL    HW117213   1.097   3.128   3.440 -2.7528 -0.9294 -0.3858
 1860SOL    HW217214   1.136   3.090   3.584  1.1580 -1.5799 -0.9840
 1861SOL     OW17215   0.589   1.474   1.599 -0.0244 -0.5111 -0.0046
 1861SOL    HW117216   0.652   1.402   1.594 -0.0537 -0.5788  0.6458
 1861SOL    HW217217   0.552   1.458   1.685 -0.7076 -2.2743 -0.6147
 1862SOL     OW17218   2.864   2.369   2.871 -0.1749 -0.1134 -0.1563
 1862SOL    HW117219   2.927   2.359   2.800 -1.3154 -1.7577 -0.9261
 1862SOL    HW217220   2.919   2.373   2.949  0.0214  1.4894 -0.3787
 1863SOL     OW17221   0.015   3.482  13.556 -0.6019 -0.4976 -0.1918
 1863SOL    HW117222   4.666   3.515  13.530  0.2031  1.9498  0.2014
 1863SOL    HW217223   4.722   3.417  13.619 -2.4201 -0.3991 -0.9602
 1864SOL     OW17224   1.390   2.821   4.658 -0.2560  0.4555 -0.4338
 1864SOL    HW117225   1.409   2.863   4.575 -0.0657  0.7510 -0.2417
 1864SOL    HW217226   1.445   2.871   4.718 -1.0303 -0.3595  0.9734
 1865SOL     OW17227   3.600   3.020   8.318  0.0841  0.5285 -0.0617
 1865SOL    HW117228   3.581   3.110   8.345 -1.1573 -0.2824  1.6957
 1865SOL    HW217229   3.570   2.971   8.394 -0.7196 -0.9472 -1.3417
 1866SOL     OW17230   0.528   0.341   3.232  0.4090 -0.0693  0.0101
 1866SOL    HW117231   0.485   0.285   3.168 -1.9571  0.5857  1.0057
 1866SOL    HW217232   0.592   0.278   3.265  0.0231 -0.2625  0.3915
 1867SOL     OW17233   2.460   3.472   6.513 -0.0942  0.5297 -0.0768
 1867SOL    HW117234   2.440   3.407   6.579 -1.3515 -0.9753 -1.9413
 1867SOL    HW217235   2.524   3.527   6.559 -0.7911  1.1173  0.1956
 1868SOL     OW17236   0.937   1.064   3.764  0.2561 -0.5288  0.2640
 1868SOL    HW117237   1.005   1.002   3.790  0.1015 -0.8435 -0.0838
 1868SOL    HW217238   0.961   1.137   3.820  0.9411 -0.2148 -0.4338
 1869SOL     OW17239   3.993   0.501   2.769 -0.4157  0.1141 -1.2060
 1869SOL    HW117240   3.959   0.526   2.855 -0.6010 -2.4428 -0.5606
 1869SOL    HW217241   3.934   0.442   2.723 -2.4770  1.2308  0.0089
 1870SOL     OW17242   1.366   4.261  13.284  0.8749  0.2197 -0.2965
 1870SOL    HW117243   1.434   4.241  13.219 -0.4522 -2.4427 -0.8915
 1870SOL    HW217244   1.305   4.319  13.240  1.7976  0.7312 -0.8846
 1871SOL     OW17245   2.945   4.445   3.369 -0.4913 -0.2925 -0.3323
 1871SOL    HW117246   3.027   4.424   3.323 -0.6110 -0.1886 -0.5934
 1871SOL    HW217247   2.925   4.364   3.416  1.4667  0.1005  1.2123
 1872SOL     OW17248   3.782   3.512   1.814  0.7295 -0.2930  0.4278
 1872SOL    HW117249   3.772   3.602   1.847  3.5123  0.2499 -0.2126
 1872SOL    HW217250   3.861   3.513   1.760  1.3582  0.3192  1.3620
 1873SOL     OW17251   0.205   4.115  16.071 -0.4856  0.3055  0.0689
 1873SOL    HW117252   0.293   4.120  16.036 -0.0425  1.4052  1.3548
 1873SOL    HW217253   0.155   4.153  15.999 -0.6180  0.3886  0.2038
 1874SOL     OW17254   2.036   2.737   2.292 -0.8121  0.2545  0.5825
 1874SOL    HW117255   1.968   2.804   2.286 -0.9247 -0.0255 -1.3858
 1874SOL    HW217256   2.115   2.790   2.279 -0.7531 -0.3463 -1.5539
 1875SOL     OW17257   4.088   4.203  12.324 -0.8022 -0.7043  0.3066
 1875SOL    HW117258   4.115   4.251  12.402  1.6947 -3.0063  0.8815
 1875SOL    HW217259   4.119   4.115  12.347 -2.2520 -0.7982  1.9070
 1876SOL     OW17260   2.709   1.074   6.996  0.2061 -0.0897  0.0103
 1876SOL    HW117261   2.666   1.068   6.910  2.6403 -1.3812 -1.1209
 1876SOL    HW217262   2.794   1.100   6.962 -0.3682  3.3305  1.2254
 1877SOL     OW17263   2.711   3.428   3.561  0.1925  0.7949 -0.5151
 1877SOL    HW117264   2.760   3.460   3.636 -1.6753  0.6390  0.7708
 1877SOL    HW217265   2.780   3.378   3.518 -0.9619 -0.6835 -0.6606
 1878SOL     OW17266   3.464   1.585   4.934  0.4147 -0.6951 -0.3860
 1878SOL    HW117267   3.387   1.611   4.882 -1.9568 -0.6058  3.1576
 1878SOL    HW217268   3.428   1.510   4.981  1.8896 -0.9113  0.4020
 1879SOL     OW17269   4.365   0.687   4.344  0.1249 -0.7444 -0.1706
 1879SOL    HW117270   4.414   0.769   4.349  0.1020 -0.6813 -1.0822
 1879SOL    HW217271   4.414   0.637   4.408 -0.0615 -1.9891 -1.0082
 1880SOL     OW17272   2.972   0.017  16.319  0.2932  0.7731  0.4538
 1880SOL    HW117273   3.006   4.666  16.336  1.6426  1.0889 -0.6066
 1880SOL    HW217274   3.005   0.032  16.230  0.0055 -1.2408  0.0018
 1881SOL     OW17275   1.208   0.363   7.998  0.3127 -0.4189 -0.7038
 1881SOL    HW117276   1.218   0.335   7.908  0.6364  0.2156 -0.8666
 1881SOL    HW217277   1.145   0.432   7.977 -0.7421 -1.8928 -2.3613
 1882SOL     OW17278   1.853   2.057  12.020 -0.4125  0.2300 -0.5416
 1882SOL    HW117279   1.849   2.120  11.947  0.5837 -0.0685 -0.8532
 1882SOL    HW217280   1.947   2.043  12.033 -0.6921 -1.9025 -0.8613
 1883SOL     OW17281   0.609   0.748  17.185  0.0929 -0.4921  0.2387
 1883SOL    HW117282   0.555   0.800  17.244  0.5785 -0.0138  0.2539
 1883SOL    HW217283   0.542   0.740  17.117 -2.1510 -1.1138  2.5322
 1884SOL     OW17284   2.872   0.723   6.561  0.2190  0.0492  0.1954
 1884SOL    HW117285   2.910   0.635   6.560 -0.2060 -0.1509  3.3685
 1884SOL    HW217286   2.819   0.722   6.641 -0.1068  0.4312 -0.0138
 1885SOL     OW17287   0.527   1.007   8.082 -0.2980  0.1788  0.9399
 1885SOL    HW117288   0.603   0.962   8.118  0.9950  1.4720 -0.2106
 1885SOL    HW217289   0.570   1.064   8.019 -0.9190  0.5413  0.8451
 1886SOL     OW17290   3.736   0.210   1.226 -0.0229 -0.2874 -0.1562
 1886SOL    HW117291   3.766   0.277   1.165 -3.5500  1.3519 -0.1102
 1886SOL    HW217292   3.764   0.131   1.181  0.3062  0.9361 -2.0626
 1887SOL     OW17293   2.304   1.147   0.659  0.5037 -0.5683  0.7811
 1887SOL    HW117294   2.338   1.135   0.571  0.3396 -1.1426  0.7955
 1887SOL    HW217295   2.211   1.144   0.638 -0.2068  3.1112  3.3767
 1888SOL     OW17296   2.417   4.006   2.408 -0.3045  0.2193 -0.1366
 1888SOL    HW117297   2.333   3.961   2.398 -1.5942  2.0807  2.4109
 1888SOL    HW217298   2.387   4.095   2.389 -1.0933 -0.3890 -1.8326
 1889SOL     OW17299   1.822   2.216   7.768  0.0385  0.0458 -0.0141
 1889SOL    HW117300   1.758   2.201   7.699  0.5556 -2.1717  0.0090
 1889SOL    HW217301   1.878   2.140   7.750  1.5943  1.2268 -0.2261
 1890SOL     OW17302   0.676   2.376   2.350 -0.5234 -0.5729 -0.0872
 1890SOL    HW117303   0.747   2.377   2.414 -2.3799 -0.5031  1.9866
 1890SOL    HW217304   0.599   2.348   2.399 -0.1426 -0.8894  0.3253
 1891SOL     OW17305   3.796   3.731   8.629 -0.0157 -0.4412  0.3153
 1891SOL    HW117306   3.709   3.767   8.615  0.5239  0.2107 -1.3391
 1891SOL    HW217307   3.854   3.781   8.572 -1.4151  0.8719  0.0590
 1892SOL     OW17308   1.272   1.242  15.009 -1.0272 -0.8938 -0.1345
 1892SOL    HW117309   1.255   1.215  14.920 -0.8539  0.4095 -0.5704
 1892SOL    HW217310   1.314   1.327  14.994  0.0804 -0.8468  3.0708
 1893SOL     OW17311   0.273   2.255   8.518  0.4358 -0.4459 -0.0922
 1893SOL    HW117312   0.368   2.252   8.508  0.5263  2.1977  0.0033
 1893SOL    HW217313   0.271   2.244   8.613 -0.7058  1.8729  0.1599
 1894SOL     OW17314   2.445   0.519   6.392 -0.2903 -0.2473  0.1040
 1894SOL    HW117315   2.352   0.518   6.369  0.0517 -1.2635 -1.1939
 1894SOL    HW217316   2.492   0.544   6.313  2.9261 -2.6445  1.2539
 1895SOL     OW17317   2.710   0.377   5.580 -0.0592 -0.2484 -0.0755
 1895SOL    HW117318   2.694   0.317   5.653 -2.7118  0.3544 -0.1489
 1895SOL    HW217319   2.701   0.329   5.497 -1.1688  1.8405 -1.1520
 1896SOL     OW17320   4.027   3.989   4.008  0.4872 -0.1792 -0.5995
 1896SOL    HW117321   4.121   3.984   4.020  0.4204  0.7775  0.3237
 1896SOL    HW217322   4.024   3.986   3.912 -0.0651 -0.5203 -0.5719
 1897SOL     OW17323   0.496   0.732   2.567 -0.2338 -0.3013 -0.2386
 1897SOL    HW117324   0.401   0.742   2.566 -0.1387  0.5006 -1.1156
 1897SOL    HW217325   0.506   0.721   2.473 -0.1283  1.1678 -0.4013
 1898SOL     OW17326   2.266   2.595   7.393  0.2083 -0.5025  0.2613
 1898SOL    HW117327   2.219   2.520   7.358  0.8308 -0.0284 -1.5954
 1898SOL    HW217328   2.280   2.646   7.314 -0.0196  1.5687  1.5602
 1899SOL     OW17329   1.550   2.889   6.784 -0.1570  0.0257  0.3048
 1899SOL    HW117330   1.523   2.797   6.788  2.4025 -0.7621 -0.9980
 1899SOL    HW217331   1.545   2.899   6.689 -0.9336  0.8329  0.4225
 1900SOL     OW17332   2.157   3.148   5.093 -0.2922  0.1876 -0.0656
 1900SOL    HW117333   2.179   3.229   5.047 -0.6995  0.5176  0.3204
 1900SOL    HW217334   2.147   3.086   5.021  1.1546 -2.4790  2.0122
 1901SOL     OW17335   1.277   1.158   4.201 -0.6257 -0.5710 -0.2998
 1901SOL    HW117336   1.250   1.248   4.182 -2.5290 -1.2436 -0.7799
 1901SOL    HW217337   1.220   1.105   4.145  1.0727 -0.5943 -2.0168
 1902SOL     OW17338   1.445   4.028   9.231 -0.5162  0.7317 -0.0829
 1902SOL    HW117339   1.445   4.067   9.143 -0.3280  0.8610 -0.0243
 1902SOL    HW217340   1.536   4.018   9.257 -0.5784  0.5863  0.0785
 1903SOL     OW17341   2.594   3.033  11.940  0.0975 -0.0030  0.6084
 1903SOL    HW117342   2.510   3.023  11.984  0.1346  2.0549  1.1069
 1903SOL    HW217343   2.635   2.948  11.960  2.2863  1.5290  2.5780
 1904SOL     OW17344   0.815   4.727  10.617 -0.6311  0.4615  0.0465
 1904SOL    HW117345   0.857   4.642  10.612 -1.7907 -0.1846  1.4008
 1904SOL    HW217346   0.720   4.715  10.613 -0.1878 -2.4602 -1.2662
 1905SOL     OW17347   3.680   0.966  10.463  0.0646 -0.4056 -0.4347
 1905SOL    HW117348   3.622   1.012  10.524 -0.1884 -0.3882 -0.6887
 1905SOL    HW217349   3.615   0.914  10.416 -0.6489  1.7763 -1.8955
 1906SOL     OW17350   1.654   3.031   7.075  0.1580 -0.3949  0.0570
 1906SOL    HW117351   1.686   2.942   7.091 -5.4591 -2.4407 -0.1138
 1906SOL    HW217352   1.667   3.060   7.165  2.8822 -2.7526  0.4249
 1907SOL     OW17353   0.757   1.047   1.129 -0.4000 -0.1289  0.5810
 1907SOL    HW117354   0.795   1.069   1.044 -2.9794  1.0224 -0.2664
 1907SOL    HW217355   0.714   1.131   1.147 -0.0302 -0.0626  1.1498
 1908SOL     OW17356   3.759   3.004   5.813  0.6234 -0.4476  0.2916
 1908SOL    HW117357   3.755   2.909   5.804 -1.4682 -0.1657 -1.9108
 1908SOL    HW217358   3.804   3.020   5.730 -0.4463  0.0807 -0.1942
 1909SOL     OW17359   3.274   2.801   5.862 -0.1875 -0.6367 -0.3734
 1909SOL    HW117360   3.270   2.705   5.865  1.6543 -0.6945  0.1996
 1909SOL    HW217361   3.213   2.824   5.931  0.3630 -1.5897  0.4258
 1910SOL     OW17362   1.034   4.007   9.377 -0.0782  0.0936 -0.2117
 1910SOL    HW117363   1.088   3.929   9.383 -0.3789 -0.0234  1.0412
 1910SOL    HW217364   0.967   3.968   9.321  0.3466  0.6385 -1.1047
 1911SOL     OW17365   4.631   3.550   5.210 -0.3954  0.0815 -0.2422
 1911SOL    HW117366   4.542   3.583   5.218  0.1337  1.9564 -1.9680
 1911SOL    HW217367   4.639   3.560   5.115 -0.0912 -2.2284 -0.4610
 1912SOL     OW17368   1.290   0.233  15.805 -0.4253  0.2610  0.2191
 1912SOL    HW117369   1.304   0.274  15.891  0.7574 -2.6229  1.4045
 1912SOL    HW217370   1.373   0.255  15.763 -0.2414  0.8730  0.8900
 1913SOL     OW17371   2.006   0.529   2.623  0.0873 -0.4106 -0.1306
 1913SOL    HW117372   1.922   0.505   2.661  0.0070 -1.5035 -1.0028
 1913SOL    HW217373   2.027   0.456   2.564  1.6818 -1.8175  2.1561
 1914SOL     OW17374   2.683   2.026   3.736  0.2150  0.1994  0.6481
 1914SOL    HW117375   2.759   2.067   3.695  0.3603 -0.2098  0.5149
 1914SOL    HW217376   2.636   2.106   3.761  0.9175 -0.0979  2.9935
 1915SOL     OW17377   2.880   3.014   4.205 -0.6478 -0.2994 -0.1082
 1915SOL    HW117378   2.806   3.068   4.178 -0.1679  0.4673  0.1160
 1915SOL    HW217379   2.914   3.077   4.268  0.2689 -0.3599 -0.5527
 1916SOL     OW17380   4.085   3.493   7.603  0.5768 -0.2410  0.0994
 1916SOL    HW117381   4.044   3.569   7.644 -2.4649 -0.2494 -2.9168
 1916SOL    HW217382   4.046   3.515   7.518 -0.7717  1.4975  1.1658
 1917SOL     OW17383   0.157   0.338  17.265  0.2479 -0.0292 -0.1365
 1917SOL    HW117384   0.247   0.361  17.243  1.1232 -2.1123  1.2432
 1917SOL    HW217385   0.147   0.272  17.196  0.1890  0.2691 -0.4118
 1918SOL     OW17386   1.343   0.661   9.097  0.4124  0.4215  0.2678
 1918SOL    HW117387   1.353   0.650   9.003  1.3772 -2.1622  0.6605
 1918SOL    HW217388   1.404   0.595   9.130  0.0592  0.4096  0.9051
 1919SOL     OW17389   2.838   4.703   1.854  0.3658  0.3072 -0.0704
 1919SOL    HW117390   2.839   0.040   1.794 -1.0585  0.4258  0.0615
 1919SOL    HW217391   2.821   4.631   1.793  0.1677 -0.3396  0.7598
 1920SOL     OW17392   3.178   1.950   0.236  0.4016  0.0203  0.2686
 1920SOL    HW117393   3.250   1.992   0.190 -1.1551  0.4129 -1.7698
 1920SOL    HW217394   3.226   1.873   0.266  0.6304  0.3746  0.8168
 1921SOL     OW17395   2.336   3.790   8.429 -0.4789  0.7275  0.7170
 1921SOL    HW117396   2.283   3.784   8.509 -1.4855  0.0743  0.0136
 1921SOL    HW217397   2.264   3.790   8.366 -0.9472  0.2194  1.2476
 1922SOL     OW17398   2.577   2.689   1.203 -0.0069 -0.0824  0.4239
 1922SOL    HW117399   2.658   2.642   1.187  0.3142  0.4509  0.4854
 1922SOL    HW217400   2.533   2.645   1.276 -0.8759 -0.8371 -0.5488
 1923SOL     OW17401   2.242   1.240   3.043  0.6148  0.2910 -0.1122
 1923SOL    HW117402   2.264   1.272   3.131  0.1998  1.6727 -0.5139
 1923SOL    HW217403   2.260   1.149   3.064  3.1295  0.9443  0.5547
 1924SOL     OW17404   1.418   1.123  10.368 -0.0733  0.8169 -0.1410
 1924SOL    HW117405   1.395   1.145  10.278  2.8260 -0.0652 -1.0969
 1924SOL    HW217406   1.401   1.201  10.421 -1.0309  0.5583 -0.0675
 1925SOL     OW17407   4.077   4.158   6.490  0.5639 -0.8777 -0.2152
 1925SOL    HW117408   4.148   4.096   6.473 -0.6732 -2.4375  0.3501
 1925SOL    HW217409   3.999   4.122   6.449  1.5084  0.6607 -3.3189
 1926SOL     OW17410   2.935   2.810   1.808  0.6079  0.1768 -0.1534
 1926SOL    HW117411   2.893   2.753   1.743  3.5987  0.3625 -2.2381
 1926SOL    HW217412   2.911   2.900   1.784 -0.5460 -0.2610 -0.6350
 1927SOL     OW17413   0.626   1.162   2.544 -0.5857 -0.1056  0.1957
 1927SOL    HW117414   0.627   1.202   2.631  2.5727  1.9070 -0.7418
 1927SOL    HW217415   0.629   1.068   2.561 -0.0325 -0.0150  0.6175
 1928SOL     OW17416   3.501   2.098   0.915  0.4386 -0.0803  0.5139
 1928SOL    HW117417   3.458   2.117   0.832  1.0738 -1.6502 -0.1677
 1928SOL    HW217418   3.456   2.017   0.937 -1.6198  0.8870 -0.1273
 1929SOL     OW17419   1.422   0.633   7.980 -0.4529  0.3748  0.1172
 1929SOL    HW117420   1.367   0.599   7.909 -1.7175  0.3614  1.0946
 1929SOL    HW217421   1.364   0.617   8.055 -0.8401 -0.4312 -0.3629
 1930SOL     OW17422   0.676   2.226   4.938  0.0694 -0.1175 -0.2602
 1930SOL    HW117423   0.670   2.130   4.930  0.7756 -0.2060  0.2151
 1930SOL    HW217424   0.765   2.245   4.909 -0.8727  0.1121 -2.9899
 1931SOL     OW17425   1.852   3.182   9.563  0.4451  0.2938 -0.4094
 1931SOL    HW117426   1.784   3.249   9.557  0.0985 -0.0239  0.0172
 1931SOL    HW217427   1.852   3.163   9.657  2.0736  1.3987 -0.1656
 1932SOL     OW17428   2.763   2.191   0.803  0.1071 -0.4340  0.7577
 1932SOL    HW117429   2.733   2.276   0.835 -0.2351 -0.4632  0.5128
 1932SOL    HW217430   2.680   2.144   0.792  0.3985 -0.6097 -0.6501
 1933SOL     OW17431   1.491   3.908   9.866 -0.3352  0.4697  0.4764
 1933SOL    HW117432   1.438   3.961   9.925 -2.0986  0.0770 -0.7512
 1933SOL    HW217433   1.449   3.822   9.854  0.8098  0.2158 -1.7137
 1934SOL     OW17434   1.529   4.071   5.882  0.7070 -0.3917 -0.6282
 1934SOL    HW117435   1.545   4.152   5.930 -0.6976  0.0725 -0.9299
 1934SOL    HW217436   1.444   4.038   5.912  0.2062  1.1044 -0.4341
 1935SOL     OW17437   4.401   2.684   3.218  0.5236  0.7534 -0.2603
 1935SOL    HW117438   4.376   2.754   3.278  0.0574 -0.5817  1.0890
 1935SOL    HW217439   4.403   2.617   3.286  3.2346  2.5730  1.4691
 1936SOL     OW17440   2.317   2.740   3.593  0.1560  0.7114  0.6756
 1936SOL    HW117441   2.364   2.766   3.672 -0.7257  0.2101  1.3656
 1936SOL    HW217442   2.346   2.812   3.537  1.3717 -1.0944 -1.0036
 1937SOL     OW17443   1.992   4.374   3.887  0.1136  0.2951  0.4213
 1937SOL    HW117444   1.937   4.396   3.812  1.3044 -0.1103 -0.5788
 1937SOL    HW217445   2.077   4.397   3.849 -0.9769  2.4455 -0.7195
 1938SOL     OW17446   1.276   3.956   3.490 -0.2568  0.7576  0.2706
 1938SOL    HW117447   1.279   4.036   3.543 -0.3755 -0.7043  2.4661
 1938SOL    HW217448   1.265   3.899   3.565  0.7462  1.7374  1.1670
 1939SOL     OW17449   2.176   3.842   9.773  0.1418  0.5632  0.4433
 1939SOL    HW117450   2.249   3.802   9.820  0.5845 -0.7930 -1.4087
 1939SOL    HW217451   2.177   3.792   9.692  1.6966  2.7976 -0.9131
 1940SOL     OW17452   2.535   0.900   5.941  0.4271  0.6263 -0.1397
 1940SOL    HW117453   2.515   0.829   5.880  1.5386  0.0110  0.2163
 1940SOL    HW217454   2.615   0.934   5.902  1.1256  0.3796  1.0793
 1941SOL     OW17455   1.781   0.757   7.624 -0.3179 -0.2889 -0.0415
 1941SOL    HW117456   1.872   0.771   7.601 -0.4020 -0.2790 -0.3793
 1941SOL    HW217457   1.784   0.676   7.675 -2.0690  0.6883  1.6231
 1942SOL     OW17458   0.015   1.576  13.644 -0.1631  0.0474  0.4686
 1942SOL    HW117459   0.087   1.596  13.704  1.4406 -0.2970 -1.3603
 1942SOL    HW217460   0.017   1.652  13.585  0.2239 -0.1530  0.2290
 1943SOL     OW17461   0.861   2.042  11.536  0.1778  0.0922 -0.3085
 1943SOL    HW117462   0.789   2.008  11.483 -1.6291  0.9523  1.6198
 1943SOL    HW217463   0.894   1.958  11.567 -1.3417  0.7812  3.1666
 1944SOL     OW17464   0.478   3.760   3.394 -0.0324 -0.0274  0.3477
 1944SOL    HW117465   0.455   3.670   3.372  2.1273  0.1468 -2.6547
 1944SOL    HW217466   0.529   3.787   3.318 -1.5176  3.5103  0.6072
 1945SOL     OW17467   2.834   0.047   5.191  0.0738 -0.6007  0.6295
 1945SOL    HW117468   2.923   0.050   5.154 -0.9557  0.3873 -1.8102
 1945SOL    HW217469   2.810   4.692   5.202 -0.3215 -0.8610 -2.3662
 1946SOL     OW17470   3.743   0.600  10.270  0.0988  0.2452  0.0392
 1946SOL    HW117471   3.682   0.671  10.247 -1.3908 -1.5665 -1.5976
 1946SOL    HW217472   3.710   0.580  10.358 -2.1455  1.8181 -0.4375
 1947SOL     OW17473   4.242   3.252   7.530  0.1215  0.6025 -0.3559
 1947SOL    HW117474   4.180   3.321   7.552 -1.4798 -1.2854  1.0947
 1947SOL    HW217475   4.240   3.191   7.604 -1.0511 -0.2748 -1.1158
 1948SOL     OW17476   4.735   3.797   5.496  0.1675  0.1963 -0.3310
 1948SOL    HW117477   0.009   3.813   5.590  1.5244 -0.3919 -0.3889
 1948SOL    HW217478   4.640   3.785   5.490  0.3581 -0.6246 -1.6075
 1949SOL     OW17479   3.352   1.139  16.136  0.1822 -0.0578  0.0258
 1949SOL    HW117480   3.360   1.227  16.173  0.5253  0.3787 -1.1000
 1949SOL    HW217481   3.363   1.173  16.047  0.7320  1.8465  0.8209
 1950SOL     OW17482   2.379   2.315  14.790  0.5297 -0.3326 -0.0073
 1950SOL    HW117483   2.422   2.232  14.813 -0.6346 -1.5815 -2.2939
 1950SOL    HW217484   2.346   2.351  14.872 -0.4569 -1.1925 -0.0233
 1951SOL     OW17485   2.215   2.537   2.163 -0.4107  0.0256  0.0222
 1951SOL    HW117486   2.146   2.569   2.221  0.0866  1.3635 -0.1179
 1951SOL    HW217487   2.216   2.609   2.100  0.0947  1.0855  1.2358
 1952SOL     OW17488   3.477   3.848   5.884 -0.1127  0.5618  0.2941
 1952SOL    HW117489   3.515   3.932   5.857  0.1391  0.3866  0.1165
 1952SOL    HW217490   3.401   3.882   5.932 -0.4385 -1.6349  1.3363
 1953SOL     OW17491   4.546   0.640   2.194  0.4632 -0.0671 -0.2566
 1953SOL    HW117492   4.507   0.610   2.112 -0.3123 -3.1379  1.2298
 1953SOL    HW217493   4.541   0.555   2.237  1.7975 -0.9572 -1.8608
 1954SOL     OW17494   4.082   0.327   9.206  0.1980  0.1306 -0.1430
 1954SOL    HW117495   4.010   0.273   9.239  0.3591  0.3755  0.5986
 1954SOL    HW217496   4.125   0.268   9.144 -0.6485 -1.4765  0.8077
 1955SOL     OW17497   4.536   1.511   4.610 -0.3278 -0.2334 -0.5273
 1955SOL    HW117498   4.548   1.601   4.641  0.0881 -0.3226 -0.4291
 1955SOL    HW217499   4.606   1.467   4.658 -0.5718  0.6566  0.6571
 1956SOL     OW17500   4.317   4.464  14.306  0.2326  0.3786  0.1071
 1956SOL    HW117501   4.337   4.435  14.395  1.7288  4.1803  1.0159
 1956SOL    HW217502   4.238   4.413  14.290  1.9318 -2.2741  0.2432
 1957SOL     OW17503   1.518   3.633  11.860 -0.5685 -0.2127 -0.3476
 1957SOL    HW117504   1.441   3.684  11.831  1.2533  1.0686 -2.9706
 1957SOL    HW217505   1.486   3.576  11.930 -1.2668  1.4666  0.7065
 1958SOL     OW17506   4.103   2.272   9.741  0.2102 -0.2451 -0.0041
 1958SOL    HW117507   4.159   2.321   9.681  1.2196 -0.8903  0.4217
 1958SOL    HW217508   4.032   2.244   9.683 -1.3042 -0.3042  1.8673
 1959SOL     OW17509   0.309   3.074   2.281  0.0230 -0.0887  0.0366
 1959SOL    HW117510   0.356   3.038   2.206  0.5056  1.1426 -0.2515
 1959SOL    HW217511   0.217   3.057   2.259 -0.2309  1.1527  0.1514
 1960SOL     OW17512   0.435   1.311   6.447 -0.2089 -0.1501 -0.2409
 1960SOL    HW117513   0.449   1.375   6.377 -1.5981 -0.2793 -0.6346
 1960SOL    HW217514   0.345   1.336   6.469 -0.3662 -0.4059 -0.5893
 1961SOL     OW17515   1.719   2.237   2.103 -0.2156 -0.5388 -0.9708
 1961SOL    HW117516   1.665   2.311   2.130  2.5968  1.1093  0.1538
 1961SOL    HW217517   1.731   2.245   2.009  3.0335 -3.3847 -0.8277
 1962SOL     OW17518   2.145   2.004  17.363  0.1406  0.2125 -0.1749
 1962SOL    HW117519   2.092   2.018  17.286  0.5596  1.5369 -0.2125
 1962SOL    HW217520   2.146   2.088  17.408 -1.5060  1.9137 -3.3937
 1963SOL     OW17521   0.546   1.533   5.928 -0.7699  0.4607  0.4529
 1963SOL    HW117522   0.498   1.464   5.972  0.9003 -0.6279  0.5557
 1963SOL    HW217523   0.636   1.503   5.939 -0.7113  0.4066 -0.1685
 1964SOL     OW17524   0.811   1.132   8.172 -0.1254  0.3779  0.2709
 1964SOL    HW117525   0.791   1.191   8.099 -0.7359  2.1751  1.8951
 1964SOL    HW217526   0.868   1.174   8.236 -0.3820 -1.1594  1.5114
 1965SOL     OW17527   0.752   0.595  10.529 -0.3251  0.2776  0.2590
 1965SOL    HW117528   0.722   0.567  10.442  0.6201 -1.3104  0.4582
 1965SOL    HW217529   0.846   0.609  10.519 -0.1011 -1.7513 -0.2907
 1966SOL     OW17530   1.433   1.555  13.526 -0.1308  0.1457  0.5102
 1966SOL    HW117531   1.462   1.478  13.576  3.0558  0.4960 -0.8170
 1966SOL    HW217532   1.348   1.536  13.486  0.1954 -0.6780  0.1984
 1967SOL     OW17533   0.575   1.919   9.158  0.1480 -0.1656  0.4563
 1967SOL    HW117534   0.582   1.851   9.225  0.5334 -0.8793 -0.3071
 1967SOL    HW217535   0.645   1.897   9.097  0.1195  1.0192 -0.0185
 1968SOL     OW17536   2.179   1.858  11.011 -0.1211  0.2050 -0.4223
 1968SOL    HW117537   2.172   1.762  11.018  1.0566  0.3354  2.7674
 1968SOL    HW217538   2.252   1.871  11.072 -1.4467 -2.0296  1.6827
 1969SOL     OW17539   3.972   0.769   3.593 -0.8050 -0.0631 -0.2867
 1969SOL    HW117540   4.029   0.725   3.655 -0.3966 -0.6264 -1.0537
 1969SOL    HW217541   3.888   0.777   3.638 -1.0477  0.7878 -0.8791
 1970SOL     OW17542   4.611   2.921   7.400  0.2644 -0.2441  0.1576
 1970SOL    HW117543   4.568   2.879   7.475  0.9071 -3.9167 -1.5607
 1970SOL    HW217544   4.679   2.854   7.394  3.1896  2.7594 -0.0804
 1971SOL     OW17545   2.103   1.261   8.267 -0.2312  0.2731 -0.1430
 1971SOL    HW117546   2.195   1.277   8.245 -0.5427  1.9698 -0.2410
 1971SOL    HW217547   2.079   1.350   8.292 -0.4058  0.4470 -0.9148
 1972SOL     OW17548   0.188   0.098   4.512 -0.0843 -0.1592  0.1680
 1972SOL    HW117549   0.265   0.145   4.480 -1.4131  0.6445 -1.8814
 1972SOL    HW217550   0.214   0.012   4.479 -0.4725  0.2883 -1.3356
 1973SOL     OW17551   2.508   0.964   7.150 -0.2778  0.4734 -0.0360
 1973SOL    HW117552   2.588   1.007   7.119 -1.1584  2.4853  0.4672
 1973SOL    HW217553   2.543   0.913   7.223 -2.5587  2.6124  2.5500
 1974SOL     OW17554   4.602   1.827   4.457  0.1330  0.6981  0.7489
 1974SOL    HW117555   4.593   1.818   4.552 -1.6376 -0.1275  0.5091
 1974SOL    HW217556   4.519   1.870   4.438  0.2668  1.6196  2.2219
 1975SOL     OW17557   0.703   1.821   7.525  0.5406  0.4396  0.2684
 1975SOL    HW117558   0.685   1.811   7.431 -0.1802  2.3289  0.2131
 1975SOL    HW217559   0.796   1.801   7.534  0.5242  0.6761  0.9607
 1976SOL     OW17560   3.600   0.434   0.248 -0.2238 -0.6131  0.2157
 1976SOL    HW117561   3.600   0.449   0.154 -1.4474 -0.1244  0.2808
 1976SOL    HW217562   3.662   0.503   0.270 -0.3239 -0.7716  1.0191
 1977SOL     OW17563   2.244   3.680   9.013  0.1390  0.2394  0.2309
 1977SOL    HW117564   2.312   3.631   8.965 -1.3976  2.0608 -3.7809
 1977SOL    HW217565   2.185   3.607   9.033  1.9101 -0.6579  2.1824
 1978SOL     OW17566   2.354   3.875  11.029  0.4399 -0.5318  0.6548
 1978SOL    HW117567   2.264   3.908  11.030 -0.0497 -1.8583  0.6253
 1978SOL    HW217568   2.334   3.790  11.070  0.0246 -0.7426  0.0124
 1979SOL     OW17569   3.850   4.014  11.276 -0.1891 -0.1514 -0.4480
 1979SOL    HW117570   3.888   4.082  11.331  0.6469  1.2749 -2.7769
 1979SOL    HW217571   3.803   3.963  11.342 -0.6426  1.0069  0.1235
 1980SOL     OW17572   2.962   2.919  13.648 -0.5573  0.4035 -0.5734
 1980SOL    HW117573   3.028   2.856  13.675 -0.5018  1.9886  3.0866
 1980SOL    HW217574   2.999   3.003  13.677  0.7323  0.9765 -3.9539
 1981SOL     OW17575   3.355   1.250   8.023 -0.5871 -0.3195  0.1941
 1981SOL    HW117576   3.380   1.314   7.956  2.3787 -0.0785  1.5242
 1981SOL    HW217577   3.281   1.299   8.057  0.3794  1.3762 -0.1097
 1982SOL     OW17578   4.601   4.489   6.973 -0.7129 -0.0746  0.4539
 1982SOL    HW117579   4.608   4.429   7.047 -0.4894 -1.5919 -0.8105
 1982SOL    HW217580   4.509   4.508   6.991 -0.9401  0.1743 -0.9802
 1983SOL     OW17581   2.145   0.583   3.523 -0.2203  0.4730 -0.4372
 1983SOL    HW117582   2.199   0.641   3.576 -0.9407  0.1226  0.6916
 1983SOL    HW217583   2.204   0.508   3.528  1.0311  1.7858  4.5251
 1984SOL     OW17584   3.639   2.139   7.468  0.3363  0.2093 -0.0516
 1984SOL    HW117585   3.570   2.093   7.515  0.3066  0.5946  0.2893
 1984SOL    HW217586   3.710   2.153   7.530 -0.5119 -1.0089  1.1948
 1985SOL     OW17587   0.257   3.463   7.440 -0.2480  0.3233 -0.2765
 1985SOL    HW117588   0.188   3.518   7.402 -0.5441  0.0383 -0.1449
 1985SOL    HW217589   0.216   3.434   7.521 -0.8060  1.3770 -0.1744
 1986SOL     OW17590   4.668   0.034   9.207 -0.5676 -0.6676  0.9059
 1986SOL    HW117591   0.008   0.048   9.152 -0.9852  0.0801  0.5186
 1986SOL    HW217592   4.680   4.677   9.224 -2.7963 -0.8194  1.6542
 1987SOL     OW17593   1.622   4.171   4.508  0.6523 -0.7944  0.3740
 1987SOL    HW117594   1.609   4.078   4.490 -0.1650 -0.7215  0.5767
 1987SOL    HW217595   1.696   4.164   4.568  0.9608  2.5042  0.3582
 1988SOL     OW17596   1.397   2.289   3.423  0.1878 -0.4556  0.2269
 1988SOL    HW117597   1.353   2.329   3.498  0.5803 -0.7206  0.5980
 1988SOL    HW217598   1.480   2.274   3.469  1.2302  1.4996 -1.0127
 1989SOL     OW17599   1.586   4.666   7.233 -0.5311  0.1266 -0.0712
 1989SOL    HW117600   1.498   4.700   7.251 -0.5264 -0.2467  0.6709
 1989SOL    HW217601   1.586   4.645   7.140 -3.7257 -0.2768  0.0257
 1990SOL     OW17602   1.433   1.129   2.262  0.3481 -0.2197 -0.2692
 1990SOL    HW117603   1.345   1.160   2.244  0.9912  3.5114  3.1374
 1990SOL    HW217604   1.405   1.075   2.337  0.3510 -0.6387 -0.5679
 1991SOL     OW17605   2.758   2.878   6.480  0.2160  0.5318  0.3473
 1991SOL    HW117606   2.678   2.834   6.450  0.2668  1.4587 -1.1450
 1991SOL    HW217607   2.748   2.956   6.426  0.3824  1.4359  1.6108
 1992SOL     OW17608   0.889   1.177   9.205  0.3977  0.2084 -0.1066
 1992SOL    HW117609   0.887   1.233   9.283 -1.7602 -0.0058 -0.0147
 1992SOL    HW217610   0.898   1.090   9.244  1.1772 -0.4903 -1.8669
 1993SOL     OW17611   1.239   1.997   5.155  0.1918  0.1013  0.3407
 1993SOL    HW117612   1.206   2.004   5.245 -1.1139 -0.2671 -0.1128
 1993SOL    HW217613   1.238   2.089   5.127 -2.0426 -0.2396 -0.6579
 1994SOL     OW17614   0.872   0.350   8.323  0.2182  0.6459 -0.1714
 1994SOL    HW117615   0.926   0.411   8.272 -0.9104  1.6275 -0.1942
 1994SOL    HW217616   0.814   0.409   8.372 -0.4252 -0.9440  0.9572
 1995SOL     OW17617   0.168   3.156   6.022  0.1742 -0.2746  0.2259
 1995SOL    HW117618   0.214   3.180   6.103 -0.2537  0.5166  0.2312
 1995SOL    HW217619   0.148   3.246   5.998  0.2316 -0.7598 -1.6436
 1996SOL     OW17620   4.188   1.639   8.896  0.0958 -0.3615  0.0537
 1996SOL    HW117621   4.195   1.610   8.805  2.3375  2.3676 -0.6482
 1996SOL    HW217622   4.166   1.557   8.940  2.7438 -0.8926  0.3605
 1997SOL     OW17623   4.304   3.740   9.157 -0.4274  0.1825  1.0141
 1997SOL    HW117624   4.220   3.703   9.184 -0.3314 -0.6151  0.2145
 1997SOL    HW217625   4.365   3.695   9.216  2.0924 -0.2362 -1.9159
 1998SOL     OW17626   2.098   1.827   5.549 -0.1029 -0.2339 -0.2156
 1998SOL    HW117627   2.183   1.838   5.507 -0.8077 -0.2940 -1.6577
 1998SOL    HW217628   2.090   1.732   5.558  0.4938 -0.1762  0.8898
 1999SOL     OW17629   1.492   1.006  16.353  0.4097  0.3795 -0.4726
 1999SOL    HW117630   1.518   1.038  16.266  0.8242  2.3446  0.3786
 1999SOL    HW217631   1.421   1.067  16.371  0.6098  0.6320 -0.5363
 2000SOL     OW17632   0.932   3.170   9.617 -0.0292 -0.0767  0.2617
 2000SOL    HW117633   1.006   3.230   9.629 -0.5616  0.8292 -1.1194
 2000SOL    HW217634   0.874   3.208   9.683  0.4663 -0.5971  0.9998
 2001SOL     OW17635   0.603   0.072  17.164 -0.6381  0.2227  0.1698
 2001SOL    HW117636   0.643   0.125  17.095 -1.8308 -0.9144 -1.4023
 2001SOL    HW217637   0.674   0.061  17.227 -1.8895  0.0903  1.5351
 2002SOL     OW17638   1.362   2.819  12.414  0.7844  0.2130  0.1302
 2002SOL    HW117639   1.398   2.754  12.354 -0.8309 -1.5192  1.0804
 2002SOL    HW217640   1.363   2.768  12.494  1.9892  0.3025  0.1752
 2003SOL     OW17641   3.367   0.209   7.567  0.6987 -0.2361 -0.2839
 2003SOL    HW117642   3.312   0.287   7.580 -0.1324 -0.8969  0.1445
 2003SOL    HW217643   3.445   0.248   7.528  0.6075 -1.8233 -2.0734
 2004SOL     OW17644   4.662   2.386  13.227  0.1636 -0.4411 -0.1545
 2004SOL    HW117645   4.704   2.361  13.309 -0.1199  0.1473  0.1669
 2004SOL    HW217646   4.708   2.470  13.222 -1.8737  0.7245  0.8281
 2005SOL     OW17647   3.532   2.869  15.005 -0.1522  0.6074  0.1304
 2005SOL    HW117648   3.454   2.815  15.017  0.3187 -0.4958 -1.7973
 2005SOL    HW217649   3.502   2.957  15.029 -0.4744  0.6751 -0.5039
 2006SOL     OW17650   1.865   2.763   4.759  0.6749 -0.2710  0.3406
 2006SOL    HW117651   1.929   2.728   4.820  4.4890  3.5514 -1.4994
 2006SOL    HW217652   1.905   2.732   4.678  0.9474 -1.3476  0.8765
 2007SOL     OW17653   3.658   3.594   2.453 -0.1080 -0.5066  0.4272
 2007SOL    HW117654   3.631   3.557   2.368  3.3101 -2.2813  0.1354
 2007SOL    HW217655   3.736   3.645   2.429 -0.5582  0.1187  0.2699
 2008SOL     OW17656   1.392   3.363  12.357 -0.3403  0.0668 -0.4046
 2008SOL    HW117657   1.438   3.436  12.315  2.3036 -1.2705  0.1655
 2008SOL    HW217658   1.299   3.383  12.349 -0.3234 -0.7717 -2.9633
 2009SOL     OW17659   0.007   2.585   8.706  0.8175 -0.0250 -0.0142
 2009SOL    HW117660   4.680   2.621   8.767  0.2974  1.7654 -1.6202
 2009SOL    HW217661   0.023   2.500   8.747  1.4431  0.5998  1.0221
 2010SOL     OW17662   1.510   4.195   6.997  0.1470 -0.2295 -0.1452
 2010SOL    HW117663   1.443   4.259   7.018 -2.7805 -3.1461 -0.6600
 2010SOL    HW217664   1.455   4.120   6.973  0.8002  0.6572 -4.5238
 2011SOL     OW17665   3.169   1.203   3.617 -0.8069  0.2426 -0.6634
 2011SOL    HW117666   3.244   1.169   3.568 -1.3240 -1.6507 -0.1479
 2011SOL    HW217667   3.195   1.186   3.708 -0.6650 -0.2075 -0.7863
 2012SOL     OW17668   0.441   4.605   4.868 -0.1377 -0.6589 -0.2582
 2012SOL    HW117669   0.488   4.688   4.857  0.4608 -0.9841 -0.1590
 2012SOL    HW217670   0.511   4.556   4.911 -0.8187 -1.6308 -0.2462
 2013SOL     OW17671   2.460   1.006   1.444  0.1044 -0.1001  0.0891
 2013SOL    HW117672   2.497   1.064   1.510  0.8674  1.0852 -1.3802
 2013SOL    HW217673   2.465   1.071   1.374 -1.8611 -0.1653 -0.1217
 2014SOL     OW17674   2.247   4.704   4.379 -0.3697 -0.1923  0.0862
 2014SOL    HW117675   2.276   4.613   4.387  0.9896  0.1755 -0.6242
 2014SOL    HW217676   2.184   4.715   4.450 -1.0821  1.7421 -0.8512
 2015SOL     OW17677   2.179   2.088   6.010 -0.4321 -0.1159 -1.0596
 2015SOL    HW117678   2.157   2.168   5.961  0.8271  0.2555 -1.0150
 2015SOL    HW217679   2.156   2.126   6.095  0.5594 -3.0244  0.4714
 2016SOL     OW17680   2.720   3.574   6.212 -0.1428 -0.1215 -0.8585
 2016SOL    HW117681   2.727   3.521   6.133  0.8372 -0.8705 -0.2756
 2016SOL    HW217682   2.792   3.634   6.192 -1.1834  0.4881 -2.7535
 2017SOL     OW17683   0.324   3.048   8.795  0.0953  0.1148  0.5111
 2017SOL    HW117684   0.240   3.037   8.840 -0.4630 -0.7483 -0.7145
 2017SOL    HW217685   0.383   3.090   8.857  0.0886 -0.4095  0.8764
 2018SOL     OW17686   2.639   4.196  13.563  0.4194  0.2887  0.1145
 2018SOL    HW117687   2.709   4.245  13.605  0.0722  0.5934  0.3362
 2018SOL    HW217688   2.621   4.114  13.611  0.5005  1.4567  2.1403
 2019SOL     OW17689   1.419   0.804   6.583 -0.2013  0.3963 -0.2452
 2019SOL    HW117690   1.498   0.856   6.568  0.0153  0.7576  2.1526
 2019SOL    HW217691   1.382   0.856   6.655  0.7349 -1.5688  1.6406
 2020SOL     OW17692   2.939   1.194  17.654  0.4925 -0.1969 -0.2378
 2020SOL    HW117693   2.876   1.125  17.679 -2.0538  0.5778 -4.4799
 2020SOL    HW217694   2.948   1.174  17.561 -0.4091  0.2951 -0.4295
 2021SOL     OW17695   4.300   2.149   6.912 -0.6300  0.3443 -0.3924
 2021SOL    HW117696   4.392   2.168   6.892 -0.1912 -1.5812 -0.1876
 2021SOL    HW217697   4.286   2.059   6.882  0.7878  0.0818 -0.2607
 2022SOL     OW17698   1.126   0.868   7.804  0.0293 -0.2726 -0.0983
 2022SOL    HW117699   1.217   0.837   7.799  0.8473  2.0501  0.6225
 2022SOL    HW217700   1.126   0.903   7.893  0.0040  1.4283 -0.7835
 2023SOL     OW17701   4.542   0.300   7.526  0.2596  0.4124 -0.2528
 2023SOL    HW117702   4.594   0.380   7.538 -0.8138  1.0573  0.0543
 2023SOL    HW217703   4.549   0.255   7.610 -1.8023 -0.0938 -0.3656
 2024SOL     OW17704   4.284   4.317   8.920  0.1136 -0.0889  0.1662
 2024SOL    HW117705   4.230   4.396   8.909  0.2897  0.3533  2.5304
 2024SOL    HW217706   4.230   4.240   8.935 -3.0019  1.7520 -1.4809
 2025SOL     OW17707   3.032   0.936   8.071  0.3066  0.4571  0.1383
 2025SOL    HW117708   2.939   0.954   8.055 -0.1676  0.4415  2.8546
 2025SOL    HW217709   3.047   0.977   8.156 -0.0189  0.0137  0.4108
 2026SOL     OW17710   2.371   1.439   5.361 -0.1644 -0.1073  0.3924
 2026SOL    HW117711   2.437   1.505   5.380 -1.2473  0.3284  2.6537
 2026SOL    HW217712   2.397   1.409   5.274 -0.0656 -0.0437  0.4011
 2027SOL     OW17713   0.977   3.720   6.841 -0.9375 -0.3571 -0.3467
 2027SOL    HW117714   1.005   3.811   6.845  1.1860 -0.9653 -1.5703
 2027SOL    HW217715   0.952   3.710   6.749  1.1646  1.8018 -1.1475
 2028SOL     OW17716   2.659   1.216  10.369  0.0611  0.4337 -0.9168
 2028SOL    HW117717   2.660   1.260  10.284  0.7961  2.7238  0.2951
 2028SOL    HW217718   2.676   1.290  10.427 -1.0080  0.5833 -0.7927
 2029SOL     OW17719   1.727   1.361   4.764 -0.0011  0.0344  0.2724
 2029SOL    HW117720   1.777   1.300   4.709 -0.0761 -0.8168  1.1524
 2029SOL    HW217721   1.762   1.446   4.739 -1.5812  0.4486 -0.5101
 2030SOL     OW17722   2.402   3.094  10.198  0.5402 -0.3100  0.4048
 2030SOL    HW117723   2.425   3.142  10.118  0.6335 -0.7665  0.1583
 2030SOL    HW217724   2.318   3.132  10.226  1.7185  1.3294  1.6799
 2031SOL     OW17725   3.198   2.733  16.209  0.1185 -0.0192  0.3794
 2031SOL    HW117726   3.237   2.701  16.127  0.4680 -1.8028  1.2338
 2031SOL    HW217727   3.110   2.696  16.214 -0.3073  0.8121 -1.0088
 2032SOL     OW17728   2.688   3.274   7.097  0.0663 -0.7485  0.0158
 2032SOL    HW117729   2.704   3.369   7.092  2.7096 -1.1794  0.1890
 2032SOL    HW217730   2.683   3.249   7.005 -0.6330  0.9527 -0.4092
 2033SOL     OW17731   4.359   3.870  10.475  0.5362  0.2151  0.9405
 2033SOL    HW117732   4.264   3.887  10.479  0.3012 -0.6641 -0.9801
 2033SOL    HW217733   4.352   3.790  10.423 -2.6401  1.3320 -0.4024
 2034SOL     OW17734   2.067   0.091   7.599 -0.0760  0.5123  0.0995
 2034SOL    HW117735   2.069   0.093   7.695  3.4330  0.1979  0.0402
 2034SOL    HW217736   2.093   4.736   7.589 -0.0762  0.6792 -1.4819
 2035SOL     OW17737   1.752   0.363   2.994  0.0788 -0.2217  0.3873
 2035SOL    HW117738   1.668   0.322   2.972 -0.3515  0.6008  0.5157
 2035SOL    HW217739   1.814   0.290   2.982  1.4128  0.8593  0.6418
 2036SOL     OW17740   1.954   3.630   2.837 -0.5577  0.1830 -0.3276
 2036SOL    HW117741   1.942   3.724   2.824  1.0401  0.6741  1.6574
 2036SOL    HW217742   1.966   3.612   2.744 -0.2194  0.6463 -0.3722
 2037SOL     OW17743   2.774   4.154  12.630 -0.2292  0.2664 -0.6794
 2037SOL    HW117744   2.836   4.208  12.582  0.3311 -1.0139 -1.3886
 2037SOL    HW217745   2.686   4.190  12.615 -1.1474 -0.7419  2.3144
 2038SOL     OW17746   2.662   0.451   8.736 -0.8120  0.4090 -0.1345
 2038SOL    HW117747   2.661   0.473   8.829 -0.8330  0.1865 -0.0806
 2038SOL    HW217748   2.648   0.356   8.730 -1.0641  0.5136 -1.2744
 2039SOL     OW17749   2.896   1.971   8.471 -0.1773 -0.0001  0.7253
 2039SOL    HW117750   2.941   1.887   8.465 -0.6991 -0.3108  1.2097
 2039SOL    HW217751   2.842   1.970   8.392 -1.8385 -0.0320  1.8765
 2040SOL     OW17752   1.606   2.106   7.586 -0.2047  0.2095  0.4044
 2040SOL    HW117753   1.617   2.015   7.561 -0.6669  0.2824 -0.0736
 2040SOL    HW217754   1.593   2.143   7.498  0.6985 -0.2727  0.0730
 2041SOL     OW17755   1.772   0.583   9.159  0.3736 -0.1980 -0.3774
 2041SOL    HW117756   1.819   0.501   9.142  0.0708 -0.5611  0.5802
 2041SOL    HW217757   1.683   0.557   9.183 -0.3181  1.3294 -1.2729
 2042SOL     OW17758   3.194   3.206   3.835 -0.3947 -0.1759  0.2015
 2042SOL    HW117759   3.184   3.271   3.904 -1.8924  0.3397 -0.5043
 2042SOL    HW217760   3.226   3.258   3.762  3.7893 -1.3622  1.1688
 2043SOL     OW17761   2.490   4.689   7.960 -0.2332 -0.3615  0.3876
 2043SOL    HW117762   2.576   4.674   7.923  1.0417 -0.1966  3.3114
 2043SOL    HW217763   2.500   0.040   7.996  0.0884  0.3528 -1.4573
 2044SOL     OW17764   3.501   3.872   4.034  0.5977 -0.3651 -0.0784
 2044SOL    HW117765   3.513   3.953   4.083  0.6027 -1.3374  1.5333
 2044SOL    HW217766   3.559   3.901   3.964  0.8229  2.0664  1.1051
 2045SOL     OW17767   4.581   3.684   8.050 -0.1705 -0.3283 -0.3475
 2045SOL    HW117768   4.585   3.748   7.979 -0.6495 -2.5175 -2.3441
 2045SOL    HW217769   4.498   3.639   8.035  0.8338 -3.1515  2.6064
 2046SOL     OW17770   4.219   1.179   6.271 -0.2159 -0.4280  0.2274
 2046SOL    HW117771   4.267   1.180   6.354 -0.6733  1.2481  0.4604
 2046SOL    HW217772   4.144   1.121   6.288 -1.5597  0.9574 -1.0026
 2047SOL     OW17773   1.077   3.126   5.660 -0.0511  0.1811  0.3274
 2047SOL    HW117774   1.073   3.220   5.642 -0.3467  0.2258  0.6373
 2047SOL    HW217775   1.096   3.090   5.573  3.6222 -1.1804  1.7011
 2048SOL     OW17776   2.691   2.927  14.334  0.6187 -0.3170 -0.1771
 2048SOL    HW117777   2.670   3.014  14.368 -2.4847 -0.6462 -1.2305
 2048SOL    HW217778   2.771   2.947  14.284  0.2426  1.8765  0.0766
 2049SOL     OW17779   2.908   4.432  13.324 -0.2820  0.3792 -0.2593
 2049SOL    HW117780   2.847   4.506  13.335  1.1176  1.5528 -0.3655
 2049SOL    HW217781   2.983   4.471  13.279 -0.3434 -0.0167 -0.7069
 2050SOL     OW17782   2.997   0.323   5.088  0.0851  0.9573  0.1920
 2050SOL    HW117783   2.929   0.338   5.023  0.8020 -2.4146 -1.3416
 2050SOL    HW217784   2.959   0.354   5.170  0.4304  3.7404 -0.7246
 2051SOL     OW17785   4.241   3.154   4.591  0.1042  0.3497  0.1657
 2051SOL    HW117786   4.173   3.097   4.626  1.3242 -0.4108  1.2729
 2051SOL    HW217787   4.244   3.124   4.500  0.8778 -1.7784  0.9047
 2052SOL     OW17788   3.307   1.742   1.794  0.0813 -0.3145  0.2708
 2052SOL    HW117789   3.219   1.717   1.824  0.1079  1.0241  1.4623
 2052SOL    HW217790   3.348   1.660   1.770  0.4102  0.3048 -1.2840
 2053SOL     OW17791   3.788   0.044   1.893  0.6745 -0.5251  0.2530
 2053SOL    HW117792   3.753   0.002   1.972 -3.5677 -1.5273 -2.1366
 2053SOL    HW217793   3.835   4.711   1.848 -0.8230 -2.9916  2.5016
 2054SOL     OW17794   3.831   0.146   4.510 -0.1270 -0.6619 -0.0777
 2054SOL    HW117795   3.814   0.066   4.460 -0.6274 -0.5271 -0.1282
 2054SOL    HW217796   3.864   0.202   4.439 -0.3280 -1.7992 -1.0538
 2055SOL     OW17797   3.540   3.550   8.822  0.0963 -0.0817  0.1415
 2055SOL    HW117798   3.486   3.625   8.797 -0.6990  0.3515  3.1820
 2055SOL    HW217799   3.479   3.490   8.863  0.3282 -0.3042  0.1650
 2056SOL     OW17800   2.033   4.138  14.216  0.4378 -0.0609 -0.4261
 2056SOL    HW117801   1.982   4.219  14.207 -1.1132 -0.9557  0.3188
 2056SOL    HW217802   2.035   4.100  14.128  1.7969 -1.6768  0.3014
 2057SOL     OW17803   2.299   1.166  10.736 -0.3241 -0.1403  0.4342
 2057SOL    HW117804   2.299   1.081  10.692 -1.8347 -0.0835  0.3519
 2057SOL    HW217805   2.354   1.135  10.809  0.9488  2.1270  0.4426
 2058SOL     OW17806   1.989   2.900   4.203  0.1353 -0.0804 -0.2620
 2058SOL    HW117807   1.987   2.982   4.154  1.8975  0.0342 -0.1268
 2058SOL    HW217808   2.032   2.928   4.284 -0.1111  1.0156 -0.5056
 2059SOL     OW17809   0.362   1.069   1.365 -0.0758 -0.6401  0.0387
 2059SOL    HW117810   0.294   1.016   1.324 -0.3306 -0.6574  0.4862
 2059SOL    HW217811   0.393   1.112   1.285 -0.8420 -0.7307 -0.3064
 2060SOL     OW17812   1.101   2.051   2.850  0.5070  0.3795 -0.3014
 2060SOL    HW117813   1.175   1.990   2.849  0.8460  0.7434  1.8636
 2060SOL    HW217814   1.123   2.103   2.928  0.9924 -0.4363  0.1021
 2061SOL     OW17815   2.760   2.320   5.923  0.2898 -0.0529  0.1011
 2061SOL    HW117816   2.755   2.236   5.878  0.0260 -1.1208  2.1056
 2061SOL    HW217817   2.684   2.359   5.880  1.0090  1.6569  0.3561
 2062SOL     OW17818   0.693   0.061   8.307 -0.0879 -0.1676  0.2746
 2062SOL    HW117819   0.690   0.141   8.360 -3.7318  0.5318 -0.9772
 2062SOL    HW217820   0.698   4.730   8.374  1.7752 -0.7886 -0.4936
 2063SOL     OW17821   0.124   0.292   9.646  0.9276  0.0390  0.2049
 2063SOL    HW117822   0.096   0.271   9.735 -3.2139 -0.3945 -1.1738
 2063SOL    HW217823   0.217   0.269   9.649  0.3566 -1.9313  2.5444
 2064SOL     OW17824   0.537   2.700   2.391  0.2168 -0.0245 -0.1179
 2064SOL    HW117825   0.475   2.764   2.425  0.3002 -0.0714  0.1221
 2064SOL    HW217826   0.602   2.768   2.371  2.3095 -2.7372 -2.4980
 2065SOL     OW17827   0.028   1.895   3.245 -0.8322 -0.4390  0.8537
 2065SOL    HW117828   4.708   1.845   3.188 -0.5842 -1.0561  1.1441
 2065SOL    HW217829   0.004   1.983   3.219  0.7391  0.5032  2.5143
 2066SOL     OW17830   4.565   1.225   3.908 -0.2260 -0.1150  0.0522
 2066SOL    HW117831   4.508   1.258   3.838 -0.3481  0.0747  0.2397
 2066SOL    HW217832   4.558   1.298   3.969  1.0776 -0.1252  0.2006
 2067SOL     OW17833   1.098   0.186   9.303 -0.6305 -0.1249 -0.3740
 2067SOL    HW117834   1.003   0.184   9.291 -0.7638  2.9263  0.0582
 2067SOL    HW217835   1.106   0.120   9.371  1.7806  0.0989 -0.4457
 2068SOL     OW17836   0.951   3.199   8.244 -0.0082  0.2987  0.4158
 2068SOL    HW117837   0.974   3.278   8.294  0.0937  0.7143 -0.2983
 2068SOL    HW217838   0.857   3.212   8.252 -0.5132 -1.4767 -3.0543
 2069SOL     OW17839   2.632   4.194  14.699  0.7185  0.1928  0.2398
 2069SOL    HW117840   2.618   4.246  14.620  0.3391 -1.0950 -0.5386
 2069SOL    HW217841   2.571   4.122  14.689  1.1705  0.2154 -2.7937
 2070SOL     OW17842   0.909   4.085   9.087 -0.5897  0.6675  0.2513
 2070SOL    HW117843   0.968   4.157   9.110 -0.7221  0.0355  2.5905
 2070SOL    HW217844   0.914   4.080   8.992 -0.6438  1.5833  0.2001
 2071SOL     OW17845   3.604   0.773  12.390  0.1420 -0.1107  0.1944
 2071SOL    HW117846   3.530   0.814  12.434 -0.4477 -1.1346  0.1621
 2071SOL    HW217847   3.560   0.692  12.364  0.3704  0.3291 -1.5655
 2072SOL     OW17848   1.439   0.907   7.364  0.3488  0.1014  0.5295
 2072SOL    HW117849   1.360   0.951   7.396 -0.2314 -0.4457 -0.1602
 2072SOL    HW217850   1.417   0.815   7.381  0.8114 -0.4314 -1.7854
 2073SOL     OW17851   2.407   0.930   8.536 -0.4617 -0.2662 -0.0038
 2073SOL    HW117852   2.413   0.855   8.594  1.6317  0.6787  0.9842
 2073SOL    HW217853   2.464   0.996   8.576 -3.3370  1.4529  1.2442
 2074SOL     OW17854   3.197   3.970   3.922  0.2105  0.4679  0.2913
 2074SOL    HW117855   3.203   3.931   4.010 -1.8024 -2.7079 -0.9917
 2074SOL    HW217856   3.218   3.896   3.865 -1.6622 -0.1350  0.4022
 2075SOL     OW17857   4.493   2.880   9.068  0.1244  0.1307 -0.4887
 2075SOL    HW117858   4.519   2.886   9.160  0.0361 -1.6549 -0.3332
 2075SOL    HW217859   4.458   2.966   9.045 -0.3518 -0.1544 -0.8295
 2076SOL     OW17860   0.987   3.292   4.317 -0.7950 -0.5332 -0.1128
 2076SOL    HW117861   1.019   3.345   4.244 -2.9820 -0.4619 -1.0048
 2076SOL    HW217862   1.039   3.328   4.390 -0.5858 -1.8291  0.3770
 2077SOL     OW17863   3.947   0.710   6.498 -0.0328  0.1164  0.4382
 2077SOL    HW117864   3.898   0.704   6.580 -2.0834  3.2347 -0.5673
 2077SOL    HW217865   3.893   0.651   6.445 -2.3922  1.4249  1.4406
 2078SOL     OW17866   1.439   0.984   5.839  0.3344  0.2724  0.3693
 2078SOL    HW117867   1.441   0.930   5.917  0.4504  1.7674  1.3955
 2078SOL    HW217868   1.365   0.962   5.782  0.0711  3.0587 -0.3749
 2079SOL     OW17869   4.101   0.127   8.122 -0.3135 -0.4639 -0.2630
 2079SOL    HW117870   4.086   0.068   8.048  2.4297 -0.8847 -0.4687
 2079SOL    HW217871   4.144   0.199   8.076 -1.4469  0.9190  0.8633
 2080SOL     OW17872   2.717   0.171  15.004 -0.1540 -0.2787  0.2342
 2080SOL    HW117873   2.764   0.209  14.929  0.2158  1.2107  1.2293
 2080SOL    HW217874   2.711   0.077  14.984 -1.7329  0.3902 -2.4490
 2081SOL     OW17875   0.524   2.542   2.587  0.1301  0.2457 -0.2784
 2081SOL    HW117876   0.495   2.460   2.546 -0.5470 -0.1888  1.0517
 2081SOL    HW217877   0.533   2.597   2.509  0.9402 -0.4540 -0.6766
 2082SOL     OW17878   2.508   0.795  14.508 -0.1227  0.2758 -0.3392
 2082SOL    HW117879   2.479   0.719  14.459  2.3463 -0.5918 -0.4550
 2082SOL    HW217880   2.516   0.856  14.435  1.1212 -1.5877 -1.7290
 2083SOL     OW17881   0.565   4.449   4.599  0.2787 -0.2294  0.2100
 2083SOL    HW117882   0.570   4.426   4.691 -0.2903 -0.8017  0.0976
 2083SOL    HW217883   0.479   4.416   4.573 -0.0922  0.0075  1.1615
 2084SOL     OW17884   1.773   4.048   9.819  0.0692 -0.3568 -0.2279
 2084SOL    HW117885   1.710   3.984   9.786  1.4034 -0.7358 -2.0323
 2084SOL    HW217886   1.767   4.032   9.913  3.4582  2.3417  0.4528
 2085SOL     OW17887   4.329   3.176   8.364 -0.4059 -0.3331 -0.2366
 2085SOL    HW117888   4.361   3.259   8.328 -1.3086  0.5294  0.9311
 2085SOL    HW217889   4.244   3.203   8.400 -0.0976  1.2390 -0.6680
 2086SOL     OW17890   3.882   1.356   4.231 -0.4268  0.4564 -0.0501
 2086SOL    HW117891   3.817   1.425   4.238 -2.3671 -1.3110 -0.9039
 2086SOL    HW217892   3.963   1.405   4.244 -1.1720  1.4475  0.8446
 2087SOL     OW17893   4.678   1.307   8.409 -0.2444  0.2739  0.1078
 2087SOL    HW117894   4.708   1.397   8.423 -0.0794  0.6871 -3.0049
 2087SOL    HW217895   0.008   1.257   8.457 -0.1435 -1.1317 -1.4997
 2088SOL     OW17896   1.940   0.824   3.387 -0.4117 -0.5750 -0.3228
 2088SOL    HW117897   1.956   0.915   3.412  0.3824 -0.8325  0.1131
 2088SOL    HW217898   1.884   0.781   3.451 -1.4114 -0.1537 -0.9040
 2089SOL     OW17899   3.132   0.209   6.819  0.1998 -0.3562  0.1244
 2089SOL    HW117900   3.116   0.138   6.882  0.7338 -0.5666  0.0192
 2089SOL    HW217901   3.106   0.168   6.737 -1.6216 -0.4362  0.7368
 2090SOL     OW17902   0.857   4.361   9.517  0.2465 -0.5506  0.2748
 2090SOL    HW117903   0.777   4.404   9.488  0.5894  0.6069  1.0686
 2090SOL    HW217904   0.929   4.409   9.477 -0.5352  1.4501  1.2912
 2091SOL     OW17905   3.991   2.237   8.504  0.3486  0.0791 -0.4365
 2091SOL    HW117906   4.069   2.206   8.550  1.8920  1.0424 -2.3808
 2091SOL    HW217907   3.938   2.159   8.516 -0.5032  0.8079  0.5431
 2092SOL     OW17908   2.401   2.977   5.520 -0.0979  0.1268 -0.3680
 2092SOL    HW117909   2.368   2.887   5.531  1.5496 -0.3107  1.0316
 2092SOL    HW217910   2.435   2.979   5.431 -1.2126 -1.7634 -0.8483
 2093SOL     OW17911   3.224   3.434   5.977  0.1714 -0.0349 -0.0288
 2093SOL    HW117912   3.172   3.422   6.056  1.0562 -1.1680  0.3719
 2093SOL    HW217913   3.295   3.484   6.017  0.6393  0.8871 -1.9764
 2094SOL     OW17914   4.640   0.600  10.529 -0.3846  0.0384  0.5126
 2094SOL    HW117915   4.736   0.593  10.534 -0.3528 -1.3678 -1.8861
 2094SOL    HW217916   4.607   0.546  10.601 -0.8837 -0.2242  0.0866
 2095SOL     OW17917   4.479   3.485   2.621 -0.1542 -0.0309 -0.0331
 2095SOL    HW117918   4.421   3.555   2.593 -0.3927 -1.0002 -1.9829
 2095SOL    HW217919   4.561   3.535   2.622  1.0936 -2.0282 -0.8729
 2096SOL     OW17920   1.267   0.640   4.655  0.0264  0.2339  0.3017
 2096SOL    HW117921   1.344   0.680   4.615 -1.0122  3.6476  1.7149
 2096SOL    HW217922   1.237   0.580   4.587  0.1505  0.4988  0.0080
 2097SOL     OW17923   3.596   1.132   9.072  0.0570  0.6066  0.3750
 2097SOL    HW117924   3.684   1.132   9.110  0.0536  2.3268  0.4075
 2097SOL    HW217925   3.578   1.224   9.051 -1.6070  0.1487 -0.1432
 2098SOL     OW17926   3.913   0.906   9.056 -0.0736  0.1763 -0.6416
 2098SOL    HW117927   3.867   0.871   9.132  1.5266 -0.2398  0.1280
 2098SOL    HW217928   4.007   0.905   9.076 -0.4043 -1.7842  0.8405
 2099SOL     OW17929   2.496   1.236  16.785 -0.6027  0.1594 -0.5709
 2099SOL    HW117930   2.418   1.198  16.746 -0.9569  0.3634 -0.0720
 2099SOL    HW217931   2.536   1.278  16.710  0.4770 -1.3645 -0.8579
 2100SOL     OW17932   2.181   2.696   1.937  0.0176 -0.0782  0.4098
 2100SOL    HW117933   2.097   2.678   1.895 -0.0410  0.3219  0.3526
 2100SOL    HW217934   2.249   2.648   1.890  0.9787  0.6715  1.0480
 2101SOL     OW17935   0.243   1.148   5.369 -0.0999 -0.3690  0.2580
 2101SOL    HW117936   0.269   1.168   5.279  2.2762  0.0545  1.0185
 2101SOL    HW217937   0.156   1.187   5.369 -0.2491 -0.6870  1.0032
 2102SOL     OW17938   2.829   0.447   3.192  0.6114 -0.2414  0.4402
 2102SOL    HW117939   2.861   0.508   3.258  2.4053  0.0491 -0.7086
 2102SOL    HW217940   2.734   0.461   3.192  0.6221 -0.1831 -0.6878
 2103SOL     OW17941   0.126   1.807   6.308 -0.0015  0.2157 -0.4065
 2103SOL    HW117942   0.072   1.772   6.378  0.2888  2.4644  0.9303
 2103SOL    HW217943   0.205   1.836   6.354 -0.9810  2.4286 -0.1029
 2104SOL     OW17944   1.067   3.420   4.561 -0.2224  0.2439 -0.5241
 2104SOL    HW117945   1.149   3.455   4.525  0.4653 -0.4847  0.3433
 2104SOL    HW217946   1.027   3.506   4.572 -1.8273 -0.7525  1.3310
 2105SOL     OW17947   4.430   0.480   8.772 -0.6908  0.0074 -0.5619
 2105SOL    HW117948   4.440   0.532   8.852 -0.8918 -0.9776  0.0929
 2105SOL    HW217949   4.338   0.455   8.771 -0.8111  0.4813 -2.3708
 2106SOL     OW17950   2.673   2.164   0.115 -0.2956 -0.3548 -0.0867
 2106SOL    HW117951   2.717   2.176   0.031 -1.1520  0.7870 -0.3661
 2106SOL    HW217952   2.754   2.183   0.162 -0.3146 -0.1505 -0.1359
 2107SOL     OW17953   3.012   0.886   3.436 -0.0292  0.1165 -0.3211
 2107SOL    HW117954   2.962   0.959   3.400 -0.1575  0.0225 -0.3377
 2107SOL    HW217955   3.097   0.923   3.413 -0.3052  0.3897 -0.8993
 2108SOL     OW17956   1.390   3.149   2.182 -0.0107 -0.3820 -0.1657
 2108SOL    HW117957   1.348   3.190   2.107  1.4763 -0.5344 -1.0649
 2108SOL    HW217958   1.450   3.221   2.201 -1.0653  0.7362 -1.0809
 2109SOL     OW17959   0.084   2.916  10.203 -0.2727  0.8128  0.2169
 2109SOL    HW117960   0.136   2.988  10.237  2.0101 -0.1956 -1.2031
 2109SOL    HW217961   0.131   2.844  10.244 -0.8138  1.3983  1.8840
 2110SOL     OW17962   3.719   0.234   8.554 -0.5964 -0.2265 -0.0781
 2110SOL    HW117963   3.800   0.184   8.545  0.1210  1.2247 -1.4998
 2110SOL    HW217964   3.671   0.181   8.618  0.6579 -0.3054  0.7805
 2111SOL     OW17965   3.148   3.179  13.483  0.0743  0.3883 -0.0552
 2111SOL    HW117966   3.130   3.173  13.577 -0.9693  0.8016 -0.2261
 2111SOL    HW217967   3.184   3.092  13.464  0.6580  1.1080 -2.2227
 2112SOL     OW17968   1.144   3.421   4.141 -0.0630 -0.1915 -0.1651
 2112SOL    HW117969   1.162   3.344   4.086 -2.0348 -1.7632  1.4176
 2112SOL    HW217970   1.127   3.477   4.065 -0.2862  1.8053  1.3521
 2113SOL     OW17971   3.530   4.215   9.568  0.0579 -0.0916 -0.0434
 2113SOL    HW117972   3.571   4.299   9.545  2.1350 -1.2628 -0.6215
 2113SOL    HW217973   3.499   4.235   9.656  0.4547  1.7475 -0.3160
 2114SOL     OW17974   0.529   4.688   4.463 -0.0231 -0.2350  0.1662
 2114SOL    HW117975   0.458   4.659   4.406  1.5545 -0.8465 -1.4908
 2114SOL    HW217976   0.541   4.612   4.520 -1.4999  0.9415  2.0502
 2115SOL     OW17977   0.638   0.087   4.251 -0.6744 -0.4388 -0.4425
 2115SOL    HW117978   0.678   0.173   4.266 -2.5252  0.3738 -0.1633
 2115SOL    HW217979   0.654   0.035   4.329 -1.6023  0.5563  0.4055
 2116SOL     OW17980   2.317   4.398   5.559 -0.2969  0.1219 -0.4568
 2116SOL    HW117981   2.316   4.312   5.516  2.1446 -2.1576  4.0087
 2116SOL    HW217982   2.253   4.442   5.503 -0.6813  0.1398 -0.0021
 2117SOL     OW17983   1.389   3.638   6.615  0.9546  0.0385  0.2038
 2117SOL    HW117984   1.307   3.591   6.628  2.2996 -2.2943  0.1760
 2117SOL    HW217985   1.377   3.693   6.537  0.4861 -1.3134 -0.6714
 2118SOL     OW17986   2.001   1.812   6.943  0.2342  0.2142 -0.0532
 2118SOL    HW117987   1.916   1.787   6.981  1.7905 -1.1416  2.5624
 2118SOL    HW217988   1.999   1.793   6.849  1.2969 -1.9393  0.3432
 2119SOL     OW17989   4.355   3.706   7.669  0.3933  0.8696  0.8135
 2119SOL    HW117990   4.397   3.789   7.646  2.4150 -0.7314 -1.1879
 2119SOL    HW217991   4.353   3.658   7.587  0.1645  0.3602  1.1187
 2120SOL     OW17992   4.032   1.249   8.048  0.5418  0.5867 -0.1257
 2120SOL    HW117993   3.943   1.251   8.083  0.0154  0.6086 -1.4345
 2120SOL    HW217994   4.083   1.240   8.128 -0.1980  0.3183  0.3203
 2121SOL     OW17995   4.203   0.246   0.411  0.0805 -0.4508 -0.1444
 2121SOL    HW117996   4.251   0.203   0.481 -0.1023 -1.5581 -0.6925
 2121SOL    HW217997   4.156   0.316   0.456  1.0613  0.5033 -0.6061
 2122SOL     OW17998   4.655   3.646   7.669 -0.0620 -0.5014 -0.2789
 2122SOL    HW117999   4.701   3.730   7.663  0.7303 -0.8246  1.1408
 2122SOL    HW218000   4.575   3.663   7.620 -0.1260 -0.7512 -0.2596
 2123SOL     OW18001   2.729   2.469  17.695 -0.4453 -0.2250  0.3080
 2123SOL    HW118002   2.635   2.451  17.689 -1.1648  3.3713  0.7420
 2123SOL    HW218003   2.741   2.499   0.038 -2.7166  0.5401  0.3500
 2124SOL     OW18004   4.534   0.900   4.370  0.2821 -0.4812 -0.0376
 2124SOL    HW118005   4.622   0.882   4.403  0.0546 -1.3150  0.1247
 2124SOL    HW218006   4.546   0.986   4.330  0.1937 -1.2552 -1.7737
 2125SOL     OW18007   3.069   4.573  10.742 -0.0956 -0.3822 -0.0454
 2125SOL    HW118008   2.985   4.619  10.752 -0.5482 -0.8953 -1.4385
 2125SOL    HW218009   3.083   4.546  10.833 -2.6253 -0.4209  0.3339
 2126SOL     OW18010   3.557   1.060   1.572 -0.2695  0.3851  0.2086
 2126SOL    HW118011   3.631   1.069   1.632  1.6962  1.2007 -2.3273
 2126SOL    HW218012   3.580   0.986   1.516 -1.8602 -0.2910  0.4339
 2127SOL     OW18013   3.678   0.007  11.653  0.3539  0.0331 -0.0306
 2127SOL    HW118014   3.765   0.017  11.691  0.4443  0.4121 -0.3321
 2127SOL    HW218015   3.709   0.024  11.564  1.3323  1.3578  0.5551
 2128SOL     OW18016   2.317   4.098   3.441  0.4549  0.1803 -0.3723
 2128SOL    HW118017   2.352   4.060   3.360  2.8624 -2.1943  1.8020
 2128SOL    HW218018   2.239   4.044   3.455  1.4060 -0.8413  0.9458
 2129SOL     OW18019   0.335   4.087   1.225 -0.0813 -0.1931 -0.1458
 2129SOL    HW118020   0.423   4.064   1.253 -0.1799  0.2452  0.5272
 2129SOL    HW218021   0.299   4.000   1.207 -1.3837  0.2237  0.3913
 2130SOL     OW18022   3.091   3.679   4.908  0.1064 -0.1255  0.6165
 2130SOL    HW118023   3.042   3.723   4.837  0.2602 -0.6689  0.1714
 2130SOL    HW218024   3.125   3.610   4.851  0.9841  1.1647 -0.4381
 2131SOL     OW18025   3.069   0.517  15.567 -0.4588  0.3239  0.1128
 2131SOL    HW118026   3.074   0.580  15.639  0.9658  0.5409 -0.1734
 2131SOL    HW218027   2.993   0.465  15.590 -0.2210 -0.4938 -0.9591
 2132SOL     OW18028   2.291   2.131  17.720 -0.3783 -0.4139 -0.6343
 2132SOL    HW118029   2.212   2.078  17.733  0.0892 -0.5751  1.4825
 2132SOL    HW218030   2.338   2.133   0.056 -0.3472  0.4349 -0.6749
 2133SOL     OW18031   0.840   2.345  12.182  0.2310  0.3370  0.1786
 2133SOL    HW118032   0.788   2.388  12.250 -1.1887  0.5641 -1.0612
 2133SOL    HW218033   0.924   2.387  12.200  0.3191 -0.1915  1.0038
 2134SOL     OW18034   0.663   2.404   7.955 -0.0227 -0.4917  0.1330
 2134SOL    HW118035   0.664   2.335   8.021 -1.1098 -0.6772 -0.0494
 2134SOL    HW218036   0.703   2.478   8.001 -1.3872 -0.9843  2.0692
 2135SOL     OW18037   2.514   1.710  17.396  0.2948 -0.3207  0.2296
 2135SOL    HW118038   2.429   1.668  17.404  0.6952 -0.9730  1.0687
 2135SOL    HW218039   2.498   1.791  17.348 -1.3137  0.1681  1.6368
 2136SOL     OW18040   3.821   4.025   6.420  0.2491 -0.4492 -0.4181
 2136SOL    HW118041   3.760   3.989   6.356 -1.2958  1.3938  0.0077
 2136SOL    HW218042   3.798   3.959   6.485  0.1786 -0.6112 -0.6079
 2137SOL     OW18043   3.123   1.056   0.164  0.5292  0.1323  0.6803
 2137SOL    HW118044   3.151   1.135   0.118 -1.1217 -0.1667 -0.7906
 2137SOL    HW218045   3.135   0.990   0.095  1.3997  1.2374 -0.2278
 2138SOL     OW18046   2.732   0.578   2.566 -0.2329  0.2354 -0.0848
 2138SOL    HW118047   2.814   0.537   2.594  0.6037  1.9508 -0.0603
 2138SOL    HW218048   2.676   0.508   2.532 -0.2263  0.3071 -0.2449
 2139SOL     OW18049   1.011   4.213   6.659 -0.0422  0.3143 -0.2697
 2139SOL    HW118050   0.982   4.285   6.602 -2.5833 -0.3060  0.2236
 2139SOL    HW218051   1.087   4.256   6.697 -0.4528 -1.2951  2.3434
 2140SOL     OW18052   2.039   2.772   3.797  0.1365 -0.0321  0.2489
 2140SOL    HW118053   1.975   2.781   3.726 -0.5017 -1.6578  0.6204
 2140SOL    HW218054   2.117   2.735   3.756  1.3029  1.0485  1.5300
 2141SOL     OW18055   1.294   2.578   8.237 -0.5407 -0.2867  0.6022
 2141SOL    HW118056   1.263   2.494   8.270 -1.3680  0.0293  0.6509
 2141SOL    HW218057   1.254   2.570   8.151 -1.5214 -0.4790  1.0725
 2142SOL     OW18058   2.794   1.904  17.353  0.0303  0.1168  0.0032
 2142SOL    HW118059   2.868   1.958  17.381  0.1552  0.5289 -1.1183
 2142SOL    HW218060   2.721   1.945  17.399 -0.8413  0.9428 -2.1266
 2143SOL     OW18061   0.832   3.552   5.478  0.6180 -0.3821 -0.2980
 2143SOL    HW118062   0.869   3.632   5.440 -0.0577  0.3381  0.5444
 2143SOL    HW218063   0.741   3.559   5.448  0.8244 -0.1782 -0.8765
 2144SOL     OW18064   0.087   0.931   5.775  0.3891 -0.4456  0.0961
 2144SOL    HW118065   0.110   0.856   5.830  1.8053 -0.0268  0.0711
 2144SOL    HW218066   0.021   0.885   5.723  0.9193 -1.7855  0.6074
 2145SOL     OW18067   4.541   1.867   3.576  0.5452  0.0371 -0.0498
 2145SOL    HW118068   4.467   1.876   3.636 -0.0250 -1.6011 -0.5043
 2145SOL    HW218069   4.551   1.952   3.533 -0.2033 -0.1984 -0.6786
 2146SOL     OW18070   3.039   2.587   3.756 -0.3052 -0.4793 -0.4648
 2146SOL    HW118071   3.035   2.662   3.697 -3.1204 -0.2899 -0.0430
 2146SOL    HW218072   3.090   2.524   3.705 -0.3280  0.2978 -1.4437
 2147SOL     OW18073   1.467   4.697   3.724 -0.5351  0.4575 -0.7179
 2147SOL    HW118074   1.443   0.027   3.787 -2.8451 -1.3870  0.3713
 2147SOL    HW218075   1.559   4.720   3.717 -1.0162  3.0641  1.4971
 2148SOL     OW18076   2.569   4.447  11.635  0.3801 -0.0330 -0.0363
 2148SOL    HW118077   2.550   4.532  11.674 -0.7348  0.9812 -2.7843
 2148SOL    HW218078   2.627   4.402  11.696 -0.4348 -1.1373 -0.0775
 2149SOL     OW18079   2.369   2.604   8.910 -0.0118 -0.4634  0.0232
 2149SOL    HW118080   2.414   2.634   8.988  1.6991  0.3145 -1.2687
 2149SOL    HW218081   2.280   2.612   8.944  0.3760 -2.8962  1.5983
 2150SOL     OW18082   1.278   2.899   2.019 -0.7169  0.0916  0.5245
 2150SOL    HW118083   1.295   2.964   2.087  0.0049  1.9672 -1.4545
 2150SOL    HW218084   1.365   2.890   1.980 -0.4432  1.0385  0.9265
 2151SOL     OW18085   4.182   0.115   2.873  0.7424  0.1124  0.5287
 2151SOL    HW118086   4.091   0.131   2.898  1.1823  0.5645  1.8341
 2151SOL    HW218087   4.235   0.188   2.905 -2.9063  1.1041  4.3637
 2152SOL     OW18088   0.411   1.502   6.271 -0.3878  0.1060  0.7689
 2152SOL    HW118089   0.428   1.571   6.206  0.4197 -0.6779  0.1559
 2152SOL    HW218090   0.355   1.550   6.332  1.8419  1.0276  2.1144
 2153SOL     OW18091   2.249   1.315   6.074 -0.0322  0.1104 -0.0690
 2153SOL    HW118092   2.340   1.337   6.091  0.2873 -0.4816 -1.0122
 2153SOL    HW218093   2.255   1.253   6.001  0.6321 -1.5669  1.3998
 2154SOL     OW18094   3.869   0.031   5.885  0.1028 -0.6249  0.2132
 2154SOL    HW118095   3.941   4.727   5.837 -0.1736 -0.7518 -0.0927
 2154SOL    HW218096   3.916   0.114   5.898 -2.0349  0.9747 -2.2092
 2155SOL     OW18097   3.525   1.059  12.814  0.4142 -0.0067 -0.0931
 2155SOL    HW118098   3.545   1.142  12.857  1.3864  0.9481 -2.3750
 2155SOL    HW218099   3.503   1.006  12.891  0.3973 -0.5653 -0.4866
 2156SOL     OW18100   2.251   4.513  10.146 -0.5914 -0.0450 -0.0974
 2156SOL    HW118101   2.260   4.497  10.052 -0.7532  0.9121 -0.2700
 2156SOL    HW218102   2.168   4.561  10.147 -1.2688 -1.1769 -0.9766
 2157SOL     OW18103   3.675   0.110   5.629 -0.1904 -0.3380  0.2008
 2157SOL    HW118104   3.710   0.120   5.718 -2.0975  1.0758  0.7886
 2157SOL    HW218105   3.618   0.187   5.625  1.4474  0.8513 -0.4750
 2158SOL     OW18106   0.231   4.538   5.414 -0.2758  0.2734  0.4372
 2158SOL    HW118107   0.177   4.590   5.355  0.5971  0.1810 -0.4437
 2158SOL    HW218108   0.194   4.452   5.391 -1.2674  1.0629 -0.8823
 2159SOL     OW18109   1.524   1.128   5.495  0.2582  0.2871  0.3003
 2159SOL    HW118110   1.525   1.074   5.416 -1.9012  1.4307 -0.5276
 2159SOL    HW218111   1.572   1.205   5.463 -0.0373 -0.4821 -1.9537
 2160SOL     OW18112   4.523   2.224   4.993  0.4613 -0.0397 -0.0345
 2160SOL    HW118113   4.549   2.136   5.018 -0.9522 -0.1648  1.0024
 2160SOL    HW218114   4.435   2.234   5.031  0.5237  0.5431 -0.0337
 2161SOL     OW18115   0.815   3.831   2.211  0.2076 -0.4265  0.3083
 2161SOL    HW118116   0.795   3.742   2.181  1.3733 -0.0540 -1.5214
 2161SOL    HW218117   0.775   3.830   2.298  0.9849  2.8060  0.6692
 2162SOL     OW18118   1.511   0.125   5.382  0.3351  0.0145 -0.2965
 2162SOL    HW118119   1.532   0.183   5.455 -0.6289  0.5184 -0.4241
 2162SOL    HW218120   1.419   0.111   5.404  0.4356 -0.7516 -0.3637
 2163SOL     OW18121   3.468   3.831   8.288  0.8496 -0.0127  0.0960
 2163SOL    HW118122   3.480   3.744   8.249  0.4987  0.0990 -0.2604
 2163SOL    HW218123   3.376   3.843   8.264  1.0459  3.0496  0.8577
 2164SOL     OW18124   2.663   3.016   3.500  0.3711  0.1226  0.0650
 2164SOL    HW118125   2.697   2.947   3.443  0.4931  1.1151 -1.0485
 2164SOL    HW218126   2.712   2.995   3.580  0.3386 -0.1441  0.0157
 2165SOL     OW18127   0.221   1.627   2.251 -0.0153  0.2165  0.5371
 2165SOL    HW118128   0.237   1.623   2.157  0.6835 -0.8373  0.6966
 2165SOL    HW218129   0.236   1.536   2.277  1.1852  0.6011  1.1807
 2166SOL     OW18130   0.841   2.791   8.391  0.5042  0.3339  0.0472
 2166SOL    HW118131   0.756   2.829   8.367 -1.0605 -4.3668 -1.8932
 2166SOL    HW218132   0.898   2.842   8.333 -1.1148  1.2415 -0.7626
 2167SOL     OW18133   2.011   3.489   8.434  0.2286 -0.0325  0.1874
 2167SOL    HW118134   2.050   3.571   8.462  0.6138 -0.4046  0.7342
 2167SOL    HW218135   2.085   3.430   8.451  0.5337  0.5494  0.8720
 2168SOL     OW18136   3.638   4.388   1.894  0.1289  0.1267 -0.1505
 2168SOL    HW118137   3.551   4.427   1.891  0.5438  1.2338  2.5831
 2168SOL    HW218138   3.611   4.297   1.888  1.2867 -0.0491 -2.6772
 2169SOL     OW18139   1.653   0.987   7.727 -0.1474 -0.0694 -0.1023
 2169SOL    HW118140   1.697   0.904   7.708 -2.2271 -1.1667 -0.1766
 2169SOL    HW218141   1.578   0.952   7.775 -0.2375 -0.9510 -0.8714
 2170SOL     OW18142   0.142   4.366  12.924  0.2280  0.6489  0.4006
 2170SOL    HW118143   0.085   4.352  13.001 -3.2000 -0.4813 -2.3478
 2170SOL    HW218144   0.218   4.409  12.963  1.3231  1.2929 -2.4937
 2171SOL     OW18145   0.827   2.254   8.868 -0.3894 -0.2492 -0.3277
 2171SOL    HW118146   0.767   2.181   8.854 -2.3333  0.9679  1.7219
 2171SOL    HW218147   0.816   2.312   8.792 -0.5189 -0.6409 -0.6046
 2172SOL     OW18148   0.652   3.730   9.864 -0.6292 -0.3886 -0.0433
 2172SOL    HW118149   0.699   3.761   9.786  3.0786 -1.5636  1.7354
 2172SOL    HW218150   0.708   3.772   9.930 -0.3319  0.7150 -0.9806
 2173SOL     OW18151   1.579   1.211  17.300  0.2496 -0.4920  0.3845
 2173SOL    HW118152   1.665   1.187  17.265  1.5573  2.5758  1.4837
 2173SOL    HW218153   1.550   1.279  17.239  2.8812 -0.1623 -0.5411
 2174SOL     OW18154   2.534   4.696   5.136 -0.5606 -0.4694  0.2074
 2174SOL    HW118155   2.607   4.635   5.126  0.4811  0.5914  1.3709
 2174SOL    HW218156   2.539   0.019   5.062 -1.5615  1.3536  1.6527
 2175SOL     OW18157   0.850   1.794   5.837 -0.1582 -0.2581  0.0603
 2175SOL    HW118158   0.784   1.845   5.790  1.2486  2.7629  1.3578
 2175SOL    HW218159   0.804   1.774   5.918 -0.6571 -2.0601 -0.6741
 2176SOL     OW18160   0.413   1.713  14.321  0.1721 -0.5370 -0.1315
 2176SOL    HW118161   0.369   1.797  14.307  2.7259  0.6440 -1.0476
 2176SOL    HW218162   0.381   1.678  14.238 -1.3969  0.4914  0.0225
 2177SOL     OW18163   2.129   2.559   7.630  0.4477  0.2491 -0.0706
 2177SOL    HW118164   2.049   2.610   7.629  1.2923  1.5346 -3.2044
 2177SOL    HW218165   2.154   2.550   7.538 -0.4806 -2.1208 -0.0890
 2178SOL     OW18166   0.525   0.233   5.113  0.0986 -0.1390 -0.5152
 2178SOL    HW118167   0.499   0.319   5.145  1.1386  0.3270 -0.9481
 2178SOL    HW218168   0.584   0.197   5.179 -0.0003 -0.3610 -0.5465
 2179SOL     OW18169   1.408   2.691   2.243 -0.0289 -0.2256  0.2273
 2179SOL    HW118170   1.403   2.672   2.336 -0.4567 -0.1112  0.2254
 2179SOL    HW218171   1.337   2.754   2.231  0.1865 -0.3655 -1.8480
 2180SOL     OW18172   0.234   2.598   7.183  0.1719 -0.0323  0.6898
 2180SOL    HW118173   0.209   2.577   7.092  0.7255  0.4724  0.4272
 2180SOL    HW218174   0.325   2.571   7.178  0.0403 -0.2773 -0.4873
 2181SOL     OW18175   0.786   2.569   4.863  0.0844  0.1400 -0.6385
 2181SOL    HW118176   0.847   2.642   4.864 -0.8665  0.9361 -0.2785
 2181SOL    HW218177   0.842   2.492   4.865  0.1178  0.1079 -2.7198
 2182SOL     OW18178   0.793   0.410  15.358  0.0089 -0.7474  0.4851
 2182SOL    HW118179   0.828   0.429  15.271  0.4539 -0.6955  0.6782
 2182SOL    HW218180   0.873   0.380  15.402  0.8316  2.0924  0.9120
 2183SOL     OW18181   3.583   1.008   4.912  0.2311 -0.0642 -0.2122
 2183SOL    HW118182   3.643   0.987   4.984 -0.6398  2.5211  1.2658
 2183SOL    HW218183   3.587   1.104   4.911  1.5716 -0.0886  2.2016
 2184SOL     OW18184   2.999   2.026   6.453 -0.0845  0.0895 -0.0441
 2184SOL    HW118185   2.976   2.117   6.472 -2.9687 -0.8292  0.8256
 2184SOL    HW218186   3.093   2.032   6.436 -0.2287  1.4902 -0.4030
 2185SOL     OW18187   1.164   1.340  15.256  0.5522 -0.1238 -0.0801
 2185SOL    HW118188   1.179   1.383  15.172 -2.9161 -1.2841 -1.2996
 2185SOL    HW218189   1.137   1.260  15.211  2.0308  0.1334 -1.4108
 2186SOL     OW18190   2.556   1.173   4.566 -0.0802  0.3881 -0.1832
 2186SOL    HW118191   2.606   1.213   4.494 -1.5734  1.5798 -0.5675
 2186SOL    HW218192   2.470   1.174   4.524 -0.6317 -1.0761  0.9582
 2187SOL     OW18193   3.754   4.448   4.184 -0.6209 -0.8463  0.2112
 2187SOL    HW118194   3.668   4.438   4.225 -0.1794 -1.3588  1.0314
 2187SOL    HW218195   3.781   4.364   4.148 -2.1389 -2.1586  2.1155
 2188SOL     OW18196   3.006   2.627   5.521 -0.4084 -0.2369 -0.2148
 2188SOL    HW118197   3.003   2.618   5.426 -0.0131 -0.5087 -0.1977
 2188SOL    HW218198   3.080   2.683   5.542 -1.8589  0.9696  1.6520
 2189SOL     OW18199   0.343   0.151   3.127 -0.7122 -0.4509  0.3518
 2189SOL    HW118200   0.383   0.128   3.043 -0.0624 -1.2526  0.8834
 2189SOL    HW218201   0.251   0.123   3.131 -1.3659  1.7294  1.1853
 2190SOL     OW18202   1.851   0.064   6.635  0.3890 -0.1553 -0.1557
 2190SOL    HW118203   1.849   0.061   6.730 -0.1646 -0.0062 -0.1669
 2190SOL    HW218204   1.883   4.715   6.608 -1.4451 -0.3247 -1.7683
 2191SOL     OW18205   3.414   1.997   8.381 -0.0411  0.1560  0.0801
 2191SOL    HW118206   3.363   1.916   8.380  0.3138 -0.0703  1.2567
 2191SOL    HW218207   3.491   1.979   8.435 -0.1693  1.1443  0.5994
 2192SOL     OW18208   1.988   1.327  10.088  0.1438 -0.0889  0.2768
 2192SOL    HW118209   2.020   1.293  10.172 -0.1896 -0.3400  0.3008
 2192SOL    HW218210   2.029   1.268  10.025 -1.4427  0.4013 -1.2170
 2193SOL     OW18211   2.484   4.378   1.263  0.0477  0.4091 -0.0731
 2193SOL    HW118212   2.487   4.283   1.277  0.6598  0.3353 -0.6703
 2193SOL    HW218213   2.493   4.384   1.168  3.5502 -0.4822  0.1824
 2194SOL     OW18214   2.830   3.242   2.871  0.4001 -0.0607 -0.1262
 2194SOL    HW118215   2.891   3.187   2.822 -1.0406  2.5988 -4.8298
 2194SOL    HW218216   2.766   3.179   2.907  1.0424  0.4162  1.8536
 2195SOL     OW18217   0.163   0.152  12.255  0.5786  0.2145  0.3999
 2195SOL    HW118218   0.127   0.081  12.307  1.0829  0.0858  0.5785
 2195SOL    HW218219   0.180   0.106  12.172 -3.2424  0.7782 -0.6871
 2196SOL     OW18220   0.688   4.206   3.135  0.3159 -0.0977  0.4481
 2196SOL    HW118221   0.652   4.290   3.164  0.9270  0.9554 -1.8216
 2196SOL    HW218222   0.609   4.180   3.087  0.8263  2.8550 -2.0193
 2197SOL     OW18223   3.893   1.775   9.085  0.4316  0.1820 -0.3118
 2197SOL    HW118224   3.988   1.785   9.081  0.5503 -0.6825  0.2794
 2197SOL    HW218225   3.875   1.855   9.135 -1.9013 -2.1023  2.5333
 2198SOL     OW18226   1.930   0.029  17.354 -0.1268 -0.6201 -0.0528
 2198SOL    HW118227   1.913   4.704  17.283  1.3196  0.8719 -1.6741
 2198SOL    HW218228   1.848   0.079  17.354  0.9950  1.1670 -1.0910
 2199SOL     OW18229   2.608   2.379   7.966  0.2509  0.6372  0.8346
 2199SOL    HW118230   2.680   2.442   7.957 -0.2129  0.8536 -1.4974
 2199SOL    HW218231   2.670   2.315   8.000 -3.2123 -2.5045  1.1803
 2200SOL     OW18232   2.397   0.535   4.408  0.0246 -0.1011 -0.0599
 2200SOL    HW118233   2.305   0.530   4.380  0.3017  1.4231 -1.2448
 2200SOL    HW218234   2.387   0.494   4.494  1.9672 -0.6813 -0.1211
 2201SOL     OW18235   0.399   3.044   5.368 -0.0876 -0.6420 -0.0011
 2201SOL    HW118236   0.420   2.998   5.287 -2.9832 -0.3029 -0.9514
 2201SOL    HW218237   0.457   2.994   5.425  1.3092  0.4122 -0.4866
 2202SOL     OW18238   2.312   0.906   8.120  0.2944 -0.3960 -0.0309
 2202SOL    HW118239   2.373   0.940   8.186  1.1535  0.4646 -1.2531
 2202SOL    HW218240   2.226   0.928   8.154  0.8967  0.9980  0.5770
 2203SOL     OW18241   2.911   4.276   5.964 -0.1972  0.4234 -0.2390
 2203SOL    HW118242   2.894   4.281   6.058 -3.5182  0.6742 -0.8681
 2203SOL    HW218243   2.868   4.354   5.928 -2.0800 -0.6511 -0.3213
 2204SOL     OW18244   2.893   3.906  13.245  0.7538  0.3171 -0.4795
 2204SOL    HW118245   2.816   3.864  13.284  0.1876  2.4183  0.6971
 2204SOL    HW218246   2.883   4.000  13.259  0.6896  0.1071  0.8485
 2205SOL     OW18247   1.576   3.332  14.246  0.7590 -0.2116 -0.4754
 2205SOL    HW118248   1.531   3.345  14.162  0.9948 -0.9443 -0.7129
 2205SOL    HW218249   1.664   3.371  14.243  0.5366  0.3355  0.0930
 2206SOL     OW18250   2.451   1.327  11.943  0.9118  0.4298  0.2527
 2206SOL    HW118251   2.533   1.350  11.899  0.8271  1.0818  0.4358
 2206SOL    HW218252   2.380   1.350  11.884  0.7523 -0.3472  0.1425
 2207SOL     OW18253   0.617   0.658   9.520  0.1683  0.0466 -0.5037
 2207SOL    HW118254   0.541   0.716   9.514 -0.7686 -1.0313  1.0849
 2207SOL    HW218255   0.664   0.675   9.439  0.6003 -0.4765 -0.3651
 2208SOL     OW18256   1.305   3.627   3.003  0.1672  0.7519 -0.4486
 2208SOL    HW118257   1.264   3.555   3.050  1.3920  0.5254  0.2825
 2208SOL    HW218258   1.279   3.595   2.917 -2.3933  0.0686  0.5742
 2209SOL     OW18259   0.043   2.966   9.286  0.0114  0.0640  0.2143
 2209SOL    HW118260   0.050   2.973   9.381 -0.9014 -0.4143  0.3228
 2209SOL    HW218261   0.132   2.985   9.258 -0.0701 -1.3972 -1.0093
 2210SOL     OW18262   4.735   4.317   5.663  0.1695  0.4634 -0.4214
 2210SOL    HW118263   4.706   4.405   5.686  0.9474  0.6814 -0.2623
 2210SOL    HW218264   0.052   4.327   5.584  3.1186 -1.0501  1.4153
 2211SOL     OW18265   0.962   2.802   0.909 -0.1658 -0.0392 -0.4941
 2211SOL    HW118266   0.886   2.744   0.905 -1.3168  1.3906  0.5613
 2211SOL    HW218267   1.027   2.732   0.920 -0.9825 -0.4066  2.0522
 2212SOL     OW18268   0.438   4.133  10.094  0.0734  0.0363 -0.2034
 2212SOL    HW118269   0.520   4.174  10.067  0.2234  1.1576  1.9029
 2212SOL    HW218270   0.468   4.060  10.149 -0.3252  1.5913  2.1027
 2213SOL     OW18271   0.972   0.647  10.186  0.2268 -0.1160 -0.4371
 2213SOL    HW118272   1.066   0.668  10.182  0.3244 -0.2728  1.2851
 2213SOL    HW218273   0.974   0.602  10.270 -0.0767  1.1404  0.2471
 2214SOL     OW18274   2.640   1.012   1.018 -0.6499 -0.3769 -0.3306
 2214SOL    HW118275   2.620   1.073   0.947  0.6338 -1.2015 -1.4099
 2214SOL    HW218276   2.676   1.064   1.090 -1.6443  0.2556 -0.2908
 2215SOL     OW18277   3.632   1.022   5.901 -0.5329  0.0255 -0.1910
 2215SOL    HW118278   3.671   0.960   5.840  0.0728  0.7577 -0.5461
 2215SOL    HW218279   3.699   1.007   5.967  0.5086  0.2021 -1.1955
 2216SOL     OW18280   3.215   2.055   6.753 -0.1946  0.1195  0.0361
 2216SOL    HW118281   3.260   1.971   6.744  0.6687  0.6377 -0.4850
 2216SOL    HW218282   3.127   2.016   6.755 -1.0103  1.9241 -0.7493
 2217SOL     OW18283   4.048   4.631  13.193  0.6700  0.4759  0.2189
 2217SOL    HW118284   4.076   4.711  13.149 -1.2481  2.3415  2.4135
 2217SOL    HW218285   4.101   4.634  13.272  0.9361  1.8634 -0.0117
 2218SOL     OW18286   4.657   4.648   7.663  0.3551 -0.1377  0.1815
 2218SOL    HW118287   4.717   4.589   7.708 -1.8793 -2.1051  0.5641
 2218SOL    HW218288   4.625   4.700   7.736  0.9953 -0.6608  0.8444
 2219SOL     OW18289   2.927   3.000   0.774  0.2615  0.3190 -0.4786
 2219SOL    HW118290   2.921   2.960   0.860 -0.5914 -1.2946 -1.2849
 2219SOL    HW218291   3.022   3.014   0.769  0.3658 -1.1127 -2.4002
 2220SOL     OW18292   2.004   2.105   5.583  0.0843  0.6833  0.1708
 2220SOL    HW118293   2.035   2.014   5.588 -2.3139  0.0015  2.5915
 2220SOL    HW218294   1.920   2.088   5.625 -1.2397  0.7680 -2.4416
 2221SOL     OW18295   2.833   1.720   1.311  0.0288 -0.3579  0.0534
 2221SOL    HW118296   2.797   1.638   1.344 -0.8968  0.0542  0.0931
 2221SOL    HW218297   2.799   1.716   1.222  0.1812 -0.5444  0.0049
 2222SOL     OW18298   1.980   2.496   9.813  0.1940  0.6548  0.6038
 2222SOL    HW118299   2.020   2.410   9.800  0.1806  0.7481 -0.0501
 2222SOL    HW218300   1.925   2.481   9.890 -2.6319  0.5682 -1.4404
 2223SOL     OW18301   0.405   0.021   1.836  0.0255  0.0968 -0.2463
 2223SOL    HW118302   0.325   4.710   1.818 -0.6871  0.3131  2.3621
 2223SOL    HW218303   0.439   4.712   1.912 -1.9244 -0.4599  0.2891
 2224SOL     OW18304   0.014   4.526   9.269 -0.5159  0.3372 -0.2109
 2224SOL    HW118305   0.071   4.518   9.192 -0.6311  0.2710 -0.2899
 2224SOL    HW218306   0.063   4.473   9.332 -3.6460 -0.0523  1.8915
 2225SOL     OW18307   3.257   3.347  13.094  0.3353 -0.4015 -0.2317
 2225SOL    HW118308   3.230   3.255  13.093  0.6527 -0.5032  0.4048
 2225SOL    HW218309   3.352   3.345  13.099  0.3343  2.0314  0.9291
 2226SOL     OW18310   1.910   1.546   4.599 -0.4133 -0.1547 -0.3016
 2226SOL    HW118311   1.945   1.622   4.551 -0.6055 -0.4451 -0.9081
 2226SOL    HW218312   1.989   1.497   4.620 -0.1804 -0.4510 -1.8776
 2227SOL     OW18313   1.919   0.065   9.523 -0.0254  0.8155 -0.3993
 2227SOL    HW118314   1.872   4.730   9.482 -1.2469  0.8477  0.9377
 2227SOL    HW218315   1.858   0.129   9.559 -1.4894 -0.1210 -1.2236
 2228SOL     OW18316   4.195   3.034  11.357  0.3180  0.3527 -0.4766
 2228SOL    HW118317   4.273   2.990  11.388  0.4632 -0.7228 -2.3365
 2228SOL    HW218318   4.124   2.971  11.368  1.1112 -0.4388  0.0733
 2229SOL     OW18319   3.794   4.209   3.805  0.5825 -0.0616  0.3488
 2229SOL    HW118320   3.746   4.149   3.748  0.8231  0.9792 -0.9515
 2229SOL    HW218321   3.884   4.193   3.774  0.6974  1.9404 -0.3709
 2230SOL     OW18322   4.591   1.060   8.346 -0.0176 -0.0189 -0.8761
 2230SOL    HW118323   4.651   1.024   8.281  2.0940 -0.0889  1.1338
 2230SOL    HW218324   4.620   1.151   8.352 -0.2292 -0.1373  2.0074
 2231SOL     OW18325   0.321   2.382   0.536  0.6292  0.0719 -0.0661
 2231SOL    HW118326   0.380   2.432   0.592 -0.8627  0.9072  0.7592
 2231SOL    HW218327   0.302   2.450   0.472  2.0439  0.8991  0.3833
 2232SOL     OW18328   4.647   2.887   4.997  0.0989  0.2057 -0.4477
 2232SOL    HW118329   4.682   2.925   5.077 -0.7621 -0.7260  0.3766
 2232SOL    HW218330   4.720   2.841   4.956 -1.3158  0.4054 -3.2260
 2233SOL     OW18331   3.522   0.900  14.964  0.2661 -0.0542  0.9371
 2233SOL    HW118332   3.560   0.813  14.975  0.8562  0.0187 -0.5478
 2233SOL    HW218333   3.594   0.961  14.977  0.0072  0.2879  0.7733
 2234SOL     OW18334   1.464   1.008  17.421  0.0590  0.1504  0.5328
 2234SOL    HW118335   1.510   1.079  17.375  2.9633 -1.5670  0.7891
 2234SOL    HW218336   1.530   0.938  17.421 -0.3177 -0.2121  1.9945
 2235SOL     OW18337   1.833   2.949   8.072  0.9405  0.1240 -0.2843
 2235SOL    HW118338   1.892   2.887   8.029  1.1327  0.1459 -0.0536
 2235SOL    HW218339   1.781   2.885   8.120  0.6083 -1.3327 -2.6157
 2236SOL     OW18340   2.128   3.324   4.083  0.0010  0.1192  0.1484
 2236SOL    HW118341   2.148   3.289   4.170  0.3275  0.5534  0.2515
 2236SOL    HW218342   2.054   3.271   4.053  0.8294 -2.4744  2.6688
 2237SOL     OW18343   3.456   3.445   5.139 -0.5712 -0.1307 -0.0978
 2237SOL    HW118344   3.535   3.483   5.102 -1.0424 -0.0786 -1.0468
 2237SOL    HW218345   3.401   3.519   5.163  1.0572  0.8893  0.5058
 2238SOL     OW18346   4.052   3.820   9.790  0.3773  0.4080  0.4755
 2238SOL    HW118347   3.988   3.880   9.826 -0.2227  0.6617 -1.0168
 2238SOL    HW218348   4.049   3.753   9.858 -3.8131  0.4853  0.3885
 2239SOL     OW18349   0.423   3.407  10.213 -1.0241 -0.3600 -0.1673
 2239SOL    HW118350   0.509   3.391  10.175 -0.6624  0.4629  0.3072
 2239SOL    HW218351   0.360   3.348  10.171  0.5982 -1.4156 -1.0931
 2240SOL     OW18352   2.243   1.624  15.984 -0.0409 -0.0864  0.3999
 2240SOL    HW118353   2.325   1.617  16.033 -1.9081  3.4077  4.0594
 2240SOL    HW218354   2.180   1.603  16.053 -1.5050  0.0327 -0.8907
 2241SOL     OW18355   0.850   1.082   5.599 -0.3166 -0.1371 -0.0428
 2241SOL    HW118356   0.904   1.123   5.667  0.1250  1.4980 -1.3817
 2241SOL    HW218357   0.836   1.153   5.536  3.7710  0.4294 -0.3060
 2242SOL     OW18358   3.067   3.345   0.695 -0.2626  0.3689 -0.2349
 2242SOL    HW118359   3.011   3.270   0.674 -0.8478  0.8769 -0.4637
 2242SOL    HW218360   3.022   3.412   0.644 -1.3646 -0.3483 -0.2190
 2243SOL     OW18361   0.505   1.622  15.797  0.0472  0.7180 -0.0290
 2243SOL    HW118362   0.455   1.685  15.849  0.4468  1.9235 -1.0903
 2243SOL    HW218363   0.552   1.581  15.869 -0.9555  1.2042  0.8930
 2244SOL     OW18364   1.284   2.867  11.777  0.2312  0.1510 -0.8031
 2244SOL    HW118365   1.291   2.783  11.732 -1.9442 -0.3604 -0.1883
 2244SOL    HW218366   1.326   2.927  11.715  0.1958  0.6066 -0.3787
 2245SOL     OW18367   0.749   2.356  15.935  0.4934  0.2223  0.4088
 2245SOL    HW118368   0.789   2.373  16.020  1.2863  0.1178  0.0545
 2245SOL    HW218369   0.801   2.422  15.888 -1.4478 -0.1123 -2.2026
 2246SOL     OW18370   1.516   0.283  15.668  0.4544  0.1009 -0.0952
 2246SOL    HW118371   1.569   0.205  15.654  2.4750  1.5334 -0.4513
 2246SOL    HW218372   1.459   0.281  15.591 -1.2056 -1.3374  1.1623
 2247SOL     OW18373   0.442   4.686   9.245 -0.1036 -0.3365  0.7291
 2247SOL    HW118374   0.377   4.681   9.315 -0.3594  1.7576  0.6361
 2247SOL    HW218375   0.491   0.027   9.270 -1.1143  0.5121  0.0645
 2248SOL     OW18376   3.634   0.298  13.642  0.2419  0.2195  0.0258
 2248SOL    HW118377   3.679   0.272  13.561 -1.5998 -1.6290 -0.3903
 2248SOL    HW218378   3.606   0.387  13.621 -1.6806  0.1513  2.4122
 2249SOL     OW18379   2.450   1.971  15.445 -0.4057  0.4681  0.0306
 2249SOL    HW118380   2.526   2.028  15.456  0.6671 -0.9405 -0.0253
 2249SOL    HW218381   2.413   2.004  15.364  0.2761  0.2892 -0.3493
 2250SOL     OW18382   0.402   0.993   9.740 -0.4484 -0.3504 -0.1711
 2250SOL    HW118383   0.375   0.948   9.660 -3.0637  1.6574 -0.4173
 2250SOL    HW218384   0.363   1.080   9.728  0.2388  0.2149  1.6513
 2251SOL     OW18385   1.054   1.239   8.015  0.1175 -0.0816  0.1658
 2251SOL    HW118386   1.036   1.145   8.005  0.7683  0.0544 -2.3861
 2251SOL    HW218387   1.149   1.240   8.001  0.0781  1.2836  0.0306
 2252SOL     OW18388   2.130   0.053   1.747  0.1583  0.2034 -0.2584
 2252SOL    HW118389   2.084   0.128   1.785  0.0677 -0.0599  0.1466
 2252SOL    HW218390   2.111   0.055   1.653  2.8290  0.5485 -0.7924
 2253SOL     OW18391   2.572   0.888   0.608  0.4008  0.1256 -0.7123
 2253SOL    HW118392   2.539   0.895   0.518 -0.9548 -0.2250 -0.2542
 2253SOL    HW218393   2.614   0.802   0.612 -0.4052 -0.2506 -0.2484
 2254SOL     OW18394   1.950   0.185   2.939  0.7918  0.1889 -0.3706
 2254SOL    HW118395   2.010   0.241   2.988  0.5107 -0.3579  0.5837
 2254SOL    HW218396   2.011   0.141   2.880 -0.5480  0.5920 -2.0915
 2255SOL     OW18397   3.531   3.415  14.407 -0.0490 -0.2380 -0.4382
 2255SOL    HW118398   3.525   3.461  14.324 -3.4787 -0.2501 -0.1688
 2255SOL    HW218399   3.626   3.421  14.421 -0.0844  0.7487 -0.6471
 2256SOL     OW18400   3.783   4.325   8.638 -0.3942  0.1920  0.6302
 2256SOL    HW118401   3.732   4.250   8.609  0.9250 -1.2035  1.9221
 2256SOL    HW218402   3.786   4.294   8.729  0.5162  1.1701  0.9438
 2257SOL     OW18403   3.979   4.488   1.409 -0.2075  0.2127  0.0597
 2257SOL    HW118404   3.914   4.465   1.343  0.1676 -0.5466 -0.0511
 2257SOL    HW218405   4.054   4.496   1.350 -0.5474 -3.0544 -0.8205
 2258SOL     OW18406   1.888   1.375  14.855  0.4813  0.3964  0.0995
 2258SOL    HW118407   1.918   1.370  14.765  0.0765  0.5957 -0.0475
 2258SOL    HW218408   1.919   1.292  14.893 -2.2910 -1.5699 -1.8706
 2259SOL     OW18409   0.946   4.281  10.619 -0.3917 -0.0454 -0.1507
 2259SOL    HW118410   0.975   4.344  10.553 -1.3037  0.2173 -0.2957
 2259SOL    HW218411   1.031   4.270  10.662 -1.3755  0.0917  1.8226
 2260SOL     OW18412   3.513   2.641   7.361 -0.1220 -0.6356  0.4559
 2260SOL    HW118413   3.537   2.553   7.331  0.2333 -0.7294  1.0185
 2260SOL    HW218414   3.425   2.655   7.326 -0.1066  0.3836  0.8431
 2261SOL     OW18415   2.745   0.042   3.707  0.6059  0.1340 -0.0747
 2261SOL    HW118416   2.768   0.095   3.783  0.7089  1.0237 -0.7401
 2261SOL    HW218417   2.818   0.057   3.647  1.1487  2.0212  1.0804
 2262SOL     OW18418   2.005   3.516   8.968  0.0566 -0.4945  0.5233
 2262SOL    HW118419   1.979   3.476   8.884 -4.6346  0.0209  1.7123
 2262SOL    HW218420   1.925   3.544   9.013  0.4729 -0.1545  1.0465
 2263SOL     OW18421   0.179   0.897   5.209 -0.1115 -0.5794 -0.3810
 2263SOL    HW118422   0.185   0.897   5.305  1.9091  0.4996 -0.5035
 2263SOL    HW218423   0.267   0.867   5.185 -0.2421 -1.0806 -0.2278
 2264SOL     OW18424   3.995   0.263   7.034  0.1590  0.1196  0.0212
 2264SOL    HW118425   3.999   0.299   7.123 -2.3777  0.8384 -0.1841
 2264SOL    HW218426   4.029   0.177   7.059  2.0126  0.6149 -0.7486
 2265SOL     OW18427   3.165   2.952   9.980  0.1607  0.4636  0.2288
 2265SOL    HW118428   3.170   2.858   9.995 -0.6960  0.4470  0.4539
 2265SOL    HW218429   3.091   2.965   9.920  1.7751 -1.4517 -2.1610
 2266SOL     OW18430   2.565   1.694   8.036 -0.2386  0.3276 -0.1302
 2266SOL    HW118431   2.535   1.664   8.122  0.4872  1.4395  0.5222
 2266SOL    HW218432   2.631   1.759   8.063  1.7449 -1.5422 -0.5045
 2267SOL     OW18433   3.808   4.364   4.609 -0.1602 -0.3202 -0.1826
 2267SOL    HW118434   3.893   4.327   4.631  0.1008 -1.4711 -3.1779
 2267SOL    HW218435   3.816   4.442   4.664  0.3773 -0.5325  0.0375
 2268SOL     OW18436   0.808   4.231   0.785 -0.4230  0.2190  0.3668
 2268SOL    HW118437   0.748   4.286   0.835 -1.4200  0.2937 -0.9106
 2268SOL    HW218438   0.863   4.219   0.863 -0.3438 -3.0885 -0.1956
 2269SOL     OW18439   1.638   2.058   7.313 -0.0651  0.1666 -0.1959
 2269SOL    HW118440   1.723   2.053   7.270  0.2760  1.5325  0.3134
 2269SOL    HW218441   1.594   2.013   7.241  1.5752  1.8017 -2.2373
 2270SOL     OW18442   1.147   2.709  12.209 -0.1859  0.3006  0.2862
 2270SOL    HW118443   1.159   2.615  12.222  3.3049  0.5241 -1.4551
 2270SOL    HW218444   1.126   2.733  12.300 -3.2073 -2.1160  0.2059
 2271SOL     OW18445   1.497   0.013   7.619 -0.1488 -0.0601  0.8156
 2271SOL    HW118446   1.592   0.028   7.616  0.1971 -2.5736 -0.2027
 2271SOL    HW218447   1.481   4.730   7.527  1.9740 -0.8831  0.6367
 2272SOL     OW18448   3.445   4.379   8.450 -0.0258 -0.6330  0.0797
 2272SOL    HW118449   3.361   4.392   8.494  0.1460 -0.2122  0.2898
 2272SOL    HW218450   3.440   4.284   8.443  1.2172 -0.8907  2.8933
 2273SOL     OW18451   3.674   3.130   9.804 -0.3702 -0.1046  0.2701
 2273SOL    HW118452   3.705   3.066   9.869  0.2713  0.0863  0.1473
 2273SOL    HW218453   3.588   3.094   9.781 -1.2867  1.3203  1.4663
 2274SOL     OW18454   0.984   3.693   1.460  0.4053 -0.3378 -0.0597
 2274SOL    HW118455   1.008   3.704   1.368  1.3086  0.2953  0.2509
 2274SOL    HW218456   1.034   3.763   1.502  1.7264 -1.7566  0.7353
 2275SOL     OW18457   1.384   3.006   6.998  0.2422 -0.0794  0.0236
 2275SOL    HW118458   1.445   2.982   6.928 -0.8078 -1.4907 -0.4113
 2275SOL    HW218459   1.444   3.028   7.069  0.2936  0.2414 -0.1201
 2276SOL     OW18460   2.960   1.721   4.631 -0.1790 -0.4340 -0.0988
 2276SOL    HW118461   3.028   1.707   4.565  0.1278  0.8554 -0.0593
 2276SOL    HW218462   2.925   1.632   4.621 -0.3090 -0.1973 -1.8069
 2277SOL     OW18463   0.644   3.270   6.313 -0.2814 -0.0263 -0.2328
 2277SOL    HW118464   0.714   3.237   6.257 -0.1190  2.5964 -1.5666
 2277SOL    HW218465   0.637   3.356   6.272 -2.2731 -1.4079 -2.8336
 2278SOL     OW18466   0.969   1.889   4.513  0.2530  0.0315 -0.6484
 2278SOL    HW118467   0.975   1.858   4.603 -2.0585  1.2667 -0.0780
 2278SOL    HW218468   1.033   1.831   4.471  1.1495 -0.6394  1.6855
 2279SOL     OW18469   4.382   4.265   0.490  0.3347 -0.2842  0.5226
 2279SOL    HW118470   4.303   4.251   0.541  0.7562  0.2303  1.3057
 2279SOL    HW218471   4.401   4.356   0.513 -1.8771 -0.0930  1.5122
 2280SOL     OW18472   0.822   3.034  10.040 -0.0441  0.4822  0.2643
 2280SOL    HW118473   0.744   3.083  10.013 -0.3416 -0.4108 -0.5255
 2280SOL    HW218474   0.881   3.097  10.000 -1.7431 -0.0232 -3.0417
 2281SOL     OW18475   2.931   4.548   4.358 -0.6039  0.2924 -0.4575
 2281SOL    HW118476   3.022   4.577   4.373 -0.4568 -0.7593  0.7045
 2281SOL    HW218477   2.948   4.518   4.269 -0.0974 -0.9635  0.0600
 2282SOL     OW18478   3.066   1.327   0.939  0.1956 -0.0109 -0.0231
 2282SOL    HW118479   3.084   1.325   1.033 -0.8666  0.2533  0.1790
 2282SOL    HW218480   3.090   1.420   0.930 -0.2283  0.1558  0.5773
 2283SOL     OW18481   3.171   4.581  11.854 -0.0348  0.3670  0.0702
 2283SOL    HW118482   3.167   4.536  11.938 -0.7022  0.5896  0.1593
 2283SOL    HW218483   3.260   4.615  11.864  0.7548 -1.0928 -1.9938
 2284SOL     OW18484   0.867   4.617   9.335 -0.6439  0.0929 -0.4756
 2284SOL    HW118485   0.794   4.678   9.349 -0.3719  0.5669 -1.1071
 2284SOL    HW218486   0.855   4.589   9.244 -2.9191 -1.2602  0.2424
 2285SOL     OW18487   0.996   4.357  15.429 -0.1233  0.1084 -0.2345
 2285SOL    HW118488   1.087   4.340  15.403  0.0415  0.0405  0.3745
 2285SOL    HW218489   0.953   4.305  15.362 -0.0057  0.5616 -0.6667
 2286SOL     OW18490   0.138   2.734   0.297 -0.3270 -0.5837 -0.2894
 2286SOL    HW118491   0.160   2.642   0.305  1.7519  0.0229  0.8207
 2286SOL    HW218492   0.223   2.777   0.284 -0.0472 -0.6279  1.3936
 2287SOL     OW18493   3.166   1.851   7.038  0.1905 -0.0689  0.2788
 2287SOL    HW118494   3.206   1.872   7.122 -0.6140  4.0017 -0.3866
 2287SOL    HW218495   3.207   1.766   7.020  1.8781  0.8564 -0.2429
 2288SOL     OW18496   4.707   4.519   4.414 -0.4222 -0.0184 -0.3816
 2288SOL    HW118497   0.065   4.527   4.417 -0.2958 -0.9160 -2.7355
 2288SOL    HW218498   4.690   4.442   4.361 -0.4232 -1.0198  1.0895
 2289SOL     OW18499   3.361   1.109  11.822  0.0174 -0.2212  0.3757
 2289SOL    HW118500   3.329   1.022  11.846 -0.6503 -0.7134 -2.2606
 2289SOL    HW218501   3.306   1.125  11.745  0.0028 -0.6647  0.2943
 2290SOL     OW18502   3.699   3.491   7.302 -0.1880  0.3386  0.2734
 2290SOL    HW118503   3.625   3.544   7.274 -0.1654  1.6863  2.7122
 2290SOL    HW218504   3.672   3.402   7.283  1.8832  0.3099 -2.4305
 2291SOL     OW18505   1.419   4.470   2.789  0.0761  0.4540 -0.2922
 2291SOL    HW118506   1.498   4.523   2.801  0.7541 -0.5550 -0.2926
 2291SOL    HW218507   1.450   4.405   2.725 -0.5468 -0.2507  0.1259
 2292SOL     OW18508   1.340   4.536   4.523 -0.0626  0.6543 -0.0467
 2292SOL    HW118509   1.417   4.592   4.510 -2.2052  2.5733 -4.4052
 2292SOL    HW218510   1.287   4.582   4.458 -1.5192 -0.8929  0.0353
 2293SOL     OW18511   3.150   1.226   7.392  0.0225  0.1069 -0.4930
 2293SOL    HW118512   3.115   1.252   7.478  1.2931  1.5957 -0.4197
 2293SOL    HW218513   3.220   1.162   7.402 -0.9220 -0.6593  1.1832
 2294SOL     OW18514   3.008   4.458   5.758  0.6530  0.5847 -0.3059
 2294SOL    HW118515   2.930   4.463   5.702  0.6787  2.4673 -0.1718
 2294SOL    HW218516   3.001   4.367   5.788 -1.4269  0.6663 -0.4973
 2295SOL     OW18517   0.701   4.219   4.097 -0.4531 -0.3507  0.6122
 2295SOL    HW118518   0.648   4.289   4.137 -3.9774 -2.2243 -0.7489
 2295SOL    HW218519   0.651   4.181   4.025  1.0023 -0.6503 -0.2370
 2296SOL     OW18520   1.176   1.419   9.036  0.0520 -0.1673  0.4837
 2296SOL    HW118521   1.166   1.421   8.941  0.8105  1.9873  0.4519
 2296SOL    HW218522   1.270   1.403   9.037  0.4775  2.2200 -1.5019
 2297SOL     OW18523   0.399   0.853   4.366 -0.2030  0.0875  0.9486
 2297SOL    HW118524   0.438   0.898   4.290  0.5129 -1.8213  0.1991
 2297SOL    HW218525   0.328   0.798   4.335 -0.2369  0.4402  0.3885
 2298SOL     OW18526   1.458   3.050  12.325 -0.3634 -0.3353 -0.0026
 2298SOL    HW118527   1.401   3.063  12.249 -0.0761  0.0994 -0.1487
 2298SOL    HW218528   1.428   2.965  12.356 -1.3075  0.2276  0.6137
 2299SOL     OW18529   0.756   2.962   6.013 -0.0700 -0.2580  0.2561
 2299SOL    HW118530   0.665   2.961   6.044  0.3889  1.6790  1.6905
 2299SOL    HW218531   0.802   2.909   6.078  0.8573 -0.0639 -0.2492
 2300SOL     OW18532   4.450   0.534  10.350  0.1997 -0.6104 -0.2902
 2300SOL    HW118533   4.506   0.543  10.427 -0.4096  2.9461 -0.2954
 2300SOL    HW218534   4.514   0.492  10.292  2.0589  0.2105  1.1311
 2301SOL     OW18535   4.265   1.525   3.696  0.3371 -0.0391  0.4864
 2301SOL    HW118536   4.250   1.507   3.603  2.2400 -1.2114  0.4056
 2301SOL    HW218537   4.299   1.614   3.693  1.0609 -0.2625  2.0004
 2302SOL     OW18538   1.020   1.553   7.223 -0.0865  0.3326 -0.3376
 2302SOL    HW118539   0.950   1.511   7.174 -1.2806  1.1230  0.6872
 2302SOL    HW218540   0.970   1.633   7.241 -1.6160  0.1637 -3.7774
 2303SOL     OW18541   2.901   2.008  11.131 -0.5325 -0.2754  0.0892
 2303SOL    HW118542   2.918   1.925  11.175 -1.4455  0.8927  2.6882
 2303SOL    HW218543   2.985   2.025  11.089  0.0444 -0.2690  1.2308
 2304SOL     OW18544   3.195   1.866  16.858  0.2483 -0.6726 -0.1713
 2304SOL    HW118545   3.286   1.893  16.867 -0.6457  1.1734  3.1157
 2304SOL    HW218546   3.190   1.785  16.909 -0.9215  0.1636  1.0195
 2305SOL     OW18547   1.934   2.137   4.428 -0.4417  0.0934 -0.0644
 2305SOL    HW118548   1.883   2.086   4.491  0.4917  1.0289  1.4377
 2305SOL    HW218549   1.983   2.195   4.485  1.6904 -0.7650 -1.0380
 2306SOL     OW18550   3.617   0.632   2.084  0.0550 -0.3384  0.1513
 2306SOL    HW118551   3.573   0.673   2.159 -2.5576 -0.2504 -1.4407
 2306SOL    HW218552   3.563   0.674   2.017  2.0380  0.3401 -1.0359
 2307SOL     OW18553   1.536   4.652   8.774 -0.4031  0.4401 -0.0780
 2307SOL    HW118554   1.584   4.715   8.720  1.5243  0.3860  1.5607
 2307SOL    HW218555   1.472   4.615   8.713 -2.4434  1.7730  1.2400
 2308SOL     OW18556   1.802   4.029   3.028  0.3504 -0.1543  0.0690
 2308SOL    HW118557   1.728   3.970   3.014 -1.5395  1.8044  1.7685
 2308SOL    HW218558   1.790   4.035   3.123 -0.0108  1.2244 -0.0631
 2309SOL     OW18559   3.470   2.448   8.401  0.3006  0.3378 -0.0125
 2309SOL    HW118560   3.465   2.503   8.479  4.0100  1.2252 -0.3807
 2309SOL    HW218561   3.535   2.383   8.425 -0.1556 -0.0483  0.1807
 2310SOL     OW18562   1.165   1.213   1.047  0.1570 -0.1293  0.2068
 2310SOL    HW118563   1.087   1.226   0.992  0.6211 -0.7514 -0.5983
 2310SOL    HW218564   1.229   1.267   1.001 -0.1028 -0.0614 -0.0774
 2311SOL     OW18565   2.349   4.656   6.355 -0.4269  0.3761  0.3460
 2311SOL    HW118566   2.294   4.622   6.284  1.7057 -1.9398 -0.1952
 2311SOL    HW218567   2.342   0.010   6.326  0.4677 -0.5921 -3.0009
 2312SOL     OW18568   0.361   2.915  15.572 -0.2161 -0.2623 -0.2822
 2312SOL    HW118569   0.418   2.876  15.507 -0.2010 -0.5284 -0.1101
 2312SOL    HW218570   0.326   2.834  15.611 -1.1573  0.1915 -0.1771
 2313SOL     OW18571   0.427   4.446  17.016  0.8663  0.0603  0.5163
 2313SOL    HW118572   0.431   4.412  17.106 -1.0293  1.0079  0.9533
 2313SOL    HW218573   0.514   4.421  16.985 -0.3115 -1.6561 -1.4184
 2314SOL     OW18574   2.781   3.971   4.338  0.2090  0.2208  0.1104
 2314SOL    HW118575   2.704   3.924   4.369 -1.0814  1.6576 -0.9515
 2314SOL    HW218576   2.765   3.988   4.245  0.7158 -0.1302 -0.0455
 2315SOL     OW18577   2.670   3.353  15.647  0.5982  0.1144  0.4934
 2315SOL    HW118578   2.632   3.277  15.602 -0.4465  2.1324 -2.0260
 2315SOL    HW218579   2.690   3.414  15.576  0.0620 -1.6740 -1.2234
 2316SOL     OW18580   0.305   3.513   8.231  0.3623  0.2777 -0.8121
 2316SOL    HW118581   0.219   3.537   8.196 -0.2234 -1.1227 -0.3089
 2316SOL    HW218582   0.336   3.603   8.243 -0.1574  0.4013 -0.3693
 2317SOL     OW18583   4.230   2.827   5.603 -0.2231  0.1618  0.1962
 2317SOL    HW118584   4.242   2.912   5.561  1.4136 -0.8615 -1.3764
 2317SOL    HW218585   4.277   2.776   5.537  0.1729  0.0309  0.5792
 2318SOL     OW18586   3.922   4.250   8.897  0.0459  0.3042 -0.3013
 2318SOL    HW118587   3.958   4.317   8.956  0.3982 -0.4354  0.3273
 2318SOL    HW218588   3.988   4.251   8.828 -0.4688  1.1060 -0.7870
 2319SOL     OW18589   1.300   1.246  16.355  0.5196  0.6780  0.3843
 2319SOL    HW118590   1.366   1.314  16.365  1.9866 -0.9385  1.8606
 2319SOL    HW218591   1.221   1.300  16.350 -0.2187 -0.6234 -2.1141
 2320SOL     OW18592   1.294   0.983   6.289  0.0368  0.5670  0.2042
 2320SOL    HW118593   1.213   1.012   6.248  0.5369  0.4559 -0.8958
 2320SOL    HW218594   1.293   1.026   6.374  1.0859  0.9785  0.0082
 2321SOL     OW18595   2.718   3.826   6.049 -0.3030 -0.0810 -0.4136
 2321SOL    HW118596   2.804   3.787   6.035  0.8217  2.9091 -1.8694
 2321SOL    HW218597   2.656   3.772   6.002  0.0884 -0.4486 -0.5077
 2322SOL     OW18598   3.870   2.653   6.814 -0.2522 -0.5941  0.1416
 2322SOL    HW118599   3.864   2.692   6.727 -3.0567  1.6812  1.3901
 2322SOL    HW218600   3.965   2.657   6.825 -0.3103 -1.5739  1.1171
 2323SOL     OW18601   2.618   3.133   4.155  0.1123  0.2421 -0.0817
 2323SOL    HW118602   2.594   3.188   4.081 -1.1455  0.0885  0.2188
 2323SOL    HW218603   2.581   3.179   4.230  2.0501  0.2745  0.8653
 2324SOL     OW18604   0.849   3.186   4.565  0.0011 -0.0789 -0.1050
 2324SOL    HW118605   0.895   3.208   4.484  0.3256 -3.7494 -0.9450
 2324SOL    HW218606   0.817   3.272   4.592 -1.4521 -0.8074  0.4722
 2325SOL     OW18607   2.330   0.424   4.697  0.6733 -0.1404 -0.0366
 2325SOL    HW118608   2.250   0.378   4.720  0.0080  1.0579  0.0545
 2325SOL    HW218609   2.346   0.488   4.767 -1.6236  0.3280  0.0571
 2326SOL     OW18610   1.072   1.936   8.740 -0.3362  0.0058 -0.2352
 2326SOL    HW118611   1.050   1.974   8.655  0.5537 -0.0538 -0.4949
 2326SOL    HW218612   0.989   1.895   8.764  0.5585 -1.2452  0.7168
 2327SOL     OW18613   4.052   3.655   9.994  0.5788 -0.1098 -0.7952
 2327SOL    HW118614   4.047   3.561  10.011  0.1423  0.1655  0.5941
 2327SOL    HW218615   4.100   3.683  10.072  0.1462 -0.3293 -0.4542
 2328SOL     OW18616   1.142   4.224   5.013  0.2200 -0.3013 -0.4639
 2328SOL    HW118617   1.232   4.200   4.989  0.1741  1.6068 -2.5467
 2328SOL    HW218618   1.158   4.251   5.104 -0.7086 -1.4149  0.0166
 2329SOL     OW18619   0.820   0.700   5.941  0.2561 -0.1845 -0.1651
 2329SOL    HW118620   0.866   0.750   6.008 -0.9190  0.3518  0.2319
 2329SOL    HW218621   0.730   0.730   5.942  1.2831  2.8543 -0.7266
 2330SOL     OW18622   3.529   2.147  17.486  0.4329 -0.1026  0.4405
 2330SOL    HW118623   3.467   2.089  17.441  1.9632 -1.6868  0.3593
 2330SOL    HW218624   3.610   2.120  17.443  0.1551  2.1516 -1.4851
 2331SOL     OW18625   3.419   1.594   2.676  0.5547 -0.9036  0.1438
 2331SOL    HW118626   3.442   1.654   2.605  0.8603  0.3985  1.3404
 2331SOL    HW218627   3.508   1.562   2.688  0.2980 -0.6392  2.7595
 2332SOL     OW18628   3.307   1.188   2.477 -0.0172  0.1060  0.1731
 2332SOL    HW118629   3.276   1.248   2.545 -1.8168  1.6254 -1.9814
 2332SOL    HW218630   3.244   1.208   2.407 -0.7908 -0.3313  0.7388
 2333SOL     OW18631   4.718   3.571  17.292  0.5237 -0.1882 -0.1866
 2333SOL    HW118632   0.050   3.622  17.248  1.1134 -1.1246 -0.3341
 2333SOL    HW218633   4.644   3.591  17.234 -0.2716 -0.0585  0.8711
 2334SOL     OW18634   4.654   3.247  10.355  0.6597  0.2640 -0.3522
 2334SOL    HW118635   4.674   3.337  10.330 -1.1646  0.0697 -2.4740
 2334SOL    HW218636   4.641   3.200  10.273  0.8264 -0.7697  0.2203
 2335SOL     OW18637   1.706   4.409   8.350  0.0883 -0.1697  0.0933
 2335SOL    HW118638   1.668   4.324   8.327 -0.6942  1.2829 -3.9705
 2335SOL    HW218639   1.801   4.397   8.349  0.2284  0.8525  2.0134
 2336SOL     OW18640   4.420   2.763   2.076  0.5275 -0.2703 -0.2531
 2336SOL    HW118641   4.400   2.856   2.090 -3.2363 -1.3229  1.2288
 2336SOL    HW218642   4.498   2.756   2.131 -0.3574 -0.2576  0.9990
 2337SOL     OW18643   2.950   4.565  14.964  0.4823  0.2827 -0.4722
 2337SOL    HW118644   3.014   4.558  14.893 -0.2056  1.9952 -1.2514
 2337SOL    HW218645   3.001   4.605  15.035 -3.3333  1.0226  1.8662
 2338SOL     OW18646   2.862   3.424   5.696 -0.2970  0.3322 -0.0843
 2338SOL    HW118647   2.932   3.481   5.728  0.2041  0.1277 -0.8268
 2338SOL    HW218648   2.812   3.474   5.631  0.3809 -0.6071 -1.3387
 2339SOL     OW18649   0.223   0.528   8.152 -0.0038 -0.1071  0.0926
 2339SOL    HW118650   0.151   0.513   8.214 -1.0809 -0.2050 -1.1770
 2339SOL    HW218651   0.205   0.620   8.132 -1.6040  0.0307  2.2008
 2340SOL     OW18652   2.203   3.679   2.117 -0.5490  0.2962 -0.2266
 2340SOL    HW118653   2.130   3.720   2.070 -2.3789 -0.3027  2.0627
 2340SOL    HW218654   2.241   3.764   2.138 -1.3937  0.6357 -0.0588
 2341SOL     OW18655   3.921   1.157  11.286 -0.0792  0.0186 -0.3958
 2341SOL    HW118656   3.944   1.105  11.363  0.0694 -4.0040 -3.1723
 2341SOL    HW218657   4.002   1.208  11.281 -0.3136  0.2894 -1.4438
 2342SOL     OW18658   0.904   0.387   9.545  0.0312  0.1629 -0.0234
 2342SOL    HW118659   0.954   0.306   9.547  0.0289  0.1457 -0.6497
 2342SOL    HW218660   0.912   0.425   9.457  4.1084 -1.5285 -0.3754
 2343SOL     OW18661   2.224   4.157   9.785  0.6466 -0.4531  0.2504
 2343SOL    HW118662   2.150   4.219   9.790  0.5431 -0.5963  0.4844
 2343SOL    HW218663   2.203   4.075   9.829  1.2631  1.5262  4.1855
 2344SOL     OW18664   2.655   1.971   0.369  0.2613  0.1235 -0.2031
 2344SOL    HW118665   2.705   2.014   0.438  1.1006 -1.9744  0.4781
 2344SOL    HW218666   2.678   2.013   0.286  1.0692 -0.5640 -0.3178
 2345SOL     OW18667   0.100   1.364  12.147 -0.1174  0.1706  0.0052
 2345SOL    HW118668   0.016   1.408  12.140 -0.2160 -0.0275 -0.0584
 2345SOL    HW218669   0.078   1.272  12.131  0.0745 -0.2003  1.8975
 2346SOL     OW18670   2.116   0.951   3.142 -0.4673 -0.1218 -0.0684
 2346SOL    HW118671   2.101   0.969   3.235  1.4793  0.5648  0.1030
 2346SOL    HW218672   2.036   0.911   3.108 -0.1777 -0.7320 -0.0237
 2347SOL     OW18673   3.066   0.809  15.540 -0.2305  0.4118  0.2705
 2347SOL    HW118674   3.066   0.831  15.447  0.5686 -1.7723 -0.2580
 2347SOL    HW218675   3.156   0.830  15.566 -0.1531  0.8628 -0.3644
 2348SOL     OW18676   3.561   0.497   3.948 -0.2557 -0.1223 -0.6941
 2348SOL    HW118677   3.514   0.478   3.867  1.7138 -0.7418 -1.6802
 2348SOL    HW218678   3.492   0.517   4.011 -0.1158 -2.5767  0.2481
 2349SOL     OW18679   2.783   4.193   6.758  0.5213 -0.0823 -0.6165
 2349SOL    HW118680   2.716   4.164   6.820  0.8796 -0.5321 -0.4346
 2349SOL    HW218681   2.756   4.131   6.690  1.9081 -0.9510 -0.3772
 2350SOL     OW18682   0.336   1.949   4.004  0.4043 -0.0623  0.3162
 2350SOL    HW118683   0.370   2.032   4.037 -0.1246  1.4256 -2.9793
 2350SOL    HW218684   0.297   1.975   3.921 -2.4601  0.8272  1.9465
 2351SOL     OW18685   1.302   2.570   3.124  0.2795 -0.2208  1.3975
 2351SOL    HW118686   1.361   2.643   3.105 -1.4852  0.1107 -2.7060
 2351SOL    HW218687   1.369   2.503   3.115 -0.3542 -0.6015 -0.4387
 2352SOL     OW18688   3.429   1.475   6.809 -0.4581  0.1148  0.0292
 2352SOL    HW118689   3.390   1.389   6.825 -0.2141  0.3453  1.8540
 2352SOL    HW218690   3.479   1.449   6.732  1.5150  0.2451  1.2835
 2353SOL     OW18691   1.433   3.607   5.307 -0.0246 -0.0636  0.0037
 2353SOL    HW118692   1.493   3.609   5.382 -0.0587  1.8821 -0.0054
 2353SOL    HW218693   1.364   3.550   5.341 -0.3370 -0.9009 -2.0726
 2354SOL     OW18694   4.299   2.211   5.173  0.2562  0.0738 -0.9355
 2354SOL    HW118695   4.291   2.133   5.120 -3.7865  0.0504 -0.2767
 2354SOL    HW218696   4.301   2.170   5.260 -0.9160  1.7912 -0.0899
 2355SOL     OW18697   4.576   2.147  13.085  0.5226 -0.3085  0.2199
 2355SOL    HW118698   4.607   2.166  12.996 -0.3030 -0.1600 -0.0355
 2355SOL    HW218699   4.593   2.231  13.127  0.0731 -1.1472  2.0485
 2356SOL     OW18700   4.612   4.303   4.207 -0.2116 -0.2450  0.1049
 2356SOL    HW118701   4.650   4.313   4.120  1.5106 -0.9143  0.7766
 2356SOL    HW218702   4.549   4.375   4.199  0.0790  0.0104  0.1374
 2357SOL     OW18703   2.893   1.911   7.601  0.3364  0.0819  0.0126
 2357SOL    HW118704   2.906   1.974   7.530  0.2518  1.6790  1.4173
 2357SOL    HW218705   2.926   1.828   7.564  0.5887  0.6749 -1.1014
 2358SOL     OW18706   2.485   4.235  17.229 -0.2932  0.2725  0.3561
 2358SOL    HW118707   2.577   4.252  17.248 -0.0559 -0.3141 -0.2878
 2358SOL    HW218708   2.461   4.315  17.183 -2.2426 -0.9348 -0.7410
 2359SOL     OW18709   0.137   4.283   5.365 -0.4826  0.3872  0.0277
 2359SOL    HW118710   0.122   4.300   5.272 -1.2182 -1.8950 -0.2825
 2359SOL    HW218711   0.171   4.193   5.367  1.3853  1.0977  0.2980
 2360SOL     OW18712   3.937   2.409  12.587 -0.0035 -0.0764  0.2207
 2360SOL    HW118713   4.025   2.413  12.549  0.2265  0.5574  0.8184
 2360SOL    HW218714   3.890   2.405  12.504  0.4069 -0.7159  0.0169
 2361SOL     OW18715   2.707   1.324   7.152  0.3537  0.1784  0.2685
 2361SOL    HW118716   2.754   1.374   7.085  0.6633  0.0226  0.3693
 2361SOL    HW218717   2.701   1.241   7.105 -0.7734  1.3265 -1.6351
 2362SOL     OW18718   4.370   1.319   7.963 -0.0179  0.1364 -0.7977
 2362SOL    HW118719   4.378   1.410   7.934  1.2114  0.8206  1.6659
 2362SOL    HW218720   4.372   1.328   8.058  1.3874 -2.3847 -0.5881
 2363SOL     OW18721   4.623   2.116  11.835 -0.0985 -0.0075 -0.0337
 2363SOL    HW118722   4.692   2.154  11.781 -0.5635  1.1935  0.2219
 2363SOL    HW218723   4.590   2.193  11.881 -3.2698 -0.2135 -1.9325
 2364SOL     OW18724   0.776   0.181  10.872  0.2707 -0.0784 -0.0937
 2364SOL    HW118725   0.742   0.266  10.844 -1.4114 -0.5240  0.5999
 2364SOL    HW218726   0.808   0.147  10.788 -0.0644  0.3379 -0.3907
 2365SOL     OW18727   0.602   4.315  12.624  0.3466  0.5708 -0.2467
 2365SOL    HW118728   0.646   4.302  12.540  1.5918 -0.3387  0.5477
 2365SOL    HW218729   0.567   4.229  12.649  3.9053 -0.6886  0.3684
 2366SOL     OW18730   0.952   4.162   4.003  0.0327  0.0972 -0.1563
 2366SOL    HW118731   0.865   4.179   4.040 -0.5967 -3.9798  0.2466
 2366SOL    HW218732   1.009   4.203   4.068 -0.4334  2.0212 -0.9491
 2367SOL     OW18733   2.967   1.346  14.885 -0.2781  0.3511 -0.1439
 2367SOL    HW118734   2.984   1.379  14.797  0.3986 -1.7158 -0.7784
 2367SOL    HW218735   2.895   1.287  14.862  1.4714 -2.6132  2.1141
 2368SOL     OW18736   3.365   0.080   3.285  0.0088  0.0904 -0.4079
 2368SOL    HW118737   3.290   0.061   3.228 -0.5821 -0.2507  0.4746
 2368SOL    HW218738   3.391   4.727   3.304 -1.5266 -0.0269  1.1465
 2369SOL     OW18739   0.728   0.612   3.381 -0.0940 -0.6078  0.1165
 2369SOL    HW118740   0.675   0.590   3.457  0.1060  0.3924  0.5383
 2369SOL    HW218741   0.748   0.522   3.355  0.9133 -0.8966  1.9668
 2370SOL     OW18742   1.926   1.461  11.578 -0.2235 -0.4275  0.0290
 2370SOL    HW118743   1.970   1.481  11.495 -0.5715  1.3995  0.2832
 2370SOL    HW218744   2.006   1.428  11.620 -2.0579 -2.1303  2.1665
 2371SOL     OW18745   1.770   0.424   2.701 -0.3302  0.4787 -0.7565
 2371SOL    HW118746   1.751   0.341   2.659  3.4072 -0.2068 -1.0521
 2371SOL    HW218747   1.752   0.390   2.789  0.9156 -0.6621 -0.9568
 2372SOL     OW18748   1.942   1.221   8.795  0.3613  0.1708 -0.6533
 2372SOL    HW118749   2.008   1.290   8.807 -0.0939  0.5009 -0.0309
 2372SOL    HW218750   1.957   1.173   8.876 -1.8164  1.2920  0.4071
 2373SOL     OW18751   0.183   1.354   6.569  0.2679 -0.0731 -0.2561
 2373SOL    HW118752   0.125   1.418   6.611 -0.9783 -0.5300 -1.2946
 2373SOL    HW218753   0.119   1.317   6.508  3.0861 -1.3258 -2.4391
 2374SOL     OW18754   4.556   3.178   7.310  0.3924  0.1453  0.0071
 2374SOL    HW118755   4.557   3.084   7.329  1.0718 -0.0973 -1.2251
 2374SOL    HW218756   4.463   3.200   7.300  1.0022  2.5779 -0.2338
 2375SOL     OW18757   0.149   2.355   6.400 -0.1946 -0.1495 -0.1545
 2375SOL    HW118758   0.074   2.371   6.343  1.4517  1.2529 -1.9281
 2375SOL    HW218759   0.233   2.377   6.361 -1.0551  0.6974 -1.5510
 2376SOL     OW18760   1.426   1.012   4.407  0.0285  0.2144 -0.0596
 2376SOL    HW118761   1.381   1.079   4.355  0.0617  0.5155  0.3004
 2376SOL    HW218762   1.427   1.048   4.496 -0.1300  1.9985 -0.7812
 2377SOL     OW18763   2.423   1.878   4.044  0.6420  0.6352 -0.4872
 2377SOL    HW118764   2.338   1.894   4.002 -0.5312 -1.1968  1.1716
 2377SOL    HW218765   2.454   1.968   4.056  1.4997  0.0099  1.9908
 2378SOL     OW18766   2.205   0.692  12.665  0.4865 -0.0092 -0.4041
 2378SOL    HW118767   2.234   0.744  12.589 -1.8947  1.6112 -0.2242
 2378SOL    HW218768   2.261   0.615  12.661 -1.9700 -1.7330 -1.2304
 2379SOL     OW18769   3.014   0.692   8.624  0.9525 -0.5889  0.0426
 2379SOL    HW118770   3.057   0.710   8.540  0.5164  0.6357  0.0853
 2379SOL    HW218771   2.922   0.704   8.601  0.4876 -1.6185  1.3625
 2380SOL     OW18772   3.816   3.099  15.121  0.0174 -0.2479 -0.2505
 2380SOL    HW118773   3.788   3.178  15.167  0.6451 -1.0229  1.4665
 2380SOL    HW218774   3.744   3.041  15.148 -1.6064  2.4273  1.1338
 2381SOL     OW18775   0.139   4.612   5.867  0.0086  0.2361  0.2955
 2381SOL    HW118776   0.054   4.656   5.857  1.0115  1.4571 -2.7324
 2381SOL    HW218777   0.125   4.573   5.954  1.2018 -1.2884 -0.1950
 2382SOL     OW18778   0.597   4.033   3.904 -0.3030 -0.0979 -0.0512
 2382SOL    HW118779   0.579   3.970   3.974 -0.1433  0.6865  0.7027
 2382SOL    HW218780   0.525   4.009   3.846  0.4176 -0.6250 -0.7214
 2383SOL     OW18781   1.047   2.281   2.386  0.5432  0.2126  0.0796
 2383SOL    HW118782   1.084   2.230   2.457  1.1721  1.4643  0.6539
 2383SOL    HW218783   0.962   2.299   2.428  0.6350  0.6893  0.0661
 2384SOL     OW18784   4.600   4.157   9.254 -0.1202 -0.5376  0.1014
 2384SOL    HW118785   4.513   4.185   9.225 -0.3291 -2.7750 -1.4474
 2384SOL    HW218786   4.621   4.207   9.332 -1.0354  0.8379 -0.5286
 2385SOL     OW18787   4.379   1.391  15.491  0.2087 -0.2150 -0.4018
 2385SOL    HW118788   4.351   1.300  15.497 -0.0542 -0.1167 -0.1307
 2385SOL    HW218789   4.441   1.411  15.561  0.9059 -1.5275 -0.6436
 2386SOL     OW18790   1.787   0.664   4.230 -0.1150 -0.0185 -0.2338
 2386SOL    HW118791   1.850   0.727   4.263 -0.3071  0.7459 -1.3076
 2386SOL    HW218792   1.767   0.614   4.310  0.1875  2.1365  1.1723
 2387SOL     OW18793   1.338   1.658   4.294 -0.6120 -0.7701 -0.3465
 2387SOL    HW118794   1.429   1.676   4.320 -0.4834 -0.5735 -0.9408
 2387SOL    HW218795   1.288   1.715   4.352  0.7875  1.2927 -1.1666
 2388SOL     OW18796   0.663   3.770   3.098  0.3931  0.3091 -0.1860
 2388SOL    HW118797   0.714   3.851   3.100  0.1613  0.5173 -2.5217
 2388SOL    HW218798   0.720   3.705   3.057  1.1668 -0.4090  2.0558
 2389SOL     OW18799   1.730   0.019   3.308  0.0285  0.8785 -0.2746
 2389SOL    HW118800   1.723   0.083   3.379  0.8393 -0.8416  1.3517
 2389SOL    HW218801   1.809   0.051   3.263  0.5423 -0.1735 -0.1112
 2390SOL     OW18802   3.269   1.258   4.815 -0.3920 -0.2197  0.0078
 2390SOL    HW118803   3.223   1.310   4.880 -0.6227  0.8636 -1.0180
 2390SOL    HW218804   3.345   1.237   4.870 -0.4315 -1.2354 -0.3206
 2391SOL     OW18805   2.116   3.769   3.080  0.0535 -0.7724  0.5494
 2391SOL    HW118806   2.056   3.718   3.026  0.3429  0.0861 -0.5995
 2391SOL    HW218807   2.140   3.705   3.147  0.2587 -4.3492 -2.9390
 2392SOL     OW18808   1.791   3.034  12.762 -0.1236 -0.0501 -0.4132
 2392SOL    HW118809   1.862   3.016  12.700  1.7784 -0.2575  1.8319
 2392SOL    HW218810   1.821   3.117  12.798 -1.0894 -0.1662  0.6385
 2393SOL     OW18811   0.422   4.380   3.043  0.2127  0.4721 -0.0797
 2393SOL    HW118812   0.485   4.421   2.984 -1.1104  0.4806 -1.4785
 2393SOL    HW218813   0.348   4.368   2.983 -1.0526  0.8649  1.4057
 2394SOL     OW18814   2.752   4.274   9.403 -0.3127 -0.2849  0.0730
 2394SOL    HW118815   2.801   4.220   9.466  0.0533  1.1855  1.0368
 2394SOL    HW218816   2.736   4.206   9.338 -0.0993  0.6723 -0.9696
 2395SOL     OW18817   2.903   1.123  17.397  0.6303 -0.6276 -0.5476
 2395SOL    HW118818   2.905   1.032  17.427 -0.7220 -0.3874  0.2420
 2395SOL    HW218819   2.822   1.117  17.347 -0.9629  2.1123  1.7776
 2396SOL     OW18820   1.263   3.732  14.888 -0.4652  0.1191  0.2669
 2396SOL    HW118821   1.196   3.697  14.829  1.1576  0.7978 -1.9753
 2396SOL    HW218822   1.201   3.760  14.956 -0.4605  2.3686 -0.6724
 2397SOL     OW18823   0.340   0.489   4.092 -0.9844  0.5098 -0.1421
 2397SOL    HW118824   0.361   0.444   4.173  2.6148 -0.6477 -1.7564
 2397SOL    HW218825   0.405   0.475   4.024 -0.6276 -0.9667  0.5234
 2398SOL     OW18826   0.883   2.746   1.559  0.4767 -0.4258  0.1481
 2398SOL    HW118827   0.876   2.739   1.464 -2.0759 -2.6687  0.4791
 2398SOL    HW218828   0.806   2.693   1.581 -0.2812  0.7539  0.3669
 2399SOL     OW18829   0.016   3.627   4.943  0.2267 -0.2124 -0.0570
 2399SOL    HW118830   0.021   3.555   4.881 -0.8388  1.5175 -2.1652
 2399SOL    HW218831   0.110   3.637   4.960  0.3066 -0.4474 -0.3677
 2400SOL     OW18832   0.564   3.108   3.449 -0.2372  0.4623 -0.1190
 2400SOL    HW118833   0.573   3.202   3.466  1.2205  0.5427 -1.3763
 2400SOL    HW218834   0.535   3.075   3.535 -0.2441  0.5618 -0.0833
 2401SOL     OW18835   3.475   2.982   5.650  0.2180  0.1871 -0.0691
 2401SOL    HW118836   3.537   3.002   5.580 -0.5487  0.4960 -0.6517
 2401SOL    HW218837   3.528   2.945   5.721  2.0000 -0.2342 -1.6243
 2402SOL     OW18838   0.777   2.945   3.693  0.0394 -0.1762 -0.1833
 2402SOL    HW118839   0.781   3.017   3.630  2.2156  1.2738  1.6443
 2402SOL    HW218840   0.859   2.959   3.739  0.0655  1.4622 -0.7235
 2403SOL     OW18841   1.423   0.174   4.626  0.2434 -0.0467  0.2672
 2403SOL    HW118842   1.459   0.093   4.661  0.9204  0.9797  1.9153
 2403SOL    HW218843   1.341   0.191   4.673  0.4437 -2.0729  1.3330
 2404SOL     OW18844   2.472   0.238   8.020 -0.1697  0.5714  0.4767
 2404SOL    HW118845   2.540   0.301   8.044  2.8364 -2.0136 -1.2316
 2404SOL    HW218846   2.395   0.283   8.056 -0.2009  0.9278 -0.0224
 2405SOL     OW18847   1.699   1.972   3.364 -0.2620 -0.1213  0.7427
 2405SOL    HW118848   1.736   1.918   3.293  0.5816  1.0883  0.2606
 2405SOL    HW218849   1.746   2.054   3.349 -1.1602  0.1351 -0.6933
 2406SOL     OW18850   3.500   2.237  15.938 -0.5341  0.0727 -0.9316
 2406SOL    HW118851   3.436   2.179  15.978  0.4077 -0.4384 -0.1636
 2406SOL    HW218852   3.458   2.254  15.854 -0.6603 -0.6872 -1.0218
 2407SOL     OW18853   4.597   0.168   2.493  0.3021 -0.8067  0.2874
 2407SOL    HW118854   4.532   0.128   2.551 -0.6321 -1.8500 -1.4777
 2407SOL    HW218855   4.546   0.241   2.456 -0.7898 -1.1866  1.0279
 2408SOL     OW18856   1.272   4.123  11.517  0.3327 -0.2596 -0.4572
 2408SOL    HW118857   1.293   4.071  11.439 -2.7225 -2.4666  0.1959
 2408SOL    HW218858   1.177   4.110  11.522  0.6495 -1.5953  2.2293
 2409SOL     OW18859   3.644   4.704   6.078  1.1107 -0.0592  0.0394
 2409SOL    HW118860   3.709   4.716   6.009  1.1671  0.4395  0.1833
 2409SOL    HW218861   3.686   4.635   6.130  2.0931  1.3214  1.0712
 2410SOL     OW18862   3.058   3.165  10.668 -0.2806  0.0779  0.3590
 2410SOL    HW118863   3.123   3.231  10.694  0.7529 -1.0130  0.5683
 2410SOL    HW218864   3.020   3.222  10.602  1.2219  1.0698  0.3540
 2411SOL     OW18865   2.503   2.771   4.830  0.3993  0.3543  0.4933
 2411SOL    HW118866   2.533   2.861   4.846  0.7084  0.4357 -0.5572
 2411SOL    HW218867   2.449   2.758   4.908 -1.1391  0.6820 -0.5067
 2412SOL     OW18868   0.660   3.113   7.966  0.6966 -0.3981  0.0287
 2412SOL    HW118869   0.644   3.205   7.986 -1.1290 -1.4293  3.2006
 2412SOL    HW218870   0.583   3.072   8.004 -0.9381  2.5888  0.0043
 2413SOL     OW18871   1.212   2.402   4.758  0.5755 -0.2350 -0.5202
 2413SOL    HW118872   1.194   2.479   4.705  2.2998  1.2941  1.1441
 2413SOL    HW218873   1.302   2.377   4.734  1.0170  1.4291 -0.5530
 2414SOL     OW18874   0.619   2.556   2.165  0.2549  0.0496  0.7390
 2414SOL    HW118875   0.664   2.502   2.230 -1.6427 -0.5892  1.5056
 2414SOL    HW218876   0.569   2.612   2.224 -0.5127 -0.2958  0.4156
 2415SOL     OW18877   4.624   2.152   9.235  0.4081  0.4299 -0.6794
 2415SOL    HW118878   4.653   2.100   9.160  0.5948  1.9122 -1.6263
 2415SOL    HW218879   4.702   2.155   9.291  0.4621  0.0051 -0.7263
 2416SOL     OW18880   0.307   1.609   6.751  0.0530 -0.6785 -0.0066
 2416SOL    HW118881   0.315   1.697   6.786 -0.4909 -1.5758  2.3814
 2416SOL    HW218882   0.246   1.569   6.813  0.5435  2.7965  2.6704
 2417SOL     OW18883   0.042   0.038  15.233 -0.0309  0.4852 -0.0677
 2417SOL    HW118884   4.692   0.076  15.242 -1.0488 -1.5963 -1.1071
 2417SOL    HW218885   0.057   0.022  15.326  2.0266  0.8232 -0.3356
 2418SOL     OW18886   2.724   1.001   6.468 -0.2335 -0.5064  0.1381
 2418SOL    HW118887   2.692   0.989   6.378  1.9221  2.7582 -1.0661
 2418SOL    HW218888   2.808   1.044   6.452 -0.2872 -0.3037  0.4218
 2419SOL     OW18889   1.018   2.798  11.057 -0.1702  0.1554  0.5282
 2419SOL    HW118890   1.033   2.822  11.148 -0.3377  0.3045  0.5157
 2419SOL    HW218891   1.015   2.702  11.057  1.0886  0.1111 -2.0556
 2420SOL     OW18892   0.285   1.193   4.070  0.1921  0.2077 -0.0273
 2420SOL    HW118893   0.370   1.166   4.104  0.3478 -0.0406 -0.6322
 2420SOL    HW218894   0.263   1.247   4.146  1.5264 -0.4581  0.8178
 2421SOL     OW18895   0.656   4.542   3.862 -0.6173 -0.0612  0.5070
 2421SOL    HW118896   0.687   4.595   3.789  0.5107 -0.6297  0.5855
 2421SOL    HW218897   0.660   4.461   3.812  1.9695  1.6814 -2.1015
 2422SOL     OW18898   1.086   0.068   4.109  0.1060 -0.3936 -0.1995
 2422SOL    HW118899   0.999   0.078   4.071  0.1243 -2.7933 -0.8708
 2422SOL    HW218900   1.151   0.062   4.039 -0.9828  1.1044 -1.3261
 2423SOL     OW18901   0.535   1.275   9.566  0.2929  0.3540  0.0813
 2423SOL    HW118902   0.444   1.279   9.537  0.6588  1.7671 -0.8601
 2423SOL    HW218903   0.526   1.260   9.660 -0.4005 -1.0684 -0.2143
 2424SOL     OW18904   1.701   4.238   9.033  0.5683 -0.5583 -0.2803
 2424SOL    HW118905   1.745   4.291   8.967 -2.3726 -1.4467 -2.9157
 2424SOL    HW218906   1.611   4.246   9.004  1.5332  0.7038 -2.9064
 2425SOL     OW18907   2.347   2.066  11.266  0.6508 -0.1197  0.2793
 2425SOL    HW118908   2.364   2.123  11.191  2.3368  0.6669  1.2588
 2425SOL    HW218909   2.251   2.062  11.263  0.6203 -1.0459  1.9571
 2426SOL     OW18910   2.551   4.693  10.395  0.1300 -0.2169  0.0933
 2426SOL    HW118911   2.537   4.684  10.301  0.6510  2.8587 -0.2794
 2426SOL    HW218912   2.647   4.696  10.395  0.1635 -1.0692  0.9571
 2427SOL     OW18913   3.585   1.861   3.434 -0.5364 -0.7323 -0.5590
 2427SOL    HW118914   3.642   1.919   3.385 -0.3740 -0.1639  0.3056
 2427SOL    HW218915   3.601   1.775   3.395 -0.2601 -1.0687  0.2919
 2428SOL     OW18916   1.944   4.184   3.500 -0.3930  0.1170 -0.2111
 2428SOL    HW118917   1.899   4.134   3.569 -0.2038 -1.2446 -1.0870
 2428SOL    HW218918   1.911   4.147   3.419 -1.8851 -0.3563  0.6091
 2429SOL     OW18919   1.251   4.192   2.242 -0.3858  0.1902  0.0679
 2429SOL    HW118920   1.327   4.150   2.203 -1.2004 -2.0491  0.8966
 2429SOL    HW218921   1.194   4.215   2.169 -0.2269  0.5962  0.0686
 2430SOL     OW18922   0.394   1.484   2.745  0.7006  0.2388  0.1124
 2430SOL    HW118923   0.326   1.416   2.749  1.0021  0.0248  1.3444
 2430SOL    HW218924   0.340   1.563   2.747  0.6733  0.2799 -1.6279
 2431SOL     OW18925   0.467   3.380  11.195  0.3066  0.7905  0.2654
 2431SOL    HW118926   0.435   3.350  11.110 -0.9010 -0.9293  1.3194
 2431SOL    HW218927   0.408   3.452  11.217 -1.6436  0.2832 -3.2281
 2432SOL     OW18928   4.043   4.334  13.236 -0.5363 -0.5773  0.2502
 2432SOL    HW118929   3.979   4.336  13.307  1.3936 -2.3295  1.9971
 2432SOL    HW218930   4.071   4.425  13.226 -1.0445 -0.6800 -2.3365
 2433SOL     OW18931   0.095   1.487   0.177  0.4481  1.0575  0.2281
 2433SOL    HW118932   0.165   1.532   0.130  0.9162 -1.1738 -1.1807
 2433SOL    HW218933   0.093   1.543   0.255 -2.2218 -0.6819  1.4242
 2434SOL     OW18934   0.565   1.532   3.270 -0.2912 -0.5263  0.0690
 2434SOL    HW118935   0.633   1.508   3.332  0.1841  1.6909  0.4079
 2434SOL    HW218936   0.500   1.584   3.317 -1.5420 -1.0378 -1.0902
 2435SOL     OW18937   4.228   0.332  15.557 -0.8734 -0.0939  0.0314
 2435SOL    HW118938   4.292   0.314  15.488 -0.5138 -1.7787  0.7912
 2435SOL    HW218939   4.172   0.384  15.500 -2.2777 -1.1729  0.4371
 2436SOL     OW18940   1.409   1.258   2.916 -0.2245 -0.3227  0.3558
 2436SOL    HW118941   1.347   1.186   2.928 -1.5254  0.4760 -1.4889
 2436SOL    HW218942   1.410   1.250   2.821 -1.5322  0.9012  0.2351
 2437SOL     OW18943   3.259   4.204   1.761  0.4944  0.0435 -0.4291
 2437SOL    HW118944   3.212   4.219   1.678 -1.7633  0.3784  0.9048
 2437SOL    HW218945   3.189   4.186   1.824 -0.6248  0.0951 -1.6444
 2438SOL     OW18946   0.142   4.124  16.562 -0.2334  0.2072 -0.3039
 2438SOL    HW118947   0.209   4.106  16.497  1.3542 -3.2646  2.3293
 2438SOL    HW218948   0.147   4.220  16.556 -2.8452  0.2070 -2.6708
 2439SOL     OW18949   1.016   4.465   3.628 -0.2018 -0.2819  0.1593
 2439SOL    HW118950   1.102   4.445   3.666 -0.1632 -0.3763  0.0256
 2439SOL    HW218951   0.981   4.376   3.637 -1.6382  0.4061  1.2794
 2440SOL     OW18952   1.579   0.064   7.918  0.1648 -0.4271  0.0939
 2440SOL    HW118953   1.590   0.158   7.902 -1.2947 -0.0179  1.4359
 2440SOL    HW218954   1.543   0.025   7.839 -1.8752  2.1592 -0.2675
 2441SOL     OW18955   0.172   0.626   7.319  0.1593  0.0270 -0.2819
 2441SOL    HW118956   0.125   0.559   7.269 -1.3330  0.9113 -0.0544
 2441SOL    HW218957   0.141   0.705   7.275  0.2043  0.5768  0.6940
 2442SOL     OW18958   2.383   0.866   3.875  0.6343  0.0482  0.1679
 2442SOL    HW118959   2.309   0.875   3.935 -0.2714  0.7872 -1.0548
 2442SOL    HW218960   2.327   0.889   3.800 -1.0067 -2.6148  0.5827
 2443SOL     OW18961   2.383   4.618   3.266  0.3207  0.4284 -0.1065
 2443SOL    HW118962   2.438   4.664   3.330  0.2937  0.5710 -0.1878
 2443SOL    HW218963   2.379   4.536   3.316  3.3729  0.7130  0.5765
 2444SOL     OW18964   2.605   1.869   6.216 -0.2118  0.1407 -0.0430
 2444SOL    HW118965   2.617   1.774   6.225  1.0198  0.3554  0.5880
 2444SOL    HW218966   2.539   1.877   6.147  0.5255  0.1742 -0.7427
 2445SOL     OW18967   4.660   0.232  16.795  0.4137  0.0745 -0.7206
 2445SOL    HW118968   4.650   0.158  16.854  1.8774 -0.1090 -0.6910
 2445SOL    HW218969   4.576   0.278  16.802  1.5371  2.0403 -0.0994
 2446SOL     OW18970   4.512   4.555   0.445 -0.4528  0.4130  0.5858
 2446SOL    HW118971   4.566   4.552   0.366  0.5308  2.5366  1.1600
 2446SOL    HW218972   4.428   4.576   0.406 -0.5288 -1.8202 -0.4463
 2447SOL     OW18973   2.108   1.523   0.216 -0.0556  0.3648  0.0709
 2447SOL    HW118974   2.146   1.536   0.303  0.7184  1.2371 -0.4043
 2447SOL    HW218975   2.026   1.476   0.234 -0.4398  0.7038 -0.8198
 2448SOL     OW18976   0.944   1.437   7.488 -0.2400  0.2332  0.1639
 2448SOL    HW118977   0.958   1.436   7.393 -2.0703 -2.2243 -0.0546
 2448SOL    HW218978   0.967   1.349   7.518 -2.4271  0.1431  1.5756
 2449SOL     OW18979   1.433   1.812   5.083  0.0549 -0.1613 -0.0623
 2449SOL    HW118980   1.379   1.889   5.102  4.0160  2.9860 -1.5055
 2449SOL    HW218981   1.362   1.751   5.063 -0.3875 -0.2924  1.8704
 2450SOL     OW18982   0.705   4.126   5.911 -0.2497  0.1104  0.2780
 2450SOL    HW118983   0.710   4.031   5.904 -2.9738 -0.2433  2.9432
 2450SOL    HW218984   0.634   4.153   5.852 -0.3587  0.1950  0.4449
 2451SOL     OW18985   3.595   1.727   8.699  0.2952 -0.0433 -0.2185
 2451SOL    HW118986   3.666   1.672   8.666  0.0496 -0.9765  0.7793
 2451SOL    HW218987   3.518   1.674   8.678  0.5305 -0.5120  0.1035
 2452SOL     OW18988   1.350   3.327   4.807  0.2484 -0.5866  0.1367
 2452SOL    HW118989   1.311   3.402   4.853 -1.2499  0.1292 -2.3001
 2452SOL    HW218990   1.418   3.365   4.752  0.3657 -1.6992 -0.4875
 2453SOL     OW18991   3.476   4.713   5.424  0.7751 -0.4266 -0.5454
 2453SOL    HW118992   3.507   4.731   5.513 -0.4503 -1.6267  0.1284
 2453SOL    HW218993   3.412   0.047   5.424  0.8908 -0.3195  2.9428
 2454SOL     OW18994   4.716   0.687  12.748  0.0719 -0.3643 -0.0943
 2454SOL    HW118995   4.704   0.729  12.833  0.2596  0.6363 -0.5536
 2454SOL    HW218996   0.073   0.671  12.753  0.1766  0.4525  0.5047
 2455SOL     OW18997   1.215   3.179   4.595  0.3227 -0.6990  0.4498
 2455SOL    HW118998   1.147   3.246   4.585 -0.2725 -1.0589  1.9792
 2455SOL    HW218999   1.273   3.224   4.656 -2.2729  0.5893  1.9976
 2456SOL     OW19000   1.482   0.962   7.945 -0.1475  0.0010 -0.2179
 2456SOL    HW119001   1.476   0.885   7.888 -1.7644  0.6269 -0.8937
 2456SOL    HW219002   1.465   0.922   8.030 -1.5184  4.1994  1.4972
 2457SOL     OW19003   3.907   3.737   7.048  0.6203 -0.2605 -0.4212
 2457SOL    HW119004   3.830   3.758   6.995  1.5825  2.8584 -0.5851
 2457SOL    HW219005   3.970   3.715   6.979 -0.6116 -1.2006 -1.2597
 2458SOL     OW19006   3.201   3.639   5.522 -0.4679  0.1461 -0.3751
 2458SOL    HW119007   3.290   3.608   5.533 -0.0844  1.5313  0.3939
 2458SOL    HW219008   3.192   3.701   5.594  2.2163 -1.1076  1.0039
 2459SOL     OW19009   2.402   1.186   6.764 -0.6102  0.1507  0.1519
 2459SOL    HW119010   2.468   1.121   6.787 -0.2424 -0.2956 -2.1517
 2459SOL    HW219011   2.402   1.242   6.842  1.9396 -1.8737  1.5867
 2460SOL     OW19012   1.558   4.086   3.771  0.0200  0.4096  0.4147
 2460SOL    HW119013   1.531   4.138   3.847 -4.5762 -1.7118  0.1760
 2460SOL    HW219014   1.652   4.069   3.782 -0.2078  1.0623  3.2923
 2461SOL     OW19015   1.283   2.913   6.117 -0.0184 -1.0983 -0.1595
 2461SOL    HW119016   1.350   2.927   6.184  0.8341  2.3550 -1.7301
 2461SOL    HW219017   1.338   2.886   6.044 -0.0406  1.9510 -1.2689
 2462SOL     OW19018   3.364   2.635   8.578  0.4094  0.1161 -0.0834
 2462SOL    HW119019   3.424   2.587   8.635  0.6679  0.4353 -0.0883
 2462SOL    HW219020   3.280   2.603   8.611 -0.4334  1.0897 -1.2793
 2463SOL     OW19021   2.423   2.292  15.713 -0.9464  0.3469  0.2035
 2463SOL    HW119022   2.425   2.203  15.677 -0.4662 -0.1563  1.4673
 2463SOL    HW219023   2.490   2.283  15.781  0.1297  0.3034 -0.8551
 2464SOL     OW19024   3.156   4.594   5.248 -0.5631  0.5922  0.2561
 2464SOL    HW119025   3.128   4.655   5.180  2.8389  0.9136 -0.8708
 2464SOL    HW219026   3.250   4.598   5.233 -0.7304 -1.0708 -1.1902
 2465SOL     OW19027   3.134   0.458   5.829 -0.6692  0.2597 -0.0398
 2465SOL    HW119028   3.136   0.400   5.905 -0.0745 -1.0282 -1.0383
 2465SOL    HW219029   3.107   0.540   5.869  1.5749  0.3972  1.1913
 2466SOL     OW19030   2.477   0.787  16.896 -0.4526  0.1551 -0.2735
 2466SOL    HW119031   2.559   0.788  16.846  0.5752  0.5822  1.3888
 2466SOL    HW219032   2.423   0.853  16.852 -0.1431  0.0080 -0.8643
 2467SOL     OW19033   2.839   2.652   5.856 -0.2806  0.3972 -0.0814
 2467SOL    HW119034   2.853   2.737   5.814  0.8849  0.5345  0.6027
 2467SOL    HW219035   2.866   2.592   5.786 -0.8824  1.6967 -1.4462
 2468SOL     OW19036   3.375   0.407  16.163 -0.3049  0.1392  0.1725
 2468SOL    HW119037   3.314   0.409  16.237  1.2103 -1.1162  1.4749
 2468SOL    HW219038   3.455   0.445  16.201  0.1410 -2.0310  1.4235
 2469SOL     OW19039   4.066   1.792  13.564  0.2308  0.0309  0.2657
 2469SOL    HW119040   4.155   1.774  13.534 -0.2317 -2.3293  0.3442
 2469SOL    HW219041   4.038   1.822  13.477 -2.6445  0.0083  1.1927
 2470SOL     OW19042   2.707   4.280   2.207  0.3392 -0.3093  0.4485
 2470SOL    HW119043   2.670   4.229   2.135 -1.1357 -0.0457  1.0055
 2470SOL    HW219044   2.751   4.210   2.254  0.8734 -0.2981 -0.0433
 2471SOL     OW19045   4.496   4.401   7.653  0.1620 -0.2799 -0.1907
 2471SOL    HW119046   4.554   4.328   7.673 -0.3534 -0.9370 -1.0741
 2471SOL    HW219047   4.558   4.470   7.630  1.6665 -1.7111 -0.4014
 2472SOL     OW19048   0.930   0.628   4.854  0.1094  0.1664  0.3693
 2472SOL    HW119049   0.945   0.676   4.773 -1.2536 -1.5454 -0.9022
 2472SOL    HW219050   0.945   0.700   4.916  0.4074  0.1822  0.2779
 2473SOL     OW19051   2.282   4.036   5.265  0.7519 -0.2842  0.4176
 2473SOL    HW119052   2.211   3.982   5.229  1.3100 -1.4953  1.1607
 2473SOL    HW219053   2.346   4.021   5.195  2.1334  1.2729  1.3593
 2474SOL     OW19054   0.660   2.867  14.338 -0.5010  0.7928 -0.3540
 2474SOL    HW119055   0.745   2.861  14.295 -0.1329 -2.6671  0.8242
 2474SOL    HW219056   0.609   2.850  14.259 -0.9380  1.7906 -0.2809
 2475SOL     OW19057   1.495   1.410   8.229 -0.3934  0.3991 -0.5171
 2475SOL    HW119058   1.474   1.502   8.218 -1.4171 -0.0365 -2.2466
 2475SOL    HW219059   1.578   1.403   8.183 -0.3065 -2.6452  0.0407
 2476SOL     OW19060   3.915   3.817   1.720 -0.2143 -0.2830  0.0161
 2476SOL    HW119061   3.938   3.725   1.703  0.3301 -0.0009 -0.7568
 2476SOL    HW219062   4.004   3.850   1.716  0.4048 -1.8020  1.0217
 2477SOL     OW19063   1.961   1.608   5.987  0.2683  0.4814 -0.0389
 2477SOL    HW119064   2.036   1.604   6.045 -0.5710  0.1190  1.0255
 2477SOL    HW219065   1.999   1.671   5.926  2.7350 -1.4864 -0.5467
 2478SOL     OW19066   4.116   1.427  15.606  0.0818 -0.3471  0.1258
 2478SOL    HW119067   4.201   1.447  15.567  1.9701  0.2350  4.5752
 2478SOL    HW219068   4.127   1.340  15.644  3.7669 -0.5441 -1.4658
 2479SOL     OW19069   2.355   0.885   6.942  0.1866  0.4733 -0.5081
 2479SOL    HW119070   2.402   0.939   7.005 -0.2452  0.1818  0.0657
 2479SOL    HW219071   2.418   0.818   6.919 -0.4287  0.0688 -1.0143
 2480SOL     OW19072   3.760   0.647   0.641 -0.0258  0.6148  0.1200
 2480SOL    HW119073   3.787   0.556   0.633  0.0073  0.6307  0.0521
 2480SOL    HW219074   3.684   0.635   0.584  0.0663  1.5420 -0.1996
 2481SOL     OW19075   4.026   3.223   3.068 -0.0251  0.0651 -0.0242
 2481SOL    HW119076   3.996   3.134   3.084 -0.8116  0.3380  0.0440
 2481SOL    HW219077   3.958   3.277   3.109 -0.3734 -1.0709  0.8760
 2482SOL     OW19078   1.775   3.396  12.245 -0.1565 -0.5645  0.0877
 2482SOL    HW119079   1.871   3.400  12.249 -0.1670  0.4695 -0.5850
 2482SOL    HW219080   1.765   3.374  12.152  3.6357 -3.5123  0.3966
 2483SOL     OW19081   4.159   4.533   8.827 -0.2963  0.1130  1.2545
 2483SOL    HW119082   4.100   4.525   8.752 -0.1166 -2.2909  1.3843
 2483SOL    HW219083   4.105   4.578   8.892 -2.4820 -0.1303 -0.4013
 2484SOL     OW19084   4.725   0.629   3.645  0.0884  0.2022  0.7815
 2484SOL    HW119085   4.668   0.681   3.589 -0.2417 -0.6728  0.3120
 2484SOL    HW219086   0.009   0.692   3.714  2.5191 -0.0421  0.2385
 2485SOL     OW19087   3.386   3.338   2.178  0.4409 -0.1557 -0.2683
 2485SOL    HW119088   3.372   3.393   2.255  0.5073  1.2618 -1.2653
 2485SOL    HW219089   3.300   3.345   2.135  0.3377 -1.2595 -0.2381
 2486SOL     OW19090   4.310   4.016   5.827  0.2075  0.7766  0.0193
 2486SOL    HW119091   4.228   4.010   5.876  1.3257  1.9304  2.0282
 2486SOL    HW219092   4.309   3.943   5.765 -0.2254  0.2064  0.7001
 2487SOL     OW19093   4.396   1.478   1.002 -0.1750  0.1899  0.1126
 2487SOL    HW119094   4.413   1.572   0.994  0.0947  0.4451  3.4346
 2487SOL    HW219095   4.438   1.463   1.087  3.0400 -0.6334 -1.6477
 2488SOL     OW19096   3.803   1.319   1.499 -0.1022  1.2914  0.4089
 2488SOL    HW119097   3.852   1.288   1.423 -1.8952 -1.1511  0.2475
 2488SOL    HW219098   3.870   1.297   1.563 -1.1447  0.5271  1.2307
 2489SOL     OW19099   2.604   3.654   3.917  0.1974 -0.3259 -0.0033
 2489SOL    HW119100   2.616   3.736   3.869  1.3603 -0.5410 -0.0821
 2489SOL    HW219101   2.565   3.596   3.852  0.8650  0.3668 -1.0242
 2490SOL     OW19102   2.466   1.519   7.583 -0.0469  0.1660 -0.4184
 2490SOL    HW119103   2.548   1.501   7.537 -0.0626 -0.4377 -0.2134
 2490SOL    HW219104   2.498   1.572   7.656  2.9337  0.0930 -1.6511
 2491SOL     OW19105   1.053   4.292   4.517  0.7331  0.2102 -0.0710
 2491SOL    HW119106   1.138   4.279   4.559  1.0281  2.2981 -0.0018
 2491SOL    HW219107   1.016   4.205   4.505  1.0833  0.2726 -1.4942
 2492SOL     OW19108   1.641   4.297  10.236 -0.1344  0.2276 -0.5730
 2492SOL    HW119109   1.641   4.235  10.309 -0.7538 -0.4242 -1.1209
 2492SOL    HW219110   1.549   4.324  10.237  0.2961  1.7376 -2.2365
 2493SOL     OW19111   0.766   0.120   8.708  0.1090  1.0226  0.3025
 2493SOL    HW119112   0.760   0.202   8.757 -0.7310  0.2898  1.4221
 2493SOL    HW219113   0.717   0.147   8.630  0.1170 -1.5601 -0.5688
 2494SOL     OW19114   4.736   2.025   6.614  0.0734  0.4739  0.6634
 2494SOL    HW119115   0.003   1.937   6.650 -2.1032  1.1341  2.4639
 2494SOL    HW219116   4.646   2.032   6.582 -0.3830 -0.2120  1.8178
 2495SOL     OW19117   4.245   3.315  14.946  0.0412 -0.1640  0.9950
 2495SOL    HW119118   4.179   3.246  14.956 -2.4811  2.6869  4.0814
 2495SOL    HW219119   4.264   3.312  14.852 -0.3940  0.5344  0.8859
 2496SOL     OW19120   4.357   3.602   7.408  0.1138 -0.0118  0.1075
 2496SOL    HW119121   4.287   3.650   7.363  1.2856  1.4844 -0.1465
 2496SOL    HW219122   4.405   3.560   7.336 -2.4332  1.5789 -2.5173
 2497SOL     OW19123   3.956   3.140   7.807  0.2576  0.7765 -0.2134
 2497SOL    HW119124   3.943   3.186   7.724 -1.1320 -1.3923 -1.1853
 2497SOL    HW219125   3.927   3.053   7.780  0.8322  0.7155 -0.6243
 2498SOL     OW19126   1.697   0.201   9.630  0.1595  0.1376  0.3640
 2498SOL    HW119127   1.723   0.293   9.631  0.2104  0.1191  0.8995
 2498SOL    HW219128   1.606   0.211   9.602  0.2677 -0.0370 -0.0433
 2499SOL     OW19129   2.961   3.670   8.323 -0.4811  0.0569  0.2058
 2499SOL    HW119130   2.876   3.684   8.365 -0.7151  1.2516 -0.6528
 2499SOL    HW219131   3.007   3.752   8.340  0.5507 -0.8909  2.0319
 2500SOL     OW19132   2.563   3.009   6.130  0.0614  0.1303 -0.0106
 2500SOL    HW119133   2.643   2.958   6.148  0.5102  0.4305 -1.1435
 2500SOL    HW219134   2.498   2.940   6.140  1.8165 -1.6178 -0.4638
 2501SOL     OW19135   4.667   2.874   7.056  0.0790  0.3225  0.3153
 2501SOL    HW119136   4.690   2.959   7.093 -1.6640  0.3491  1.3534
 2501SOL    HW219137   4.661   2.817   7.133  0.1934 -1.0563 -0.6867
 2502SOL     OW19138   0.589   2.858   8.268  0.3423  0.4906 -0.2623
 2502SOL    HW119139   0.523   2.813   8.320  0.3074 -1.5837 -2.0862
 2502SOL    HW219140   0.536   2.855   8.188 -0.7005 -0.3675  0.4538
 2503SOL     OW19141   4.002   4.287   8.401  0.4654 -0.5582 -0.1871
 2503SOL    HW119142   3.990   4.367   8.349  0.0396 -0.0418  0.7007
 2503SOL    HW219143   3.945   4.226   8.355 -0.6682 -0.9119  1.6876
 2504SOL     OW19144   1.641   1.833   7.520  0.6307  0.5024  0.2345
 2504SOL    HW119145   1.654   1.815   7.427  2.1818 -3.0745  1.1590
 2504SOL    HW219146   1.731   1.812   7.546  0.9640  0.8511 -0.6480
 2505SOL     OW19147   0.259   4.129  10.655 -0.2568  0.1500 -0.1951
 2505SOL    HW119148   0.254   4.084  10.571  4.4757  0.2127 -0.4647
 2505SOL    HW219149   0.352   4.120  10.675 -0.3916 -1.9655 -0.5571
 2506SOL     OW19150   0.563   4.034   2.944 -0.0317  0.7623  0.1692
 2506SOL    HW119151   0.636   4.063   2.889 -0.9260  1.0417 -0.8755
 2506SOL    HW219152   0.606   3.959   2.984 -0.9376  2.2178  3.8493
 2507SOL     OW19153   3.624   1.170  15.958  0.0287 -0.4559  0.7206
 2507SOL    HW119154   3.562   1.126  16.016 -0.4392  0.6545  1.0534
 2507SOL    HW219155   3.699   1.111  15.953  0.6591  0.4860 -1.2783
 2508SOL     OW19156   3.455   1.695   3.162  0.3463  0.2079 -0.2500
 2508SOL    HW119157   3.383   1.758   3.165 -0.3246 -0.5970  0.3713
 2508SOL    HW219158   3.412   1.620   3.120  0.7392  0.7890 -1.7008
 2509SOL     OW19159   3.329   2.192   7.003  0.1115  0.2520  0.2238
 2509SOL    HW119160   3.313   2.139   6.925  0.2835  0.2638  0.1790
 2509SOL    HW219161   3.424   2.182   7.013 -0.1831 -1.7448  0.9672
 2510SOL     OW19162   4.618   1.518  11.794  0.1141 -0.0730  0.3613
 2510SOL    HW119163   4.686   1.584  11.811  1.0570 -0.8437 -0.3645
 2510SOL    HW219164   4.550   1.562  11.743 -0.2530 -0.3933  0.5850
 2511SOL     OW19165   2.954   1.701   5.840  0.1584  0.1817 -0.0135
 2511SOL    HW119166   2.970   1.786   5.880  0.8681  1.2697 -2.5568
 2511SOL    HW219167   2.990   1.644   5.908  2.0460 -0.2390 -1.3358
 2512SOL     OW19168   2.664   0.367   6.505 -0.6169 -0.4234  0.3700
 2512SOL    HW119169   2.616   0.338   6.582  0.1041 -2.9323 -0.1272
 2512SOL    HW219170   2.600   0.433   6.479 -2.9736 -2.0029  2.1870
 2513SOL     OW19171   0.798   1.913   4.962 -0.1603  0.2056  0.5033
 2513SOL    HW119172   0.855   1.859   4.907  0.2317 -0.5671  1.6605
 2513SOL    HW219173   0.781   1.847   5.030  1.5450  2.1332  2.8092
 2514SOL     OW19174   0.293   1.748  14.076 -0.3280  0.0895  0.0449
 2514SOL    HW119175   0.201   1.773  14.074 -0.4697 -0.3192  1.1956
 2514SOL    HW219176   0.332   1.812  14.017  2.0140 -2.8855 -1.6284
 2515SOL     OW19177   0.049   2.626   9.254 -0.0865 -0.0696 -0.8259
 2515SOL    HW119178   4.718   2.662   9.196 -0.8948 -0.2445  0.0165
 2515SOL    HW219179   0.093   2.563   9.197  0.9458  0.5142 -0.6649
 2516SOL     OW19180   1.754   2.870   9.763 -0.3677  0.5847  0.5949
 2516SOL    HW119181   1.760   2.847   9.856  0.2149 -1.1132  0.1369
 2516SOL    HW219182   1.782   2.961   9.758 -1.2146  0.7066 -1.8863
 2517SOL     OW19183   0.579   0.792  16.895  0.2006 -0.4080  0.7849
 2517SOL    HW119184   0.547   0.818  16.808  1.1140 -2.8014 -0.2606
 2517SOL    HW219185   0.515   0.835  16.951  2.5975  3.2651  0.6786
 2518SOL     OW19186   0.796   2.014   3.968 -0.3339 -0.0336  0.1196
 2518SOL    HW119187   0.832   2.034   4.054  1.6599  0.0096 -0.7256
 2518SOL    HW219188   0.822   2.081   3.904  0.7017  2.0509  2.6939
 2519SOL     OW19189   2.635   1.785  11.145  0.0475 -0.1849 -0.1316
 2519SOL    HW119190   2.540   1.797  11.149  0.3203  1.9486  0.2341
 2519SOL    HW219191   2.658   1.852  11.081 -0.4620 -1.1446 -1.3189
 2520SOL     OW19192   0.475   1.661   5.099  0.2015  0.1689 -0.4788
 2520SOL    HW119193   0.445   1.746   5.132 -0.0595  0.4350 -1.4087
 2520SOL    HW219194   0.416   1.648   5.025 -0.3452  0.8116 -0.1569
 2521SOL     OW19195   0.770   1.601   3.995  0.2985 -0.4220  0.0922
 2521SOL    HW119196   0.750   1.646   3.913  0.2869 -0.4148  0.0991
 2521SOL    HW219197   0.772   1.676   4.054 -0.5049  0.6457 -1.2380
 2522SOL     OW19198   1.861   4.726   5.548 -0.4225  0.5515  0.2800
 2522SOL    HW119199   1.788   4.680   5.507  0.1367 -0.4198  0.3678
 2522SOL    HW219200   1.931   4.717   5.483 -0.3151  1.7155  0.2467
 2523SOL     OW19201   0.804   2.455   5.265  0.4566  0.3331 -0.6877
 2523SOL    HW119202   0.884   2.407   5.284  1.6265  1.9656 -1.5234
 2523SOL    HW219203   0.832   2.544   5.288 -0.0378  0.1931  0.4401
 2524SOL     OW19204   3.829   1.029   2.404 -0.3576 -0.1830 -0.0882
 2524SOL    HW119205   3.787   1.054   2.322  0.1481  0.0613 -0.2737
 2524SOL    HW219206   3.758   1.057   2.462 -0.4693  1.2042 -0.8971
 2525SOL     OW19207   0.191   1.146   6.237 -0.0129  1.1290  0.2340
 2525SOL    HW119208   0.157   1.233   6.259 -2.0635  0.3899  0.0355
 2525SOL    HW219209   0.169   1.147   6.143  1.2231 -0.8731 -0.0549
 2526SOL     OW19210   1.173   0.841   9.710  0.0497 -0.4012 -0.2232
 2526SOL    HW119211   1.227   0.806   9.781 -1.2146 -0.4661  0.7027
 2526SOL    HW219212   1.175   0.932   9.740 -0.6062 -1.6266  3.5340
 2527SOL     OW19213   3.131   0.884   4.834  0.3551 -0.1748 -0.4783
 2527SOL    HW119214   3.189   0.911   4.764  0.5662  0.0395 -0.2198
 2527SOL    HW219215   3.182   0.900   4.914  0.5590 -1.6065 -0.3147
 2528SOL     OW19216   1.136   0.619   6.509  0.6217  0.1471 -0.1774
 2528SOL    HW119217   1.153   0.525   6.519 -0.0358  0.2088  1.4683
 2528SOL    HW219218   1.202   0.655   6.568  1.4271  0.1047 -1.0447
 2529SOL     OW19219   1.663   0.928   6.467  0.6017  0.1747 -0.0501
 2529SOL    HW119220   1.689   0.969   6.384  1.9958  1.3465  0.9575
 2529SOL    HW219221   1.659   1.010   6.516 -1.2915 -1.0067  1.7785
 2530SOL     OW19222   4.494   0.692   2.805 -0.0842 -1.0893  0.3543
 2530SOL    HW119223   4.413   0.697   2.754  1.1087  1.0505 -1.3372
 2530SOL    HW219224   4.468   0.653   2.889 -0.1593  0.7397  1.1962
 2531SOL     OW19225   1.019   1.582  11.465  0.0421 -0.0531  0.2902
 2531SOL    HW119226   1.044   1.617  11.379 -0.4407 -2.0407 -0.6785
 2531SOL    HW219227   1.006   1.489  11.446 -1.0180  0.5077 -1.7013
 2532SOL     OW19228   3.751   2.100  11.125  0.0394  0.0627 -0.4440
 2532SOL    HW119229   3.753   2.108  11.030 -1.0697  0.4666 -0.4238
 2532SOL    HW219230   3.770   2.007  11.136 -1.0005 -0.1658 -0.6326
 2533SOL     OW19231   1.033   1.653   7.838 -0.0878 -0.5628 -0.5852
 2533SOL    HW119232   1.126   1.666   7.822  0.1900  0.3722  1.7835
 2533SOL    HW219233   1.032   1.709   7.915 -0.3832 -0.0665 -0.9489
 2534SOL     OW19234   2.595   1.392   0.213 -0.4735 -0.4925  0.0606
 2534SOL    HW119235   2.652   1.371   0.139  1.0383 -0.6892  1.2747
 2534SOL    HW219236   2.516   1.412   0.163 -0.3210 -2.0334 -0.7692
 2535SOL     OW19237   2.307   2.861   7.581 -0.1608  0.1939  0.5591
 2535SOL    HW119238   2.262   2.795   7.527  1.9798  0.9422 -2.1223
 2535SOL    HW219239   2.229   2.912   7.603 -1.0778 -1.6455  1.5660
 2536SOL     OW19240   1.206   4.226  12.242  0.2437 -0.4838 -0.3022
 2536SOL    HW119241   1.115   4.199  12.229  0.5107 -1.4585 -0.2115
 2536SOL    HW219242   1.225   4.266  12.157 -1.6853 -2.1885 -1.5461
 2537SOL     OW19243   2.611   2.023   7.554 -0.7837  0.1122  0.1947
 2537SOL    HW119244   2.565   1.947   7.517  0.1266 -0.4165  0.1568
 2537SOL    HW219245   2.674   2.044   7.485 -0.5321 -1.2527 -0.0026
 2538SOL     OW19246   1.354   0.735   6.991 -0.4256  0.1589  0.5900
 2538SOL    HW119247   1.298   0.693   7.057 -1.5331  0.1935 -0.3229
 2538SOL    HW219248   1.414   0.665   6.964 -2.3673  0.0122 -3.3211
 2539SOL     OW19249   2.475   2.234  15.139  0.5854 -0.4114  0.2113
 2539SOL    HW119250   2.392   2.186  15.134  0.4264 -0.2132  0.8874
 2539SOL    HW219251   2.437   2.321  15.130  1.2737 -0.2134 -0.7201
 2540SOL     OW19252   1.703   2.125   7.994  0.4736 -0.9842  0.0029
 2540SOL    HW119253   1.747   2.157   7.916 -1.4415  0.9625 -0.2705
 2540SOL    HW219254   1.774   2.134   8.057  0.3861  1.8760 -0.2981
 2541SOL     OW19255   3.634   3.000   4.706  0.0622 -0.0918 -0.7030
 2541SOL    HW119256   3.682   2.977   4.785  0.0437 -1.3265 -1.0381
 2541SOL    HW219257   3.607   3.088   4.730  1.2434 -0.2042  0.9815
 2542SOL     OW19258   2.661   0.722   3.122  0.2946 -0.2760  0.0197
 2542SOL    HW119259   2.676   0.806   3.078 -0.9398  0.4717  1.0580
 2542SOL    HW219260   2.734   0.726   3.184  0.3291  0.1317 -0.0470
 2543SOL     OW19261   2.337   2.736   4.144  0.2778  0.5772  0.6609
 2543SOL    HW119262   2.420   2.733   4.097 -0.0463  1.2757  0.0393
 2543SOL    HW219263   2.337   2.828   4.172  0.0290  1.3606 -1.9377
 2544SOL     OW19264   0.325   3.634  15.258 -0.3110  0.3775  0.1892
 2544SOL    HW119265   0.344   3.598  15.345  0.0290 -0.0283 -0.0499
 2544SOL    HW219266   0.232   3.613  15.254 -0.0826 -0.4654 -1.0344
 2545SOL     OW19267   2.826   2.242   1.283  0.3135 -0.3563  0.2676
 2545SOL    HW119268   2.867   2.161   1.253 -0.2158 -0.4177 -0.2967
 2545SOL    HW219269   2.829   2.216   1.375  2.2544 -0.1015  0.2855
 2546SOL     OW19270   3.141   0.272  15.476  0.3950 -0.3189  0.2940
 2546SOL    HW119271   3.136   0.364  15.504 -1.5665  0.5554 -2.9156
 2546SOL    HW219272   3.090   0.270  15.395 -3.8463 -1.0259  2.9543
 2547SOL     OW19273   2.383   3.352  16.511  0.0717 -0.0046 -0.7529
 2547SOL    HW119274   2.434   3.314  16.582 -3.3952 -2.5044  0.3682
 2547SOL    HW219275   2.351   3.269  16.478  2.7542  0.1277 -3.6822
 2548SOL     OW19276   4.323   0.634   4.678 -0.0894  0.5521 -0.1268
 2548SOL    HW119277   4.248   0.692   4.680 -0.3657  0.2087 -0.5737
 2548SOL    HW219278   4.276   0.555   4.706 -2.4359  1.0375 -2.8530
 2549SOL     OW19279   1.967   3.720   4.361  0.3517 -0.1153 -0.2224
 2549SOL    HW119280   1.876   3.700   4.381  0.3248  0.5421  0.3017
 2549SOL    HW219281   1.963   3.744   4.268  1.3620  0.4449 -0.1182
 2550SOL     OW19282   0.710   3.409  10.148  0.4032 -0.1667  0.7755
 2550SOL    HW119283   0.757   3.367  10.220  1.0504  2.1311  1.7275
 2550SOL    HW219284   0.739   3.500  10.144 -0.7733  0.2618  1.6925
 2551SOL     OW19285   4.058   1.374   9.733  0.0026 -0.1852 -0.2073
 2551SOL    HW119286   3.989   1.419   9.684  0.4285 -0.0666 -0.6972
 2551SOL    HW219287   4.013   1.329   9.805 -1.4097  1.3887 -0.1161
 2552SOL     OW19288   3.221   2.920  17.089  0.3909  0.2821 -0.0651
 2552SOL    HW119289   3.267   2.837  17.077 -0.4570 -0.6571  3.1304
 2552SOL    HW219290   3.222   2.948  16.998  0.9093 -0.6473 -0.3465
 2553SOL     OW19291   4.203   0.741  15.205 -0.5349  0.1441  0.3220
 2553SOL    HW119292   4.159   0.656  15.208 -1.3183  0.5194 -0.6033
 2553SOL    HW219293   4.283   0.724  15.255 -0.6446  1.5947  0.9874
 2554SOL     OW19294   3.880   0.752   0.103  0.1900 -0.6365  0.2275
 2554SOL    HW119295   3.864   0.828   0.046  1.0494 -2.3178 -2.2416
 2554SOL    HW219296   3.926   0.693   0.044  0.2581 -0.2217 -0.1352
 2555SOL     OW19297   2.676   1.043   9.136 -0.0527  0.0415  0.5623
 2555SOL    HW119298   2.771   1.040   9.136 -0.1076 -1.8593 -1.9009
 2555SOL    HW219299   2.669   0.990   9.056 -1.4206  1.2277 -0.1095
 2556SOL     OW19300   2.958   2.698   7.151 -0.0606  0.0928  0.0092
 2556SOL    HW119301   2.905   2.668   7.225  0.9931  1.9106  1.4772
 2556SOL    HW219302   2.956   2.614   7.104 -0.8247  0.2135 -0.1630
 2557SOL     OW19303   1.909   1.681   3.007  0.6345  0.2810 -0.2109
 2557SOL    HW119304   2.004   1.683   2.996  0.4550 -0.4045 -2.0159
 2557SOL    HW219305   1.886   1.615   2.942  2.5798 -0.0331 -0.5909
 2558SOL     OW19306   3.279   3.576   1.263  0.0799 -0.3845 -0.2436
 2558SOL    HW119307   3.312   3.488   1.280  0.9755 -0.1146 -0.5462
 2558SOL    HW219308   3.210   3.563   1.198 -2.5180 -0.6678  2.6120
 2559SOL     OW19309   3.756   0.770   8.165 -1.2233 -1.0268 -0.3888
 2559SOL    HW119310   3.793   0.690   8.128  1.5465  0.7399 -1.4164
 2559SOL    HW219311   3.731   0.741   8.253 -1.7393 -0.5969 -0.3871
 2560SOL     OW19312   0.135   1.434  14.966  0.4292 -0.4921  0.1881
 2560SOL    HW119313   0.072   1.458  14.898  0.7237  0.5170  0.2644
 2560SOL    HW219314   0.080   1.417  15.042  0.1818  2.4594  0.6624
 2561SOL     OW19315   0.726   2.548  13.624  0.1768 -0.0489 -0.1790
 2561SOL    HW119316   0.697   2.578  13.710 -0.2293 -0.0322 -0.3238
 2561SOL    HW219317   0.787   2.490  13.669  1.2288 -0.1146 -1.6876
 2562SOL     OW19318   2.349   4.446   3.020 -0.0551 -0.2475 -0.1261
 2562SOL    HW119319   2.403   4.505   3.071 -0.1939 -1.2120  1.1383
 2562SOL    HW219320   2.353   4.370   3.078 -1.5890  0.3430  0.7424
 2563SOL     OW19321   4.027   3.698   8.926 -0.1952  0.2789 -0.1258
 2563SOL    HW119322   4.046   3.776   8.979 -1.2168 -0.4593  1.3297
 2563SOL    HW219323   3.933   3.688   8.935 -0.1367 -0.7362 -0.6222
 2564SOL     OW19324   4.220   1.845   0.508  0.2632 -0.0595 -0.1302
 2564SOL    HW119325   4.126   1.833   0.518  0.2891 -0.3781 -0.2612
 2564SOL    HW219326   4.256   1.757   0.496  2.4829  0.3449  3.7166
 2565SOL     OW19327   0.740   0.460  12.155 -0.3176  0.2495 -0.0142
 2565SOL    HW119328   0.713   0.546  12.120 -1.9875 -0.2357  0.0933
 2565SOL    HW219329   0.816   0.436  12.101 -0.3689 -0.8323  0.4062
 2566SOL     OW19330   0.562   1.706   9.314  0.2437 -0.2203 -0.5813
 2566SOL    HW119331   0.502   1.647   9.269 -2.1124  1.5104  0.2598
 2566SOL    HW219332   0.599   1.648   9.381 -1.5105  0.8148  1.2851
 2567SOL     OW19333   0.530   2.551  16.015 -0.4907 -0.9136  0.2940
 2567SOL    HW119334   0.499   2.460  16.016  0.8958 -1.4031 -0.7867
 2567SOL    HW219335   0.519   2.558  15.920  2.6948 -1.4120 -0.1105
 2568SOL     OW19336   1.916   4.498   6.090 -0.3648  0.3616 -0.0653
 2568SOL    HW119337   1.848   4.467   6.150  1.9920 -3.4055  0.6594
 2568SOL    HW219338   1.927   4.411   6.053  0.0852  0.7127 -0.7574
 2569SOL     OW19339   1.676   3.287   8.527  0.1539  0.1531 -0.3479
 2569SOL    HW119340   1.682   3.363   8.585 -1.7088  2.4031 -3.1194
 2569SOL    HW219341   1.762   3.270   8.488 -0.0808 -1.0600 -0.3360
 2570SOL     OW19342   4.629   4.233   8.617 -0.0262 -0.2454  0.0407
 2570SOL    HW119343   4.578   4.197   8.690 -0.7996  2.0310  0.6238
 2570SOL    HW219344   4.700   4.168   8.612 -0.0184 -0.3627  1.6548
 2571SOL     OW19345   4.456   1.274   2.313  0.3074  0.0788 -0.1197
 2571SOL    HW119346   4.392   1.216   2.354  0.7916  0.5322  1.2774
 2571SOL    HW219347   4.490   1.232   2.234  3.4494  1.9677  0.2387
 2572SOL     OW19348   3.509   2.626  14.541  1.3427  0.3493 -0.3975
 2572SOL    HW119349   3.524   2.532  14.551  1.0215  0.4077  0.6031
 2572SOL    HW219350   3.528   2.664  14.627  0.8387  0.1527 -0.2005
 2573SOL     OW19351   3.387   2.143  12.182  0.3926  0.0117 -0.4345
 2573SOL    HW119352   3.321   2.074  12.175 -0.9640  1.1377  1.2833
 2573SOL    HW219353   3.377   2.199  12.105  2.7294 -0.4070 -1.0507
 2574SOL     OW19354   2.242   1.131   4.260 -0.2629 -0.1676  0.2607
 2574SOL    HW119355   2.160   1.171   4.231  0.0248  1.0178  1.1064
 2574SOL    HW219356   2.282   1.208   4.300 -0.5455 -0.1514  0.5132
 2575SOL     OW19357   2.537   1.797  17.659 -0.1678 -0.1274 -0.3553
 2575SOL    HW119358   2.524   1.749  17.578  1.6635 -1.6751  0.2829
 2575SOL    HW219359   2.548   1.887  17.629 -0.9754 -0.3451 -1.2706
 2576SOL     OW19360   3.594   3.716   7.119  0.1420  0.3218  0.3704
 2576SOL    HW119361   3.608   3.693   7.028  1.5034 -2.2243  1.2409
 2576SOL    HW219362   3.519   3.776   7.114 -0.4073 -0.3607  0.4810
 2577SOL     OW19363   3.766   2.152  15.595  0.2505  0.1410  0.0852
 2577SOL    HW119364   3.707   2.117  15.662 -0.2036 -0.8392 -0.8335
 2577SOL    HW219365   3.805   2.074  15.555  1.4327  0.7213  0.0768
 2578SOL     OW19366   4.130   0.819   6.851 -0.2862  0.1660  0.0720
 2578SOL    HW119367   4.133   0.724   6.841 -0.2600  0.2442 -0.7283
 2578SOL    HW219368   4.035   0.832   6.858 -0.4260 -1.6689  1.5584
 2579SOL     OW19369   4.084   4.594   2.055 -0.0373 -0.2693  0.1851
 2579SOL    HW119370   3.998   4.571   2.087  0.1962 -2.3196 -0.6973
 2579SOL    HW219371   4.126   4.509   2.045  0.8936  0.2399 -0.3193
 2580SOL     OW19372   3.462   0.919   5.271  0.1585 -0.2068 -0.1009
 2580SOL    HW119373   3.553   0.890   5.278 -0.2763 -1.5297  0.0149
 2580SOL    HW219374   3.438   0.899   5.362 -0.2715 -0.9265 -0.3674
 2581SOL     OW19375   3.964   2.986  12.043 -0.0805  0.2759 -0.3279
 2581SOL    HW119376   4.041   2.930  12.035 -0.7440 -0.5397 -1.0464
 2581SOL    HW219377   4.007   3.070  12.059  0.8666 -0.4116  0.7333
 2582SOL     OW19378   1.138   1.380  14.674 -0.9703  0.7578 -0.0738
 2582SOL    HW119379   1.163   1.287  14.674  0.5127  1.1440 -1.3034
 2582SOL    HW219380   1.082   1.389  14.751 -2.1259  2.3167 -1.0997
 2583SOL     OW19381   2.066   0.173   9.077 -0.2496 -0.0011 -0.8058
 2583SOL    HW119382   2.037   0.083   9.064  0.5040 -0.1628 -1.4178
 2583SOL    HW219383   2.097   0.174   9.167 -1.6548 -0.3658 -0.3290
 2584SOL     OW19384   2.830   3.300  14.892 -0.2224 -0.1814 -0.4132
 2584SOL    HW119385   2.881   3.263  14.819 -1.5096 -1.1915 -0.8144
 2584SOL    HW219386   2.759   3.333  14.836  1.9084  0.9965 -2.4040
 2585SOL     OW19387   3.690   4.261   6.503 -0.7015 -0.1554  0.4750
 2585SOL    HW119388   3.738   4.189   6.463 -0.1816  1.9920 -2.7639
 2585SOL    HW219389   3.724   4.348   6.482 -1.3648 -0.4323 -1.7417
 2586SOL     OW19390   1.497   2.769   8.142  0.8410  0.2826  0.1950
 2586SOL    HW119391   1.477   2.687   8.186  2.1867  0.8499  1.8466
 2586SOL    HW219392   1.586   2.778   8.177  1.0807 -4.0016  0.7017
 2587SOL     OW19393   0.168   0.738   4.380 -0.7816 -0.1531  0.0862
 2587SOL    HW119394   0.124   0.712   4.462  1.9037 -1.5081  1.0798
 2587SOL    HW219395   0.137   0.828   4.374  0.5214  0.3109  0.4584
 2588SOL     OW19396   0.197   2.575   2.473 -0.2372 -0.1909 -0.5897
 2588SOL    HW119397   0.224   2.488   2.503 -1.8455 -1.0868 -1.7090
 2588SOL    HW219398   0.208   2.572   2.378  0.5349 -1.3354 -0.4639
 2589SOL     OW19399   0.448   0.510  11.253 -0.6924 -0.3491  0.5335
 2589SOL    HW119400   0.450   0.460  11.172  0.5419  1.5426 -0.5946
 2589SOL    HW219401   0.484   0.596  11.233 -1.8713  0.4759  1.8782
 2590SOL     OW19402   1.024   1.504   4.731  0.2423  0.0686  0.8958
 2590SOL    HW119403   0.931   1.482   4.736  1.0832 -2.9140  3.6018
 2590SOL    HW219404   1.051   1.450   4.657  0.2745 -0.5727  1.3745
 2591SOL     OW19405   0.602   0.940   1.685  0.6292 -0.0493  0.0894
 2591SOL    HW119406   0.603   0.961   1.592  1.4563 -0.6402 -0.0447
 2591SOL    HW219407   0.562   1.020   1.719  0.2891 -0.2571  0.1810
 2592SOL     OW19408   0.350   2.590  14.175  0.0661 -0.0874 -0.4228
 2592SOL    HW119409   0.411   2.537  14.124 -3.1585 -1.7898 -2.5002
 2592SOL    HW219410   0.391   2.674  14.152 -1.2565  0.5655 -0.3981
 2593SOL     OW19411   2.396   3.419   0.183  0.2774  0.1326  0.0418
 2593SOL    HW119412   2.329   3.354   0.204 -0.8518  0.9242 -1.0837
 2593SOL    HW219413   2.355   3.499   0.215 -0.3509 -1.1626  2.4675
 2594SOL     OW19414   4.389   1.522  10.253  0.5670  0.7672  0.7778
 2594SOL    HW119415   4.313   1.465  10.247 -0.6385  2.2253  1.8503
 2594SOL    HW219416   4.345   1.606  10.240 -1.0731 -0.4943 -1.7312
 2595SOL     OW19417   4.684   2.563   9.724 -0.0265 -0.4026  0.0149
 2595SOL    HW119418   0.010   2.618   9.771  0.6077 -1.9324  0.9633
 2595SOL    HW219419   4.652   2.615   9.650  0.3226  0.5316  0.5208
 2596SOL     OW19420   2.095   2.599   8.957  0.4939 -0.2951  0.0628
 2596SOL    HW119421   2.011   2.562   8.934 -0.9225  3.5232 -0.8904
 2596SOL    HW219422   2.081   2.682   8.912  0.7004 -0.5586 -0.4902
 2597SOL     OW19423   4.682   1.672   0.591 -0.9935 -0.4909 -0.2777
 2597SOL    HW119424   4.641   1.748   0.634  1.8911 -0.8181  3.0574
 2597SOL    HW219425   4.602   1.630   0.558 -1.1460  1.5683 -2.5546
 2598SOL     OW19426   3.824   2.044   5.523  0.5632  0.0089  0.4576
 2598SOL    HW119427   3.914   2.068   5.545 -0.0488  2.1258  0.7065
 2598SOL    HW219428   3.774   2.082   5.596 -1.8506 -3.2727  0.4917
 2599SOL     OW19429   3.468   1.952   1.702 -0.3954 -0.7379  0.2717
 2599SOL    HW119430   3.426   1.873   1.735  0.0181 -0.4802  1.4114
 2599SOL    HW219431   3.409   1.982   1.633 -1.6622  2.2494  2.5953
 2600SOL     OW19432   2.993   4.458   4.104 -0.0395 -0.4623 -0.1782
 2600SOL    HW119433   3.029   4.442   4.017  0.5902 -0.6425  0.1175
 2600SOL    HW219434   2.901   4.436   4.087 -0.7682  0.5468  2.4603
 2601SOL     OW19435   0.140   1.815   5.171 -0.0720 -0.1751 -0.1680
 2601SOL    HW119436   0.138   1.797   5.077  0.6504  0.9729 -0.3982
 2601SOL    HW219437   0.213   1.876   5.174  2.4643 -3.1454 -1.0289
 2602SOL     OW19438   2.522   2.497   4.737  0.1555  0.1735  0.5328
 2602SOL    HW119439   2.614   2.517   4.719  0.3441 -1.0093  0.2095
 2602SOL    HW219440   2.487   2.579   4.772  1.7919  0.3790  1.6898
 2603SOL     OW19441   4.256   2.051   0.329  0.3895  0.3953 -0.7192
 2603SOL    HW119442   4.166   2.084   0.329  0.4094  0.4428  0.1643
 2603SOL    HW219443   4.237   1.969   0.373  1.7917  0.7829  0.6222
 2604SOL     OW19444   1.450   3.251   4.320  0.0853  0.2852  0.3074
 2604SOL    HW119445   1.512   3.281   4.386 -0.5125  2.8667 -0.2832
 2604SOL    HW219446   1.441   3.332   4.270  0.4780 -0.0424 -0.2961
 2605SOL     OW19447   3.129   1.501   8.021 -0.4154 -0.2675 -0.1554
 2605SOL    HW119448   3.189   1.573   8.040  0.6198 -1.4811  1.1893
 2605SOL    HW219449   3.120   1.512   7.926  0.7841  0.1833 -0.2155
 2606SOL     OW19450   3.725   3.891   8.231 -0.3607  0.1066 -0.0813
 2606SOL    HW119451   3.632   3.889   8.251 -0.3213 -0.5773  0.0191
 2606SOL    HW219452   3.726   3.911   8.137  1.2302 -1.1517 -0.3340
 2607SOL     OW19453   0.334   2.322   1.784  0.5260 -0.3001  0.3281
 2607SOL    HW119454   0.371   2.367   1.860  1.3414  1.0383 -0.8672
 2607SOL    HW219455   0.252   2.369   1.769  0.6591 -0.1018  0.2161
 2608SOL     OW19456   1.975   2.359   6.057 -0.1496 -0.4069  0.1161
 2608SOL    HW119457   1.972   2.295   6.128 -1.6397 -2.8047 -2.1115
 2608SOL    HW219458   1.881   2.367   6.037 -0.0573 -0.2477 -0.2571
 2609SOL     OW19459   1.274   0.082  12.808  0.2045 -0.1365 -0.1910
 2609SOL    HW119460   1.198   0.133  12.835  0.6464  0.7788 -0.6474
 2609SOL    HW219461   1.332   0.149  12.770  1.1911 -1.0574 -0.3142
 2610SOL     OW19462   4.019   2.406   3.976 -0.4453  0.1214  0.8623
 2610SOL    HW119463   4.071   2.365   4.045  3.1082 -2.0178 -3.0975
 2610SOL    HW219464   4.068   2.488   3.969 -0.0289  0.3195  5.7967
 2611SOL     OW19465   0.481   3.928   6.808  0.4807 -0.1811 -0.5102
 2611SOL    HW119466   0.396   3.886   6.801 -0.4362  1.3150  1.9174
 2611SOL    HW219467   0.538   3.851   6.812 -0.9243 -1.0642  2.0026
 2612SOL     OW19468   1.954   0.468   9.393 -0.4192  0.2675 -0.1566
 2612SOL    HW119469   1.944   0.542   9.454  0.3760  0.1704  0.0971
 2612SOL    HW219470   2.000   0.510   9.321  3.0523 -0.4064  1.6598
 2613SOL     OW19471   0.206   4.471  16.872 -0.8721  0.0781  0.2025
 2613SOL    HW119472   0.284   4.455  16.924  0.9666  2.7044 -1.8002
 2613SOL    HW219473   0.157   4.390  16.889  0.0805 -0.2557  1.3241
 2614SOL     OW19474   2.259   0.726   0.087 -0.1433 -0.9522 -0.2263
 2614SOL    HW119475   2.168   0.702   0.106 -0.7211  0.9644 -0.5431
 2614SOL    HW219476   2.262   0.773   0.003  0.8785 -2.2848 -0.9245
 2615SOL     OW19477   1.428   2.744   3.713 -0.0799 -0.3963  0.3283
 2615SOL    HW119478   1.411   2.748   3.618 -1.8367 -0.5106  0.6323
 2615SOL    HW219479   1.472   2.659   3.711 -0.4840 -0.6151  0.6917
 2616SOL     OW19480   0.170   3.554   6.271 -0.6533 -0.6329 -0.3908
 2616SOL    HW119481   0.248   3.599   6.305 -0.4987 -0.6335 -0.7466
 2616SOL    HW219482   0.170   3.485   6.338  0.7907 -0.4202 -0.1517
 2617SOL     OW19483   1.087   2.340   6.869 -0.1397  0.2433 -0.6874
 2617SOL    HW119484   1.155   2.273   6.857 -1.8510 -0.7457 -5.0370
 2617SOL    HW219485   1.116   2.374   6.953 -1.5782  0.4101 -0.2580
 2618SOL     OW19486   2.733   1.186  13.554 -0.3308  0.5436 -1.0171
 2618SOL    HW119487   2.709   1.113  13.611  0.5250  1.2683  0.2708
 2618SOL    HW219488   2.825   1.206  13.571 -0.2003 -0.7366 -0.1981
 2619SOL     OW19489   2.317   0.181   6.278  0.2810 -0.3704  0.1716
 2619SOL    HW119490   2.367   0.240   6.221  2.4926 -4.1328 -1.8046
 2619SOL    HW219491   2.228   0.216   6.278  0.6097  0.4394 -1.8180
 2620SOL     OW19492   3.857   4.043   4.797 -0.2422 -0.1138  0.0525
 2620SOL    HW119493   3.878   4.130   4.831 -0.4860 -0.5043  1.1931
 2620SOL    HW219494   3.825   4.000   4.877  0.6175  0.0493  0.4764
 2621SOL     OW19495   2.287   4.555   1.349 -0.1806  0.4513  0.9079
 2621SOL    HW119496   2.290   4.480   1.409 -1.6061 -0.7603 -0.5150
 2621SOL    HW219497   2.349   4.515   1.288 -0.4362 -0.1574  1.0438
 2622SOL     OW19498   3.846   0.776   2.378 -0.2166  0.1141 -0.1960
 2622SOL    HW119499   3.841   0.869   2.399 -1.3036 -0.2805  1.2915
 2622SOL    HW219500   3.934   0.762   2.342 -0.1507  1.9267 -0.7365
 2623SOL     OW19501   0.376   1.017   2.165 -0.1733 -0.6510 -0.2405
 2623SOL    HW119502   0.286   1.041   2.145  0.4966  1.1638 -1.0470
 2623SOL    HW219503   0.413   1.062   2.089  0.3899  1.1284  1.0955
 2624SOL     OW19504   3.899   1.757   9.481  0.1152  0.4463  0.1006
 2624SOL    HW119505   3.900   1.822   9.551  1.3535  1.3342 -0.7307
 2624SOL    HW219506   3.827   1.786   9.425  0.6680 -0.5053 -1.0921
 2625SOL     OW19507   3.051   4.552   4.674 -0.3558 -0.5491  0.2923
 2625SOL    HW119508   3.137   4.578   4.707 -0.7693 -0.7632  1.5581
 2625SOL    HW219509   3.071   4.489   4.606 -0.7598 -0.8026  0.4067
 2626SOL     OW19510   1.071   4.371   8.002 -0.0047 -0.0689  0.1551
 2626SOL    HW119511   1.128   4.345   8.074 -1.5701  1.6346  2.0036
 2626SOL    HW219512   0.989   4.386   8.048 -1.1458 -3.6904 -0.7545
 2627SOL     OW19513   2.306   4.319   5.168 -0.2504 -0.0790  0.3771
 2627SOL    HW119514   2.285   4.225   5.169 -2.0009  0.3410  2.8089
 2627SOL    HW219515   2.399   4.312   5.192 -0.3942  0.1325  0.9920
 2628SOL     OW19516   3.839   3.737   5.914 -0.5340 -0.0531  0.2684
 2628SOL    HW119517   3.792   3.654   5.919 -0.5702 -0.0171  0.5773
 2628SOL    HW219518   3.853   3.744   6.009  0.0164 -0.7684  0.2381
 2629SOL     OW19519   1.954   3.433   7.387 -0.3129 -0.1646 -0.4261
 2629SOL    HW119520   1.914   3.520   7.378  1.8287  1.2680  3.7597
 2629SOL    HW219521   2.047   3.456   7.388 -0.9499  2.4947 -2.1359
 2630SOL     OW19522   4.715   1.420   2.058  1.0115  0.1985  0.4105
 2630SOL    HW119523   4.724   1.497   2.115  0.1996 -0.4094  1.3584
 2630SOL    HW219524   0.068   1.387   2.051 -0.4372 -3.7224  0.1604
 2631SOL     OW19525   1.945   2.287   7.086 -0.3932 -0.1064 -0.3861
 2631SOL    HW119526   1.870   2.254   7.036  0.8399 -3.5075  0.0072
 2631SOL    HW219527   1.958   2.209   7.139  2.6543  1.4410  1.1355
 2632SOL     OW19528   3.790   1.064  15.589 -0.7984 -0.0597  0.0976
 2632SOL    HW119529   3.738   1.003  15.537  2.0465 -0.4895 -2.2387
 2632SOL    HW219530   3.848   0.997  15.626  1.3786  1.5732 -0.4011
 2633SOL     OW19531   1.301   3.573   2.286 -0.0141  0.0010 -0.1332
 2633SOL    HW119532   1.385   3.529   2.299 -0.3302 -0.1370  1.4442
 2633SOL    HW219533   1.334   3.645   2.232  0.3862 -0.9469 -1.1512
 2634SOL     OW19534   0.353   3.964   8.813 -0.1955 -0.0899 -0.5271
 2634SOL    HW119535   0.319   4.053   8.803  0.4843 -0.0606 -2.7237
 2634SOL    HW219536   0.272   3.916   8.827 -0.1989  0.5978  1.8159
 2635SOL     OW19537   4.297   1.744   1.913  0.4384 -0.0493 -0.0676
 2635SOL    HW119538   4.374   1.695   1.940 -0.4091 -1.3774 -0.0559
 2635SOL    HW219539   4.343   1.828   1.909 -0.9111  0.6254 -1.3917
 2636SOL     OW19540   3.797   4.697   8.280  0.0330 -0.3705  0.1555
 2636SOL    HW119541   3.846   4.619   8.253  0.0281 -0.3430  0.0653
 2636SOL    HW219542   3.838   4.711   8.365 -2.0141 -0.3483  1.1304
 2637SOL     OW19543   1.125   0.436   2.470 -0.0280 -0.1037 -0.0208
 2637SOL    HW119544   1.133   0.343   2.491  1.1793 -0.1710 -0.7633
 2637SOL    HW219545   1.199   0.466   2.523 -1.1725  0.2360  1.3838
 2638SOL     OW19546   2.595   4.685   2.002 -0.2232 -0.4590  0.3343
 2638SOL    HW119547   2.553   4.623   1.943  3.6305 -1.1426 -1.6911
 2638SOL    HW219548   2.683   4.673   1.967 -0.6316 -0.6785 -0.6079
 2639SOL     OW19549   2.920   4.731   3.136 -0.3467  0.5868  0.3019
 2639SOL    HW119550   2.949   4.659   3.192  0.8248  1.1695  0.4537
 2639SOL    HW219551   2.857   0.035   3.194  0.0308  0.3525  0.8780
 2640SOL     OW19552   0.254   1.856   2.816 -0.3339 -0.4100 -0.6575
 2640SOL    HW119553   0.290   1.879   2.902  0.3632  0.5636 -1.2105
 2640SOL    HW219554   0.334   1.862   2.764  0.0698 -0.9274 -0.1085
 2641SOL     OW19555   0.509   3.693   3.652 -0.4019 -0.5534  0.4570
 2641SOL    HW119556   0.498   3.726   3.563 -0.0998 -1.4801  0.0764
 2641SOL    HW219557   0.436   3.736   3.698  0.9733  2.4383 -0.1605
 2642SOL     OW19558   0.794   2.024   3.098 -0.2472 -0.6781  0.4915
 2642SOL    HW119559   0.760   1.957   3.039 -1.4175 -0.1883  0.6044
 2642SOL    HW219560   0.838   1.974   3.167  0.1200  0.3209  0.9891
 2643SOL     OW19561   4.012   3.067   3.582  0.8404 -0.2101 -0.1615
 2643SOL    HW119562   3.959   3.096   3.656 -0.2363  0.7191 -1.2969
 2643SOL    HW219563   3.952   3.077   3.508 -0.8372 -1.0293  1.0954
 2644SOL     OW19564   2.970   2.006   0.064  0.5474 -0.2010 -0.0694
 2644SOL    HW119565   3.045   1.964   0.106  1.7686  1.6018 -0.4627
 2644SOL    HW219566   2.972   2.094   0.102  0.6063 -0.3227  0.2167
 2645SOL     OW19567   0.168   3.612   4.391  0.3880  0.2341 -0.1949
 2645SOL    HW119568   0.090   3.662   4.415  0.0444 -0.6456  0.5534
 2645SOL    HW219569   0.204   3.613   4.480  2.2145 -1.3227 -0.9158
 2646SOL     OW19570   4.504   0.235   8.932 -0.2770 -0.2897  0.0871
 2646SOL    HW119571   4.518   0.287   8.852  1.0629 -0.3272  0.2903
 2646SOL    HW219572   4.578   0.177   8.913 -1.5204 -1.8335  0.0392
 2647SOL     OW19573   4.206   0.250   4.756  0.1511  0.3130  0.1182
 2647SOL    HW119574   4.296   0.226   4.737 -0.8634 -1.8670 -1.8994
 2647SOL    HW219575   4.193   0.217   4.846  2.0518  2.0914  1.0352
 2648SOL     OW19576   3.154   0.895   2.754 -0.5147 -0.1036 -0.6937
 2648SOL    HW119577   3.158   0.809   2.712 -0.2590 -1.1716  1.4763
 2648SOL    HW219578   3.098   0.883   2.831  0.1093 -1.7252 -0.4881
 2649SOL     OW19579   0.452   0.000   3.743 -0.3805 -0.5489 -0.3053
 2649SOL    HW119580   0.429   4.658   3.790  0.0528 -0.7378 -0.4077
 2649SOL    HW219581   0.520   0.033   3.802  0.8028  0.5760 -2.2682
 2650SOL     OW19582   3.710   1.875   6.031 -0.1699 -0.7756  0.0683
 2650SOL    HW119583   3.695   1.899   5.940  1.9917 -2.2193 -0.6732
 2650SOL    HW219584   3.781   1.937   6.049 -1.0118  0.1813  0.0902
 2651SOL     OW19585   4.499   1.728   2.331  0.0778 -0.2524 -0.0194
 2651SOL    HW119586   4.489   1.764   2.419 -1.5573 -2.5097  0.7026
 2651SOL    HW219587   4.513   1.636   2.352 -1.5424 -0.6427 -0.6208
 2652SOL     OW19588   0.059   1.444  11.536  0.0978 -0.7235  0.0429
 2652SOL    HW119589   0.140   1.489  11.559 -0.4823  0.3302 -0.0037
 2652SOL    HW219590   0.006   1.522  11.553  2.5851  1.1272 -0.7378
 2653SOL     OW19591   1.699   0.555  14.651  0.1327  0.3227  0.5636
 2653SOL    HW119592   1.698   0.481  14.712  2.6566 -0.3102 -0.1517
 2653SOL    HW219593   1.638   0.617  14.692 -1.0585 -0.2715 -0.2952
 2654SOL     OW19594   4.165   2.395   7.933  0.1477 -0.0610 -0.5251
 2654SOL    HW119595   4.209   2.479   7.932  0.6673 -0.3479 -1.7233
 2654SOL    HW219596   4.169   2.372   8.026 -0.9307 -0.1273 -0.4924
 2655SOL     OW19597   1.904   3.205  15.099  0.8669 -0.2651  0.2401
 2655SOL    HW119598   1.894   3.221  15.193 -2.1929 -2.0836  0.2171
 2655SOL    HW219599   1.815   3.187  15.070 -0.0005 -0.8018  3.1454
 2656SOL     OW19600   0.137   4.355   0.135 -0.0848  0.2090  0.2291
 2656SOL    HW119601   0.180   4.383   0.216 -1.5727  0.5485  0.8990
 2656SOL    HW219602   0.047   4.384   0.154 -0.8422 -1.4181 -0.8953
 2657SOL     OW19603   3.584   0.321   7.879  0.3931  0.4766  0.0371
 2657SOL    HW119604   3.660   0.329   7.822 -0.4482  1.1342 -0.9734
 2657SOL    HW219605   3.504   0.349   7.834 -1.0423 -1.1410  1.5341
 2658SOL     OW19606   3.422   2.999  10.031 -0.5406  0.0840  0.6258
 2658SOL    HW119607   3.330   3.022  10.033 -0.8295 -1.1132  1.1257
 2658SOL    HW219608   3.429   2.983   9.937  1.6230 -0.2554  0.8390
 2659SOL     OW19609   3.855   2.314   2.844 -0.0558  0.3694 -0.1668
 2659SOL    HW119610   3.888   2.226   2.825 -0.1335  0.1646  0.6402
 2659SOL    HW219611   3.775   2.295   2.894  0.1472 -1.1651 -0.4076
 2660SOL     OW19612   4.260   2.685   4.221 -0.1726  0.0680 -0.8365
 2660SOL    HW119613   4.296   2.634   4.148  1.3732  1.5296 -1.0959
 2660SOL    HW219614   4.167   2.688   4.198 -0.0091  4.2820 -0.9096
 2661SOL     OW19615   4.207   3.941   8.210  0.1714  0.0208 -0.7072
 2661SOL    HW119616   4.147   3.982   8.148 -0.6897 -1.9866 -1.2017
 2661SOL    HW219617   4.179   3.984   8.291  2.1187 -1.0679  0.5307
 2662SOL     OW19618   2.469   4.529   5.969 -0.2158 -0.1763  0.4438
 2662SOL    HW119619   2.495   4.483   5.888  1.0938  0.5512  0.4509
 2662SOL    HW219620   2.379   4.552   5.946 -0.2271  0.4911  1.1737
 2663SOL     OW19621   3.769   4.144   9.077  0.6131 -0.7167 -0.0063
 2663SOL    HW119622   3.717   4.218   9.108  0.3674 -0.7370 -0.3611
 2663SOL    HW219623   3.825   4.184   9.010  0.3015 -0.9093 -0.3870
 2664SOL     OW19624   3.608   3.261   2.469  0.7884  0.8801 -0.2288
 2664SOL    HW119625   3.550   3.322   2.514  0.9648 -0.2209  1.5025
 2664SOL    HW219626   3.551   3.185   2.479  1.2190  0.3319 -1.9084
 2665SOL     OW19627   1.581   3.804   4.978  0.2858 -0.3764  0.0282
 2665SOL    HW119628   1.525   3.726   4.981  0.1034 -0.2139  1.0776
 2665SOL    HW219629   1.612   3.806   5.069  0.5464 -0.4094 -0.0620
 2666SOL     OW19630   4.469   1.488   6.417 -0.2013 -0.1563  0.3534
 2666SOL    HW119631   4.514   1.410   6.449  0.1813 -1.3242 -2.9677
 2666SOL    HW219632   4.483   1.483   6.322 -1.9934  0.2783  0.0755
 2667SOL     OW19633   1.217   0.225   4.288 -0.5334 -0.2847 -0.3370
 2667SOL    HW119634   1.184   0.147   4.243  0.6458 -1.0915  0.1769
 2667SOL    HW219635   1.266   0.266   4.216 -0.5463  0.0971 -0.1251
 2668SOL     OW19636   4.683   1.289   8.790 -0.5405 -0.2593  0.5418
 2668SOL    HW119637   0.002   1.236   8.848 -1.4672  0.8385  2.4383
 2668SOL    HW219638   4.654   1.226   8.725 -1.0117  1.9749 -1.3946
 2669SOL     OW19639   0.543   3.263   9.211 -0.0550 -0.0044  0.3168
 2669SOL    HW119640   0.612   3.245   9.275 -0.2347 -1.5908  0.0667
 2669SOL    HW219641   0.472   3.290   9.269 -0.4852 -0.4531 -0.0046
 2670SOL     OW19642   2.319   1.505  11.771  0.4554 -0.7021 -0.1668
 2670SOL    HW119643   2.269   1.577  11.809  1.3427  0.4275 -1.1581
 2670SOL    HW219644   2.395   1.560  11.753  0.8726 -1.7622 -1.6390
 2671SOL     OW19645   0.690   0.505   5.666 -0.2353 -0.4390  0.0901
 2671SOL    HW119646   0.740   0.485   5.745 -2.2693  0.2354  1.5522
 2671SOL    HW219647   0.748   0.455   5.608  0.1717  0.2346 -0.0816
 2672SOL     OW19648   4.499   0.048   4.030 -0.6034 -0.3740 -0.3966
 2672SOL    HW119649   4.506   0.042   3.934  2.9901  1.2203 -0.2388
 2672SOL    HW219650   4.585   0.083   4.054 -0.9552 -1.7970  2.9348
 2673SOL     OW19651   2.273   4.600   5.095 -0.3187 -0.5030  0.2494
 2673SOL    HW119652   2.290   4.507   5.103 -0.2183 -0.3962  1.1934
 2673SOL    HW219653   2.352   4.640   5.131 -1.5127  0.5681  1.6786
 2674SOL     OW19654   1.290   4.457  17.034  0.3792  0.2738  0.0788
 2674SOL    HW119655   1.358   4.471  17.099  1.2396  1.0029 -0.9759
 2674SOL    HW219656   1.234   4.528  17.066 -0.9410 -0.3908 -0.7390
 2675SOL     OW19657   2.144   2.961   9.935 -0.2044 -0.0677 -1.0193
 2675SOL    HW119658   2.224   2.929   9.894  1.1967 -0.2439  1.8792
 2675SOL    HW219659   2.142   2.920  10.021  0.9077  1.0885 -0.4434
 2676SOL     OW19660   4.276   2.816  10.585  0.0267  0.3175  0.0778
 2676SOL    HW119661   4.238   2.748  10.529 -0.4337  0.0415  0.7280
 2676SOL    HW219662   4.320   2.860  10.512  1.5405  0.1921  0.9333
 2677SOL     OW19663   3.795   1.306   5.914 -0.3264  0.3241 -0.7997
 2677SOL    HW119664   3.735   1.309   5.988  0.2615  1.0166 -0.3528
 2677SOL    HW219665   3.747   1.244   5.859 -2.4469  0.0446  1.3916
 2678SOL     OW19666   1.095   0.977   4.024  0.3811 -0.8167  0.3650
 2678SOL    HW119667   1.003   0.961   4.044  0.3420 -2.8312 -1.4334
 2678SOL    HW219668   1.116   0.884   4.017  1.1204 -0.7313  1.5345
 2679SOL     OW19669   2.120   2.026  12.052  0.1620 -0.1224  0.0403
 2679SOL    HW119670   2.158   2.113  12.065  3.3707 -1.9999  3.3690
 2679SOL    HW219671   2.193   1.978  12.012  0.3686  0.8073 -0.6847
 2680SOL     OW19672   3.991   2.514   8.521 -0.2047  0.8031 -0.2613
 2680SOL    HW119673   4.002   2.421   8.505 -0.2655  0.6725  0.4361
 2680SOL    HW219674   4.057   2.555   8.466  2.2633 -1.9921  0.6571
 2681SOL     OW19675   0.870   2.007   2.387  0.0276 -0.0925  0.6614
 2681SOL    HW119676   0.945   1.947   2.392 -0.2381 -0.5028 -0.5201
 2681SOL    HW219677   0.876   2.039   2.297  0.7936 -1.8190  0.0951
 2682SOL     OW19678   4.195   3.816   8.716  0.0815  0.1605  0.2365
 2682SOL    HW119679   4.254   3.847   8.785  0.5637  1.3680 -0.7100
 2682SOL    HW219680   4.131   3.764   8.765 -2.0328  0.4533 -2.2625
 2683SOL     OW19681   1.118   2.912  12.014  0.1432 -0.4207 -0.2522
 2683SOL    HW119682   1.127   2.853  12.088  1.1505  0.7876  0.5931
 2683SOL    HW219683   1.171   2.863  11.952 -1.1396 -0.1859 -1.5528
 2684SOL     OW19684   2.046   1.578   9.695  0.1650  0.4281  0.1847
 2684SOL    HW119685   1.962   1.543   9.723 -0.3391  0.9736 -0.6271
 2684SOL    HW219686   2.113   1.531   9.746  0.5039  2.2969  1.4864
 2685SOL     OW19687   3.095   0.731   0.939 -0.1140  0.4718  0.1074
 2685SOL    HW119688   3.111   0.818   0.903 -2.1604  0.3024 -1.2168
 2685SOL    HW219689   3.115   0.673   0.866 -0.9914  0.5051 -0.1615
 2686SOL     OW19690   3.784   2.013   8.436  0.2834 -0.3662 -0.4118
 2686SOL    HW119691   3.771   1.958   8.358 -1.9799  1.7857 -1.5681
 2686SOL    HW219692   3.720   2.083   8.426 -0.7719 -1.0463  1.6751
 2687SOL     OW19693   3.116   4.105   3.211 -0.3311  0.4543  0.2561
 2687SOL    HW119694   3.190   4.160   3.188  0.9419 -1.8703 -1.2156
 2687SOL    HW219695   3.133   4.090   3.304  2.6697 -0.5080 -0.4380
 2688SOL     OW19696   0.751   3.475   6.849  0.1467  0.0983 -0.2320
 2688SOL    HW119697   0.753   3.384   6.820 -2.8230 -0.9470  2.8192
 2688SOL    HW219698   0.801   3.467   6.930  0.2588  0.0662 -0.3050
 2689SOL     OW19699   1.130   4.235   9.041  0.1991 -0.6388  0.1504
 2689SOL    HW119700   1.170   4.307   9.090  2.0304 -1.3602 -0.2802
 2689SOL    HW219701   1.176   4.241   8.958  1.0050 -1.0890  0.5593
 2690SOL     OW19702   3.040   2.034  14.861 -0.7359 -0.1771 -0.1377
 2690SOL    HW119703   3.004   1.947  14.841 -0.3005 -0.0427 -1.4796
 2690SOL    HW219704   3.087   2.053  14.779 -0.3262 -0.8395 -0.0612
 2691SOL     OW19705   3.590   3.045  14.584  0.0775  0.3778 -0.4219
 2691SOL    HW119706   3.527   2.973  14.583 -0.1951  0.6141 -0.6875
 2691SOL    HW219707   3.598   3.067  14.676  1.5130  0.3273 -0.5369
 2692SOL     OW19708   1.594   2.729   5.253  0.5298 -0.4157 -0.2950
 2692SOL    HW119709   1.602   2.634   5.239 -1.9528 -0.4117 -1.7334
 2692SOL    HW219710   1.573   2.717   5.346  0.0300 -0.1638 -0.3745
 2693SOL     OW19711   0.532   1.869   7.736 -0.5065 -0.0293 -0.5044
 2693SOL    HW119712   0.536   1.779   7.769  0.1662  0.5262  0.9622
 2693SOL    HW219713   0.597   1.865   7.666 -0.9695 -0.9547 -0.8762
 2694SOL     OW19714   4.340   2.238   9.555  0.3202  0.2673  0.1950
 2694SOL    HW119715   4.321   2.284   9.474  0.9272  3.6791  1.9777
 2694SOL    HW219716   4.423   2.283   9.573  1.4736 -1.8117  0.0497
 2695SOL     OW19717   0.987   0.681   2.712 -0.3599 -0.4653 -0.0609
 2695SOL    HW119718   1.014   0.609   2.769 -1.8213  1.1384  2.6528
 2695SOL    HW219719   0.970   0.757   2.767  0.8672  0.0078 -0.3336
 2696SOL     OW19720   2.954   1.613   8.567 -0.2941  0.3092  0.3662
 2696SOL    HW119721   2.859   1.608   8.558 -0.1309 -3.5171  0.7880
 2696SOL    HW219722   2.965   1.627   8.662 -0.7078  1.0461  0.3045
 2697SOL     OW19723   2.280   4.024   9.163  0.1579  0.2188  0.1251
 2697SOL    HW119724   2.350   4.023   9.097 -0.3331  0.6171 -0.3983
 2697SOL    HW219725   2.313   3.972   9.236 -0.0136  1.8569  1.3758
 2698SOL     OW19726   2.847   1.747   1.597  0.0377  0.2150  0.6942
 2698SOL    HW119727   2.910   1.813   1.569  0.2606  0.0229  0.7484
 2698SOL    HW219728   2.773   1.800   1.567  1.0623  0.6752 -0.9622
 2699SOL     OW19729   2.747   4.396  10.458 -0.2920  0.0222 -0.0513
 2699SOL    HW119730   2.783   4.415  10.545  0.7560 -0.4192 -0.3841
 2699SOL    HW219731   2.772   4.475  10.411 -0.3413 -0.0349 -0.1726
 2700SOL     OW19732   1.435   4.345  11.418 -0.2626 -0.4565 -0.0430
 2700SOL    HW119733   1.476   4.373  11.499  1.4311  1.8559 -1.6779
 2700SOL    HW219734   1.393   4.265  11.448 -2.5624  0.5948 -0.4700
 2701SOL     OW19735   0.141   3.814   4.001 -0.2523 -0.0100  0.4532
 2701SOL    HW119736   0.097   3.863   4.070 -3.1584 -1.6490 -0.2163
 2701SOL    HW219737   0.109   3.843   3.916  0.9730 -0.8462 -0.2944
 2702SOL     OW19738   2.804   3.683   8.782  0.0092 -0.2979 -0.2054
 2702SOL    HW119739   2.782   3.672   8.874  1.2896  0.2940  0.1666
 2702SOL    HW219740   2.826   3.777   8.780  0.4900 -0.4454 -2.0230
 2703SOL     OW19741   1.718   0.192   1.993 -0.7581  0.5771 -0.3020
 2703SOL    HW119742   1.656   0.258   1.962 -1.7126  0.5178  1.5137
 2703SOL    HW219743   1.749   0.155   1.911  2.0726  1.9205  0.1497
 2704SOL     OW19744   0.127   2.860   2.877 -0.1837 -0.2464 -0.6298
 2704SOL    HW119745   0.203   2.807   2.900  0.5193  2.0775  2.5039
 2704SOL    HW219746   0.098   2.889   2.964  1.0212 -1.7506  0.2659
 2705SOL     OW19747   1.961   2.833   1.384  0.3807  0.3418  0.2436
 2705SOL    HW119748   2.039   2.821   1.438 -0.2041  2.1097  1.5065
 2705SOL    HW219749   1.912   2.758   1.417  0.6967  1.0569  2.3435
 2706SOL     OW19750   2.169   1.897   2.563 -0.9162  0.3261 -0.3008
 2706SOL    HW119751   2.074   1.889   2.577 -1.3111  3.1427 -1.2730
 2706SOL    HW219752   2.196   1.895   2.655 -1.9531 -1.3001 -0.0218
 2707SOL     OW19753   3.909   2.146  15.086 -0.3323 -0.9469 -0.0062
 2707SOL    HW119754   3.973   2.212  15.058  1.3093 -1.6352  2.1423
 2707SOL    HW219755   3.835   2.205  15.105 -0.0570 -0.5438 -0.1795
 2708SOL     OW19756   0.156   1.382   3.831  0.5424  0.0050 -0.0414
 2708SOL    HW119757   0.117   1.418   3.911  2.4473 -1.3249  1.4719
 2708SOL    HW219758   0.216   1.455   3.816  1.4224 -0.5512  0.7792
 2709SOL     OW19759   1.456   3.324   3.751  0.0966  0.2219 -0.2866
 2709SOL    HW119760   1.480   3.264   3.681 -3.3849 -0.5509 -0.8409
 2709SOL    HW219761   1.425   3.397   3.698 -1.4616 -1.4559 -1.6880
 2710SOL     OW19762   3.084   2.217   3.763 -0.2568 -0.3297  0.1196
 2710SOL    HW119763   3.159   2.233   3.821 -0.5034 -0.3346  0.4414
 2710SOL    HW219764   3.111   2.263   3.684 -0.1143 -0.4347  0.1069
 2711SOL     OW19765   0.862   2.956  12.000  0.7604 -0.2006 -0.1005
 2711SOL    HW119766   0.844   3.034  11.947  0.0600 -0.0916  0.3081
 2711SOL    HW219767   0.957   2.942  11.994  0.6168 -0.4301 -1.8401
 2712SOL     OW19768   3.511   0.522  12.404  0.3904 -0.1413  0.0484
 2712SOL    HW119769   3.420   0.505  12.379  0.6009  0.7525 -1.3150
 2712SOL    HW219770   3.515   0.467  12.483 -1.9972  2.5999  2.0754
 2713SOL     OW19771   1.275   2.373   5.775  0.7368 -0.3557  0.5299
 2713SOL    HW119772   1.198   2.430   5.773 -0.0839 -1.3680  2.9026
 2713SOL    HW219773   1.324   2.420   5.842 -2.1152  2.4005  0.6502
 2714SOL     OW19774   3.609   0.893   5.643  0.0739 -0.2145 -0.0428
 2714SOL    HW119775   3.597   0.829   5.572 -0.8970 -2.0439  1.7610
 2714SOL    HW219776   3.646   0.960   5.586 -1.7556  0.5274 -0.3829
 2715SOL     OW19777   4.416   2.937   2.444  0.0611  0.4272  1.1151
 2715SOL    HW119778   4.342   2.904   2.496 -0.6083 -0.4033 -0.3761
 2715SOL    HW219779   4.376   3.020   2.420  0.3710  0.0795 -0.5726
 2716SOL     OW19780   3.589   2.200   8.944  0.4332  0.5192 -0.0386
 2716SOL    HW119781   3.512   2.192   9.000  0.8211  0.5743  0.5057
 2716SOL    HW219782   3.576   2.147   8.866 -1.6985 -0.0599  0.7142
 2717SOL     OW19783   1.682   3.380   9.497  0.1712  0.0884 -0.4706
 2717SOL    HW119784   1.712   3.469   9.483  2.5393 -0.4694  1.1824
 2717SOL    HW219785   1.633   3.355   9.418 -0.0306 -1.0424  0.0041
 2718SOL     OW19786   1.662   2.297   3.899  0.0055  0.3213 -0.3896
 2718SOL    HW119787   1.723   2.361   3.861  0.9935  0.4446  1.3786
 2718SOL    HW219788   1.609   2.350   3.958  1.0953  0.1326  0.7730
 2719SOL     OW19789   0.885   4.313   4.940  0.1544 -0.5660 -0.4322
 2719SOL    HW119790   0.836   4.265   5.007 -3.1873  0.8872 -1.8215
 2719SOL    HW219791   0.974   4.278   4.946 -0.1207 -1.2695 -0.4109
 2720SOL     OW19792   3.228   3.473   6.432  0.1571  0.2005  0.4812
 2720SOL    HW119793   3.292   3.495   6.365  0.5929 -1.0167  0.4997
 2720SOL    HW219794   3.263   3.398   6.478 -2.3584 -0.6120  1.1009
 2721SOL     OW19795   3.254   1.717   1.473  0.1495  0.0233 -0.2670
 2721SOL    HW119796   3.276   1.714   1.566 -0.8789  0.0888 -0.0234
 2721SOL    HW219797   3.284   1.806   1.454  0.6470  0.3413  2.0279
 2722SOL     OW19798   4.572   1.240   1.857  0.0837 -0.3831  0.5735
 2722SOL    HW119799   4.650   1.290   1.881 -0.3079  1.7225 -2.5918
 2722SOL    HW219800   4.563   1.178   1.930  2.0270  0.5285  1.5949
 2723SOL     OW19801   3.617   1.249   5.039  0.6172  0.3508  0.3712
 2723SOL    HW119802   3.599   1.333   5.081 -0.0810 -1.5446  3.9021
 2723SOL    HW219803   3.619   1.193   5.117 -0.2311  2.4998  1.9453
 2724SOL     OW19804   3.715   0.196   4.038  0.7685  0.2930  0.0411
 2724SOL    HW119805   3.734   0.289   4.037  1.2646  0.1968  0.2719
 2724SOL    HW219806   3.801   0.154   4.046 -0.0878 -1.5979 -0.5543
 2725SOL     OW19807   1.431   4.328   8.530 -0.0568 -0.1533  0.1106
 2725SOL    HW119808   1.443   4.407   8.477  0.2723  0.2612  0.8107
 2725SOL    HW219809   1.420   4.258   8.466 -0.1405  0.1504 -0.2057
 2726SOL     OW19810   3.009   0.143   8.260  0.5000  0.1786 -0.0720
 2726SOL    HW119811   3.019   0.054   8.229 -3.3666 -0.2319 -0.1985
 2726SOL    HW219812   3.099   0.167   8.282  0.5318 -0.7303  0.7645
 2727SOL     OW19813   1.905   3.868   5.004  0.4005 -1.1036 -0.2936
 2727SOL    HW119814   1.923   3.842   4.914 -1.8698 -2.2356 -0.4285
 2727SOL    HW219815   1.873   3.958   4.995  0.7545 -0.7834  1.7272
 2728SOL     OW19816   2.299   0.737   5.130  0.3530  0.4719  0.4400
 2728SOL    HW119817   2.337   0.694   5.206 -1.3069  0.8175  1.4619
 2728SOL    HW219818   2.216   0.769   5.164  0.3472  1.3846 -0.4067
 2729SOL     OW19819   3.054   0.195   7.919  0.2285 -0.1634  0.0445
 2729SOL    HW119820   3.058   0.290   7.933 -1.1996 -0.1970  0.6206
 2729SOL    HW219821   3.138   0.162   7.951  0.6392  0.2910 -0.5712
 2730SOL     OW19822   2.769   0.693   6.834 -0.6475  0.5923 -0.0705
 2730SOL    HW119823   2.821   0.715   6.911  0.2382 -1.2062 -0.1669
 2730SOL    HW219824   2.677   0.693   6.863 -0.5406  0.0295  0.2446
 2731SOL     OW19825   3.189   1.804   7.830 -0.3070  0.0422  0.3897
 2731SOL    HW119826   3.190   1.899   7.822  0.4944  0.3082  3.5897
 2731SOL    HW219827   3.198   1.799   7.926  0.2406  0.6614  0.3648
 2732SOL     OW19828   0.863   3.806  17.328  0.2789  0.8983 -0.0640
 2732SOL    HW119829   0.929   3.740  17.304  1.5672  1.1455  2.8281
 2732SOL    HW219830   0.783   3.758  17.304 -0.0398  0.7888  1.1914
 2733SOL     OW19831   1.781   3.282   5.205 -0.5896  0.1267 -0.4470
 2733SOL    HW119832   1.734   3.266   5.287  2.8295  0.7137  1.6611
 2733SOL    HW219833   1.829   3.200   5.196 -1.9323 -0.6325 -0.6548
 2734SOL     OW19834   0.509   4.308   8.740  0.2696  0.7647 -0.3261
 2734SOL    HW119835   0.481   4.243   8.675  1.4742  0.3667 -0.4540
 2734SOL    HW219836   0.524   4.385   8.684 -1.0894 -0.6382 -2.6331
 2735SOL     OW19837   2.696   1.729   9.276  0.0355  0.3174  0.1809
 2735SOL    HW119838   2.655   1.794   9.218 -1.2502 -0.4658  0.2367
 2735SOL    HW219839   2.627   1.723   9.341  0.5754 -1.8929  0.5499
 2736SOL     OW19840   4.732   2.545   8.099 -0.2637 -0.2073  0.2979
 2736SOL    HW119841   0.013   2.584   8.184  0.0218  0.2194  0.0417
 2736SOL    HW219842   4.725   2.622   8.044 -1.7316 -1.0000 -0.6188
 2737SOL     OW19843   2.311   2.687   4.653  0.2697  0.4460 -0.3340
 2737SOL    HW119844   2.317   2.762   4.594  0.3523  1.7051  1.2612
 2737SOL    HW219845   2.368   2.722   4.722 -1.3026 -1.6806  2.0146
 2738SOL     OW19846   4.556   2.542   8.504 -0.3253  0.1570  0.7392
 2738SOL    HW119847   4.506   2.615   8.539  1.5652  2.0258 -0.4812
 2738SOL    HW219848   4.633   2.536   8.561 -1.5394  1.2937  2.4857
 2739SOL     OW19849   0.645   4.651   7.339 -0.6272 -0.5755  0.4781
 2739SOL    HW119850   0.595   4.618   7.414  2.1340 -2.0655  1.6559
 2739SOL    HW219851   0.604   4.737   7.332 -0.3461 -0.4509  0.3463
 2740SOL     OW19852   0.285   3.578  11.229 -0.0832 -0.0103 -0.3767
 2740SOL    HW119853   0.293   3.670  11.254  1.0444 -0.3267  0.4076
 2740SOL    HW219854   0.300   3.583  11.135 -2.4379 -1.2220 -0.8338
 2741SOL     OW19855   0.277   0.576   9.514 -0.4921 -0.0009  0.2424
 2741SOL    HW119856   0.222   0.573   9.592 -0.2127 -0.2431  0.4283
 2741SOL    HW219857   0.361   0.549   9.551 -0.1562 -0.4169 -0.8251
 2742SOL     OW19858   4.733   2.750   7.952 -0.1330 -0.0362 -0.1125
 2742SOL    HW119859   4.707   2.746   7.860 -2.0365 -2.3121  0.5292
 2742SOL    HW219860   4.728   2.843   7.972  1.1764  0.4800 -2.1761
 2743SOL     OW19861   2.220   2.389   5.908 -0.2302 -0.0658 -0.1388
 2743SOL    HW119862   2.141   2.377   5.960  0.5149 -3.5201  0.2225
 2743SOL    HW219863   2.184   2.393   5.820 -1.7598  0.5518  0.5296
 2744SOL     OW19864   3.167   1.619   6.666 -0.1390  0.4558 -0.0331
 2744SOL    HW119865   3.096   1.677   6.695  0.5826  0.7524  1.1282
 2744SOL    HW219866   3.238   1.683   6.664  1.2759 -1.1791 -1.7185
 2745SOL     OW19867   3.004   4.151   2.387  0.2871  0.3781 -0.4132
 2745SOL    HW119868   3.083   4.097   2.386  0.3155  0.3709  2.5896
 2745SOL    HW219869   2.942   4.079   2.377  1.3228 -0.6170  0.3280
 2746SOL     OW19870   1.831   1.807   2.047 -0.8381 -0.1252 -0.0872
 2746SOL    HW119871   1.789   1.736   2.095 -0.4792  0.1812  0.6733
 2746SOL    HW219872   1.880   1.765   1.976 -1.2833 -0.2508 -0.3237
 2747SOL     OW19873   4.676   0.841  13.100 -0.3472 -0.3471  0.2625
 2747SOL    HW119874   4.701   0.809  13.187 -3.7372  2.5753  2.3358
 2747SOL    HW219875   0.021   0.877  13.067 -0.4144 -0.4678 -0.0372
 2748SOL     OW19876   2.273   1.363   2.701 -0.2932  0.7723  0.1001
 2748SOL    HW119877   2.181   1.343   2.684 -0.4082  0.2025  1.4422
 2748SOL    HW219878   2.307   1.275   2.718  0.2259  1.2661  1.5658
 2749SOL     OW19879   2.571   0.444   3.791 -0.4102 -0.4586 -0.0463
 2749SOL    HW119880   2.667   0.446   3.783 -0.4531 -0.7740 -0.6245
 2749SOL    HW219881   2.572   0.450   3.887  0.0585  0.7842 -0.1231
 2750SOL     OW19882   1.152   2.954   7.147 -0.1562 -0.3034  0.5724
 2750SOL    HW119883   1.181   2.873   7.189  2.3053  0.6147  0.6612
 2750SOL    HW219884   1.239   2.967   7.109 -0.6269  1.8760  0.2277
 2751SOL     OW19885   0.840   4.628   8.040 -0.2918 -0.1556 -0.2951
 2751SOL    HW119886   0.850   4.659   8.129 -0.8015 -0.8378  0.0014
 2751SOL    HW219887   0.767   4.566   8.043 -1.3481  1.1239  0.2085
 2752SOL     OW19888   1.276   4.699   2.890  0.4140 -0.0592  0.1807
 2752SOL    HW119889   1.277   4.621   2.947  1.7242 -0.0713  0.1240
 2752SOL    HW219890   1.366   4.686   2.861  0.3216  1.5737 -0.8320
 2753SOL     OW19891   2.346   3.704   7.557  0.2004 -0.1243  0.2088
 2753SOL    HW119892   2.345   3.753   7.639 -3.1951 -1.9189  1.2273
 2753SOL    HW219893   2.262   3.729   7.519  0.0374  1.0627  1.3537
 2754SOL     OW19894   3.418   2.844  14.701 -0.2618  0.4436 -0.5057
 2754SOL    HW119895   3.344   2.785  14.686 -1.9350  2.0107  1.5765
 2754SOL    HW219896   3.436   2.830  14.794 -0.9405 -1.1505 -0.6184
 2755SOL     OW19897   1.743   0.302   7.018 -0.0991  0.4236 -0.0151
 2755SOL    HW119898   1.680   0.310   7.089 -3.0364 -1.7768 -2.4120
 2755SOL    HW219899   1.815   0.361   7.041 -2.6617  3.5052  0.1930
 2756SOL     OW19900   3.290   2.178   3.936 -0.3550  0.0531  0.3663
 2756SOL    HW119901   3.335   2.249   3.981 -0.9330 -0.1531  1.2824
 2756SOL    HW219902   3.258   2.132   4.014  1.9826  0.2005  1.3920
 2757SOL     OW19903   2.004   2.631   5.873  0.2641  0.0271 -0.3277
 2757SOL    HW119904   1.920   2.668   5.900  0.2055 -1.5851  1.6900
 2757SOL    HW219905   2.044   2.616   5.958  0.1159 -0.2154 -0.2985
 2758SOL     OW19906   2.122   0.231   4.764  0.1315 -0.1031  0.1952
 2758SOL    HW119907   2.028   0.218   4.753  0.1654 -0.3039  0.1309
 2758SOL    HW219908   2.137   0.225   4.858 -0.8921  0.9561  0.4163
 2759SOL     OW19909   0.409   3.725   2.385  0.0674 -0.3740  0.3672
 2759SOL    HW119910   0.422   3.635   2.353 -0.1732 -0.1890 -0.2476
 2759SOL    HW219911   0.361   3.706   2.465  1.8627 -3.5609  0.6883
 2760SOL     OW19912   1.311   4.372   7.058 -0.2236 -0.5460 -0.3982
 2760SOL    HW119913   1.274   4.444   7.109  1.4987 -0.2097  0.3739
 2760SOL    HW219914   1.262   4.390   6.978 -1.0366 -0.5882  0.0954
 2761SOL     OW19915   2.644   2.235   6.999  0.1014 -0.1610 -0.3946
 2761SOL    HW119916   2.621   2.327   7.014  1.1241 -0.2311  1.6353
 2761SOL    HW219917   2.647   2.231   6.904  1.8802  0.2803 -0.3679
 2762SOL     OW19918   2.855   0.954   4.687  0.0079 -0.2350 -0.3761
 2762SOL    HW119919   2.939   0.910   4.676  1.3656  2.1567  0.3108
 2762SOL    HW219920   2.865   1.028   4.627  0.7601 -1.3870 -1.6883
 2763SOL     OW19921   3.048   0.979   7.208  0.1380 -0.2112  0.0380
 2763SOL    HW119922   3.118   0.995   7.271  0.2528  0.1539 -0.1762
 2763SOL    HW219923   3.027   1.072   7.194  0.0013  0.1287  2.4922
 2764SOL     OW19924   1.764   2.755   6.204 -0.4528  0.4386  0.2503
 2764SOL    HW119925   1.741   2.752   6.111 -0.4556  0.4312  0.2512
 2764SOL    HW219926   1.853   2.790   6.206 -1.0609  1.9901 -0.1927
 2765SOL     OW19927   1.651   2.872   3.421 -0.7167 -0.2438  0.1148
 2765SOL    HW119928   1.557   2.889   3.427 -0.5766  0.7394 -0.4005
 2765SOL    HW219929   1.685   2.957   3.394 -0.0702 -0.6604 -0.4178
 2766SOL     OW19930   4.166   3.329  15.513 -0.3764 -0.4075  0.0970
 2766SOL    HW119931   4.126   3.282  15.440  0.2374  0.3721 -0.7303
 2766SOL    HW219932   4.131   3.417  15.499  0.9095 -0.0254 -0.6673
 2767SOL     OW19933   0.012   4.604  14.808  0.4198 -0.0472 -0.3027
 2767SOL    HW119934   0.106   4.614  14.791  0.5163 -1.3358 -0.5264
 2767SOL    HW219935   4.717   4.694  14.803 -3.2096 -1.2924  0.8786
 2768SOL     OW19936   0.688   4.306   9.032  0.0406 -0.2337  0.0504
 2768SOL    HW119937   0.715   4.216   9.011  2.4744  1.1323 -2.7899
 2768SOL    HW219938   0.769   4.354   9.050  0.0886  0.1607 -1.1569
 2769SOL     OW19939   1.521   1.235   8.481 -0.1254  0.3518  0.1300
 2769SOL    HW119940   1.456   1.215   8.414 -1.3797  0.0967  1.4204
 2769SOL    HW219941   1.543   1.323   8.451  0.5164  0.3346  0.5441
 2770SOL     OW19942   3.356   2.075   9.944 -0.1144 -0.0481  0.0820
 2770SOL    HW119943   3.340   2.109  10.033  1.6896  1.2878 -0.1080
 2770SOL    HW219944   3.419   2.004   9.957 -0.7542 -0.2059  2.3583
 2771SOL     OW19945   3.619   4.316   0.509 -0.3756 -0.0478 -0.4898
 2771SOL    HW119946   3.582   4.289   0.593 -0.9090 -0.3410 -0.8153
 2771SOL    HW219947   3.657   4.400   0.536  2.2205 -1.4036  0.0012
 2772SOL     OW19948   3.431   0.881   6.455  0.4923 -0.4589  0.5586
 2772SOL    HW119949   3.434   0.962   6.404  1.3392 -0.8135  0.0419
 2772SOL    HW219950   3.494   0.826   6.408  0.9127 -0.8359  1.5562
 2773SOL     OW19951   0.063   0.982   4.305  0.4166 -0.2457 -0.5265
 2773SOL    HW119952   0.036   1.020   4.221  0.6537 -0.6482 -0.7863
 2773SOL    HW219953   0.038   1.056   4.360  1.3687  0.1356 -0.6188
 2774SOL     OW19954   4.185   1.778   9.135 -0.5553 -0.4595  0.2458
 2774SOL    HW119955   4.208   1.698   9.181 -0.2735  0.1082  1.0797
 2774SOL    HW219956   4.205   1.744   9.047 -2.2198  1.0407 -0.7155
 2775SOL     OW19957   2.134   4.126   8.653  0.0264  0.0924 -0.4173
 2775SOL    HW119958   2.062   4.072   8.619  2.5266 -1.5435 -3.1308
 2775SOL    HW219959   2.155   4.179   8.576 -1.1218  0.3118 -0.5863
 2776SOL     OW19960   3.247   2.198  17.182 -0.0651  0.2241  0.4774
 2776SOL    HW119961   3.276   2.137  17.250 -0.5874  1.5700  1.9031
 2776SOL    HW219962   3.265   2.280  17.228  1.8538 -0.3912  0.8268
 2777SOL     OW19963   2.613   3.027   4.887 -0.2589  0.1701 -0.4101
 2777SOL    HW119964   2.666   3.066   4.956 -1.6802  2.2069 -0.4604
 2777SOL    HW219965   2.567   3.108   4.864  1.2466  1.0898 -0.1543
 2778SOL     OW19966   2.549   2.616   3.808 -0.3374 -0.0280 -0.3049
 2778SOL    HW119967   2.624   2.640   3.754  0.3675 -1.0662  0.2202
 2778SOL    HW219968   2.502   2.694   3.836  0.3018  0.7729 -1.4542
 2779SOL     OW19969   1.677   1.759   5.906  0.6246  0.2812  0.4157
 2779SOL    HW119970   1.717   1.721   5.827 -1.7468 -1.7708  0.2121
 2779SOL    HW219971   1.659   1.678   5.953 -0.9790 -0.7223 -1.8979
 2780SOL     OW19972   2.000   2.259   4.211  0.2925 -0.6223  0.0448
 2780SOL    HW119973   1.934   2.206   4.166  1.7897 -1.0910 -1.5909
 2780SOL    HW219974   1.983   2.222   4.298  0.1249  0.3382  0.4139
 2781SOL     OW19975   1.712   3.144   7.931 -0.5732 -0.4299 -0.1146
 2781SOL    HW119976   1.729   3.076   7.996 -1.9474  0.0959  0.7952
 2781SOL    HW219977   1.624   3.171   7.958 -0.6933 -0.1748 -0.7375
 2782SOL     OW19978   0.214   1.894   3.475  0.2327 -0.2427  0.4631
 2782SOL    HW119979   0.185   1.806   3.497  0.9317 -0.7792 -0.7656
 2782SOL    HW219980   0.145   1.924   3.416  0.0159  0.3621  1.0226
 2783SOL     OW19981   3.478   1.096  10.599 -0.1398 -0.0715  0.2027
 2783SOL    HW119982   3.415   1.121  10.667 -0.2292 -0.2480  0.1863
 2783SOL    HW219983   3.417   1.107  10.526  1.4231  1.0442 -0.9514
 2784SOL     OW19984   0.976   2.134  11.921  0.4439 -0.0029 -0.1858
 2784SOL    HW119985   1.063   2.162  11.948 -0.2935  1.5928  0.5713
 2784SOL    HW219986   0.930   2.138  12.005 -0.2912  0.2333 -0.6006
 2785SOL     OW19987   1.115   3.538   8.608 -0.1554 -1.1613  0.0953
 2785SOL    HW119988   1.105   3.528   8.702  2.2736 -0.6661  0.3971
 2785SOL    HW219989   1.185   3.603   8.603 -0.8511 -0.3654  0.7432
 2786SOL     OW19990   1.582   1.788  11.331 -0.3374 -0.3414 -0.1842
 2786SOL    HW119991   1.535   1.704  11.329  0.3286 -0.7455  0.8903
 2786SOL    HW219992   1.528   1.841  11.390  0.7412  0.4689  0.0723
 2787SOL     OW19993   1.699   3.824   2.702  0.6549 -0.5648  0.1324
 2787SOL    HW119994   1.782   3.866   2.726 -0.2983  1.0120  0.7009
 2787SOL    HW219995   1.704   3.731   2.723 -2.5735 -0.4096  1.5179
 2788SOL     OW19996   1.666   0.627  16.921  0.7218 -0.3198  0.0826
 2788SOL    HW119997   1.652   0.697  16.858  0.2838 -0.6215 -0.1573
 2788SOL    HW219998   1.602   0.656  16.986 -0.5689 -0.2730 -1.1976
 2789SOL     OW19999   3.073   2.479  15.183  0.0510 -0.1929 -0.4962
 2789SOL    HW120000   3.076   2.433  15.267 -1.6069 -0.6755 -0.7079
 2789SOL    HW220001   3.050   2.408  15.123  0.0790 -0.6333  0.0204
 2790SOL     OW20002   2.365   1.476   0.118  0.0229  0.4673 -0.8052
 2790SOL    HW120003   2.362   1.570   0.100 -1.2660  0.8455  1.4068
 2790SOL    HW220004   2.282   1.477   0.165 -0.0278 -0.0716 -0.8852
 2791SOL     OW20005   0.273   4.620   6.635  0.6918 -0.4761  0.3135
 2791SOL    HW120006   0.338   4.557   6.665 -0.6798 -0.2136  3.8113
 2791SOL    HW220007   0.207   4.557   6.605  0.3264  0.4468 -0.8081
 2792SOL     OW20008   2.790   2.281   2.248 -0.7716  0.0482  0.1878
 2792SOL    HW120009   2.861   2.284   2.311  0.2564  2.0962 -1.0675
 2792SOL    HW220010   2.849   2.293   2.173 -0.1442 -1.7011  0.4210
 2793SOL     OW20011   2.924   4.236   7.821  0.7008  0.1141 -0.3820
 2793SOL    HW120012   2.881   4.301   7.766 -0.3155  2.6946  3.4997
 2793SOL    HW220013   2.998   4.286   7.855  0.3224  1.3661 -1.3927
 2794SOL     OW20014   2.776   1.390   2.051 -0.5188  0.0524  0.5199
 2794SOL    HW120015   2.709   1.398   2.119 -0.2957  0.2042  0.7197
 2794SOL    HW220016   2.764   1.469   2.000 -3.3920 -2.9638 -3.4768
 2795SOL     OW20017   2.155   4.118  12.206  0.1887 -0.5901  0.2050
 2795SOL    HW120018   2.071   4.163  12.214 -0.2628 -1.0664 -1.9842
 2795SOL    HW220019   2.188   4.140  12.294  0.1339  2.5069 -0.5608
 2796SOL     OW20020   3.585   0.631   7.167  0.4175  0.2799 -0.4025
 2796SOL    HW120021   3.578   0.681   7.248 -1.3802 -0.5539 -0.0272
 2796SOL    HW220022   3.643   0.558   7.186 -1.1884 -0.8083  0.3296
 2797SOL     OW20023   0.485   2.099   5.516  0.0228 -0.1082  0.1511
 2797SOL    HW120024   0.518   2.187   5.496  0.0680  0.0479  0.9153
 2797SOL    HW220025   0.396   2.128   5.537 -0.2321 -1.3205  0.7537
 2798SOL     OW20026   1.211   2.006   7.272  0.1446 -0.0711  0.3454
 2798SOL    HW120027   1.116   2.004   7.266  0.0610 -0.2277  1.6981
 2798SOL    HW220028   1.240   2.069   7.206  2.2238 -0.1269  1.1825
 2799SOL     OW20029   4.579   1.463   3.396  0.1079 -0.0297  0.7654
 2799SOL    HW120030   4.641   1.404   3.353  0.1437 -0.1660  1.0051
 2799SOL    HW220031   4.628   1.485   3.475  1.3636  2.7211 -0.7621
 2800SOL     OW20032   2.771   2.828   6.166  0.4757  0.2771 -0.1337
 2800SOL    HW120033   2.844   2.853   6.109 -0.1134  0.3970 -0.8240
 2800SOL    HW220034   2.769   2.733   6.161 -1.5370  0.3639 -0.6439
 2801SOL     OW20035   0.808   4.174   6.896  0.2564  0.5312 -0.0012
 2801SOL    HW120036   0.730   4.227   6.878 -1.7226 -1.9368  1.1995
 2801SOL    HW220037   0.850   4.162   6.811 -1.4233  0.5967 -0.8368
 2802SOL     OW20038   2.295   3.146   5.715 -0.0954  0.4807 -0.5350
 2802SOL    HW120039   2.371   3.180   5.762  0.7934 -1.4387 -0.5851
 2802SOL    HW220040   2.332   3.097   5.641  1.0296  1.0500 -0.3586
 2803SOL     OW20041   0.781   1.572   1.960 -0.3168 -0.1019  0.3490
 2803SOL    HW120042   0.686   1.581   1.951 -0.0804  1.0504 -0.9835
 2803SOL    HW220043   0.808   1.655   1.921  2.4293 -0.3589  1.7169
 2804SOL     OW20044   1.959   1.322  15.420 -0.2911 -1.2190 -0.5845
 2804SOL    HW120045   1.993   1.241  15.457 -1.7919 -1.1583  0.9290
 2804SOL    HW220046   2.022   1.344  15.352 -1.9258 -2.3563 -2.4890
 2805SOL     OW20047   4.139   1.971  13.351  0.1643 -0.6557 -0.3318
 2805SOL    HW120048   4.194   1.907  13.395  1.2567 -0.9651 -2.1644
 2805SOL    HW220049   4.169   1.955  13.262  0.3321 -2.5093  0.0736
 2806SOL     OW20050   4.449   4.279  11.159  0.3841 -0.1376 -0.5042
 2806SOL    HW120051   4.523   4.333  11.185  1.7573 -2.2423  0.0007
 2806SOL    HW220052   4.377   4.311  11.214 -0.1145  1.0353 -1.8501
 2807SOL     OW20053   0.530   3.549   0.885 -0.1459 -0.3842 -0.0055
 2807SOL    HW120054   0.533   3.455   0.866 -0.3611 -0.6742  1.3949
 2807SOL    HW220055   0.616   3.572   0.850  1.2606 -4.2682  0.9038
 2808SOL     OW20056   0.294   3.349   2.319 -0.5102 -0.0460  0.1854
 2808SOL    HW120057   0.271   3.329   2.409 -0.4048 -1.7968 -0.1758
 2808SOL    HW220058   0.288   3.258   2.290  1.1778 -1.1066  3.1775
 2809SOL     OW20059   3.889   0.343   2.570 -0.1406  0.1459  0.6159
 2809SOL    HW120060   3.801   0.355   2.534 -0.1022 -1.8130 -0.1530
 2809SOL    HW220061   3.941   0.376   2.497 -0.5266 -0.6554 -0.0166
 2810SOL     OW20062   0.928   4.095   8.165 -0.0129 -0.1472 -0.0155
 2810SOL    HW120063   1.023   4.084   8.167 -0.1884 -1.7042 -0.4125
 2810SOL    HW220064   0.900   4.013   8.206 -0.3770 -0.6546 -1.3008
 2811SOL     OW20065   2.153   0.507   1.981  0.1768 -0.3292  0.3116
 2811SOL    HW120066   2.193   0.585   2.020 -0.5064  0.0799  0.2010
 2811SOL    HW220067   2.059   0.528   1.983  0.3725  0.5130  0.9249
 2812SOL     OW20068   0.353   1.656  12.827 -0.4344 -0.2462 -0.2259
 2812SOL    HW120069   0.370   1.629  12.737 -1.8520  0.3035 -0.6633
 2812SOL    HW220070   0.375   1.749  12.825 -1.7260  0.0168 -2.1934
 2813SOL     OW20071   1.237   1.694   4.975  0.2191  0.5515 -0.0566
 2813SOL    HW120072   1.168   1.675   5.039 -1.2354 -0.5687 -1.9649
 2813SOL    HW220073   1.247   1.605   4.942 -1.6978 -0.0406  0.9488
 2814SOL     OW20074   3.906   4.709   5.549  0.8007 -0.0963  0.1333
 2814SOL    HW120075   3.834   0.030   5.574  0.9423  0.5717 -1.0336
 2814SOL    HW220076   3.868   4.675   5.468  2.6109 -0.3063 -0.6246
 2815SOL     OW20077   3.561   2.096  14.164 -0.0802 -0.3775  0.3958
 2815SOL    HW120078   3.548   2.047  14.245 -0.9508  0.0235  0.4935
 2815SOL    HW220079   3.497   2.166  14.177  0.0999 -0.3745  1.2218
 2816SOL     OW20080   0.784   0.334   3.407  0.2313  0.3296 -0.0638
 2816SOL    HW120081   0.827   0.365   3.487  1.4378 -1.3608 -0.0461
 2816SOL    HW220082   0.860   0.290   3.368 -0.6743 -2.2766  1.1186
 2817SOL     OW20083   3.325   3.940   8.591  0.3693  0.5314  0.1330
 2817SOL    HW120084   3.263   3.872   8.564  0.0685 -0.1695  2.5863
 2817SOL    HW220085   3.331   3.920   8.684  2.1375  0.1377 -0.0679
 2818SOL     OW20086   4.131   1.752  10.832  0.3102  0.0453 -0.0513
 2818SOL    HW120087   4.115   1.828  10.888  2.1825 -0.8645  1.7192
 2818SOL    HW220088   4.071   1.755  10.757  0.7501 -2.3181 -0.4990
 2819SOL     OW20089   1.649   3.059   0.423  0.2911 -0.0553 -0.5174
 2819SOL    HW120090   1.597   3.046   0.502 -0.0231  0.6749 -0.6094
 2819SOL    HW220091   1.714   3.120   0.458  1.4830 -0.8379 -1.3939
 2820SOL     OW20092   4.169   3.791   2.301  0.1459  0.0165  0.4736
 2820SOL    HW120093   4.259   3.759   2.308 -0.2979 -1.1329  0.9286
 2820SOL    HW220094   4.170   3.874   2.350 -1.9653  0.5522 -0.3765
 2821SOL     OW20095   0.811   2.470   9.398 -0.0883 -0.3488  0.5984
 2821SOL    HW120096   0.845   2.412   9.329  0.8522  2.1773 -1.0349
 2821SOL    HW220097   0.852   2.423   9.472  2.6495  0.7989 -0.1819
 2822SOL     OW20098   3.703   1.793  17.592 -0.0996 -0.1706 -0.0873
 2822SOL    HW120099   3.616   1.831  17.609  0.2804  2.0592 -3.0464
 2822SOL    HW220100   3.751   1.838  17.661 -1.3063  0.9140  0.0525
 2823SOL     OW20101   0.032   0.390   7.218  0.5815 -0.2986  0.2413
 2823SOL    HW120102   4.685   0.428   7.247  0.3018 -0.2100 -0.6987
 2823SOL    HW220103   0.047   0.308   7.265 -2.6687 -2.9616 -3.4313
 2824SOL     OW20104   3.490   1.924   5.789  0.3041 -0.0885 -0.3376
 2824SOL    HW120105   3.400   1.937   5.819  0.0796  1.2255 -1.5938
 2824SOL    HW220106   3.517   2.005   5.748  0.0672 -1.3141 -2.8875
 2825SOL     OW20107   2.126   3.799   2.553  0.2330 -0.4406  0.8172
 2825SOL    HW120108   2.103   3.843   2.471 -1.2382  0.9126  1.9584
 2825SOL    HW220109   2.145   3.876   2.607 -1.1190  0.3783  0.1182
 2826SOL     OW20110   4.179   0.846   9.113  0.1287  0.7273  0.3316
 2826SOL    HW120111   4.135   0.762   9.128  0.8232  0.7340  2.4245
 2826SOL    HW220112   4.169   0.882   9.201  0.0875  1.9279 -0.1718
 2827SOL     OW20113   1.342   4.123   4.848  0.2861 -0.8789  0.0854
 2827SOL    HW120114   1.435   4.145   4.860 -0.2740  0.1220  2.6317
 2827SOL    HW220115   1.325   4.197   4.790 -1.0028 -1.6479 -0.5158
 2828SOL     OW20116   3.511   2.092  11.368 -0.4176 -0.1607  1.0110
 2828SOL    HW120117   3.576   2.115  11.302 -0.1790  0.8686  1.5992
 2828SOL    HW220118   3.498   2.178  11.407 -0.4709  1.1962 -2.0444
 2829SOL     OW20119   1.112   4.709   5.174  0.0620  0.5345  0.2890
 2829SOL    HW120120   1.103   0.048   5.231 -0.2204 -0.1883  1.2121
 2829SOL    HW220121   1.176   0.002   5.110  0.3566 -0.2901  0.1873
 2830SOL     OW20122   3.846   1.734  16.397 -0.0061 -0.3269  0.5709
 2830SOL    HW120123   3.935   1.718  16.428  0.2868  1.1307  0.4611
 2830SOL    HW220124   3.863   1.741  16.302  0.9931  0.4527  0.8012
 2831SOL     OW20125   3.122   3.878   5.230  0.1455 -0.3261  0.2016
 2831SOL    HW120126   3.169   3.917   5.305  0.0498  1.6777 -0.7753
 2831SOL    HW220127   3.096   3.955   5.180 -0.5626 -0.4050  0.4567
 2832SOL     OW20128   4.396   2.755   8.681  0.4295 -0.3936 -0.2974
 2832SOL    HW120129   4.445   2.837   8.683  2.4020 -1.5253 -1.6531
 2832SOL    HW220130   4.308   2.791   8.693  0.7749  0.0361  0.8805
 2833SOL     OW20131   0.566   1.201   5.483  0.1793 -0.1388  0.1167
 2833SOL    HW120132   0.578   1.289   5.519  1.0551  0.3860 -1.4683
 2833SOL    HW220133   0.513   1.229   5.408  0.9873 -0.2969 -0.5130
 2834SOL     OW20134   2.966   3.166   5.646 -0.0776  0.4197 -0.0591
 2834SOL    HW120135   2.923   3.251   5.645 -3.0195 -1.0611 -0.1058
 2834SOL    HW220136   3.010   3.166   5.561 -0.7137  0.0003 -0.3819
 2835SOL     OW20137   1.212   3.076  13.028  0.0970 -0.2135 -0.0989
 2835SOL    HW120138   1.135   3.069  13.084  1.7703 -1.6862  2.0153
 2835SOL    HW220139   1.264   2.998  13.050 -1.7546 -1.2559  0.5334
 2836SOL     OW20140   3.322   2.995  10.910 -0.3444  0.1337 -0.5352
 2836SOL    HW120141   3.404   2.946  10.921 -0.7327 -0.6385 -1.0928
 2836SOL    HW220142   3.260   2.925  10.926  0.3964 -0.0602  1.5735
 2837SOL     OW20143   4.724   1.737   8.962  0.5080 -0.3044  0.5477
 2837SOL    HW120144   4.673   1.692   8.894 -0.9523  2.2487 -0.0812
 2837SOL    HW220145   0.046   1.669   8.993  1.9294  0.2499 -0.9528
 2838SOL     OW20146   0.640   1.922   8.195  0.0271 -0.3194  0.0079
 2838SOL    HW120147   0.691   1.917   8.276 -0.7484 -1.8373  0.4079
 2838SOL    HW220148   0.620   2.014   8.181  0.6048 -0.1512  0.2721
 2839SOL     OW20149   2.073   0.639   2.365  0.4493  0.0411  0.6863
 2839SOL    HW120150   2.145   0.634   2.301  0.4204  1.2128  0.5729
 2839SOL    HW220151   2.083   0.567   2.428  1.4495 -0.9425 -0.6019
 2840SOL     OW20152   4.057   2.848   6.405  0.3453  0.1463 -0.1601
 2840SOL    HW120153   4.085   2.780   6.344 -2.7035  0.3595 -1.7814
 2840SOL    HW220154   4.009   2.905   6.344 -1.8508 -1.1190  0.3842
 2841SOL     OW20155   4.693   1.816   8.171  0.0030  0.1044  0.6683
 2841SOL    HW120156   4.682   1.835   8.265  0.0770  1.1246  0.4752
 2841SOL    HW220157   4.688   1.901   8.128  0.6154 -0.7375 -1.0536
 2842SOL     OW20158   0.481   2.426   9.426 -0.1575  0.6250  0.8857
 2842SOL    HW120159   0.493   2.355   9.488  0.1682  0.0288  0.1462
 2842SOL    HW220160   0.499   2.371   9.349 -1.4927 -0.4934  1.3659
 2843SOL     OW20161   2.130   0.959   0.010 -0.1427  0.3244 -0.2289
 2843SOL    HW120162   2.104   0.928  17.671 -2.5976 -0.1729  0.6974
 2843SOL    HW220163   2.067   0.922   0.072  0.1552 -1.4261 -0.9775
 2844SOL     OW20164   4.210   4.055   7.687 -0.2565  0.0178 -0.1707
 2844SOL    HW120165   4.150   4.041   7.614  0.3773  0.3559 -0.7669
 2844SOL    HW220166   4.168   4.137   7.714  0.2491 -0.1064  1.0118
 2845SOL     OW20167   3.653   4.032   8.696  0.4319  0.3977 -0.3421
 2845SOL    HW120168   3.735   3.990   8.670 -0.2233 -0.0498 -1.6824
 2845SOL    HW220169   3.599   3.975   8.642  0.2657  0.4768 -0.2605
 2846SOL     OW20170   2.116   4.271   6.261  0.7776  0.2477  0.4931
 2846SOL    HW120171   2.024   4.294   6.252 -0.2521 -3.6611  0.9174
 2846SOL    HW220172   2.108   4.176   6.254 -1.2525  0.7108 -3.2594
 2847SOL     OW20173   2.588   2.808   6.994 -0.6023 -0.1283 -0.1353
 2847SOL    HW120174   2.679   2.837   6.995 -0.1394 -1.5671 -0.3863
 2847SOL    HW220175   2.572   2.803   6.899  3.1576  0.6547 -0.8198
 2848SOL     OW20176   4.644   1.261   1.283 -0.5065 -0.2170 -0.3239
 2848SOL    HW120177   4.613   1.347   1.255  0.3218 -0.5837 -2.3747
 2848SOL    HW220178   4.719   1.257   1.224 -0.6378 -0.0981 -0.4979
 2849SOL     OW20179   3.929   3.785   6.187 -0.1012  0.0161  0.6311
 2849SOL    HW120180   3.987   3.826   6.252  1.3663 -1.7130  0.4246
 2849SOL    HW220181   3.857   3.759   6.243 -0.5650 -1.1055 -0.4781
 2850SOL     OW20182   3.761   4.260  10.154  0.2687 -0.4354  0.4569
 2850SOL    HW120183   3.717   4.177  10.175  1.3976 -1.1351  0.0784
 2850SOL    HW220184   3.847   4.260  10.196  0.0625 -2.2291  0.8951
 2851SOL     OW20185   3.087   0.191   4.272 -0.4745  0.4748  0.5204
 2851SOL    HW120186   3.179   0.184   4.249 -0.5778 -1.5221  0.7211
 2851SOL    HW220187   3.046   0.144   4.199  2.8897 -0.7306 -0.5547
 2852SOL     OW20188   4.644   4.711   3.472 -0.7182  0.3501  0.4643
 2852SOL    HW120189   4.559   4.699   3.429 -0.4945 -1.4989  0.5198
 2852SOL    HW220190   4.652   0.069   3.469 -0.5136  0.3450  0.8875
 2853SOL     OW20191   2.052   4.606   8.095  0.4052 -0.1993 -0.4658
 2853SOL    HW120192   2.144   4.584   8.112 -0.3049 -2.7350  0.1988
 2853SOL    HW220193   2.031   4.528   8.043  1.2056  0.2859 -1.5234
 2854SOL     OW20194   0.240   3.341   2.590  0.4336 -0.0322  0.1795
 2854SOL    HW120195   0.244   3.436   2.591 -0.6025  0.0206 -0.3415
 2854SOL    HW220196   0.155   3.328   2.632 -0.2716  1.4053 -0.7752
 2855SOL     OW20197   0.389   3.730   5.200  0.3536 -0.5477 -0.1908
 2855SOL    HW120198   0.399   3.824   5.185 -0.3000 -0.4992 -0.3203
 2855SOL    HW220199   0.296   3.736   5.221  0.7996  0.6860  1.5651
 2856SOL     OW20200   0.439   1.939   8.481  0.2733  0.8540  0.6798
 2856SOL    HW120201   0.523   1.911   8.443 -0.5777 -0.9127  0.1085
 2856SOL    HW220202   0.449   2.031   8.503 -2.0721  1.5753 -1.2298
 2857SOL     OW20203   2.988   3.911   2.697  0.5239  0.1812 -0.4241
 2857SOL    HW120204   2.982   3.943   2.787  1.6863 -0.0812 -0.2626
 2857SOL    HW220205   2.918   3.948   2.643  2.2038 -0.3811 -2.9722
 2858SOL     OW20206   1.585   2.529   6.270 -0.7482  0.0634 -0.3533
 2858SOL    HW120207   1.646   2.599   6.249  0.2675 -0.1859  1.7283
 2858SOL    HW220208   1.648   2.464   6.301  1.0018  1.3817 -1.2168
 2859SOL     OW20209   1.882   3.853   5.383 -0.3744 -0.3865  0.0537
 2859SOL    HW120210   1.952   3.845   5.318 -0.3604  1.5897 -0.1681
 2859SOL    HW220211   1.893   3.772   5.432  0.1982 -1.2643 -1.5334
 2860SOL     OW20212   0.567   2.634   9.760 -0.2089  0.3775 -0.0293
 2860SOL    HW120213   0.631   2.696   9.794  1.2961 -2.6570  2.7023
 2860SOL    HW220214   0.534   2.687   9.688  0.5883 -0.1630 -0.7979
 2861SOL     OW20215   0.841   4.019   8.818  0.8509  0.1313 -0.1834
 2861SOL    HW120216   0.749   3.998   8.835  0.5589  2.8066  1.5143
 2861SOL    HW220217   0.868   3.934   8.784  1.2608  0.7950 -1.5602
 2862SOL     OW20218   4.205   3.986   5.093  0.3013 -0.6072  0.2230
 2862SOL    HW120219   4.117   4.002   5.125  0.6661  0.9066  0.4688
 2862SOL    HW220220   4.264   4.013   5.164  1.7377  1.5738 -1.7916
 2863SOL     OW20221   1.306   3.192   7.377 -0.1375 -0.5356 -0.0104
 2863SOL    HW120222   1.344   3.276   7.401 -2.7345  0.4068  0.8275
 2863SOL    HW220223   1.214   3.220   7.375 -0.5977 -2.1626 -1.7354
 2864SOL     OW20224   0.809   2.060  12.190  0.3452  0.5722  0.7577
 2864SOL    HW120225   0.845   2.148  12.191  0.4280  0.5459  0.1614
 2864SOL    HW220226   0.742   2.077  12.124 -0.2665 -1.7740  0.7640
 2865SOL     OW20227   0.469   0.813   6.878 -0.2808  0.0786  0.4992
 2865SOL    HW120228   0.502   0.903   6.888  0.7760 -0.4847  1.9878
 2865SOL    HW220229   0.414   0.832   6.802  0.6531 -1.2124 -0.5046
 2866SOL     OW20230   2.471   0.758   0.376 -0.0770 -0.0505 -0.4111
 2866SOL    HW120231   2.469   0.684   0.315  1.3020  0.4589 -1.0836
 2866SOL    HW220232   2.382   0.759   0.411  0.9812 -0.1848  2.3231
 2867SOL     OW20233   3.792   0.476   6.050  0.0283  0.0088  0.0465
 2867SOL    HW120234   3.731   0.403   6.063 -0.6773  0.2827 -1.7242
 2867SOL    HW220235   3.740   0.552   6.075  1.3003  1.3056 -1.2344
 2868SOL     OW20236   2.442   3.708   1.120 -0.0609 -0.0703  0.5537
 2868SOL    HW120237   2.441   3.618   1.086 -1.0763  0.7295 -1.5240
 2868SOL    HW220238   2.533   3.732   1.136 -0.5676  1.3562  1.2627
 2869SOL     OW20239   2.333   4.193   2.073  0.7919  0.2578 -0.4278
 2869SOL    HW120240   2.240   4.187   2.054  0.4537 -0.7946  1.5738
 2869SOL    HW220241   2.353   4.102   2.096 -2.2028 -0.0722  0.8293
 2870SOL     OW20242   2.230   3.891  16.484 -0.1258  0.2372  0.3588
 2870SOL    HW120243   2.265   3.857  16.566  1.4889 -1.9654 -1.2290
 2870SOL    HW220244   2.229   3.817  16.423  1.3280 -0.2555  0.9471
 2871SOL     OW20245   4.521   0.406  15.508  0.1169 -0.2593 -0.5208
 2871SOL    HW120246   4.594   0.421  15.448  0.6868 -1.7242 -0.1845
 2871SOL    HW220247   4.555   0.425  15.595 -3.8492 -0.1414  0.9801
 2872SOL     OW20248   1.818   3.197   7.288  0.2123 -0.0116  0.1473
 2872SOL    HW120249   1.861   3.277   7.317  1.0717 -0.3578 -0.1317
 2872SOL    HW220250   1.879   3.166   7.220  1.3242  2.0791  0.1873
 2873SOL     OW20251   3.845   2.475   5.674  0.3634  0.4724 -0.1216
 2873SOL    HW120252   3.834   2.565   5.704  0.3454  0.2241  0.6342
 2873SOL    HW220253   3.914   2.468   5.608  0.2470  0.3472 -0.2321
 2874SOL     OW20254   2.485   1.382   3.006 -0.2916 -0.3344  0.1215
 2874SOL    HW120255   2.393   1.354   3.009 -0.7173  0.9473 -1.1538
 2874SOL    HW220256   2.521   1.331   2.934 -2.4420  1.7628 -2.4055
 2875SOL     OW20257   1.550   3.311   2.853 -0.1073  0.4184  1.2037
 2875SOL    HW120258   1.455   3.306   2.867 -0.0117 -3.4333  0.4452
 2875SOL    HW220259   1.564   3.397   2.892  2.4226  1.8540 -2.9292
 2876SOL     OW20260   0.291   4.441   7.466 -0.2084 -0.5484  0.3045
 2876SOL    HW120261   0.199   4.462   7.450  0.0091  1.3865  1.6931
 2876SOL    HW220262   0.285   4.396   7.550 -0.0464 -0.8954  0.1315
 2877SOL     OW20263   4.165   4.105  16.389 -0.3559  0.0300 -1.2182
 2877SOL    HW120264   4.230   4.035  16.383  0.8358  1.1086 -0.9095
 2877SOL    HW220265   4.153   4.112  16.294 -0.0011  1.2346 -1.1773
 2878SOL     OW20266   1.719   2.116   2.711 -0.3042 -0.2773 -0.4014
 2878SOL    HW120267   1.727   2.063   2.790 -1.1330 -1.5149 -1.1550
 2878SOL    HW220268   1.643   2.080   2.665 -0.6590 -1.7909  1.3606
 2879SOL     OW20269   4.729   2.322   2.966 -0.2143  0.4443  0.2655
 2879SOL    HW120270   0.070   2.308   3.020  0.3222  1.2845 -0.2982
 2879SOL    HW220271   0.025   2.394   2.913 -0.1274 -0.3773 -0.7938
 2880SOL     OW20272   3.561   2.908   3.187  0.3540 -0.4004 -0.4876
 2880SOL    HW120273   3.634   2.882   3.243 -0.0117 -0.5950 -0.0917
 2880SOL    HW220274   3.603   2.978   3.138 -0.8430  1.2929  0.9177
 2881SOL     OW20275   0.959   1.698   7.576 -0.0943 -0.4147  0.3352
 2881SOL    HW120276   0.982   1.702   7.669  1.6950 -0.5674 -0.1064
 2881SOL    HW220277   0.954   1.605   7.554 -1.1676  0.8523 -4.6552
 2882SOL     OW20278   1.724   0.285   8.871  0.5909  0.1541  0.1353
 2882SOL    HW120279   1.786   0.335   8.924  0.7910 -1.1715  1.1321
 2882SOL    HW220280   1.715   0.205   8.922 -1.1179 -0.4418 -1.1039
 2883SOL     OW20281   4.065   4.258   4.639  0.8266  0.0573  0.1842
 2883SOL    HW120282   4.121   4.331   4.663 -0.9896  1.0009  1.5572
 2883SOL    HW220283   4.135   4.193   4.632  2.6289  2.0338 -0.1240
 2884SOL     OW20284   4.711   0.846  16.513 -0.4149  0.2625 -0.4615
 2884SOL    HW120285   4.707   0.919  16.451 -1.9605  0.9587  0.4406
 2884SOL    HW220286   4.676   0.877  16.597 -1.4853 -1.9421 -0.0960
 2885SOL     OW20287   3.139   2.732  13.664 -0.4686  0.0376  0.2022
 2885SOL    HW120288   3.141   2.655  13.608 -1.9708 -1.1196  1.7294
 2885SOL    HW220289   3.233   2.733  13.681 -0.1243 -1.3157 -1.6536
 2886SOL     OW20290   1.871   1.570  10.182  0.3958  0.4872  0.5132
 2886SOL    HW120291   1.939   1.606  10.239 -0.9917  1.9178  1.2854
 2886SOL    HW220292   1.908   1.493  10.139 -0.0868 -0.1759  1.2841
 2887SOL     OW20293   3.743   0.004   9.390  0.4944  0.0177  0.7415
 2887SOL    HW120294   3.685   0.028   9.462  1.9051 -1.0254  2.2070
 2887SOL    HW220295   3.823   4.710   9.432  0.0334 -0.9145  0.9428
 2888SOL     OW20296   4.444   0.375   1.867  0.1900 -0.0019  0.0455
 2888SOL    HW120297   4.428   0.322   1.945  1.8375 -1.4190 -0.5728
 2888SOL    HW220298   4.464   0.462   1.900  0.0647 -0.1414  0.4784
 2889SOL     OW20299   3.024   2.258   8.610 -0.3622 -1.0169 -0.0286
 2889SOL    HW120300   3.010   2.177   8.560  1.1805 -1.4601  0.2566
 2889SOL    HW220301   3.086   2.293   8.546 -0.6607 -1.7248 -0.7039
 2890SOL     OW20302   4.530   1.418   4.107 -0.4834  0.0607  0.2746
 2890SOL    HW120303   4.443   1.429   4.144 -1.2779 -1.7402 -1.0509
 2890SOL    HW220304   4.577   1.479   4.164  2.4156 -2.6603  0.7925
 2891SOL     OW20305   4.302   1.694   0.224  0.3046 -0.9187 -0.7392
 2891SOL    HW120306   4.296   1.681   0.319  0.1332 -0.0758 -0.6310
 2891SOL    HW220307   4.387   1.654   0.206  0.9269  0.7147 -1.4184
 2892SOL     OW20308   2.922   1.597  17.720  0.3088  0.1385 -0.2749
 2892SOL    HW120309   2.881   1.669   0.022 -2.3211  0.0747 -2.4013
 2892SOL    HW220310   2.874   1.612  17.639 -1.0059 -0.0594  0.4681
 2893SOL     OW20311   3.078   1.893   5.058 -0.0314  0.1618  0.1177
 2893SOL    HW120312   3.141   1.874   5.128  0.1257 -1.6640 -0.5254
 2893SOL    HW220313   3.001   1.933   5.099 -0.2540  0.4088 -0.5548
 2894SOL     OW20314   3.912   4.239   5.010  0.8002 -0.0728  0.0472
 2894SOL    HW120315   3.950   4.214   5.094  0.9381 -0.0244 -0.0016
 2894SOL    HW220316   3.924   4.333   5.019  2.2190 -0.1446 -1.0204
 2895SOL     OW20317   2.849   4.724   6.112  0.2727 -0.4954  0.0073
 2895SOL    HW120318   2.831   0.021   6.200 -1.3604  1.0086 -0.8982
 2895SOL    HW220319   2.777   0.028   6.063  0.8092  1.0287  0.4904
 2896SOL     OW20320   1.253   4.681  11.426  0.2961  0.3005  0.0764
 2896SOL    HW120321   1.190   4.663  11.496  0.1906  1.0026  0.1604
 2896SOL    HW220322   1.199   0.009  11.381 -0.3326  0.3971  0.9508
 2897SOL     OW20323   2.549   4.374   8.244  0.6393  0.2613 -0.5560
 2897SOL    HW120324   2.626   4.430   8.251  0.8167 -0.4079  3.1535
 2897SOL    HW220325   2.545   4.327   8.328 -2.2838  0.9911 -0.2599
 2898SOL     OW20326   4.152   2.264  13.287  0.1552  0.7881  0.5481
 2898SOL    HW120327   4.070   2.300  13.320 -0.2811  1.0116 -0.7587
 2898SOL    HW220328   4.141   2.175  13.321 -1.6859  1.0344  0.6210
 2899SOL     OW20329   0.527   0.794   1.883  0.2388  0.4222 -0.0908
 2899SOL    HW120330   0.523   0.700   1.868  0.1185  0.4045  0.0635
 2899SOL    HW220331   0.553   0.831   1.798 -1.6054  0.9532 -0.4221
 2900SOL     OW20332   4.085   3.836   6.618  0.1662 -0.2116 -0.0939
 2900SOL    HW120333   4.020   3.784   6.570 -0.3951  2.1852 -1.9204
 2900SOL    HW220334   4.125   3.880   6.544  0.7389  1.1198  1.0041
 2901SOL     OW20335   2.113   0.561   8.343  0.5127  0.2136 -0.1653
 2901SOL    HW120336   2.158   0.527   8.265  0.3609  2.1835 -1.1082
 2901SOL    HW220337   2.146   0.647   8.319  0.8501  0.5551  1.5487
 2902SOL     OW20338   2.804   0.829   7.095 -0.0382  0.3382 -0.0411
 2902SOL    HW120339   2.757   0.905   7.061 -0.8808 -0.6502 -1.0852
 2902SOL    HW220340   2.893   0.861   7.111  0.7980 -1.3076 -1.4388
 2903SOL     OW20341   2.966   2.707   1.230  0.3035  0.2254 -0.2067
 2903SOL    HW120342   2.937   2.784   1.278 -1.2240 -1.4994  1.6629
 2903SOL    HW220343   2.884   2.657   1.224  1.4323 -1.4573 -1.5055
 2904SOL     OW20344   3.378   1.567   4.504 -0.2610 -0.2599  0.4812
 2904SOL    HW120345   3.346   1.653   4.531  0.8144  0.2878  0.0086
 2904SOL    HW220346   3.297   1.515   4.499  0.3821 -1.0987 -1.3617
 2905SOL     OW20347   2.707   2.994   3.832 -0.2041 -0.0755 -0.0552
 2905SOL    HW120348   2.681   3.068   3.888  0.8775 -0.3978  0.8631
 2905SOL    HW220349   2.798   3.018   3.819 -1.0331  1.6067 -2.9155
 2906SOL     OW20350   0.007   2.527  17.302  0.0250  0.1082 -0.0326
 2906SOL    HW120351   0.069   2.454  17.310  2.4562  2.2375  0.6300
 2906SOL    HW220352   0.055   2.595  17.255 -0.2865  0.4303  0.1216
 2907SOL     OW20353   3.174   4.331   4.266  0.0168  0.3584  0.4179
 2907SOL    HW120354   3.101   4.380   4.227 -0.7418 -1.9636 -1.0987
 2907SOL    HW220355   3.219   4.293   4.190  0.2476  1.1684  0.1599
 2908SOL     OW20356   2.596   1.570   3.191  0.0990  0.5672  0.0070
 2908SOL    HW120357   2.541   1.510   3.142 -0.8229 -0.5639  2.4254
 2908SOL    HW220358   2.680   1.548   3.150 -0.2838 -2.6769  1.0019
 2909SOL     OW20359   2.776   2.255   4.450 -0.0881  0.2586  0.1915
 2909SOL    HW120360   2.787   2.332   4.506  2.0330 -0.1116  0.2859
 2909SOL    HW220361   2.799   2.288   4.364 -1.8389  0.6260 -0.1249
 2910SOL     OW20362   4.384   2.849   7.523 -0.2812  0.0083 -0.0515
 2910SOL    HW120363   4.398   2.766   7.568 -1.3534  0.4263  1.0530
 2910SOL    HW220364   4.289   2.841   7.533  0.0607 -1.8487  1.7346
 2911SOL     OW20365   4.393   1.667   3.485 -0.2085 -0.0673 -0.0965
 2911SOL    HW120366   4.438   1.583   3.481 -1.2129 -0.5140 -2.0901
 2911SOL    HW220367   4.454   1.722   3.535  0.3543  0.1367 -1.0107
 2912SOL     OW20368   0.037   3.522   7.304  0.6605 -0.4498 -0.0790
 2912SOL    HW120369   4.685   3.488   7.302  1.0897 -1.7019  1.7451
 2912SOL    HW220370   0.067   3.517   7.214  0.7776  0.1210 -0.0747
 2913SOL     OW20371   1.549   4.315   6.038  0.0963 -0.6201 -0.4372
 2913SOL    HW120372   1.621   4.299   6.099 -0.6574 -0.7597  0.4235
 2913SOL    HW220373   1.571   4.395   5.991 -1.8148 -1.0131 -2.0069
 2914SOL     OW20374   0.129   3.109   3.599  0.5032 -0.1838 -0.0922
 2914SOL    HW120375   0.119   3.195   3.558 -0.4306 -1.1079 -1.8076
 2914SOL    HW220376   0.209   3.078   3.557  0.1645 -2.1298  0.7087
 2915SOL     OW20377   0.078   2.692   0.988  0.4354  0.3057  0.0705
 2915SOL    HW120378   0.060   2.645   1.070  0.9810  0.0256  0.0274
 2915SOL    HW220379   4.732   2.680   0.941  1.8425 -1.0923 -2.0956
 2916SOL     OW20380   4.219   2.618   3.954  0.0563  0.2149 -0.3818
 2916SOL    HW120381   4.160   2.693   3.944 -0.0124  0.7299  3.9188
 2916SOL    HW220382   4.231   2.596   3.861  0.7760  0.5491 -0.3722
 2917SOL     OW20383   3.992   0.636  10.194  0.4282  0.4208  0.3073
 2917SOL    HW120384   3.900   0.610  10.201  0.9798 -0.8719  2.9826
 2917SOL    HW220385   3.986   0.718  10.242  1.5693  1.4855 -1.3916
 2918SOL     OW20386   1.976   4.406  14.134 -0.3432 -0.0902 -0.0602
 2918SOL    HW120387   2.013   4.448  14.212 -1.2252 -3.2373  2.0418
 2918SOL    HW220388   2.007   4.465  14.065  0.2123 -0.2634  0.0414
 2919SOL     OW20389   4.505   3.031   7.807  0.1258  0.1358 -0.4057
 2919SOL    HW120390   4.432   3.088   7.831 -0.1667 -0.8217  0.9788
 2919SOL    HW220391   4.530   3.065   7.721  0.8102  1.0838  0.1607
 2920SOL     OW20392   0.209   3.847   6.232 -0.9144  0.7120 -0.7644
 2920SOL    HW120393   0.162   3.775   6.190 -0.1481 -0.4430  0.3561
 2920SOL    HW220394   0.296   3.825   6.266 -0.5436  0.9119 -1.5763
 2921SOL     OW20395   3.856   2.264   4.553 -0.3431 -0.2214  0.1255
 2921SOL    HW120396   3.931   2.310   4.591  1.2258 -2.5139 -0.1558
 2921SOL    HW220397   3.816   2.264   4.640 -0.2109  3.3006  0.1597
 2922SOL     OW20398   4.398   1.426   2.768  0.8990  0.3917 -0.3892
 2922SOL    HW120399   4.386   1.423   2.863  0.3728  0.3943 -0.4551
 2922SOL    HW220400   4.312   1.459   2.744  0.9400  1.3816  0.8163
 2923SOL     OW20401   0.138   1.568   2.816 -0.1614 -0.3081 -0.0140
 2923SOL    HW120402   0.057   1.584   2.767  0.2920  5.7969  1.1318
 2923SOL    HW220403   0.153   1.657   2.849 -2.3383  0.1316 -0.2220
 2924SOL     OW20404   1.419   2.727   7.085  0.4230  0.0312  0.3091
 2924SOL    HW120405   1.374   2.718   7.168  2.6542 -2.5642  1.2352
 2924SOL    HW220406   1.413   2.820   7.066  1.3032 -0.0838 -0.5712
 2925SOL     OW20407   3.774   2.370   9.318  0.2431  0.0704  0.1578
 2925SOL    HW120408   3.681   2.393   9.319  0.4960  1.0815 -0.7300
 2925SOL    HW220409   3.791   2.320   9.238 -0.7195 -2.0836  1.2872
 2926SOL     OW20410   0.852   3.118   2.794 -0.1889 -0.0272 -0.0440
 2926SOL    HW120411   0.817   3.157   2.714 -1.2207  1.0956  0.9526
 2926SOL    HW220412   0.893   3.035   2.770  0.8476  0.0286  1.5969
 2927SOL     OW20413   0.549   4.281   5.466 -0.4382  0.3733 -0.0289
 2927SOL    HW120414   0.639   4.279   5.501  0.0907  0.5232 -1.3881
 2927SOL    HW220415   0.560   4.306   5.375  0.8856 -0.9183 -0.2324
 2928SOL     OW20416   4.573   2.126   6.077 -0.0151  0.3080  0.7825
 2928SOL    HW120417   4.551   2.074   6.000  1.8650  1.2613 -0.3922
 2928SOL    HW220418   4.487   2.162   6.096 -0.4916  0.1096 -1.0490
 2929SOL     OW20419   0.738   1.354   8.752 -0.3283 -0.8079  0.0541
 2929SOL    HW120420   0.791   1.293   8.802 -0.4767  0.4639  1.7595
 2929SOL    HW220421   0.682   1.389   8.822  2.2292 -0.5009  1.9260
 2930SOL     OW20422   0.097   3.369   8.052  0.0156 -0.3943 -0.8523
 2930SOL    HW120423   0.021   3.343   8.001 -1.7147  1.1940  0.9006
 2930SOL    HW220424   0.048   3.388   8.132  2.3001  0.8196  0.2689
 2931SOL     OW20425   2.213   4.683  14.227 -0.1855 -0.3987  0.7566
 2931SOL    HW120426   2.192   0.034  14.257 -1.5925 -0.2052 -0.7813
 2931SOL    HW220427   2.165   4.635  14.294  1.4894 -0.9237  1.5786
 2932SOL     OW20428   1.850   1.830   7.980 -0.4334  0.4907 -0.3782
 2932SOL    HW120429   1.760   1.857   7.994 -0.5716  0.2253 -0.7377
 2932SOL    HW220430   1.836   1.736   7.964  0.7530  0.8422 -3.4909
 2933SOL     OW20431   3.858   1.156   9.124  0.6840 -0.2533  0.4526
 2933SOL    HW120432   3.869   1.061   9.116 -0.8224 -0.2719 -1.3110
 2933SOL    HW220433   3.894   1.189   9.042  0.1758  0.5260  0.5436
 2934SOL     OW20434   1.685   1.567   8.951  0.6907  0.2432 -0.0858
 2934SOL    HW120435   1.692   1.480   8.911 -0.4323  0.2312 -0.2393
 2934SOL    HW220436   1.777   1.575   8.976  0.2686  0.3746  1.3926
 2935SOL     OW20437   2.195   3.788  11.436  0.5650 -0.1889 -0.2022
 2935SOL    HW120438   2.262   3.720  11.435 -0.0933 -0.8717  1.5651
 2935SOL    HW220439   2.249   3.866  11.426 -2.4034  1.9662  0.5785
 2936SOL     OW20440   0.143   4.496   8.613 -0.7657 -0.0627  0.7210
 2936SOL    HW120441   0.100   4.434   8.671 -4.0880  1.8284  0.2710
 2936SOL    HW220442   0.149   4.451   8.529 -1.6179  0.5371  0.3464
 2937SOL     OW20443   3.235   3.973   8.162  0.1958  0.7222  0.3768
 2937SOL    HW120444   3.144   3.957   8.137  0.3158  1.1923 -0.3495
 2937SOL    HW220445   3.283   3.958   8.080  2.5150  0.3766  1.7929
 2938SOL     OW20446   2.297   1.886   7.316  0.5898  0.2760 -0.3830
 2938SOL    HW120447   2.266   1.812   7.368 -1.2278 -0.0379 -1.9239
 2938SOL    HW220448   2.286   1.844   7.231  0.0112 -1.5321  0.5745
 2939SOL     OW20449   3.135   0.174   2.121 -0.6799  0.0460  0.8317
 2939SOL    HW120450   3.191   0.208   2.051  1.5203 -3.4897  0.8343
 2939SOL    HW220451   3.162   0.082   2.125  0.5342  0.2952 -1.6007
 2940SOL     OW20452   1.106   0.243   5.270  0.5070  0.4535  0.4182
 2940SOL    HW120453   1.163   0.301   5.320  1.1962  0.5942 -0.5416
 2940SOL    HW220454   1.093   0.277   5.182  0.3393 -2.6185 -0.7617
 2941SOL     OW20455   3.232   2.369   7.503 -0.0838  0.2977 -0.0999
 2941SOL    HW120456   3.262   2.306   7.437 -2.4614  0.7449 -1.6057
 2941SOL    HW220457   3.202   2.443   7.450 -2.6113  0.2763  1.3288
 2942SOL     OW20458   4.398   3.382  11.350  0.0634 -0.1735  0.4657
 2942SOL    HW120459   4.410   3.291  11.321  2.3990 -0.4393  2.2261
 2942SOL    HW220460   4.481   3.407  11.311  1.0659 -0.9989  2.0658
 2943SOL     OW20461   1.284   2.491   2.408  0.5584 -0.6388  0.1472
 2943SOL    HW120462   1.239   2.411   2.381  1.4052 -0.4153 -1.8983
 2943SOL    HW220463   1.218   2.555   2.381  0.8013  0.1296  1.3760
 2944SOL     OW20464   2.605   3.789   8.366 -0.5185 -0.1393  0.8768
 2944SOL    HW120465   2.515   3.784   8.399 -1.2399  0.3136 -1.0694
 2944SOL    HW220466   2.622   3.881   8.348  1.1152 -0.4599  0.7934
 2945SOL     OW20467   4.713   2.054   0.579  0.0154  0.0403  0.3072
 2945SOL    HW120468   4.628   2.098   0.587  0.4851  0.6379  2.1132
 2945SOL    HW220469   4.703   2.026   0.488  1.0129 -0.2972  0.3066
 2946SOL     OW20470   2.645   2.054  11.021 -0.0684  0.3687 -0.1304
 2946SOL    HW120471   2.640   2.032  10.928 -0.8884 -1.2583  0.2982
 2946SOL    HW220472   2.735   2.084  11.035 -0.3727  1.0957  0.3177
 2947SOL     OW20473   4.116   3.480   6.775  0.0914  0.1985  0.2333
 2947SOL    HW120474   4.135   3.405   6.718  2.2105  0.1235  1.0164
 2947SOL    HW220475   4.021   3.476   6.770  0.0823 -0.9625  1.2648
 2948SOL     OW20476   1.859   1.420   0.197  0.2183 -0.3811 -0.2040
 2948SOL    HW120477   1.777   1.381   0.226 -1.9054  1.0023 -4.2970
 2948SOL    HW220478   1.847   1.398   0.105  0.0204 -3.0330  0.4778
 2949SOL     OW20479   2.191   4.580   7.551 -0.1480  0.5584  0.0155
 2949SOL    HW120480   2.251   4.562   7.623 -1.4935 -0.1852  0.9530
 2949SOL    HW220481   2.154   4.494   7.532 -0.0296 -0.2794  3.5048
 2950SOL     OW20482   3.109   0.616   9.801  0.4004  0.2298  0.6482
 2950SOL    HW120483   3.170   0.552   9.839 -1.2131 -2.1980 -0.8162
 2950SOL    HW220484   3.047   0.640   9.870 -0.4679 -1.7539  0.5585
 2951SOL     OW20485   0.478   3.519   9.690 -0.3432  0.6780 -0.3709
 2951SOL    HW120486   0.518   3.587   9.745  2.9949 -1.3367 -0.3189
 2951SOL    HW220487   0.401   3.500   9.745  0.8803 -1.8922  0.4453
 2952SOL     OW20488   0.355   0.698   3.334  0.2793  0.1988  0.2358
 2952SOL    HW120489   0.373   0.633   3.402 -2.2261 -0.6252  0.0956
 2952SOL    HW220490   0.260   0.704   3.340  0.1792 -0.5661 -0.5818
 2953SOL     OW20491   0.306   1.321   8.691  0.5295  0.3164  0.2977
 2953SOL    HW120492   0.344   1.408   8.701  1.2136 -0.0937  1.2258
 2953SOL    HW220493   0.379   1.265   8.664 -0.3799 -1.5367  1.6529
 2954SOL     OW20494   2.309   1.750   0.693 -0.1405  0.0486  0.1220
 2954SOL    HW120495   2.383   1.704   0.653 -0.5364 -0.2413 -0.2821
 2954SOL    HW220496   2.352   1.798   0.764  2.4296  0.2421 -1.5524
 2955SOL     OW20497   1.913   4.047  16.211 -0.3583  0.0060  0.0436
 2955SOL    HW120498   1.888   4.139  16.210  1.1701  0.4490  3.1409
 2955SOL    HW220499   1.936   4.038  16.304 -0.0457  1.8150  0.1322
 2956SOL     OW20500   3.046   3.576   5.815  0.3033 -0.2068 -0.1877
 2956SOL    HW120501   3.087   3.662   5.818  0.7559 -0.4292  0.0086
 2956SOL    HW220502   3.096   3.522   5.876 -1.3042 -1.2539  0.2066
 2957SOL     OW20503   0.398   2.924   5.115 -0.4540 -0.1107 -0.7601
 2957SOL    HW120504   0.323   2.973   5.080 -0.9460  0.6442  1.3868
 2957SOL    HW220505   0.459   2.957   5.048  0.8868 -1.2681 -0.0985
 2958SOL     OW20506   0.558   2.211  15.784  0.1960  0.4218 -0.6059
 2958SOL    HW120507   0.591   2.276  15.846 -0.0522  1.2930 -1.3952
 2958SOL    HW220508   0.553   2.131  15.836 -2.1010  0.0241 -1.4645
 2959SOL     OW20509   0.945   4.485   4.698  0.2787 -0.7697  0.0573
 2959SOL    HW120510   0.886   4.418   4.733 -2.0414  2.1813  1.8192
 2959SOL    HW220511   0.972   4.429   4.625 -0.2275 -1.4570  0.3851
 2960SOL     OW20512   2.519   2.788   6.411  0.3062  0.6809  0.1029
 2960SOL    HW120513   2.522   2.699   6.376 -0.2752  1.4489 -1.8565
 2960SOL    HW220514   2.451   2.824   6.354 -0.1788 -0.4077 -0.0171
 2961SOL     OW20515   0.548   0.015   9.738 -0.1742 -0.2035 -0.0913
 2961SOL    HW120516   0.639   0.044   9.727 -0.0518 -1.2789 -1.8249
 2961SOL    HW220517   0.561   4.659   9.753 -1.5438 -0.6555 -1.8286
 2962SOL     OW20518   0.887   4.168  16.196 -0.9930 -0.1770  0.0440
 2962SOL    HW120519   0.876   4.093  16.137 -0.5913 -0.1759 -0.0301
 2962SOL    HW220520   0.839   4.130  16.269  0.9952 -1.8462  0.4900
 2963SOL     OW20521   2.215   2.934   2.486 -0.0349 -0.5587 -0.3022
 2963SOL    HW120522   2.267   2.949   2.407  1.1744  2.0683  0.9611
 2963SOL    HW220523   2.257   2.853   2.516  0.6725 -0.9523 -2.3751
 2964SOL     OW20524   3.424   0.085  13.586 -0.3570 -0.1619  0.4532
 2964SOL    HW120525   3.373   0.111  13.663 -0.0205 -0.2866  0.7190
 2964SOL    HW220526   3.492   0.152  13.591 -0.5158 -0.1366  2.5421
 2965SOL     OW20527   4.143   1.276  14.652 -0.2470 -0.5494 -0.0868
 2965SOL    HW120528   4.207   1.211  14.678  0.2011  0.2003  0.6738
 2965SOL    HW220529   4.128   1.321  14.735 -1.8252  1.1645 -1.2913
 2966SOL     OW20530   1.805   2.930  15.147  0.1418  0.1028 -0.1225
 2966SOL    HW120531   1.709   2.931  15.151  0.1968  0.2060  1.1958
 2966SOL    HW220532   1.823   3.017  15.112 -1.6229  0.8750  0.8355
 2967SOL     OW20533   0.876   2.930   1.757 -0.4034  0.1932  0.1531
 2967SOL    HW120534   0.932   3.004   1.732 -1.1101  0.8886  0.6355
 2967SOL    HW220535   0.905   2.865   1.693  0.5980  0.3580  0.4329
 2968SOL     OW20536   3.842   2.770   6.572  0.1494 -0.1416  0.1040
 2968SOL    HW120537   3.769   2.763   6.511  1.3263  0.4720 -1.3810
 2968SOL    HW220538   3.908   2.796   6.508 -1.4387 -0.8953 -1.8598
 2969SOL     OW20539   2.238   3.913  11.747  0.6534  0.1009  0.3739
 2969SOL    HW120540   2.183   3.950  11.815  0.6635 -1.2587  1.1255
 2969SOL    HW220541   2.201   3.825  11.755 -0.0671  0.2605 -1.2236
 2970SOL     OW20542   3.389   1.996  15.492  0.4041  0.5888 -0.1983
 2970SOL    HW120543   3.465   2.030  15.444  0.8567  0.9479  0.7804
 2970SOL    HW220544   3.375   1.908  15.455  0.4935  1.3481 -2.0321
 2971SOL     OW20545   0.694   3.340   8.143 -0.7496  0.1222 -0.2964
 2971SOL    HW120546   0.718   3.423   8.185 -0.9306 -0.2718  0.6005
 2971SOL    HW220547   0.751   3.345   8.067 -0.6641 -1.7921 -0.3722
 2972SOL     OW20548   1.826   3.703   0.834 -0.1137 -0.2557  0.2473
 2972SOL    HW120549   1.907   3.740   0.798  2.1095 -2.7017  2.7655
 2972SOL    HW220550   1.853   3.636   0.896  0.8711 -0.5786 -0.5361
 2973SOL     OW20551   3.226   1.568   6.941 -0.1287  0.1708  0.4447
 2973SOL    HW120552   3.313   1.569   6.901 -0.1422  1.8735  0.4542
 2973SOL    HW220553   3.181   1.559   6.857  0.4713 -0.7522  0.2186
 2974SOL     OW20554   4.580   0.322   5.993 -0.1072  0.2080  0.0371
 2974SOL    HW120555   4.566   0.409   5.957  0.3731 -0.6256 -2.2049
 2974SOL    HW220556   4.570   0.331   6.087  2.1351 -2.7570  0.5584
 2975SOL     OW20557   2.912   2.739  11.158  0.3295 -0.3039  0.1004
 2975SOL    HW120558   2.936   2.771  11.244 -1.1770  0.4302  0.2406
 2975SOL    HW220559   2.866   2.660  11.186  2.7014 -1.6210  0.2237
 2976SOL     OW20560   1.556   0.373  17.072  0.0671  0.6203 -0.1036
 2976SOL    HW120561   1.566   0.468  17.071  0.0068  0.6429  1.5587
 2976SOL    HW220562   1.516   0.360  16.986 -1.0078 -0.0507  0.4935
 2977SOL     OW20563   4.389   4.735   3.390  0.4178 -0.0915  0.2924
 2977SOL    HW120564   4.378   0.067   3.456  2.6087  2.3838 -1.9221
 2977SOL    HW220565   4.344   0.040   3.317 -0.9324  1.1177  1.8182
 2978SOL     OW20566   1.303   4.658   7.392  0.4110 -0.5481 -0.3754
 2978SOL    HW120567   1.222   4.642   7.344  0.7105  1.2289 -1.4467
 2978SOL    HW220568   1.286   0.003   7.438  0.1216 -0.3373 -0.8649
 2979SOL     OW20569   1.631   0.310  16.277  0.1396  0.1413 -0.0231
 2979SOL    HW120570   1.582   0.256  16.339 -0.1214 -0.5955 -0.8689
 2979SOL    HW220571   1.716   0.268  16.286  0.3494  0.7014  0.6211
 2980SOL     OW20572   1.784   3.256   2.546 -0.1868  0.3093  0.4943
 2980SOL    HW120573   1.839   3.222   2.616  0.5310  1.5430  0.5290
 2980SOL    HW220574   1.826   3.215   2.471  2.2065  0.7890  1.5957
 2981SOL     OW20575   2.860   2.027  16.729  0.1837 -0.0633 -0.1134
 2981SOL    HW120576   2.854   2.020  16.824  1.7430 -0.7581 -0.0730
 2981SOL    HW220577   2.953   2.018  16.707  1.0204  1.1115  2.9940
 2982SOL     OW20578   4.130   3.139  10.835 -0.2497  0.2687  0.4389
 2982SOL    HW120579   4.098   3.227  10.810  0.9052  0.1160 -1.5550
 2982SOL    HW220580   4.126   3.151  10.930 -1.7698  1.1630  0.2738
 2983SOL     OW20581   0.553   2.680  11.004  0.3161 -0.2552  0.0495
 2983SOL    HW120582   0.608   2.756  11.018  2.1876 -1.4429 -0.8912
 2983SOL    HW220583   0.471   2.725  11.025  1.5521  1.8386  0.3532
 2984SOL     OW20584   0.625   3.671   5.033 -0.0559 -0.2462  0.0684
 2984SOL    HW120585   0.560   3.673   5.104  0.7325 -0.7527  0.8099
 2984SOL    HW220586   0.580   3.712   4.959 -1.0455  0.8284  1.2720
 2985SOL     OW20587   4.183   0.915   2.377  0.5207 -0.5754 -0.3233
 2985SOL    HW120588   4.229   0.956   2.304 -0.8707 -1.2667 -1.5862
 2985SOL    HW220589   4.180   0.824   2.347  0.9610 -0.2659 -1.2994
 2986SOL     OW20590   3.948   4.709   3.973 -0.4796  0.4874  0.1219
 2986SOL    HW120591   3.998   4.695   4.054 -0.0966 -0.1981 -0.2324
 2986SOL    HW220592   3.972   4.628   3.929  0.0467  0.0350  1.2339
 2987SOL     OW20593   1.862   2.886  11.275  0.3386  0.5519 -0.9839
 2987SOL    HW120594   1.873   2.883  11.370 -2.7706  1.8374 -0.5909
 2987SOL    HW220595   1.921   2.816  11.246 -0.6324 -0.2709 -1.0013
 2988SOL     OW20596   4.272   2.677   9.113  0.7450 -0.1259 -0.1294
 2988SOL    HW120597   4.343   2.741   9.120  0.5437 -0.4751  4.9344
 2988SOL    HW220598   4.278   2.651   9.205  1.0101 -0.8670 -0.3591
 2989SOL     OW20599   0.465   3.838   4.884 -0.0807  0.1955 -0.2283
 2989SOL    HW120600   0.385   3.806   4.926  2.0721 -2.2879  2.0323
 2989SOL    HW220601   0.457   3.931   4.903 -1.0355  0.3869 -1.5876
 2990SOL     OW20602   1.049   3.163   9.970 -0.0063 -0.7046 -0.2413
 2990SOL    HW120603   1.119   3.150  10.032  0.6452 -0.7294 -0.9805
 2990SOL    HW220604   1.086   3.144   9.884 -0.1808  0.4682 -0.5769
 2991SOL     OW20605   1.150   0.511   8.480 -0.2247 -0.1458  0.2297
 2991SOL    HW120606   1.076   0.476   8.528  0.4446 -2.8906 -0.7442
 2991SOL    HW220607   1.223   0.495   8.539 -0.9034 -1.7307  0.6169
 2992SOL     OW20608   1.299   1.221   8.316  0.2944  0.1829  0.1545
 2992SOL    HW120609   1.350   1.286   8.267  0.1508  0.2197  0.0548
 2992SOL    HW220610   1.267   1.167   8.244 -0.3393  0.6321  0.1011
 2993SOL     OW20611   3.838   1.821   4.027  0.2499  0.4661 -0.3551
 2993SOL    HW120612   3.774   1.771   3.975  1.6996  0.0770 -1.7865
 2993SOL    HW220613   3.812   1.810   4.118 -0.3157  0.6208 -0.4997
 2994SOL     OW20614   4.368   0.230   2.079 -0.8085  0.5633  0.5976
 2994SOL    HW120615   4.284   0.203   2.041  0.2714 -1.5030 -0.3108
 2994SOL    HW220616   4.412   0.145   2.076 -1.4168  0.2178  1.3375
 2995SOL     OW20617   3.598   1.647   0.082  0.3349 -0.3435 -0.2758
 2995SOL    HW120618   3.625   1.668  17.739 -0.2757  0.8196 -0.1810
 2995SOL    HW220619   3.612   1.552   0.073 -1.3003 -0.5093 -1.0186
 2996SOL     OW20620   4.028   1.395   1.620  0.8047 -0.0809 -0.2661
 2996SOL    HW120621   4.072   1.389   1.704 -0.1158 -1.0507  0.1516
 2996SOL    HW220622   4.100   1.385   1.558  1.0548  1.1642 -0.1640
 2997SOL     OW20623   1.798   2.210   6.662 -0.1717  0.1812  0.2431
 2997SOL    HW120624   1.868   2.179   6.720  2.2884 -2.6215 -4.1460
 2997SOL    HW220625   1.806   2.305   6.673  0.7994 -0.1012  1.8843
 2998SOL     OW20626   2.507   1.586   3.731 -0.2321 -0.0860  0.1222
 2998SOL    HW120627   2.579   1.646   3.753  0.8540 -0.4440 -2.4591
 2998SOL    HW220628   2.492   1.604   3.639 -2.9384  2.6080  1.0580
 2999SOL     OW20629   2.025   2.602  10.986  0.0308  0.2106 -0.0417
 2999SOL    HW120630   1.952   2.553  11.021 -0.1507  0.3338 -0.2461
 2999SOL    HW220631   2.021   2.685  11.033  1.8466  1.1947 -1.6007
 3000SOL     OW20632   4.234   4.441   8.168  0.7183 -0.0780  0.3179
 3000SOL    HW120633   4.301   4.443   8.099  0.9462 -2.6392  0.4592
 3000SOL    HW220634   4.273   4.380   8.231  2.1556  0.4415 -0.0696
 3001SOL     OW20635   1.968   3.995  16.472  0.5081  0.2814 -0.0784
 3001SOL    HW120636   1.953   3.924  16.535  2.1789 -0.4310 -0.4753
 3001SOL    HW220637   2.062   3.983  16.459  0.1751 -3.8173  1.2580
 3002SOL     OW20638   1.356   3.882   8.362  0.0207 -0.1440 -0.2570
 3002SOL    HW120639   1.350   3.851   8.271  0.3668 -1.1757  0.0708
 3002SOL    HW220640   1.335   3.801   8.408 -0.0344 -0.2716 -0.5071
 3003SOL     OW20641   4.355   2.000  11.746  0.2964  0.5077 -0.3288
 3003SOL    HW120642   4.291   2.071  11.735 -1.9633 -1.7551 -1.6928
 3003SOL    HW220643   4.433   2.044  11.778  0.9520 -0.6838 -0.3034
 3004SOL     OW20644   0.495   0.419   4.335 -0.0681 -0.1040 -0.2876
 3004SOL    HW120645   0.463   0.496   4.383 -0.0840  0.3333 -1.0040
 3004SOL    HW220646   0.514   0.365   4.411  2.5457  3.5620  1.6944
 3005SOL     OW20647   0.541   1.409  11.030  0.7215  0.2737 -1.1492
 3005SOL    HW120648   0.473   1.345  11.054  0.4150  2.6056  4.2015
 3005SOL    HW220649   0.493   1.490  11.013 -0.3859 -0.1616 -0.1526
 3006SOL     OW20650   2.586   0.057  10.652 -0.2643  0.3344 -0.3649
 3006SOL    HW120651   2.606   0.146  10.624 -0.2539  0.5786  0.4249
 3006SOL    HW220652   2.572   0.011  10.569 -0.7706  2.9503 -1.7372
 3007SOL     OW20653   3.895   0.023   3.057 -0.3768  0.0803  0.2652
 3007SOL    HW120654   3.812   0.061   3.031 -0.0573  0.3505 -0.3632
 3007SOL    HW220655   3.927   0.096   3.111 -2.1919  0.1368  1.2698
 3008SOL     OW20656   2.100   4.144   4.592  0.0913 -0.4785  0.6645
 3008SOL    HW120657   2.152   4.216   4.627 -0.4688  0.4192 -0.3824
 3008SOL    HW220658   2.161   4.072   4.609  1.0132 -0.8663 -4.4581
 3009SOL     OW20659   1.626   0.493   4.485  0.4666 -0.1847 -0.0745
 3009SOL    HW120660   1.557   0.433   4.456  1.1253 -0.6078 -0.7740
 3009SOL    HW220661   1.576   0.574   4.477 -0.9126 -1.0133  0.0030
 3010SOL     OW20662   0.954   2.618   7.334 -0.2445 -0.4241 -0.4977
 3010SOL    HW120663   0.929   2.709   7.318 -0.2973 -0.4117 -0.3418
 3010SOL    HW220664   0.873   2.580   7.299 -0.0403 -1.2005 -0.1183
 3011SOL     OW20665   4.587   2.716  17.084  0.0061 -0.8786 -0.0919
 3011SOL    HW120666   4.500   2.745  17.055  0.5713 -1.0753 -1.9908
 3011SOL    HW220667   4.612   2.768  17.160 -0.8024 -1.8539  0.8474
 3012SOL     OW20668   2.094   0.334   7.523  0.0363 -0.2548 -0.0202
 3012SOL    HW120669   2.032   0.334   7.450 -0.3685  1.5651  0.3279
 3012SOL    HW220670   2.085   0.244   7.555  0.2881  0.3358  1.7168
 3013SOL     OW20671   0.643   2.375   0.318  0.1876 -0.1620 -0.4193
 3013SOL    HW120672   0.674   2.429   0.246 -1.0877  1.3307  0.1568
 3013SOL    HW220673   0.712   2.309   0.326  0.8988  0.8626  2.1975
 3014SOL     OW20674   2.443   0.341   2.685  0.3712 -0.6201 -0.3097
 3014SOL    HW120675   2.404   0.325   2.599 -3.0935 -1.6776  1.4572
 3014SOL    HW220676   2.378   0.401   2.723  0.6166  0.0815 -1.0015
 3015SOL     OW20677   0.529   1.273   4.807 -0.8727 -0.2681  0.7517
 3015SOL    HW120678   0.482   1.305   4.730  0.0604  0.1569  0.3591
 3015SOL    HW220679   0.473   1.208   4.849  0.9782 -2.5422 -0.3621
 3016SOL     OW20680   2.352   2.915   4.543 -0.6279 -0.0083 -0.4847
 3016SOL    HW120681   2.438   2.887   4.511  1.1614  2.9712  1.6140
 3016SOL    HW220682   2.382   2.989   4.597  0.5849 -0.2310 -0.8376
 3017SOL     OW20683   0.984   1.734   5.154  0.0002 -0.0687 -0.3573
 3017SOL    HW120684   0.961   1.815   5.198 -0.0615 -0.2977  0.0281
 3017SOL    HW220685   0.898   1.692   5.145  0.5927 -1.2162 -0.6635
 3018SOL     OW20686   1.214   1.692   7.086  0.2430  0.4895 -0.1262
 3018SOL    HW120687   1.199   1.673   6.993  0.4020  1.2606 -0.3091
 3018SOL    HW220688   1.134   1.659   7.128 -0.8867  0.2014 -2.5218
 3019SOL     OW20689   1.497   3.569   0.968 -0.4279 -0.2249 -0.0496
 3019SOL    HW120690   1.535   3.487   0.939  0.6385 -0.8820  3.1873
 3019SOL    HW220691   1.512   3.620   0.888 -0.1588  0.7547  0.6139
 3020SOL     OW20692   1.400   2.366   8.580  0.0075  0.3368 -0.3079
 3020SOL    HW120693   1.430   2.455   8.598 -0.0413 -0.2384  2.6035
 3020SOL    HW220694   1.478   2.316   8.557 -0.5094 -0.3481 -0.5791
 3021SOL     OW20695   1.562   4.482   6.682 -0.9725  0.1004 -0.3104
 3021SOL    HW120696   1.502   4.457   6.612 -2.1068  0.4690  0.5304
 3021SOL    HW220697   1.520   4.447   6.761  0.7780 -0.9499  0.1620
 3022SOL     OW20698   3.827   0.905   6.057 -0.7380 -0.3828  0.1496
 3022SOL    HW120699   3.845   0.933   6.147  0.7607 -1.1680  0.0989
 3022SOL    HW220700   3.910   0.862   6.036 -0.7396  0.1581 -0.9626
 3023SOL     OW20701   4.192   0.629   2.449 -0.2783 -0.0661  0.6620
 3023SOL    HW120702   4.238   0.569   2.507  0.9455 -2.0125 -2.3028
 3023SOL    HW220703   4.171   0.693   2.517 -0.1670  0.2326  0.4175
 3024SOL     OW20704   4.048   0.591   5.370  0.1429 -0.4162 -0.1924
 3024SOL    HW120705   3.973   0.627   5.322  0.3463  1.9396  1.2365
 3024SOL    HW220706   4.117   0.602   5.304 -0.0964  0.9879 -0.2177
 3025SOL     OW20707   3.909   2.515   3.125  0.2328  0.0211  0.1760
 3025SOL    HW120708   3.927   2.558   3.042  1.3773  0.8683  0.8518
 3025SOL    HW220709   3.975   2.447   3.139 -1.3948 -1.0678  2.5928
 3026SOL     OW20710   0.234   4.292   7.756  0.5448  0.1743  0.0437
 3026SOL    HW120711   0.173   4.250   7.696  0.7582 -0.7002  0.4288
 3026SOL    HW220712   0.296   4.220   7.773  1.9755  1.4246  0.1201
 3027SOL     OW20713   0.646   1.616   7.826  0.2631 -0.3254  0.6721
 3027SOL    HW120714   0.649   1.588   7.917 -0.8128  0.1490  0.8548
 3027SOL    HW220715   0.698   1.696   7.819  0.0028 -0.3524 -1.5538
 3028SOL     OW20716   4.521   2.677  11.815 -0.2374  0.1997 -0.1129
 3028SOL    HW120717   4.578   2.721  11.751 -0.3116 -0.6016 -0.7261
 3028SOL    HW220718   4.459   2.642  11.750  0.5789  1.2549 -1.4758
 3029SOL     OW20719   2.394   1.397   6.935 -0.5802  0.2888  0.1181
 3029SOL    HW120720   2.469   1.447   6.902 -0.3362 -1.4553 -1.9686
 3029SOL    HW220721   2.321   1.459   6.930  0.3746  1.5390  1.6558
 3030SOL     OW20722   4.454   0.615   9.504 -0.4753  0.3133 -0.0655
 3030SOL    HW120723   4.512   0.539   9.493  0.1211  0.9889 -1.7025
 3030SOL    HW220724   4.478   0.641   9.592 -1.4915  1.3789 -0.1071
 3031SOL     OW20725   2.764   0.981   8.029 -0.2848  0.4053  0.1436
 3031SOL    HW120726   2.752   0.966   7.935  0.5906 -1.0283  0.2633
 3031SOL    HW220727   2.684   1.023   8.059  0.4897  1.1659  1.1349
 3032SOL     OW20728   0.783   4.579   2.315  0.1221 -0.2996  0.6246
 3032SOL    HW120729   0.744   4.642   2.375  0.2265 -0.1295  0.5123
 3032SOL    HW220730   0.774   4.493   2.358 -0.2640 -0.5275  0.0883
 3033SOL     OW20731   0.655   4.438  14.418 -0.0773  0.0318  0.1340
 3033SOL    HW120732   0.671   4.346  14.397 -0.8846  0.2571 -1.4405
 3033SOL    HW220733   0.745   4.460  14.443  0.3683  1.2255 -2.5096
 3034SOL     OW20734   3.802   3.149   0.704 -0.0776 -0.7843 -0.4037
 3034SOL    HW120735   3.790   3.070   0.756  1.1056  0.4545  1.7713
 3034SOL    HW220736   3.872   3.205   0.739 -2.2866  1.4021  0.5252
 3035SOL     OW20737   3.988   2.322   6.453  0.2325 -0.3344  0.4828
 3035SOL    HW120738   3.966   2.353   6.541  3.3918 -0.0604  1.1715
 3035SOL    HW220739   3.949   2.235   6.448  0.4404 -0.3652 -0.6945
 3036SOL     OW20740   4.352   1.260  12.180  0.2630 -0.6258  0.2375
 3036SOL    HW120741   4.399   1.254  12.263 -0.1302 -2.9718  0.2806
 3036SOL    HW220742   4.384   1.179  12.140  2.5991  0.6286 -0.4221
 3037SOL     OW20743   0.517   0.566  10.839 -0.4767  0.0459 -0.4284
 3037SOL    HW120744   0.515   0.502  10.910  0.8300  1.1469  0.6009
 3037SOL    HW220745   0.505   0.501  10.770 -0.8880  0.3895 -0.6851
 3038SOL     OW20746   2.267   1.022   6.580  0.1972  0.4856  0.4248
 3038SOL    HW120747   2.264   0.943   6.635 -0.1571 -0.1520 -0.5235
 3038SOL    HW220748   2.314   1.079   6.641 -0.5473  0.5943  0.8916
 3039SOL     OW20749   3.335   2.841  11.927  0.3281 -0.4153 -0.4346
 3039SOL    HW120750   3.386   2.921  11.911 -0.0854  0.1203  0.9144
 3039SOL    HW220751   3.248   2.875  11.904 -0.5282  0.1629  3.6569
 3040SOL     OW20752   0.267   1.028   8.191 -0.2776 -0.1996  0.7120
 3040SOL    HW120753   0.251   1.120   8.215 -1.4106 -0.7043  1.9296
 3040SOL    HW220754   0.333   1.046   8.125  0.8137 -3.1942  0.9734
 3041SOL     OW20755   1.647   4.494  10.806  0.2362 -0.3256 -0.1972
 3041SOL    HW120756   1.607   4.464  10.887 -2.4692  2.9992 -0.3191
 3041SOL    HW220757   1.685   4.414  10.771 -0.2572 -0.9571  0.7140
 3042SOL     OW20758   0.928   2.003   7.470  0.0458 -0.4550  0.0251
 3042SOL    HW120759   0.851   2.035   7.517 -0.0230  1.1878 -1.1915
 3042SOL    HW220760   0.995   2.014   7.538  0.5682 -0.1212 -0.5461
 3043SOL     OW20761   1.608   2.021   5.868  0.1397  0.1408 -0.2065
 3043SOL    HW120762   1.678   1.960   5.893  1.7646  2.2866  0.5108
 3043SOL    HW220763   1.541   1.956   5.848 -0.9354  1.4042 -0.6765
 3044SOL     OW20764   3.391   4.468   8.858  0.3062  0.7815  0.1767
 3044SOL    HW120765   3.406   4.373   8.859  2.0638  1.0620  0.2448
 3044SOL    HW220766   3.296   4.459   8.867  0.5524 -0.6346  1.3725
 3045SOL     OW20767   0.595   3.756  15.594 -0.4045 -0.2038  0.1393
 3045SOL    HW120768   0.657   3.828  15.603 -0.3354 -0.3286  0.6881
 3045SOL    HW220769   0.654   3.689  15.629 -0.0477 -0.2649 -0.5937
 3046SOL     OW20770   1.285   3.460   5.530 -0.1836 -0.0988  0.1985
 3046SOL    HW120771   1.322   3.418   5.452 -1.7281 -0.1853 -0.4983
 3046SOL    HW220772   1.360   3.454   5.589  1.3679  1.9050 -1.5336
 3047SOL     OW20773   0.828   1.839   3.304 -0.3459 -0.2835  0.0065
 3047SOL    HW120774   0.874   1.755   3.311 -1.1410 -1.0163 -3.9988
 3047SOL    HW220775   0.751   1.818   3.357 -1.5084  0.6988 -1.2966
 3048SOL     OW20776   3.978   2.405   4.753 -0.1166 -0.0501  0.6177
 3048SOL    HW120777   4.033   2.352   4.810  0.5742  1.0866  1.0118
 3048SOL    HW220778   3.957   2.483   4.805  2.7560 -0.3442  2.2267
 3049SOL     OW20779   2.489   3.839   6.609  0.2487  0.5988 -0.5256
 3049SOL    HW120780   2.562   3.780   6.627  0.7289  1.6047  0.9113
 3049SOL    HW220781   2.534   3.923   6.596 -0.8613  1.2994  0.0524
 3050SOL     OW20782   3.420   3.567   8.206  0.5288 -0.5404 -0.0626
 3050SOL    HW120783   3.513   3.550   8.189  0.5520  0.5275 -1.0352
 3050SOL    HW220784   3.384   3.527   8.126 -0.9510  1.6368 -0.4748
 3051SOL     OW20785   0.109   0.365  16.338 -0.0891 -0.2069 -0.4005
 3051SOL    HW120786   0.053   0.435  16.373  1.2455  1.5657 -1.8130
 3051SOL    HW220787   0.183   0.416  16.305  0.5093 -0.7909  0.0559
 3052SOL     OW20788   2.035   0.599  16.722  0.4643  0.0168  0.0524
 3052SOL    HW120789   1.977   0.523  16.735  1.1669 -0.5604 -0.2311
 3052SOL    HW220790   1.977   0.670  16.693  1.8738  0.3484 -1.9051
 3053SOL     OW20791   4.510   0.944  16.788  0.2414  0.4670 -0.6030
 3053SOL    HW120792   4.528   1.038  16.792  1.1310  0.3462 -1.7795
 3053SOL    HW220793   4.536   0.908  16.873 -1.3321 -2.5021 -1.3779
 3054SOL     OW20794   0.586   3.164   1.903 -0.0087 -0.1115 -0.6066
 3054SOL    HW120795   0.545   3.221   1.838  0.7766  2.3432  1.0607
 3054SOL    HW220796   0.569   3.082   1.856  1.1783 -0.5433 -0.2679
 3055SOL     OW20797   4.147   1.982   8.903  0.4360 -0.3837 -0.2220
 3055SOL    HW120798   4.145   1.987   8.998  0.3786 -0.4509 -0.2198
 3055SOL    HW220799   4.140   1.887   8.889 -1.1815 -0.2255 -0.4742
 3056SOL     OW20800   0.159   3.423   5.864 -0.6531 -0.5053  0.0407
 3056SOL    HW120801   0.154   3.358   5.794  0.2484 -1.5911  0.9843
 3056SOL    HW220802   0.226   3.483   5.833 -0.2724 -0.9552 -0.0060
 3057SOL     OW20803   0.460   2.282  13.411  0.0369  0.2049 -0.1062
 3057SOL    HW120804   0.416   2.367  13.410 -0.2055  0.1153  2.6517
 3057SOL    HW220805   0.500   2.282  13.324  1.4169 -0.2566  0.5387
 3058SOL     OW20806   2.857   3.589  11.408  0.4832 -0.5489  0.2897
 3058SOL    HW120807   2.905   3.548  11.480  1.0732  1.4073  0.9948
 3058SOL    HW220808   2.781   3.532  11.397  0.6507  0.0040 -3.6164
 3059SOL     OW20809   0.480   0.097   8.118  0.1880  0.5743  0.1347
 3059SOL    HW120810   0.539   0.050   8.177  0.2437 -0.8461 -1.0791
 3059SOL    HW220811   0.534   0.176   8.118 -1.3504  1.6272 -2.2023
 3060SOL     OW20812   1.718   3.184   5.460 -0.2478  0.1910 -0.1497
 3060SOL    HW120813   1.663   3.133   5.400  0.8597 -1.1424 -0.0108
 3060SOL    HW220814   1.669   3.176   5.542 -0.7182 -0.5190 -0.5037
 3061SOL     OW20815   3.923   0.641  17.289  0.3932  0.3497 -0.6671
 3061SOL    HW120816   3.992   0.576  17.277  0.5645  0.5925 -1.0104
 3061SOL    HW220817   3.973   0.708  17.334 -1.1527  0.3642  1.0175
 3062SOL     OW20818   0.180   4.276   8.830  0.1339  0.1969  0.3924
 3062SOL    HW120819   0.099   4.266   8.880  1.5081 -0.7422  2.4326
 3062SOL    HW220820   0.240   4.281   8.905  2.5710 -0.2305 -1.5064
 3063SOL     OW20821   3.863   3.107   3.337  0.6677  0.7715  0.2060
 3063SOL    HW120822   3.898   3.071   3.255 -1.7971 -0.8711 -0.1168
 3063SOL    HW220823   3.784   3.142   3.295  0.6367 -0.6540 -0.9242
 3064SOL     OW20824   0.597   1.107   8.384 -0.2683  0.0001  0.2527
 3064SOL    HW120825   0.605   1.019   8.421 -1.3380 -0.4741 -0.6479
 3064SOL    HW220826   0.639   1.098   8.298  2.8332  1.2853  1.6258
 3065SOL     OW20827   0.199   2.698  17.180  0.9783  0.0511 -0.5622
 3065SOL    HW120828   0.175   2.769  17.121  1.9284  0.9814  0.1657
 3065SOL    HW220829   0.280   2.739  17.211  0.4220 -0.0680  1.0236
 3066SOL     OW20830   0.452   0.377   6.087 -0.1248 -0.2469 -0.2410
 3066SOL    HW120831   0.525   0.316   6.100 -0.4950 -0.6959 -0.2816
 3066SOL    HW220832   0.400   0.343   6.014  0.5227 -0.7865 -0.4512
 3067SOL     OW20833   3.008   2.675  10.336 -0.1630  0.3201  0.3115
 3067SOL    HW120834   3.005   2.682  10.432 -0.3267 -0.0345  0.3332
 3067SOL    HW220835   3.102   2.670  10.319 -0.0483  1.0190  0.7398
 3068SOL     OW20836   4.475   1.299   5.809 -0.2902  0.4705 -0.2336
 3068SOL    HW120837   4.567   1.320   5.821 -0.7377  2.6770 -0.7462
 3068SOL    HW220838   4.437   1.356   5.875 -0.9086  0.5016 -0.6150
 3069SOL     OW20839   3.736   4.267   3.481 -0.3145 -0.0459  0.2386
 3069SOL    HW120840   3.749   4.237   3.391  0.2578  0.1440  0.2573
 3069SOL    HW220841   3.812   4.323   3.498 -1.2391  0.3677  3.0157
 3070SOL     OW20842   0.978   1.533   2.431  0.0117 -0.2704 -0.5981
 3070SOL    HW120843   0.908   1.497   2.486 -0.5167 -0.6351 -1.5124
 3070SOL    HW220844   0.928   1.583   2.367  0.5484 -1.9979 -2.3453
 3071SOL     OW20845   3.183   4.430   0.809  0.1083  0.1228 -0.0424
 3071SOL    HW120846   3.115   4.488   0.775 -1.2718 -1.0275  0.7559
 3071SOL    HW220847   3.155   4.346   0.771 -1.4571  0.1286  1.0609
 3072SOL     OW20848   3.255   2.624   7.191  0.4116 -0.4685 -0.1203
 3072SOL    HW120849   3.273   2.646   7.100  1.8206 -0.4188  0.1769
 3072SOL    HW220850   3.235   2.532   7.175 -1.4860 -0.0327 -0.3291
 3073SOL     OW20851   0.897   3.679  13.000  0.1685 -0.1511 -0.0742
 3073SOL    HW120852   0.971   3.626  12.971  1.4342  0.6965  1.6025
 3073SOL    HW220853   0.935   3.742  13.061 -0.8504  0.5029 -0.1139
 3074SOL     OW20854   3.234   0.545  14.385 -0.0727 -0.5126  0.6907
 3074SOL    HW120855   3.160   0.496  14.348 -1.1705  1.8914 -0.3315
 3074SOL    HW220856   3.260   0.607  14.317  1.6169  0.2113  2.0112
 3075SOL     OW20857   1.004   2.949   4.594  0.3788  0.1721  0.4463
 3075SOL    HW120858   1.042   3.036   4.608 -2.7769  1.7404 -0.8007
 3075SOL    HW220859   1.010   2.931   4.500  0.5109 -0.3740  0.5558
 3076SOL     OW20860   4.021   3.371   4.576  0.0300 -1.0887 -0.4069
 3076SOL    HW120861   4.050   3.451   4.531  0.1493 -1.4782 -1.0195
 3076SOL    HW220862   4.097   3.316   4.558  0.3680 -0.7348 -0.0731
 3077SOL     OW20863   0.300   3.558   4.897  0.1931  0.3847  0.3098
 3077SOL    HW120864   0.354   3.515   4.963 -1.7229 -0.7175  1.1241
 3077SOL    HW220865   0.228   3.499   4.877  1.0677 -0.4424 -0.3729
 3078SOL     OW20866   0.001   0.580   6.376 -0.0642  0.0741 -0.4040
 3078SOL    HW120867   0.041   0.501   6.339  1.2552 -0.1426  1.4700
 3078SOL    HW220868   0.038   0.610   6.459 -0.2699 -1.3019  0.1843
 3079SOL     OW20869   4.297   0.836   1.909  0.3223 -0.1275 -0.1678
 3079SOL    HW120870   4.263   0.921   1.880 -4.2836 -1.4200  1.4222
 3079SOL    HW220871   4.226   0.785   1.948 -0.0451  0.0270 -0.6240
 3080SOL     OW20872   1.898   3.173   7.736  0.0007  0.1136 -0.4383
 3080SOL    HW120873   1.856   3.211   7.659  0.4374 -2.4781 -1.9827
 3080SOL    HW220874   1.834   3.165   7.806  1.2423  1.8290  0.8998
 3081SOL     OW20875   1.728   3.323  12.811  0.1996 -0.3619 -0.2962
 3081SOL    HW120876   1.667   3.279  12.870  2.2894 -2.0044  0.6242
 3081SOL    HW220877   1.719   3.410  12.850  1.1871  0.8779 -2.7768
 3082SOL     OW20878   3.362   1.827   6.727 -0.0567 -0.4814  0.3516
 3082SOL    HW120879   3.406   1.796   6.806 -0.5286 -2.0246  0.0142
 3082SOL    HW220880   3.432   1.818   6.662 -0.8503 -0.4196 -0.5129
 3083SOL     OW20881   3.923   2.959  17.577 -0.0400  0.4990  0.1216
 3083SOL    HW120882   3.933   3.001  17.492 -2.0454  0.9999  0.1158
 3083SOL    HW220883   3.997   2.996  17.626 -0.0281 -0.2492  0.6627
 3084SOL     OW20884   1.529   4.298  13.497 -0.1389 -0.0901  0.3428
 3084SOL    HW120885   1.467   4.274  13.566  0.1224  0.0735  0.6355
 3084SOL    HW220886   1.472   4.292  13.420  3.2696  0.6665 -2.2523
 3085SOL     OW20887   2.986   3.530  16.807 -0.0106 -0.2614  0.4415
 3085SOL    HW120888   2.972   3.523  16.901  0.9392 -0.7445  0.5464
 3085SOL    HW220889   3.075   3.564  16.800  0.4511 -1.3266  1.0535
 3086SOL     OW20890   0.981   0.377   4.101  0.0204  0.8092  0.3912
 3086SOL    HW120891   0.918   0.329   4.156 -2.0745  1.4202 -1.4777
 3086SOL    HW220892   1.029   0.310   4.052 -2.4091  0.6252 -1.7535
 3087SOL     OW20893   3.846   4.095   2.806  0.0296 -0.3822 -0.2194
 3087SOL    HW120894   3.936   4.062   2.811 -0.1936 -0.8444  0.7373
 3087SOL    HW220895   3.840   4.187   2.833  0.2980  0.6045 -3.5308
 3088SOL     OW20896   1.976   2.168   6.246 -0.7665  0.1743  0.2210
 3088SOL    HW120897   2.049   2.215   6.286 -1.5156  2.7060 -1.3829
 3088SOL    HW220898   1.990   2.081   6.284  2.4379  0.9237  0.6958
 3089SOL     OW20899   0.489   3.318   6.540 -0.9576  0.0121 -0.8042
 3089SOL    HW120900   0.540   3.398   6.530 -0.4749 -0.2844 -0.7196
 3089SOL    HW220901   0.556   3.250   6.552  0.6583  1.4118 -1.8875
 3090SOL     OW20902   4.526   4.032   5.994 -0.5130 -0.1364 -0.2354
 3090SOL    HW120903   4.448   4.022   5.940  0.0051  0.3257 -1.0795
 3090SOL    HW220904   4.592   4.028   5.925 -0.0044  0.6318  0.2113
 3091SOL     OW20905   1.194   2.363   2.757  0.0560  0.9073 -0.5707
 3091SOL    HW120906   1.283   2.334   2.780  0.0778  0.6254 -1.0098
 3091SOL    HW220907   1.187   2.301   2.685  1.3927  0.4633 -0.3320
 3092SOL     OW20908   0.058   2.662   4.892 -0.7415  0.2318  0.1288
 3092SOL    HW120909   0.095   2.663   4.980 -0.1572  1.3502 -0.1213
 3092SOL    HW220910   0.026   2.573   4.901  0.7324 -0.4897 -1.7699
 3093SOL     OW20911   3.457   3.923   2.017 -0.0266  0.1008 -0.3316
 3093SOL    HW120912   3.386   3.863   2.039  0.0291  0.0992 -0.1534
 3093SOL    HW220913   3.431   3.964   1.935 -0.2398 -0.1218 -0.3757
 3094SOL     OW20914   3.094   2.323  15.399 -0.6005 -0.4517 -0.2795
 3094SOL    HW120915   3.046   2.242  15.382 -0.2612 -0.5533 -0.7911
 3094SOL    HW220916   3.145   2.289  15.472 -0.5604  0.1260 -0.0404
 3095SOL     OW20917   2.125   3.106   4.697  0.3777 -0.5634 -0.1790
 3095SOL    HW120918   2.114   3.193   4.735  0.4786 -0.0008 -1.4165
 3095SOL    HW220919   2.143   3.054   4.774 -0.6741 -1.5200 -0.5723
 3096SOL     OW20920   4.116   0.121   2.029 -0.4213  0.6741 -0.0106
 3096SOL    HW120921   4.040   0.151   2.078 -1.9639 -3.1372 -0.0461
 3096SOL    HW220922   4.129   0.032   2.062  0.5279  0.8674  0.1392
 3097SOL     OW20923   3.851   1.380  15.236  0.0253 -0.0090 -0.3467
 3097SOL    HW120924   3.802   1.365  15.317 -1.3956  1.9639 -0.8324
 3097SOL    HW220925   3.928   1.324  15.249 -1.3711 -1.3312  2.1809
 3098SOL     OW20926   0.038   1.986   9.060  0.1179 -0.3458  0.2718
 3098SOL    HW120927   0.011   1.898   9.033 -0.1978 -0.4239  0.8466
 3098SOL    HW220928   0.117   1.963   9.108  0.6204  0.8593  0.0106
 3099SOL     OW20929   2.345   1.132  11.790 -0.3418  0.2329  0.5944
 3099SOL    HW120930   2.415   1.107  11.851  0.8733 -0.7906 -1.2246
 3099SOL    HW220931   2.268   1.141  11.846  0.4608 -1.2591  1.9248
 3100SOL     OW20932   2.259   2.697   7.848  0.3065  0.0273 -0.9204
 3100SOL    HW120933   2.247   2.670   7.757 -2.9416 -0.9810 -0.1768
 3100SOL    HW220934   2.353   2.706   7.860  0.3109  0.7217 -1.4187
 3101SOL     OW20935   1.263   0.563   7.783  0.0005 -0.0833 -0.8817
 3101SOL    HW120936   1.289   0.479   7.747 -0.5632 -0.5406 -0.2200
 3101SOL    HW220937   1.169   0.551   7.772 -0.5808  3.9252 -0.5082
 3102SOL     OW20938   1.140   4.442   2.219 -0.3358  0.5462  0.1467
 3102SOL    HW120939   1.220   4.397   2.243 -0.3477  0.3794 -0.1187
 3102SOL    HW220940   1.161   4.535   2.228 -0.3703  0.7293 -1.5561
 3103SOL     OW20941   2.009   3.772   5.866  0.6256 -0.4196  0.0840
 3103SOL    HW120942   2.070   3.768   5.793  0.4135 -1.1167 -0.0554
 3103SOL    HW220943   2.035   3.857   5.899 -0.1418 -0.3731  0.5753
 3104SOL     OW20944   4.355   3.797  13.516 -0.2875  0.0407  0.2725
 3104SOL    HW120945   4.294   3.867  13.538 -2.3922 -1.9511  0.7525
 3104SOL    HW220946   4.438   3.842  13.501 -0.7827  1.8334  2.9963
 3105SOL     OW20947   3.612   4.593   8.487 -0.4934 -0.4637 -0.0889
 3105SOL    HW120948   3.593   4.503   8.463 -2.1325 -0.4646  1.2538
 3105SOL    HW220949   3.613   4.580   8.582  0.3113  0.7896  0.0735
 3106SOL     OW20950   3.769   3.418   5.441  0.4201  0.4839  0.1106
 3106SOL    HW120951   3.738   3.463   5.519 -1.1203 -1.5642  0.7013
 3106SOL    HW220952   3.815   3.475   5.380 -0.7982  2.1751  0.7676
 3107SOL     OW20953   1.177   0.766   9.415  0.0554  0.0061 -0.3334
 3107SOL    HW120954   1.101   0.711   9.398  0.3919 -0.1544 -1.3505
 3107SOL    HW220955   1.210   0.726   9.495  0.6408  0.7818 -0.1803
 3108SOL     OW20956   1.539   4.006   5.614 -0.1576 -0.5020 -0.3635
 3108SOL    HW120957   1.544   4.024   5.708  0.0687  2.0478 -0.8611
 3108SOL    HW220958   1.629   3.976   5.605  0.5063  0.8744  1.6387
 3109SOL     OW20959   3.172   0.642   2.327 -0.0442  0.1743  0.0040
 3109SOL    HW120960   3.210   0.637   2.240 -0.3124 -0.1220 -0.0969
 3109SOL    HW220961   3.104   0.576   2.316 -0.1173  0.4308 -1.0109
 3110SOL     OW20962   2.369   3.992   1.546 -0.4101 -0.0104  0.0160
 3110SOL    HW120963   2.340   4.061   1.606 -0.2783  0.5136 -0.5239
 3110SOL    HW220964   2.411   3.944   1.617 -2.9406  1.8762  2.8182
 3111SOL     OW20965   3.896   3.261   6.900 -0.1197 -0.4298  0.0912
 3111SOL    HW120966   3.872   3.183   6.950 -2.3702  0.8066  0.9138
 3111SOL    HW220967   3.873   3.234   6.811 -1.0787  0.0488  0.1982
 3112SOL     OW20968   3.206   1.563   5.402 -0.0505  0.3841 -0.6143
 3112SOL    HW120969   3.133   1.609   5.360  0.6691  1.7484 -0.3990
 3112SOL    HW220970   3.185   1.583   5.493 -3.0161 -1.9456 -0.7879
 3113SOL     OW20971   2.333   2.265   5.628  0.4007 -0.0176  0.5068
 3113SOL    HW120972   2.367   2.323   5.559 -0.3213  1.6911  1.5704
 3113SOL    HW220973   2.244   2.300   5.630  0.8215  1.0707  0.6595
 3114SOL     OW20974   1.585   2.615   1.951  0.0217  0.2793  0.2502
 3114SOL    HW120975   1.658   2.560   1.924 -0.7281 -0.3706 -0.4330
 3114SOL    HW220976   1.617   2.636   2.039 -1.9982 -1.5821  1.4344
 3115SOL     OW20977   1.402   2.144   7.775  0.2107  0.3909 -0.4657
 3115SOL    HW120978   1.346   2.180   7.707 -0.1201  0.1881 -0.3002
 3115SOL    HW220979   1.483   2.149   7.723  1.2456 -0.2400  1.0917
 3116SOL     OW20980   0.265   2.068   7.337 -0.3425  0.4101  0.3261
 3116SOL    HW120981   0.194   2.115   7.381  0.3013  1.0562  0.6724
 3116SOL    HW220982   0.339   2.095   7.392 -0.3702  1.3463 -0.0929
 3117SOL     OW20983   0.354   3.633  16.577  0.7076  0.4258 -0.7408
 3117SOL    HW120984   0.288   3.564  16.571 -1.0834  2.1750 -1.1445
 3117SOL    HW220985   0.332   3.681  16.497  1.1422 -0.6466 -1.5091
 3118SOL     OW20986   0.488   4.568   5.431 -0.1982  0.0266  0.2173
 3118SOL    HW120987   0.487   4.536   5.341  3.1764  1.8988 -0.5222
 3118SOL    HW220988   0.396   4.559   5.454 -0.0232 -1.3834  0.3831
 3119SOL     OW20989   3.710   0.470   6.705  0.4161  0.0825  0.2324
 3119SOL    HW120990   3.632   0.502   6.662  1.4882  1.0079 -1.0197
 3119SOL    HW220991   3.678   0.430   6.786 -0.7889 -0.0781 -0.3234
 3120SOL     OW20992   1.942   2.530   6.357 -0.7582  0.1102 -0.1729
 3120SOL    HW120993   1.858   2.484   6.359 -0.1721 -1.1082 -3.4774
 3120SOL    HW220994   1.911   2.608   6.403 -0.1595 -1.3449  2.7201
 3121SOL     OW20995   0.367   3.783   8.138 -0.3081  0.7840 -0.1728
 3121SOL    HW120996   0.292   3.735   8.103 -0.8223  1.5765 -0.1568
 3121SOL    HW220997   0.425   3.792   8.062  1.4138  1.2276  1.1900
 3122SOL     OW20998   1.161   2.699   6.910 -0.3262  0.4666 -0.2521
 3122SOL    HW120999   1.250   2.679   6.937  0.0955 -0.2252 -2.1660
 3122SOL    HW221000   1.165   2.679   6.817  1.7131  0.0600 -0.0625
 3123SOL     OW21001   0.077   1.686   0.355 -0.3353  0.1385 -0.1826
 3123SOL    HW121002   0.055   1.777   0.336  1.3337  0.5486 -0.1500
 3123SOL    HW221003   0.047   1.682   0.446  0.3594 -0.7850  0.0120
 3124SOL     OW21004   1.971   0.198  10.757  0.0901  0.2442 -0.2371
 3124SOL    HW121005   1.958   0.290  10.733 -0.3575  0.2919  0.1890
 3124SOL    HW221006   1.893   0.164  10.713  0.6658 -0.6762 -0.5397
 3125SOL     OW21007   0.116   0.438   7.776 -0.2547 -0.2336  0.5060
 3125SOL    HW121008   0.202   0.432   7.818 -0.2326  0.6988  0.5839
 3125SOL    HW221009   0.088   0.347   7.785 -0.4037 -0.0404  2.0828
 3126SOL     OW21010   2.499   4.614   5.382  0.2834 -0.3204  0.2342
 3126SOL    HW121011   2.511   4.635   5.289  1.1330  0.8622  0.6120
 3126SOL    HW221012   2.441   4.684   5.412 -0.1591 -0.2263 -0.8539
 3127SOL     OW21013   2.662   0.199   5.774  0.4796 -0.4222  0.3549
 3127SOL    HW121014   2.747   0.204   5.817  0.3450  4.9786  0.0307
 3127SOL    HW221015   2.663   0.112   5.734  0.8185  0.0590 -0.6855
 3128SOL     OW21016   3.359   2.710  15.972  0.3541  0.1511 -0.0084
 3128SOL    HW121017   3.451   2.684  15.966  0.4933  0.8346 -0.6754
 3128SOL    HW221018   3.329   2.717  15.882  0.7857  0.1952 -0.1506
 3129SOL     OW21019   1.112   2.785   8.947  0.2596 -0.6527 -0.6489
 3129SOL    HW121020   1.060   2.712   8.913 -0.9189  0.4644 -1.2591
 3129SOL    HW221021   1.180   2.735   8.992 -0.0706 -1.0699 -0.6136
 3130SOL     OW21022   3.796   2.295   3.678 -0.2546 -0.0348 -0.4162
 3130SOL    HW121023   3.793   2.365   3.612  1.7264  0.0797 -0.3694
 3130SOL    HW221024   3.856   2.316   3.749 -0.7158  0.7681 -0.2688
 3131SOL     OW21025   2.492   2.942   1.232 -0.4077 -0.1080  0.4373
 3131SOL    HW121026   2.406   2.929   1.191  0.4750  0.3411 -1.5594
 3131SOL    HW221027   2.538   2.860   1.215 -1.1814 -0.8638  1.9706
 3132SOL     OW21028   4.259   0.898   6.163  0.0021 -0.0744 -0.4728
 3132SOL    HW121029   4.331   0.907   6.226  0.5834  0.5062 -1.2178
 3132SOL    HW221030   4.303   0.930   6.084 -1.3983 -1.4221 -1.7857
 3133SOL     OW21031   0.420   2.312   7.271  0.6229 -0.0763  0.3707
 3133SOL    HW121032   0.356   2.360   7.323 -0.2404  0.8533 -1.5164
 3133SOL    HW221033   0.441   2.238   7.328  0.3149 -0.5018 -0.0630
 3134SOL     OW21034   2.912   1.665   4.953 -0.3541  0.4140 -0.2280
 3134SOL    HW121035   2.879   1.695   5.038  1.2632 -2.5674  1.4828
 3134SOL    HW221036   2.972   1.736   4.931 -0.6083  1.5440  2.6683
 3135SOL     OW21037   3.778   0.954   6.350 -0.2922  0.1860 -0.4274
 3135SOL    HW121038   3.777   0.862   6.374 -0.8602  0.1061 -0.7542
 3135SOL    HW221039   3.872   0.969   6.353 -0.4515  1.1344 -0.1140
 3136SOL     OW21040   0.363   0.396   2.499  0.5465  0.4742 -0.1901
 3136SOL    HW121041   0.287   0.399   2.440 -0.2875  0.4326  0.8749
 3136SOL    HW221042   0.421   0.457   2.454  0.3137 -0.5198 -1.8284
 3137SOL     OW21043   4.017   1.680  15.638 -0.6856  0.2007  0.0636
 3137SOL    HW121044   4.080   1.742  15.602  0.8221 -1.3418 -0.0038
 3137SOL    HW221045   4.051   1.591  15.622  0.8371  0.4825  1.6562
 3138SOL     OW21046   1.719   3.968   9.322  0.6840 -0.0355  0.4166
 3138SOL    HW121047   1.702   4.035   9.388  2.5601  2.5580 -1.7450
 3138SOL    HW221048   1.813   3.982   9.308  0.4373 -0.0469 -1.1547
 3139SOL     OW21049   4.070   3.146   6.465 -0.2744  0.6042 -0.2758
 3139SOL    HW121050   4.122   3.199   6.404  1.4819 -1.1949 -0.3440
 3139SOL    HW221051   4.077   3.061   6.421  2.3559  1.1894 -1.0022
 3140SOL     OW21052   3.835   0.149  13.496 -0.0114  0.2517  0.7740
 3140SOL    HW121053   3.755   0.132  13.447  0.2402 -0.1711  0.5146
 3140SOL    HW221054   3.862   0.062  13.524 -0.0390 -0.3870 -1.2142
 3141SOL     OW21055   4.087   3.381  10.018 -0.2374  0.2304 -0.5018
 3141SOL    HW121056   4.163   3.362  10.074  0.2275 -0.3657 -1.3374
 3141SOL    HW221057   4.039   3.299  10.029  1.0838 -0.3824  0.6927
 3142SOL     OW21058   2.404   2.212   2.068  0.6901 -0.6833  0.0244
 3142SOL    HW121059   2.449   2.131   2.094  3.0432  0.1790 -1.3837
 3142SOL    HW221060   2.328   2.187   2.014 -0.0069  3.4933 -0.9036
 3143SOL     OW21061   3.595   2.553   6.133  0.0433 -0.3455 -0.1332
 3143SOL    HW121062   3.634   2.599   6.059  1.6094  1.8491  2.0597
 3143SOL    HW221063   3.675   2.524   6.175 -0.2139 -0.7922  0.0548
 3144SOL     OW21064   0.442   0.213   4.550  0.8526  0.1059 -0.1152
 3144SOL    HW121065   0.460   0.119   4.559 -0.9493 -0.2668 -0.3296
 3144SOL    HW221066   0.448   0.236   4.643  1.5571 -1.3618  0.1971
 3145SOL     OW21067   3.887   4.183   6.036  0.1819 -0.5163  0.1056
 3145SOL    HW121068   3.828   4.115   6.068 -0.8136  0.5644  0.5825
 3145SOL    HW221069   3.822   4.227   5.981  1.4739  1.1810 -0.0665
 3146SOL     OW21070   2.863   1.822  17.122  0.5572  0.5174 -0.0842
 3146SOL    HW121071   2.830   1.837  17.211 -0.4954  2.2225 -0.7634
 3146SOL    HW221072   2.877   1.914  17.099  0.9762  0.4253 -0.1890
 3147SOL     OW21073   2.359   2.781   8.269 -0.3773  0.0481 -0.0457
 3147SOL    HW121074   2.445   2.783   8.227 -0.1035  0.9386  0.5543
 3147SOL    HW221075   2.331   2.872   8.276 -2.7008 -0.5876 -1.3375
 3148SOL     OW21076   2.208   1.286   3.604  0.4042  0.0879 -0.1723
 3148SOL    HW121077   2.145   1.240   3.548  1.0708  1.8265 -2.3825
 3148SOL    HW221078   2.200   1.378   3.578 -1.2693 -0.1067 -0.3521
 3149SOL     OW21079   3.367   2.022  13.180  0.3417 -0.0995  0.1070
 3149SOL    HW121080   3.462   2.017  13.178  0.3979  0.9749  0.2780
 3149SOL    HW221081   3.356   2.114  13.200  0.9629  0.2890 -1.3068
 3150SOL     OW21082   0.894   1.390  12.653 -0.1262  0.3775 -0.3880
 3150SOL    HW121083   0.833   1.456  12.620 -0.9203 -0.1829 -0.0751
 3150SOL    HW221084   0.836   1.356  12.722  1.0447  1.2588  1.0223
 3151SOL     OW21085   4.030   0.389   6.459  0.3857  0.4637  0.7749
 3151SOL    HW121086   4.050   0.348   6.543  1.9776  0.3950  0.3746
 3151SOL    HW221087   4.110   0.442   6.453 -0.2580  1.3294 -0.1982
 3152SOL     OW21088   3.046   1.504  15.107  0.6638 -0.4642  0.0648
 3152SOL    HW121089   3.020   1.449  15.033  1.5709  0.2102 -0.7445
 3152SOL    HW221090   3.135   1.515  15.073  0.4075  0.9790 -0.1185
 3153SOL     OW21091   1.092   1.031   3.469  0.6786  0.0151 -0.0684
 3153SOL    HW121092   1.037   1.051   3.545 -1.5456 -0.0505 -1.6508
 3153SOL    HW221093   1.041   0.958   3.433  4.0538 -0.4996 -3.7464
 3154SOL     OW21094   3.240   1.971   3.690 -0.3267 -0.4011  0.4109
 3154SOL    HW121095   3.167   2.016   3.733 -1.0877  0.1150 -1.4174
 3154SOL    HW221096   3.195   1.894   3.654 -0.4449 -0.4612  0.6841
 3155SOL     OW21097   2.198   0.760   6.001 -0.0649 -0.5549 -0.7450
 3155SOL    HW121098   2.196   0.811   5.920 -3.0382 -0.4497 -0.6155
 3155SOL    HW221099   2.289   0.731   5.992  0.6597  1.1429  1.0855
 3156SOL     OW21100   2.659   2.191   6.708 -0.5000 -0.2462  0.1323
 3156SOL    HW121101   2.669   2.272   6.658 -2.3724 -0.5715 -0.7680
 3156SOL    HW221102   2.655   2.131   6.634  1.6128 -2.7710  2.0393
 3157SOL     OW21103   3.004   4.560  11.114  0.0108  0.5857  0.1633
 3157SOL    HW121104   3.029   4.484  11.061 -1.1384  0.3334 -0.0052
 3157SOL    HW221105   3.011   4.507  11.193  0.7934  1.0315  0.3865
 3158SOL     OW21106   2.978   1.087   1.650  0.1986  0.1136 -0.4567
 3158SOL    HW121107   3.050   1.042   1.695  1.7556  5.0332  1.9570
 3158SOL    HW221108   2.982   1.173   1.691 -3.7896 -0.0629  0.3421
 3159SOL     OW21109   0.555   1.078   6.567 -0.2142 -0.2678 -0.9539
 3159SOL    HW121110   0.603   1.028   6.501  0.4174  0.4502 -1.0332
 3159SOL    HW221111   0.507   1.128   6.502  0.8804 -0.3008 -1.7935
 3160SOL     OW21112   4.186   3.487  13.081 -0.3618  0.6281  0.0073
 3160SOL    HW121113   4.249   3.519  13.017 -0.7093 -0.2869 -0.7944
 3160SOL    HW221114   4.230   3.511  13.163 -0.7179 -0.3926  0.5077
 3161SOL     OW21115   3.444   0.410   3.733  0.0321  0.8750 -0.3029
 3161SOL    HW121116   3.360   0.454   3.743 -0.9067 -1.0971  0.3747
 3161SOL    HW221117   3.423   0.350   3.662  1.9611 -1.5082  1.1274
 3162SOL     OW21118   2.130   1.171   5.547 -0.3905  0.3121 -0.2680
 3162SOL    HW121119   2.108   1.226   5.623  0.9569  1.0928 -0.4442
 3162SOL    HW221120   2.206   1.118   5.571 -0.0966  0.2160 -1.4314
 3163SOL     OW21121   2.168   1.493  15.227 -0.1660 -0.8183 -0.2665
 3163SOL    HW121122   2.150   1.478  15.134  1.8896  1.2820 -0.9958
 3163SOL    HW221123   2.246   1.442  15.251 -1.1697 -1.4671  1.6657
 3164SOL     OW21124   1.970   3.959  17.202 -0.4155  0.7374  0.0299
 3164SOL    HW121125   1.993   3.985  17.113  1.3608 -2.4658 -0.4564
 3164SOL    HW221126   2.049   3.988  17.248  0.6618  0.5233 -1.6891
 3165SOL     OW21127   0.581   1.550   2.263  0.0456  0.1655 -0.2682
 3165SOL    HW121128   0.565   1.501   2.344  1.2643  0.2478  0.0211
 3165SOL    HW221129   0.594   1.481   2.199 -3.2861 -1.9542  1.3886
 3166SOL     OW21130   3.429   3.517  12.432 -0.0881 -0.1594 -0.4352
 3166SOL    HW121131   3.388   3.506  12.346 -0.0298 -1.4485 -0.3031
 3166SOL    HW221132   3.353   3.553  12.477 -0.1394 -0.6482 -0.1263
 3167SOL     OW21133   3.143   1.021   7.824 -0.1360 -0.3321 -0.1196
 3167SOL    HW121134   3.116   1.002   7.914 -2.1811  0.2499 -0.6118
 3167SOL    HW221135   3.132   0.930   7.796  0.4775 -0.7527  1.0189
 3168SOL     OW21136   3.618   4.460   0.241  0.7480 -0.5592 -0.3003
 3168SOL    HW121137   3.616   4.418   0.155 -2.5273 -1.9301  0.4387
 3168SOL    HW221138   3.622   4.387   0.303 -0.6914  0.7083  1.2907
 3169SOL     OW21139   1.867   4.189  15.540 -0.3649 -0.2556  0.1386
 3169SOL    HW121140   1.881   4.128  15.468  0.3575 -1.0210  0.9238
 3169SOL    HW221141   1.942   4.162  15.594  0.0326  1.4568  0.4337
 3170SOL     OW21142   3.570   0.174   8.793 -0.3761  0.1460 -0.3956
 3170SOL    HW121143   3.474   0.170   8.783 -0.6494  3.7615  0.8286
 3170SOL    HW221144   3.581   0.247   8.854 -2.0204 -0.8553  1.1203
 3171SOL     OW21145   2.784   2.023   5.413  0.1857  0.1915  0.2498
 3171SOL    HW121146   2.794   2.040   5.320 -1.0011  0.0239  0.0857
 3171SOL    HW221147   2.850   2.085   5.444  0.4599 -0.6897  1.4381
 3172SOL     OW21148   3.349   3.927   5.621  0.6922 -0.3439  0.5295
 3172SOL    HW121149   3.401   3.888   5.692  1.0417 -0.2927  0.3059
 3172SOL    HW221150   3.290   3.978   5.676 -0.4505 -0.4267 -0.6322
 3173SOL     OW21151   3.508   3.691   4.783  0.1197  0.6600 -0.2731
 3173SOL    HW121152   3.555   3.772   4.761  2.0264 -1.1352 -2.9364
 3173SOL    HW221153   3.421   3.730   4.773  0.5081  2.2739  2.8735
 3174SOL     OW21154   4.578   2.940   8.304 -0.8184 -0.0469 -0.4172
 3174SOL    HW121155   4.627   2.916   8.383 -1.8717 -0.5811  0.0813
 3174SOL    HW221156   4.529   3.020   8.325 -2.6574 -1.3580  0.3070
 3175SOL     OW21157   2.729   4.334  17.293 -0.3570  0.0263 -0.0978
 3175SOL    HW121158   2.776   4.326  17.376 -2.3639 -2.4814  0.8308
 3175SOL    HW221159   2.796   4.301  17.234 -0.0794  0.6919 -0.1552
 3176SOL     OW21160   0.720   2.412   3.446 -0.2564  0.3588 -0.4805
 3176SOL    HW121161   0.722   2.338   3.385 -0.4953  0.0379 -0.0964
 3176SOL    HW221162   0.751   2.482   3.389  1.5738  0.8523  1.1076
 3177SOL     OW21163   1.850   2.792   5.254 -0.4296  0.0115 -0.3268
 3177SOL    HW121164   1.875   2.784   5.346 -0.5907  0.1240 -0.2730
 3177SOL    HW221165   1.759   2.763   5.255  0.0995 -1.6364  0.3922
 3178SOL     OW21166   1.913   2.538   1.089 -0.0238  0.0324 -0.1746
 3178SOL    HW121167   1.879   2.622   1.058  0.0023  0.1386  0.0777
 3178SOL    HW221168   1.862   2.470   1.045  0.4204  0.9396 -2.1055
 3179SOL     OW21169   0.744   2.388   4.575  0.6129  0.2440  0.5660
 3179SOL    HW121170   0.725   2.482   4.583  0.0686  0.0570  1.5144
 3179SOL    HW221171   0.747   2.357   4.665  0.7492  0.5812  0.6767
 3180SOL     OW21172   1.853   0.542  16.276  0.0262  0.4931 -0.1395
 3180SOL    HW121173   1.874   0.449  16.285 -2.8061 -0.3492 -2.3414
 3180SOL    HW221174   1.942   0.577  16.280 -0.3153  1.5216 -1.5514
 3181SOL     OW21175   1.943   3.465   3.173 -0.7237 -0.2001  0.0568
 3181SOL    HW121176   1.877   3.534   3.164 -1.5977 -1.0145  0.2204
 3181SOL    HW221177   2.007   3.504   3.233  2.3920 -0.8313 -2.8529
 3182SOL     OW21178   0.273   1.348   0.342 -0.4305 -0.3500  0.6247
 3182SOL    HW121179   0.337   1.419   0.352 -1.3477  0.4921  0.4970
 3182SOL    HW221180   0.199   1.400   0.312  0.7799  0.7138 -0.5286
 3183SOL     OW21181   1.127   0.180   2.808  0.2137 -0.6144 -0.6285
 3183SOL    HW121182   1.198   0.122   2.837 -0.6965  0.1007  3.0768
 3183SOL    HW221183   1.057   0.155   2.869 -0.6152  0.7893 -1.0211
 3184SOL     OW21184   1.952   0.645  15.759  0.2937 -0.1955 -0.1070
 3184SOL    HW121185   1.895   0.572  15.782 -2.2831  1.9951  0.4849
 3184SOL    HW221186   2.042   0.611  15.760  0.3594  0.0522  1.8617
 3185SOL     OW21187   4.396   1.868   7.837 -0.3070 -0.2715  0.2660
 3185SOL    HW121188   4.416   1.957   7.865 -0.1386 -1.1838  3.0444
 3185SOL    HW221189   4.442   1.860   7.753 -0.4654  2.0470 -0.0365
 3186SOL     OW21190   2.074   4.164   2.020  0.4643 -0.2571 -0.0296
 3186SOL    HW121191   2.002   4.150   1.958  0.8362  0.3442 -0.5968
 3186SOL    HW221192   2.031   4.179   2.104  3.0575  0.0471  1.2533
 3187SOL     OW21193   2.591   1.944   6.953 -0.0665  0.9667  0.3029
 3187SOL    HW121194   2.495   1.943   6.953 -0.0600  0.5967 -0.3770
 3187SOL    HW221195   2.604   2.036   6.976 -1.9387  0.8103  2.0627
 3188SOL     OW21196   2.789   3.567  17.398 -0.1497  0.0060 -0.0027
 3188SOL    HW121197   2.823   3.552  17.310 -2.6127 -0.5018 -0.8632
 3188SOL    HW221198   2.763   3.478  17.424 -0.1667  0.9239  3.1134
 3189SOL     OW21199   2.631   0.596  10.872  0.3260 -0.1570 -0.0585
 3189SOL    HW121200   2.563   0.579  10.808  1.2152 -2.6619 -0.3274
 3189SOL    HW221201   2.571   0.594  10.947 -0.6898 -0.0038 -0.8812
 3190SOL     OW21202   1.358   2.036   4.615 -0.0999 -0.4697  0.0618
 3190SOL    HW121203   1.317   1.992   4.690 -2.3196  0.4771 -0.5984
 3190SOL    HW221204   1.356   2.124   4.651  1.6037 -0.7509  0.8347
 3191SOL     OW21205   1.540   3.396   6.651  0.3924  0.1640 -0.4403
 3191SOL    HW121206   1.620   3.391   6.598  2.0291 -1.6416  2.1925
 3191SOL    HW221207   1.513   3.488   6.641 -0.3568 -0.0293 -0.1603
 3192SOL     OW21208   0.490   2.474  15.730 -0.6917  0.2316  0.5246
 3192SOL    HW121209   0.469   2.381  15.742  1.1524 -0.3583 -0.9382
 3192SOL    HW221210   0.542   2.480  15.651 -1.5900 -0.8953 -0.1443
 3193SOL     OW21211   2.741   1.969  14.863  0.2256  0.8786 -0.0706
 3193SOL    HW121212   2.721   2.017  14.943  0.3086 -1.9928  1.6592
 3193SOL    HW221213   2.781   1.889  14.898 -0.3739  0.9560  0.7840
 3194SOL     OW21214   3.522   2.620   7.741  0.1393  0.0752  0.4928
 3194SOL    HW121215   3.475   2.537   7.749  0.6141 -0.5837 -3.4890
 3194SOL    HW221216   3.466   2.668   7.679  0.4967 -0.1172  0.0205
 3195SOL     OW21217   1.637   1.286  10.849 -0.3206  0.5055 -0.6161
 3195SOL    HW121218   1.571   1.334  10.799 -1.9794 -0.0396  1.0580
 3195SOL    HW221219   1.681   1.235  10.781 -0.2568 -1.4145  0.8474
 3196SOL     OW21220   4.491   1.540   1.937 -0.5408  0.5017 -0.3581
 3196SOL    HW121221   4.565   1.480   1.946 -2.0524 -1.3968 -0.4255
 3196SOL    HW221222   4.505   1.573   2.025 -2.1320 -0.6105  0.3147
 3197SOL     OW21223   2.617   1.447   2.276 -0.1642 -0.0884 -0.6086
 3197SOL    HW121224   2.576   1.378   2.329  0.4066 -0.4309 -0.6247
 3197SOL    HW221225   2.546   1.460   2.213  0.1927 -1.0006 -1.1934
 3198SOL     OW21226   1.683   0.587   8.063 -0.0522 -0.2459 -0.0039
 3198SOL    HW121227   1.654   0.532   8.136 -1.5687  0.9288  0.2958
 3198SOL    HW221228   1.601   0.608   8.018  0.2222  0.7288 -0.0525
 3199SOL     OW21229   2.474   1.355   1.075 -0.1425  0.0213  0.3127
 3199SOL    HW121230   2.393   1.349   1.025 -0.7142  1.4554  1.0596
 3199SOL    HW221231   2.479   1.278   1.131  1.9212  1.2293  1.8117
 3200SOL     OW21232   4.646   1.506   3.681 -0.2414  0.1013 -0.4605
 3200SOL    HW121233   4.664   1.480   3.772  1.7229 -0.1969 -0.9535
 3200SOL    HW221234   4.589   1.582   3.697 -0.7065 -0.6843  1.6617
 3201SOL     OW21235   0.205   1.268   8.280  0.1927  0.7672  0.1543
 3201SOL    HW121236   0.285   1.267   8.332 -0.0305 -2.1498  0.4701
 3201SOL    HW221237   0.167   1.348   8.315  0.9497  0.8469  0.7782
 3202SOL     OW21238   0.643   3.114   5.001  0.0916  0.8028 -0.2937
 3202SOL    HW121239   0.612   3.200   4.975 -2.2568 -0.0570 -0.3865
 3202SOL    HW221240   0.695   3.089   4.924  1.4990  0.2858  0.8142
 3203SOL     OW21241   2.826   4.215   1.372 -0.3164 -0.2025  0.0739
 3203SOL    HW121242   2.740   4.221   1.414  0.0149  0.9481  0.5757
 3203SOL    HW221243   2.855   4.302   1.399 -1.7118 -0.2165  1.6363
 3204SOL     OW21244   1.102   0.456  15.208 -0.5042  0.4138  0.4729
 3204SOL    HW121245   1.092   0.543  15.249  0.9432  1.0602 -0.5326
 3204SOL    HW221246   1.035   0.450  15.140 -0.5653  1.1218  0.4667
 3205SOL     OW21247   3.394   3.256   3.124  0.1284 -0.2993 -0.5474
 3205SOL    HW121248   3.430   3.285   3.040 -1.8692  2.0406 -0.6115
 3205SOL    HW221249   3.304   3.246   3.093 -0.4236 -0.2844  1.0444
 3206SOL     OW21250   0.856   1.504   2.864  0.0425  0.5242  0.2604
 3206SOL    HW121251   0.764   1.520   2.881 -0.2674 -1.4912  0.4587
 3206SOL    HW221252   0.900   1.571   2.915  2.2453 -0.1731 -0.7048
 3207SOL     OW21253   0.949   4.030   4.501 -0.4408 -0.2040 -0.1101
 3207SOL    HW121254   0.988   3.946   4.480  0.2995 -0.1094  0.8629
 3207SOL    HW221255   0.876   4.015   4.561 -0.1109  2.2360  0.9250
 3208SOL     OW21256   1.624   0.071   2.321  1.1270 -0.2276 -0.0861
 3208SOL    HW121257   1.688   0.020   2.271 -0.6421 -0.3725 -2.2101
 3208SOL    HW221258   1.573   0.116   2.254 -0.8310 -1.5995  0.4756
 3209SOL     OW21259   0.920   2.159   5.697 -0.2253 -0.6792  0.1702
 3209SOL    HW121260   0.912   2.180   5.790 -0.7195  0.9239 -0.2234
 3209SOL    HW221261   0.856   2.088   5.689 -2.0033  0.9299 -0.0116
 3210SOL     OW21262   4.379   4.671  11.294  0.0378 -0.1815  0.4636
 3210SOL    HW121263   4.340   4.694  11.379 -0.3264  0.6354  0.0835
 3210SOL    HW221264   4.417   4.585  11.309  3.4565  1.4086  0.8198
 3211SOL     OW21265   3.773   0.632   9.139 -0.3089  0.4497  0.1505
 3211SOL    HW121266   3.784   0.563   9.205 -1.4828 -1.1798 -1.3737
 3211SOL    HW221267   3.724   0.703   9.181  0.0526  2.0808 -2.1991
 3212SOL     OW21268   4.028   4.044  14.839  0.2608  0.1944 -0.4994
 3212SOL    HW121269   4.071   4.130  14.835  0.0182  0.2975 -0.9159
 3212SOL    HW221270   4.067   3.996  14.911 -0.3443  0.1400 -0.2098
 3213SOL     OW21271   1.051   4.450   6.507  0.0128 -0.0040  0.0285
 3213SOL    HW121272   1.101   4.508   6.449  1.0148 -1.8586 -0.9477
 3213SOL    HW221273   1.020   4.509   6.576 -1.8382 -0.4375 -0.4269
 3214SOL     OW21274   2.646   2.426   6.546  0.0869  0.2360  0.3710
 3214SOL    HW121275   2.557   2.425   6.583 -0.3591  0.2505 -0.6926
 3214SOL    HW221276   2.622   2.472   6.465  1.8323  0.7813  0.1757
 3215SOL     OW21277   1.293   1.621  11.541 -0.3528 -0.1981 -0.1000
 3215SOL    HW121278   1.374   1.605  11.591 -0.2474 -0.5323 -0.3832
 3215SOL    HW221279   1.214   1.615  11.595  0.4623  0.9213  1.2346
 3216SOL     OW21280   0.678   3.316   7.689  0.6688 -0.6063 -0.5898
 3216SOL    HW121281   0.584   3.334   7.699  0.3835 -1.5435 -1.5149
 3216SOL    HW221282   0.671   3.224   7.663 -1.3859 -0.6960  0.2458
 3217SOL     OW21283   2.960   1.182   6.486  0.3194  0.1933 -0.0675
 3217SOL    HW121284   2.995   1.094   6.502  1.0461  0.8949  2.0645
 3217SOL    HW221285   3.042   1.229   6.491 -0.1597  1.1746 -1.5092
 3218SOL     OW21286   4.249   0.079   3.152  1.0910  0.0540  0.1209
 3218SOL    HW121287   4.173   0.109   3.102 -0.3000 -0.4626  1.9431
 3218SOL    HW221288   4.263   4.736   3.101  1.1213  0.1698 -0.0534
 3219SOL     OW21289   3.546   4.337   4.524 -0.3494 -0.2824 -0.0619
 3219SOL    HW121290   3.530   4.294   4.608  2.1720  2.8790  2.0780
 3219SOL    HW221291   3.641   4.341   4.538 -0.4324  1.0789  0.1102
 3220SOL     OW21292   2.334   3.465  16.953  0.2428  0.3462 -0.3691
 3220SOL    HW121293   2.273   3.487  17.024 -1.3793  0.7960 -1.8814
 3220SOL    HW221294   2.403   3.526  16.976 -1.2369  0.8786  2.7157
 3221SOL     OW21295   0.497   3.514  12.464  0.4905  0.3196  0.1538
 3221SOL    HW121296   0.465   3.442  12.410 -0.4887 -0.1358  1.3309
 3221SOL    HW221297   0.508   3.586  12.402  0.0232 -1.2991 -1.7856
 3222SOL     OW21298   0.607   2.325   2.785 -0.0558  0.2778  0.4418
 3222SOL    HW121299   0.607   2.353   2.693  1.6983  0.8126  0.6019
 3222SOL    HW221300   0.646   2.238   2.794 -1.9666 -0.5857  0.4607
 3223SOL     OW21301   3.572   1.322   7.600 -0.3342 -0.4940  0.0963
 3223SOL    HW121302   3.566   1.227   7.609 -2.0940 -0.4120 -0.2125
 3223SOL    HW221303   3.483   1.351   7.618  0.2520  1.1697  0.2518
 3224SOL     OW21304   3.987   2.149   0.445  0.4351 -0.1890 -0.5601
 3224SOL    HW121305   3.959   2.240   0.443 -0.1539 -0.4245 -4.0287
 3224SOL    HW221306   3.960   2.125   0.356  1.1573  1.3695 -1.1980
 3225SOL     OW21307   4.285   2.462   4.416 -0.4472  0.4241  0.2896
 3225SOL    HW121308   4.286   2.542   4.365 -0.0213  0.3476  0.1789
 3225SOL    HW221309   4.201   2.475   4.460 -0.5426 -2.3420  0.9649
 3226SOL     OW21310   0.988   1.619   3.330  0.5928  0.4505 -0.2132
 3226SOL    HW121311   1.043   1.633   3.253  1.0843 -0.2536  0.0135
 3226SOL    HW221312   0.949   1.531   3.328 -3.8449  2.4590 -1.6178
 3227SOL     OW21313   2.945   0.584  14.996 -0.4204  0.2878  0.2668
 3227SOL    HW121314   2.898   0.663  15.021 -1.5737 -0.3224  0.0424
 3227SOL    HW221315   2.888   0.517  15.034  1.7598 -0.7182  1.7988
 3228SOL     OW21316   2.119   3.883   7.270 -0.1243 -0.6156  0.4064
 3228SOL    HW121317   2.026   3.890   7.248 -0.5269 -0.0900  2.2797
 3228SOL    HW221318   2.145   3.857   7.182 -3.7732  0.3226 -0.9507
 3229SOL     OW21319   4.502   0.460   7.292  0.0672 -0.1353 -0.4965
 3229SOL    HW121320   4.430   0.460   7.229  1.7334 -1.8154 -2.4121
 3229SOL    HW221321   4.467   0.415   7.369  1.8384 -0.9195 -0.1620
 3230SOL     OW21322   4.478   3.741   3.573 -0.3844  0.0328  0.3062
 3230SOL    HW121323   4.508   3.809   3.633  0.1051 -0.7243  0.9317
 3230SOL    HW221324   4.443   3.782   3.494 -0.6312 -0.8257 -0.0357
 3231SOL     OW21325   4.084   0.904   7.577 -0.0233  0.3999  0.9489
 3231SOL    HW121326   4.120   0.961   7.509 -0.3406  1.8066  1.9641
 3231SOL    HW221327   4.148   0.834   7.590  2.0527  2.4275  1.6417
 3232SOL     OW21328   1.672   1.241   6.077  0.3397  0.0374  0.0765
 3232SOL    HW121329   1.638   1.151   6.073 -1.5327  0.7549 -0.3091
 3232SOL    HW221330   1.747   1.233   6.135  2.5585  2.2215 -2.5200
 3233SOL     OW21331   2.108   3.239   3.259  0.5498  0.6489  0.5187
 3233SOL    HW121332   2.075   3.169   3.316  1.9601  0.1211  0.6933
 3233SOL    HW221333   2.039   3.299   3.231  1.8593  0.6485 -2.7450
 3234SOL     OW21334   2.322   1.241  11.289 -0.2016 -0.3187  0.2280
 3234SOL    HW121335   2.296   1.148  11.282  1.3484 -0.5974 -1.8973
 3234SOL    HW221336   2.354   1.235  11.379 -0.7085 -0.4801  0.4014
 3235SOL     OW21337   3.962   1.628  10.166 -0.5053  0.3334 -0.1341
 3235SOL    HW121338   3.943   1.534  10.164 -2.2270  0.7209 -2.1026
 3235SOL    HW221339   3.957   1.638  10.261  0.5105 -0.6629  0.0267
 3236SOL     OW21340   2.048   0.530   6.070 -0.3152 -0.0701 -0.4353
 3236SOL    HW121341   1.956   0.555   6.061 -0.9373 -2.0590  0.2770
 3236SOL    HW221342   2.091   0.614   6.052  1.6365 -1.1196 -0.7258
 3237SOL     OW21343   0.395   1.325   6.059  0.5787  0.2128  0.5143
 3237SOL    HW121344   0.392   1.239   6.101 -0.1565 -0.4808 -0.9639
 3237SOL    HW221345   0.350   1.381   6.121  0.1419  0.1745  0.2294
 3238SOL     OW21346   4.296   4.330   3.070 -0.1359 -0.1427  0.2062
 3238SOL    HW121347   4.225   4.310   3.132 -1.0167  2.0130 -0.1131
 3238SOL    HW221348   4.274   4.419   3.041 -1.7610 -0.3873  0.6600
 3239SOL     OW21349   3.251   0.397   0.422 -0.7778  0.1860  0.3157
 3239SOL    HW121350   3.227   0.307   0.447 -2.0205  0.4439  0.0820
 3239SOL    HW221351   3.252   0.395   0.327  0.7362 -0.1271  0.3445
 3240SOL     OW21352   4.476   0.442   8.197 -0.1906  0.3464  0.3354
 3240SOL    HW121353   4.432   0.376   8.144  2.1129 -0.2112 -0.8474
 3240SOL    HW221354   4.456   0.522   8.149  1.9785 -1.3170 -3.3162
 3241SOL     OW21355   0.344   3.020   8.542 -0.5152 -0.0704 -0.0348
 3241SOL    HW121356   0.331   3.020   8.637 -3.1490  2.0502 -0.3897
 3241SOL    HW221357   0.278   3.080   8.507 -0.3685  0.9668  1.4735
 3242SOL     OW21358   2.631   3.376  17.574  0.9129  0.1874  0.2592
 3242SOL    HW121359   2.707   3.428  17.601  0.5152 -0.3723  2.4200
 3242SOL    HW221360   2.666   3.288  17.589  0.7122 -0.1729 -1.4306
 3243SOL     OW21361   2.217   0.072   8.334  0.6044 -0.3700 -0.0422
 3243SOL    HW121362   2.158   0.137   8.296  1.3408  1.1363  1.4015
 3243SOL    HW221363   2.273   0.048   8.260  2.3264 -2.7736  2.0187
 3244SOL     OW21364   2.751   1.368  17.744  0.6499 -0.2887  0.3075
 3244SOL    HW121365   2.795   1.316  17.676  0.1140  1.1975 -1.1880
 3244SOL    HW221366   2.821   1.431   0.016 -1.5993  1.3754  3.0047
 3245SOL     OW21367   3.259   4.469   2.402 -0.1096  0.1757 -0.1413
 3245SOL    HW121368   3.169   4.495   2.378 -0.7422 -1.6307  0.2949
 3245SOL    HW221369   3.260   4.487   2.496  0.0668 -1.0875  0.0998
 3246SOL     OW21370   2.507   1.421   9.818 -0.2558 -0.0640 -0.2551
 3246SOL    HW121371   2.582   1.374   9.781 -1.4598 -3.7361  1.9556
 3246SOL    HW221372   2.552   1.496   9.856  3.0131 -2.6814  1.0277
 3247SOL     OW21373   1.817   3.673   8.311  0.0510 -0.3612  0.3439
 3247SOL    HW121374   1.893   3.625   8.343  0.2111  0.8080  1.7364
 3247SOL    HW221375   1.770   3.695   8.392  0.3366  0.2284  0.3519
 3248SOL     OW21376   3.608   2.484   8.060  0.3298  0.4422 -0.3810
 3248SOL    HW121377   3.574   2.402   8.025  1.6308 -1.4182  2.7841
 3248SOL    HW221378   3.664   2.454   8.131 -0.5024 -0.2122 -0.0120
 3249SOL     OW21379   0.049   0.177   7.794  0.1545  0.9101 -0.5265
 3249SOL    HW121380   0.058   0.128   7.876  0.2250 -1.5353 -2.0117
 3249SOL    HW221381   0.101   0.121   7.736  0.7961  0.0190  0.9149
 3250SOL     OW21382   1.741   2.755  10.927  0.0939  0.3576 -0.0356
 3250SOL    HW121383   1.790   2.757  10.845  2.5722 -1.0996  1.4322
 3250SOL    HW221384   1.659   2.791  10.892  0.6686  1.0127 -0.6996
 3251SOL     OW21385   1.765   2.614   4.459  0.3043  0.1040  0.1564
 3251SOL    HW121386   1.860   2.622   4.453  0.0364  2.7109 -0.3673
 3251SOL    HW221387   1.750   2.562   4.380  0.8107 -1.4907  1.1037
 3252SOL     OW21388   2.458   2.725  10.516  0.0284 -0.0350  0.0396
 3252SOL    HW121389   2.447   2.667  10.591 -1.0673 -2.4846 -1.9940
 3252SOL    HW221390   2.410   2.676  10.449  2.5858 -1.1555 -0.9559
 3253SOL     OW21391   3.975   1.961   9.638 -0.0306 -0.1662 -0.0382
 3253SOL    HW121392   4.043   1.916   9.688 -0.4456  1.5384  2.0542
 3253SOL    HW221393   4.029   2.032   9.603  1.1315 -0.8141  0.4149
 3254SOL     OW21394   0.259   3.038   9.149  0.0400  0.3894  0.0544
 3254SOL    HW121395   0.289   3.118   9.193  0.2060  2.0777 -3.1168
 3254SOL    HW221396   0.319   2.967   9.174 -0.7107  0.5338  2.2344
 3255SOL     OW21397   3.673   4.072   2.362 -1.1672  0.5838  0.2203
 3255SOL    HW121398   3.604   4.084   2.296 -0.3109 -1.1122 -0.9617
 3255SOL    HW221399   3.734   4.018   2.312 -0.9663 -0.5809  1.7434
 3256SOL     OW21400   3.080   1.554   2.702 -0.4978  0.5296 -1.0243
 3256SOL    HW121401   3.125   1.557   2.617 -2.6823 -0.0053 -2.2144
 3256SOL    HW221402   3.023   1.631   2.703 -0.7032  0.3817 -1.0732
 3257SOL     OW21403   1.860   2.021   9.733 -0.0777 -0.0637  0.3968
 3257SOL    HW121404   1.773   2.012   9.772 -0.1975 -1.4442 -0.2017
 3257SOL    HW221405   1.912   2.061   9.804  1.0552  1.7019 -1.4314
 3258SOL     OW21406   0.432   0.678   4.563 -0.6571  0.5928 -0.3687
 3258SOL    HW121407   0.427   0.747   4.496 -0.0226 -1.3006 -2.3457
 3258SOL    HW221408   0.519   0.693   4.600 -1.2760  0.8270  0.9891
 3259SOL     OW21409   2.461   4.701   7.322  0.1260 -0.1795  0.1465
 3259SOL    HW121410   2.462   0.044   7.374  0.1069 -0.4022  0.4865
 3259SOL    HW221411   2.367   4.686   7.309 -0.0416  1.9676 -1.0681
 3260SOL     OW21412   2.644   2.296   5.081 -0.5565 -0.3808 -0.2709
 3260SOL    HW121413   2.591   2.264   5.154 -1.2507  0.1173 -0.5541
 3260SOL    HW221414   2.598   2.255   5.007 -1.7155  0.4342  0.0092
 3261SOL     OW21415   2.465   2.479   7.120  0.1361  1.0625 -0.4607
 3261SOL    HW121416   2.445   2.572   7.136 -0.7170  1.8223 -5.8239
 3261SOL    HW221417   2.390   2.455   7.065 -1.3124 -0.3151  2.1070
 3262SOL     OW21418   1.869   0.089  16.852 -0.4635  0.5170 -0.2097
 3262SOL    HW121419   1.877   0.184  16.860 -0.9296  0.5125  0.3069
 3262SOL    HW221420   1.862   0.073  16.758  2.1555  2.3271 -0.7116
 3263SOL     OW21421   3.030   1.278   2.023 -0.0385 -0.0617  0.0625
 3263SOL    HW121422   3.028   1.309   1.933  0.7979 -0.3661 -0.0642
 3263SOL    HW221423   2.940   1.297   2.049  0.4734  1.1056  0.9871
 3264SOL     OW21424   4.199   0.228   3.834 -0.6638  0.3240  0.0487
 3264SOL    HW121425   4.104   0.232   3.821 -0.6273  0.1672 -0.2744
 3264SOL    HW221426   4.236   0.201   3.750  0.5391  1.5341  0.1827
 3265SOL     OW21427   3.218   4.395   3.256  0.6311 -0.0377  0.2444
 3265SOL    HW121428   3.252   4.438   3.334  1.9553 -1.2859  0.3411
 3265SOL    HW221429   3.289   4.331   3.257  0.3843 -0.3385 -0.7642
 3266SOL     OW21430   0.851   3.410   3.346  0.3522  0.1227 -0.2464
 3266SOL    HW121431   0.811   3.493   3.372 -3.5193 -2.2214  1.2463
 3266SOL    HW221432   0.837   3.351   3.420 -1.7125 -3.8190 -3.7350
 3267SOL     OW21433   1.466   2.979   7.300  0.5499  0.8563 -0.2391
 3267SOL    HW121434   1.413   3.056   7.321 -2.0314 -0.7714 -0.7918
 3267SOL    HW221435   1.445   2.907   7.360 -0.0798  1.0677 -0.2039
 3268SOL     OW21436   4.572   0.681  15.178 -0.0596 -0.0357 -0.0968
 3268SOL    HW121437   4.581   0.621  15.103 -0.1364  2.1060 -1.8136
 3268SOL    HW221438   4.658   0.722  15.178 -0.1167  0.0865 -0.4576
 3269SOL     OW21439   0.320   1.669   5.844  1.1334 -0.1771  0.0699
 3269SOL    HW121440   0.276   1.674   5.929 -1.2938  2.6430 -1.3589
 3269SOL    HW221441   0.414   1.667   5.860  1.3630 -0.0664 -1.2659
 3270SOL     OW21442   3.233   0.032   5.624  0.3863  0.1949  0.3045
 3270SOL    HW121443   3.211   0.096   5.557  0.6633 -1.4385 -1.3420
 3270SOL    HW221444   3.162   0.038   5.689 -0.3634  1.3638 -0.6421
 3271SOL     OW21445   0.448   1.990   3.293  0.4233 -0.7377 -0.0296
 3271SOL    HW121446   0.506   1.968   3.365  0.6580 -0.6311 -0.1858
 3271SOL    HW221447   0.361   2.003   3.330  0.9366 -1.4730  1.4487
 3272SOL     OW21448   1.742   0.602  15.215 -0.4338  0.1440  0.3936
 3272SOL    HW121449   1.736   0.552  15.296  0.0460 -0.3269  0.1325
 3272SOL    HW221450   1.666   0.660  15.222  0.3917  1.1411  1.0827
 3273SOL     OW21451   1.465   3.950   7.840  0.1838 -0.0828  0.8197
 3273SOL    HW121452   1.437   3.977   7.752  2.2394  0.1275  0.2251
 3273SOL    HW221453   1.442   3.857   7.843  0.3522 -0.1320  0.6114
 3274SOL     OW21454   1.702   2.426   8.467 -0.2439  0.7768  0.0983
 3274SOL    HW121455   1.694   2.420   8.562 -1.7907  0.8703 -0.0234
 3274SOL    HW221456   1.781   2.376   8.448 -0.6447  0.0211  0.4158
 3275SOL     OW21457   2.084   2.784  15.102 -0.0427  0.6035  0.3221
 3275SOL    HW121458   2.177   2.773  15.083 -0.3554  2.3447 -2.2447
 3275SOL    HW221459   2.076   2.878  15.121  0.1532  0.8469 -0.8158
 3276SOL     OW21460   2.474   0.488   7.272 -0.1207  0.2158 -0.1569
 3276SOL    HW121461   2.546   0.551   7.279 -0.8305  0.5835  3.9203
 3276SOL    HW221462   2.436   0.489   7.360 -1.1784  2.2267 -0.6295
 3277SOL     OW21463   0.018   0.555   8.989 -0.1649  0.3600 -0.2728
 3277SOL    HW121464   4.681   0.569   9.048  0.5615  0.4878  0.5990
 3277SOL    HW221465   0.078   0.525   9.056 -0.8277  1.9696  1.0542
 3278SOL     OW21466   0.286   2.752   9.297  0.3587 -0.0380 -0.1137
 3278SOL    HW121467   0.281   2.739   9.392  1.0289 -1.3234 -0.2526
 3278SOL    HW221468   0.203   2.713   9.270  1.1779 -1.2767 -0.8436
 3279SOL     OW21469   0.796   3.460   8.737 -0.5973  0.9173  0.1269
 3279SOL    HW121470   0.814   3.389   8.798 -0.3275  0.3844 -0.5711
 3279SOL    HW221471   0.802   3.416   8.652 -1.0293  1.1631 -0.0284
 3280SOL     OW21472   0.253   3.187  15.176  0.1742  0.3660  0.4108
 3280SOL    HW121473   0.236   3.140  15.257 -1.9449  0.4961  0.0389
 3280SOL    HW221474   0.348   3.199  15.164  0.1034 -0.7581 -1.4028
 3281SOL     OW21475   2.982   2.748   6.411 -0.3517 -0.4182  0.1204
 3281SOL    HW121476   2.911   2.812   6.422  0.7941  1.3524 -2.5624
 3281SOL    HW221477   3.036   2.809   6.361  1.3789 -0.5502  1.8269
 3282SOL     OW21478   4.001   3.662   7.830 -0.5318  0.0028 -0.5402
 3282SOL    HW121479   4.041   3.740   7.867  0.9415 -0.7357 -0.5805
 3282SOL    HW221480   3.906   3.671   7.842 -0.3987  0.9052 -0.1812
 3283SOL     OW21481   2.786   1.685   2.227  0.0624 -0.4312 -0.5380
 3283SOL    HW121482   2.852   1.656   2.165  0.3491 -0.5114 -0.1971
 3283SOL    HW221483   2.741   1.601   2.232 -2.5818  1.1123  2.3363
 3284SOL     OW21484   1.164   3.705   9.824 -0.2044  0.2068 -0.0374
 3284SOL    HW121485   1.154   3.692   9.730  0.4997  0.0886 -0.1000
 3284SOL    HW221486   1.241   3.649   9.834  0.1999  0.5758 -1.1007
 3285SOL     OW21487   1.375   0.849   4.189  0.3019 -0.0217 -0.8709
 3285SOL    HW121488   1.404   0.903   4.263  5.9458 -0.9054 -2.4762
 3285SOL    HW221489   1.309   0.908   4.153  0.1789 -1.0073 -2.2550
 3286SOL     OW21490   0.429   0.356  17.149  0.3103  0.1413  0.0354
 3286SOL    HW121491   0.496   0.289  17.162  0.5509  0.3575 -0.0653
 3286SOL    HW221492   0.467   0.398  17.071 -1.0344  0.1774 -0.6067
 3287SOL     OW21493   0.895   4.275   8.421  0.0049 -0.6930  0.3172
 3287SOL    HW121494   0.959   4.248   8.486 -1.1506 -0.4902  1.5366
 3287SOL    HW221495   0.892   4.196   8.367 -1.2977 -1.8310  2.0614
 3288SOL     OW21496   2.615   4.161   4.664  0.0752 -0.2259 -0.4346
 3288SOL    HW121497   2.689   4.216   4.639  1.4180 -2.2213 -0.9242
 3288SOL    HW221498   2.566   4.161   4.582 -0.2629  0.4052 -0.2291
 3289SOL     OW21499   2.973   3.193  17.182 -0.4541  0.2953 -0.1182
 3289SOL    HW121500   3.010   3.116  17.225 -0.9746 -0.8939 -1.8107
 3289SOL    HW221501   3.046   3.250  17.158  1.2101 -2.4474 -1.4973
 3290SOL     OW21502   1.987   2.418  15.203 -0.1171  0.6716  0.0874
 3290SOL    HW121503   1.988   2.493  15.144 -2.7157  0.9780  0.4299
 3290SOL    HW221504   2.037   2.436  15.282 -0.3869  0.7975  0.2285
 3291SOL     OW21505   3.850   4.359   2.883 -0.0101  0.1620 -0.1018
 3291SOL    HW121506   3.765   4.378   2.843 -0.1323  1.9229  0.9647
 3291SOL    HW221507   3.902   4.417   2.826  0.9630 -0.6147  0.0033
 3292SOL     OW21508   3.815   2.921  13.189 -0.2314  0.0431 -0.0248
 3292SOL    HW121509   3.857   2.901  13.106  0.5979 -0.8423  0.6057
 3292SOL    HW221510   3.874   2.877  13.250 -2.1373 -0.8401  1.1880
 3293SOL     OW21511   4.684   3.626   5.735 -0.4078  0.7195 -0.4372
 3293SOL    HW121512   4.626   3.685   5.784  0.4651  0.6593  0.6771
 3293SOL    HW221513   0.018   3.602   5.795 -1.3737  0.1219  0.4695
 3294SOL     OW21514   0.122   3.574   2.327  0.3203  0.8412  0.0094
 3294SOL    HW121515   0.057   3.516   2.286 -0.6628  1.1751  1.1120
 3294SOL    HW221516   0.201   3.521   2.343  0.4622  0.3657 -2.2313
 3295SOL     OW21517   1.657   2.418   8.722  0.6409 -0.1630 -0.1128
 3295SOL    HW121518   1.740   2.391   8.761 -0.3712  0.1468  2.2286
 3295SOL    HW221519   1.610   2.454   8.797 -0.0560 -0.8136 -0.2465
 3296SOL     OW21520   1.230   1.230   7.685  0.1969  0.6140  0.8429
 3296SOL    HW121521   1.297   1.205   7.621 -1.3554 -1.5760  0.0781
 3296SOL    HW221522   1.256   1.182   7.763  0.3789 -0.9906 -0.1930
 3297SOL     OW21523   2.875   3.009  13.340  0.0511  0.5580  0.2183
 3297SOL    HW121524   2.922   3.090  13.358 -2.3928  1.9763  0.3095
 3297SOL    HW221525   2.947   2.947  13.344 -0.9407 -0.6880 -0.8973
 3298SOL     OW21526   3.887   1.496   9.537  0.1919  0.1566 -0.0333
 3298SOL    HW121527   3.810   1.523   9.587  0.4844 -0.3627  0.6958
 3298SOL    HW221528   3.908   1.582   9.501 -1.7885  0.0716 -1.4386
 3299SOL     OW21529   0.558   2.341  13.653 -0.0727  0.4204 -0.2087
 3299SOL    HW121530   0.538   2.287  13.576  2.2012 -0.5086 -0.1483
 3299SOL    HW221531   0.592   2.422  13.617  3.2622 -0.6030  0.6714
 3300SOL     OW21532   4.123   0.270   6.213  0.1220  0.1334 -0.3964
 3300SOL    HW121533   4.060   0.329   6.254  0.8742 -0.4018  1.5376
 3300SOL    HW221534   4.179   0.242   6.285  1.0102 -1.3920 -1.6823
 3301SOL     OW21535   0.952   2.785   4.875  0.1001 -0.1652  0.0701
 3301SOL    HW121536   1.032   2.773   4.926  1.2630  1.2481 -1.3967
 3301SOL    HW221537   0.968   2.865   4.823 -0.3407 -0.5885 -0.7270
 3302SOL     OW21538   1.813   4.067   2.106  0.0290  0.0879  0.0731
 3302SOL    HW121539   1.742   4.122   2.141 -0.3147 -0.0760 -0.3629
 3302SOL    HW221540   1.820   4.006   2.181 -0.4154 -0.8955 -0.6842
 3303SOL     OW21541   1.315   1.432   4.952 -0.1222 -0.0181 -0.2172
 3303SOL    HW121542   1.322   1.413   4.858 -1.1065  0.0836 -0.3104
 3303SOL    HW221543   1.403   1.402   4.976 -0.6137 -3.1492 -2.3357
 3304SOL     OW21544   2.904   4.737  14.634  0.2460 -0.4465 -0.3863
 3304SOL    HW121545   2.881   4.644  14.644 -1.7489  0.0179 -0.8306
 3304SOL    HW221546   2.998   4.720  14.643 -0.0386 -1.5764  0.4985
 3305SOL     OW21547   2.868   0.566  10.991  0.1793  0.2735  0.0121
 3305SOL    HW121548   2.857   0.472  10.982  0.4488  0.2265  0.1555
 3305SOL    HW221549   2.795   0.586  10.933 -0.6350  1.2242  1.3661
 3306SOL     OW21550   3.331   2.827   3.571  0.0723  0.3984 -0.1019
 3306SOL    HW121551   3.341   2.879   3.650  0.4544 -1.8566  1.3464
 3306SOL    HW221552   3.337   2.889   3.498  0.2898  0.4368 -0.0527
 3307SOL     OW21553   0.190   3.553   5.527  0.0431  0.2085  0.2885
 3307SOL    HW121554   0.186   3.477   5.469  1.0399  0.2924  0.1139
 3307SOL    HW221555   0.099   3.568   5.554  0.3923 -0.2497  1.7429
 3308SOL     OW21556   1.497   3.384   9.703 -0.2118  0.4106  0.6014
 3308SOL    HW121557   1.425   3.439   9.671 -1.7118 -1.3455  0.9262
 3308SOL    HW221558   1.559   3.397   9.632  0.4686 -1.5389  0.8421
 3309SOL     OW21559   0.337   2.018   6.053 -0.3579  0.0165  0.5824
 3309SOL    HW121560   0.274   2.075   6.097 -0.7524  1.7353 -2.1979
 3309SOL    HW221561   0.280   1.942   6.067 -1.5618  0.9946  1.0438
 3310SOL     OW21562   4.164   1.416  13.575 -0.2566 -0.2142  0.6395
 3310SOL    HW121563   4.252   1.452  13.572 -0.2229 -0.5133 -1.6732
 3310SOL    HW221564   4.184   1.338  13.523 -1.4079 -0.7505  0.9780
 3311SOL     OW21565   2.422   4.160   4.453  0.1178  0.0768 -0.4493
 3311SOL    HW121566   2.355   4.154   4.384 -1.8969 -1.8386  1.6650
 3311SOL    HW221567   2.489   4.206   4.403  1.7647  0.2480  1.9067
 3312SOL     OW21568   0.616   0.665   3.039 -0.1822 -0.3577 -0.6567
 3312SOL    HW121569   0.674   0.741   3.040 -0.1000 -0.5070  2.7991
 3312SOL    HW221570   0.599   0.660   3.133 -0.3694 -0.5519 -0.7007
 3313SOL     OW21571   1.796   2.048  11.406  0.4568  0.2792 -0.8937
 3313SOL    HW121572   1.716   2.002  11.383  0.9436 -1.7294  1.3969
 3313SOL    HW221573   1.744   2.126  11.428  0.8339  1.0209 -2.6689
 3314SOL     OW21574   0.034   1.883  16.524 -0.2285  0.1801  0.1027
 3314SOL    HW121575   4.715   1.953  16.492  0.1804  0.5770  0.2465
 3314SOL    HW221576   0.080   1.923  16.598  0.8472  3.0244 -2.1017
 3315SOL     OW21577   4.542   4.308   7.187  0.2039 -0.1106 -0.0996
 3315SOL    HW121578   4.449   4.289   7.191  0.3142 -0.5492  0.3467
 3315SOL    HW221579   4.561   4.233   7.243 -0.0103 -0.7687 -0.9134
 3316SOL     OW21580   1.326   2.345  15.103  0.2031 -0.0692  0.1827
 3316SOL    HW121581   1.274   2.423  15.125 -0.8610 -0.8084  0.3334
 3316SOL    HW221582   1.252   2.286  15.087  0.5700 -0.1458 -1.1949
 3317SOL     OW21583   1.933   1.395   2.275 -0.5609  0.1920 -0.2541
 3317SOL    HW121584   1.940   1.486   2.246 -1.1561 -0.4729 -2.5146
 3317SOL    HW221585   1.856   1.368   2.225  1.3598 -0.5862 -2.7890
 3318SOL     OW21586   3.030   4.119   8.680 -0.3060  0.2198  0.5934
 3318SOL    HW121587   3.073   4.192   8.725  0.1977  0.5126 -0.3463
 3318SOL    HW221588   3.062   4.136   8.591  2.5779  2.2275  2.0175
 3319SOL     OW21589   4.542   0.311   7.801 -0.3747  0.2213  0.7608
 3319SOL    HW121590   4.633   0.283   7.809 -0.0659  1.4643  1.5845
 3319SOL    HW221591   4.511   0.295   7.890 -2.5322 -2.7944 -0.5292
 3320SOL     OW21592   1.112   0.556   7.452 -0.5729  0.3413  0.1996
 3320SOL    HW121593   1.042   0.497   7.478  0.3445 -0.5907  0.5497
 3320SOL    HW221594   1.071   0.629   7.498 -1.1471  1.0722 -1.4526
 3321SOL     OW21595   0.229   4.101   2.453 -0.0696  0.0660 -0.6881
 3321SOL    HW121596   0.196   4.020   2.415  0.7175 -1.3224  1.6386
 3321SOL    HW221597   0.221   4.156   2.375  2.0728  1.8829  0.3685
 3322SOL     OW21598   3.260   0.861  14.865 -0.3999 -0.0878  0.1403
 3322SOL    HW121599   3.256   0.932  14.800  0.4882 -0.5015 -0.3760
 3322SOL    HW221600   3.347   0.887  14.896 -0.4864 -0.6385  0.8364
 3323SOL     OW21601   3.856   4.187   4.145 -0.1522  0.4786 -0.2379
 3323SOL    HW121602   3.856   4.170   4.239 -1.5564  0.5571 -0.2354
 3323SOL    HW221603   3.913   4.121   4.106 -0.1114  0.4548 -0.1364
 3324SOL     OW21604   3.983   2.543   4.233  1.0485  0.7632 -0.1798
 3324SOL    HW121605   3.889   2.524   4.227  1.6321 -1.4032 -2.1556
 3324SOL    HW221606   3.986   2.572   4.325 -1.7937 -1.0475  0.5090
 3325SOL     OW21607   1.686   4.271  10.590  0.0902 -0.3486 -0.2097
 3325SOL    HW121608   1.639   4.204  10.541 -0.7266 -0.0433  0.1522
 3325SOL    HW221609   1.764   4.230  10.627 -0.7416 -0.5005  1.3550
 3326SOL     OW21610   2.932   1.782   0.617  0.2030  0.0262 -1.0958
 3326SOL    HW121611   2.987   1.856   0.592  1.1843 -0.5190 -0.5664
 3326SOL    HW221612   2.934   1.734   0.535 -5.5909  1.7266 -2.2297
 3327SOL     OW21613   4.684   1.201   1.538  0.4412  0.3434  0.0094
 3327SOL    HW121614   4.679   1.206   1.443 -1.2946  0.4659  0.1201
 3327SOL    HW221615   4.724   1.287   1.551  0.7881  0.5373 -2.3270
 3328SOL     OW21616   0.127   3.857   2.339 -0.3977  0.2584  0.9000
 3328SOL    HW121617   0.139   3.767   2.368 -1.1713 -0.4956 -1.1189
 3328SOL    HW221618   0.146   3.846   2.246  1.5640 -1.0021  1.4497
 3329SOL     OW21619   1.529   0.801   1.846  0.3958  0.3941  0.0866
 3329SOL    HW121620   1.496   0.821   1.934 -2.0890  1.3101 -1.0453
 3329SOL    HW221621   1.624   0.799   1.851  0.4430  1.4662 -0.3878
 3330SOL     OW21622   2.744   2.161   8.079  0.0307 -0.2631 -0.3174
 3330SOL    HW121623   2.705   2.109   8.149 -0.8685 -0.5091 -1.0144
 3330SOL    HW221624   2.799   2.097   8.035  1.1695 -0.7985  1.8658
 3331SOL     OW21625   0.725   4.466   9.986 -0.4057 -0.0963 -0.6465
 3331SOL    HW121626   0.702   4.485   9.895 -5.1210 -0.4301  0.4346
 3331SOL    HW221627   0.716   4.555  10.020 -4.0246 -1.8545  2.9624
 3332SOL     OW21628   1.749   0.454   4.065 -0.4829  0.6307  0.1987
 3332SOL    HW121629   1.835   0.440   4.025 -0.1220  2.2220  0.3889
 3332SOL    HW221630   1.760   0.536   4.114  1.9405  1.5707 -1.9261
 3333SOL     OW21631   0.585   3.708  12.265 -0.2084  0.2378 -0.2429
 3333SOL    HW121632   0.534   3.786  12.288 -0.2926 -0.6546  2.5748
 3333SOL    HW221633   0.539   3.688  12.183  1.3076 -0.2655 -0.9635
 3334SOL     OW21634   3.690   4.580   5.832  0.0131 -0.3997  0.5700
 3334SOL    HW121635   3.605   4.609   5.799 -0.3802 -2.0169  0.1575
 3334SOL    HW221636   3.730   4.666   5.842 -1.3458 -0.0261  2.7374
 3335SOL     OW21637   2.161   3.151  16.836 -0.0270 -0.1273  0.1141
 3335SOL    HW121638   2.094   3.217  16.852 -2.0315 -2.2977  0.6168
 3335SOL    HW221639   2.174   3.171  16.743  2.6095 -1.5899  0.1673
 3336SOL     OW21640   3.254   2.766  16.628 -0.5646 -1.2860  0.3081
 3336SOL    HW121641   3.274   2.682  16.587  1.5726  0.0586 -1.3244
 3336SOL    HW221642   3.160   2.775  16.608 -0.2989 -0.9644 -0.7847
 3337SOL     OW21643   3.560   1.701   8.338 -0.0019  0.4737  0.2167
 3337SOL    HW121644   3.465   1.698   8.347  0.0531 -2.1754 -0.0698
 3337SOL    HW221645   3.592   1.720   8.426 -0.6775 -0.2526  0.6194
 3338SOL     OW21646   1.208   2.633   6.157  0.3073 -0.1283 -0.1423
 3338SOL    HW121647   1.221   2.724   6.131  1.9898 -0.4840 -0.5448
 3338SOL    HW221648   1.194   2.641   6.251  0.6669 -0.0678 -0.0928
 3339SOL     OW21649   2.524   4.357   2.712 -0.4378  0.1914  0.2782
 3339SOL    HW121650   2.568   4.372   2.628  0.5273  1.8331  1.0853
 3339SOL    HW221651   2.481   4.441   2.730 -2.0071 -0.4232 -0.5878
 3340SOL     OW21652   2.564   4.467   0.520 -0.3491 -0.0219  0.1170
 3340SOL    HW121653   2.621   4.487   0.594 -0.9127  0.1628  0.4985
 3340SOL    HW221654   2.633   4.487   0.456 -0.6591  1.4497  0.2323
 3341SOL     OW21655   0.045   2.848   3.428  0.1837  0.2059  0.1242
 3341SOL    HW121656   0.025   2.828   3.519  0.2505  1.3322  0.3876
 3341SOL    HW221657   4.721   2.922   3.422 -0.1105 -0.0038  0.5703
 3342SOL     OW21658   2.986   2.147   2.438  0.2394 -0.6444  0.2175
 3342SOL    HW121659   3.062   2.165   2.381 -1.4461  0.7597 -1.6066
 3342SOL    HW221660   2.947   2.067   2.405  0.4774 -0.0133 -1.5986
 3343SOL     OW21661   2.772   0.420   2.201 -0.2588  0.4790 -0.3128
 3343SOL    HW121662   2.771   0.324   2.207  1.3829  0.5468  1.0773
 3343SOL    HW221663   2.858   0.447   2.234 -0.8591  0.0295  1.6514
 3344SOL     OW21664   0.859   3.910  10.126  0.8370  0.0873 -0.2672
 3344SOL    HW121665   0.953   3.902  10.117  0.9643  1.4052 -0.0834
 3344SOL    HW221666   0.856   3.991  10.177  1.5936 -0.5891  0.8406
 3345SOL     OW21667   3.817   0.670   7.386 -0.1665  0.0607 -0.1799
 3345SOL    HW121668   3.826   0.736   7.317 -0.2112  1.1191  0.8262
 3345SOL    HW221669   3.741   0.702   7.433 -0.9697 -4.0737  1.3720
 3346SOL     OW21670   4.716   3.729   4.571 -0.5223 -1.0404  0.4865
 3346SOL    HW121671   0.005   3.798   4.632 -0.2366 -1.1149  0.4503
 3346SOL    HW221672   4.682   3.779   4.497  0.3398 -2.0068 -0.5711
 3347SOL     OW21673   2.576   3.099  16.307  0.5630  0.1475  0.2822
 3347SOL    HW121674   2.607   3.190  16.311 -1.1669  0.7509  0.2048
 3347SOL    HW221675   2.610   3.063  16.388  2.9576 -3.9641 -2.5442
 3348SOL     OW21676   0.751   1.948   6.831  0.6763 -0.1109  0.5295
 3348SOL    HW121677   0.710   1.982   6.911  1.0064 -1.7448  1.3958
 3348SOL    HW221678   0.676   1.945   6.771  0.3517  1.0989  0.8724
 3349SOL     OW21679   0.994   0.181  11.773  0.4345  0.1105 -0.5067
 3349SOL    HW121680   1.050   0.253  11.743  0.7878  0.3852  0.7778
 3349SOL    HW221681   1.026   0.111  11.717  0.7573  0.0552 -0.2550
 3350SOL     OW21682   1.500   0.598   4.977 -0.7053 -0.0056 -0.3181
 3350SOL    HW121683   1.433   0.657   4.943 -0.5092  1.0748  1.1799
 3350SOL    HW221684   1.455   0.514   4.988 -1.5010  0.4141 -0.3229
 3351SOL     OW21685   2.948   0.592  15.293 -0.0690 -0.1227 -0.1744
 3351SOL    HW121686   2.889   0.523  15.263  0.6795  0.1047 -2.1815
 3351SOL    HW221687   2.949   0.577  15.388 -0.7277  0.5276 -0.0641
 3352SOL     OW21688   0.007   2.072  12.208  0.3474 -0.4060 -0.1342
 3352SOL    HW121689   0.014   2.156  12.162 -0.0792  0.0153  0.5864
 3352SOL    HW221690   4.737   2.017  12.129  0.1322  0.7976 -0.9517
 3353SOL     OW21691   0.849   1.690   6.802  0.3337  0.0555 -0.1706
 3353SOL    HW121692   0.780   1.625   6.793 -0.1991  0.5314  0.4567
 3353SOL    HW221693   0.803   1.773   6.817  2.5848  1.4535 -0.9502
 3354SOL     OW21694   0.266   4.734   5.651  0.2519 -0.1798  0.2156
 3354SOL    HW121695   0.219   4.714   5.732  1.4167 -1.5454  0.5498
 3354SOL    HW221696   0.232   4.666   5.592  0.5346 -1.5608  1.6721
 3355SOL     OW21697   1.514   3.543  12.174 -0.1875 -0.2739  0.2085
 3355SOL    HW121698   1.573   3.471  12.152  0.7546 -0.1593  2.3872
 3355SOL    HW221699   1.572   3.617  12.157  0.5771 -1.1766 -1.0923
 3356SOL     OW21700   4.273   4.699  16.085  0.6985  0.3961 -0.1226
 3356SOL    HW121701   4.209   4.630  16.070  2.1191  0.0877 -4.6187
 3356SOL    HW221702   4.354   4.648  16.089  0.2461 -0.3422 -0.3309
 3357SOL     OW21703   3.115   4.377   6.222  0.3911 -0.2408 -0.2577
 3357SOL    HW121704   3.137   4.469   6.209  0.0053 -0.3528 -1.7754
 3357SOL    HW221705   3.019   4.379   6.226  0.4346  0.7804  0.1850
 3358SOL     OW21706   1.800   0.427   1.736 -0.2163  0.9818 -1.0080
 3358SOL    HW121707   1.760   0.361   1.679 -0.5033 -0.5420  0.9640
 3358SOL    HW221708   1.729   0.490   1.723 -2.5636 -1.8694 -1.9847
 3359SOL     OW21709   2.391   3.084  15.843  0.1441  0.0852  0.0105
 3359SOL    HW121710   2.396   3.081  15.939 -1.3119 -0.5503  0.0614
 3359SOL    HW221711   2.314   3.138  15.826 -1.1275 -1.5414  0.5720
 3360SOL     OW21712   3.174   3.220   7.759 -0.4019  0.3369 -0.2409
 3360SOL    HW121713   3.118   3.169   7.818  0.8331 -2.0093 -1.0679
 3360SOL    HW221714   3.161   3.188   7.670 -2.5477 -1.3158  0.6655
 3361SOL     OW21715   1.542   2.689   5.525  0.2042 -0.1922  0.1852
 3361SOL    HW121716   1.575   2.607   5.562 -1.6476 -1.1546 -0.3571
 3361SOL    HW221717   1.483   2.722   5.593  0.8019 -0.2228  0.7284
 3362SOL     OW21718   4.576   0.418   5.063  0.5175 -0.4418 -0.0269
 3362SOL    HW121719   4.658   0.389   5.025 -0.4706 -4.4183  0.8090
 3362SOL    HW221720   4.583   0.513   5.063  0.0662 -0.4035 -0.5455
 3363SOL     OW21721   2.545   2.527   6.320 -0.0115 -0.3933 -0.4518
 3363SOL    HW121722   2.626   2.536   6.270  0.7370 -0.8712  0.6692
 3363SOL    HW221723   2.486   2.503   6.249 -0.0082 -1.0836 -0.2264
 3364SOL     OW21724   2.849   1.350   9.266  0.1760  0.2008 -0.4419
 3364SOL    HW121725   2.860   1.354   9.361 -1.1919  0.6452 -0.3011
 3364SOL    HW221726   2.913   1.284   9.240 -0.0288  0.3226 -1.2563
 3365SOL     OW21727   1.228   1.620   8.487  0.0482 -0.3610  0.3387
 3365SOL    HW121728   1.254   1.694   8.432 -0.1795 -0.2091  0.4320
 3365SOL    HW221729   1.246   1.665   8.570  2.6254  1.6707 -1.3179
 3366SOL     OW21730   0.573   1.638   6.965  0.7086 -0.0093  0.3703
 3366SOL    HW121731   0.558   1.666   6.875  0.3197 -3.1172 -0.5123
 3366SOL    HW221732   0.500   1.668   7.020  0.6168  1.8168 -0.7455
 3367SOL     OW21733   4.283   0.734   7.637  0.8558  0.0789 -0.2963
 3367SOL    HW121734   4.328   0.767   7.715 -1.1798 -0.9586  1.2866
 3367SOL    HW221735   4.354   0.735   7.572 -0.4711 -2.8704 -1.7790
 3368SOL     OW21736   2.378   0.056   2.130 -0.6078  0.1356 -0.1767
 3368SOL    HW121737   2.410   0.087   2.215  0.1308 -1.1410  0.0145
 3368SOL    HW221738   2.458   0.024   2.088  0.4025  1.2886  0.8754
 3369SOL     OW21739   1.875   2.405  13.331  0.4345 -0.0954 -0.5352
 3369SOL    HW121740   1.873   2.328  13.388  1.2209  0.0642 -0.2943
 3369SOL    HW221741   1.961   2.400  13.289 -0.0424  1.6862 -1.7182
 3370SOL     OW21742   4.003   0.288   3.036  0.0233 -0.3376  0.2013
 3370SOL    HW121743   4.048   0.314   3.116  2.2262 -4.1223  0.2091
 3370SOL    HW221744   3.958   0.365   3.001  2.9788  0.7156 -1.2920
 3371SOL     OW21745   1.736   2.186   5.194 -0.6493 -0.1830  0.1941
 3371SOL    HW121746   1.773   2.205   5.108 -1.0597  0.0216  0.0602
 3371SOL    HW221747   1.721   2.091   5.198 -0.5477 -0.1742  0.6923
 3372SOL     OW21748   0.465   3.716   8.428  0.4211  0.4368 -0.0208
 3372SOL    HW121749   0.515   3.638   8.404 -2.6118 -1.8523  1.1124
 3372SOL    HW221750   0.525   3.785   8.398  0.4739 -0.3414 -1.6409
 3373SOL     OW21751   3.109   4.119   5.087  0.5960  0.0623 -0.0418
 3373SOL    HW121752   3.050   4.169   5.031  1.8556  1.5878 -0.0002
 3373SOL    HW221753   3.117   4.187   5.155 -1.1949  0.2554 -0.0348
 3374SOL     OW21754   4.154   1.028   7.961 -0.4614  0.1108  0.1051
 3374SOL    HW121755   4.208   1.083   7.905 -0.6815 -0.6053 -0.8134
 3374SOL    HW221756   4.094   1.095   7.995  0.2082  0.7697 -0.0032
 3375SOL     OW21757   0.576   3.701   5.682 -0.3796  0.4525 -0.2912
 3375SOL    HW121758   0.630   3.779   5.693  0.7784 -0.5249  1.0869
 3375SOL    HW221759   0.647   3.641   5.657 -0.4413 -0.8043  2.5158
 3376SOL     OW21760   1.072   1.928   8.241  0.2266 -0.8252 -0.3290
 3376SOL    HW121761   1.062   1.991   8.170  2.3774  3.7741  3.4708
 3376SOL    HW221762   1.017   1.855   8.212 -1.3655  0.0796  0.4264
 3377SOL     OW21763   0.476   4.693   7.887  0.4298 -0.5928 -0.1762
 3377SOL    HW121764   0.458   0.006   7.967 -0.8298 -0.3628 -0.6104
 3377SOL    HW221765   0.516   4.614   7.924  2.2099 -0.0903 -1.0620
 3378SOL     OW21766   4.202   3.025   8.888  0.3921 -0.5313 -0.0297
 3378SOL    HW121767   4.121   3.008   8.935 -1.6146  2.2148 -2.4033
 3378SOL    HW221768   4.183   2.976   8.808  2.2892  0.3482 -1.0267
 3379SOL     OW21769   1.010   0.336   5.008  0.1158  0.0414 -0.2282
 3379SOL    HW121770   1.091   0.351   4.959 -0.1493 -1.9381 -1.2735
 3379SOL    HW221771   0.948   0.334   4.936  0.3886 -0.7874 -0.4479
 3380SOL     OW21772   0.873   4.362   7.554  0.4296 -0.2886  0.2479
 3380SOL    HW121773   0.849   4.299   7.622 -0.6724  0.8309  0.9181
 3380SOL    HW221774   0.967   4.348   7.552  0.0480 -2.5445 -1.6253
 3381SOL     OW21775   1.266   3.810   9.351  0.2045  0.5548 -0.0524
 3381SOL    HW121776   1.310   3.751   9.291  2.4013  2.3474 -0.1794
 3381SOL    HW221777   1.318   3.887   9.329 -0.0630  1.0177  0.9077
 3382SOL     OW21778   4.035   3.339   2.825 -0.3160 -0.4031  0.2754
 3382SOL    HW121779   4.055   3.257   2.779  0.8041  0.4751 -0.8032
 3382SOL    HW221780   4.010   3.294   2.906 -2.6404 -1.5600 -1.0743
 3383SOL     OW21781   0.008   4.227  10.595 -0.0745 -0.2807 -0.1360
 3383SOL    HW121782   0.086   4.195  10.642 -1.8492 -1.9755  1.6809
 3383SOL    HW221783   4.675   4.214  10.659  0.6546  1.3269  0.9909
 3384SOL     OW21784   1.502   3.541   4.630  0.0210 -0.4394  0.8010
 3384SOL    HW121785   1.575   3.583   4.674  0.2528 -0.9553  0.9124
 3384SOL    HW221786   1.544   3.501   4.554  0.4103 -0.2520  0.9198
 3385SOL     OW21787   3.015   0.382  16.266  0.2616  0.4162 -0.7414
 3385SOL    HW121788   3.081   0.348  16.326  0.2909  2.2215  0.2416
 3385SOL    HW221789   2.930   0.357  16.303 -0.2752  0.4097 -1.9912
 3386SOL     OW21790   0.544   4.238  11.695 -0.1646 -0.7252 -0.3553
 3386SOL    HW121791   0.592   4.182  11.635  0.6023 -0.6278  0.1600
 3386SOL    HW221792   0.575   4.324  11.667 -3.4757  0.8780  0.8924
 3387SOL     OW21793   3.373   0.819   0.559 -0.1771  0.5848  0.0197
 3387SOL    HW121794   3.311   0.877   0.513 -0.4905 -0.5079 -0.9309
 3387SOL    HW221795   3.450   0.828   0.503 -1.0211  2.4395 -0.8298
 3388SOL     OW21796   3.822   4.569   1.630  0.3532  0.0008 -0.3119
 3388SOL    HW121797   3.862   4.501   1.684  0.5535  0.6501  0.3637
 3388SOL    HW221798   3.878   4.565   1.552  0.6780  0.6955 -0.1144
 3389SOL     OW21799   2.289   1.900  14.984 -0.3619 -0.7692 -0.2585
 3389SOL    HW121800   2.230   1.850  14.927  0.4742 -1.4267 -0.5340
 3389SOL    HW221801   2.299   1.838  15.056 -0.9281 -0.1146  0.4016
 3390SOL     OW21802   4.182   3.691   3.343 -0.4458  0.4317  0.7549
 3390SOL    HW121803   4.209   3.616   3.291  1.8209  0.5424  1.7498
 3390SOL    HW221804   4.264   3.741   3.349  1.1409 -2.2628  1.3227
 3391SOL     OW21805   2.223   1.965   6.365 -0.0694 -0.1083  0.6083
 3391SOL    HW121806   2.181   1.943   6.448 -1.5971  1.9231  0.3650
 3391SOL    HW221807   2.238   1.876   6.333  1.6001  0.4378 -0.1154
 3392SOL     OW21808   0.835   3.393   7.900  0.0479  0.3512 -0.0518
 3392SOL    HW121809   0.776   3.362   7.831  0.5347  1.1632 -0.8213
 3392SOL    HW221810   0.926   3.367   7.885  0.9364  2.2736  2.0866
 3393SOL     OW21811   3.638   3.752   1.478 -0.1901 -0.0395 -0.9830
 3393SOL    HW121812   3.592   3.759   1.394 -0.9994  1.8931 -0.3771
 3393SOL    HW221813   3.727   3.734   1.448 -0.5204  1.0082 -2.5706
 3394SOL     OW21814   3.524   2.605  16.248  0.3992 -0.3461  0.3481
 3394SOL    HW121815   3.595   2.607  16.185  0.2729  0.7213  0.2373
 3394SOL    HW221816   3.484   2.524  16.216 -0.1664  0.2164 -0.3460
 3395SOL     OW21817   2.671   2.521   9.727 -0.1147  0.1139  0.0095
 3395SOL    HW121818   2.684   2.482   9.814  0.2688  0.7659  0.2455
 3395SOL    HW221819   2.631   2.603   9.756  0.0348  0.3833 -0.5420
 3396SOL     OW21820   2.872   1.399  12.013 -0.1277 -0.0050  0.0830
 3396SOL    HW121821   2.963   1.427  12.007 -0.0356  0.0623  1.6775
 3396SOL    HW221822   2.861   1.308  11.985 -0.2186  1.1050 -3.4247
 3397SOL     OW21823   1.128   1.464  12.121 -0.4213  0.1743  0.1605
 3397SOL    HW121824   1.210   1.467  12.072 -0.6767 -1.5637 -0.3866
 3397SOL    HW221825   1.083   1.530  12.070 -0.9949 -0.6156 -0.3493
 3398SOL     OW21826   4.239   2.193   6.588  0.1976  0.0937 -0.2812
 3398SOL    HW121827   4.161   2.249   6.587  1.1552  1.3955 -1.7047
 3398SOL    HW221828   4.296   2.257   6.631  2.5164 -1.8265 -0.5216
 3399SOL     OW21829   3.356   1.259   1.642  0.6061  0.4978  0.6365
 3399SOL    HW121830   3.436   1.215   1.614  0.8731  0.6286  1.2085
 3399SOL    HW221831   3.387   1.338   1.597 -1.6635  0.1498 -1.5379
 3400SOL     OW21832   1.916   4.705   9.983  0.5999  0.2061 -0.1125
 3400SOL    HW121833   1.875   4.619   9.986  0.0553  0.5843  3.4263
 3400SOL    HW221834   1.954   4.695   9.896  1.4833 -2.2846  0.5756
 3401SOL     OW21835   1.921   4.384  13.217 -0.4532  0.1349  0.2346
 3401SOL    HW121836   2.012   4.412  13.219 -0.1636 -0.5325 -3.8515
 3401SOL    HW221837   1.935   4.301  13.262 -2.4313  0.7681  2.0060
 3402SOL     OW21838   1.254   4.132   3.714  0.1058  0.2817  0.0631
 3402SOL    HW121839   1.163   4.145   3.743 -0.9360 -4.0995 -1.2230
 3402SOL    HW221840   1.313   4.162   3.783 -0.3563  3.2795 -0.8537
 3403SOL     OW21841   2.949   2.657   8.536  0.3664  0.1448  0.1191
 3403SOL    HW121842   2.978   2.653   8.445 -1.4746  0.4068 -0.4780
 3403SOL    HW221843   2.860   2.692   8.528 -0.3131 -1.4694  0.6485
 3404SOL     OW21844   2.494   2.155   4.064  0.2846  0.5441  0.3314
 3404SOL    HW121845   2.550   2.232   4.072 -0.2582  0.8080  1.6024
 3404SOL    HW221846   2.419   2.190   4.112 -1.3889  0.1023 -1.9550
 3405SOL     OW21847   3.962   4.263   5.363  0.1930 -0.0012  0.4545
 3405SOL    HW121848   3.889   4.321   5.339  1.7998  0.3129 -3.6867
 3405SOL    HW221849   4.025   4.333   5.377 -0.0057  0.4974 -1.1310
 3406SOL     OW21850   3.669   0.588  15.102 -0.5011  0.4768  0.5870
 3406SOL    HW121851   3.575   0.595  15.083  0.0541  0.5963 -2.1326
 3406SOL    HW221852   3.681   0.632  15.186 -1.4138  0.5165  0.6992
 3407SOL     OW21853   1.516   1.316   7.818 -0.0599 -0.1310 -0.0050
 3407SOL    HW121854   1.566   1.348   7.743 -0.9691  0.7788 -0.2290
 3407SOL    HW221855   1.584   1.310   7.885  2.9403 -0.5207 -3.0944
 3408SOL     OW21856   1.002   2.909  10.194  0.3272 -0.5908 -0.2677
 3408SOL    HW121857   0.926   2.953  10.156  0.6103 -1.4598 -1.8104
 3408SOL    HW221858   1.015   2.828  10.146  0.4336 -1.8771  1.9417
 3409SOL     OW21859   0.949   1.664   4.289  0.0307 -0.6510 -0.1080
 3409SOL    HW121860   0.892   1.741   4.298 -0.3837 -1.0695  0.9587
 3409SOL    HW221861   1.031   1.713   4.287  0.4651 -1.4015 -0.3912
 3410SOL     OW21862   4.223   3.381  13.601  0.0897 -0.0833 -0.3831
 3410SOL    HW121863   4.249   3.430  13.679  4.0757 -0.4768 -1.5125
 3410SOL    HW221864   4.144   3.432  13.579 -1.0672 -0.6605  2.4977
 3411SOL     OW21865   1.144   3.860   2.271 -0.4654 -0.4493 -0.3820
 3411SOL    HW121866   1.118   3.880   2.181  0.6256 -0.1540 -0.6332
 3411SOL    HW221867   1.236   3.845   2.250 -0.8348 -0.9100 -1.6504
 3412SOL     OW21868   2.202   3.408   4.417  0.3290 -0.2395  0.1677
 3412SOL    HW121869   2.264   3.454   4.361 -2.1362  2.0525 -0.7152
 3412SOL    HW221870   2.203   3.326   4.368  2.3976 -0.9872  1.4793
 3413SOL     OW21871   1.925   1.398   6.828 -0.2716 -0.1384 -0.5219
 3413SOL    HW121872   1.867   1.343   6.881 -0.1599 -1.6484 -1.9797
 3413SOL    HW221873   1.934   1.359   6.742 -1.7350  0.1450 -0.8160
 3414SOL     OW21874   0.506   0.083   3.335  0.5304  0.1499 -0.0621
 3414SOL    HW121875   0.437   0.122   3.281  1.8941  2.4473 -0.1432
 3414SOL    HW221876   0.541   0.011   3.282  0.1618 -0.6736  0.8194
 3415SOL     OW21877   2.059   4.010   1.702 -0.4492  0.3980  0.5522
 3415SOL    HW121878   1.964   4.014   1.714 -0.0765 -1.4814  4.1707
 3415SOL    HW221879   2.051   3.988   1.609  1.5704 -2.2596  1.0181
 3416SOL     OW21880   1.420   1.336   3.182  0.1305  0.5053 -0.4127
 3416SOL    HW121881   1.386   1.259   3.228  1.4245  0.6907  0.8863
 3416SOL    HW221882   1.429   1.302   3.093 -0.4575 -1.2578  0.1870
 3417SOL     OW21883   2.229   1.036  12.650  0.5682 -0.1143 -0.7334
 3417SOL    HW121884   2.291   0.991  12.592  0.5724  0.6938 -1.3588
 3417SOL    HW221885   2.281   1.042  12.731 -0.2552  0.3119 -0.2318
 3418SOL     OW21886   1.483   1.604   9.296 -0.5828 -0.1365  0.2965
 3418SOL    HW121887   1.526   1.676   9.251  0.4596 -1.0348 -0.1498
 3418SOL    HW221888   1.398   1.637   9.325 -2.2120 -3.3255 -0.8019
 3419SOL     OW21889   4.213   4.557   7.320  0.1547 -0.0063 -0.1603
 3419SOL    HW121890   4.176   4.470   7.301 -0.7040  0.3206 -0.0149
 3419SOL    HW221891   4.249   4.537   7.407  0.9223  0.1888 -0.4345
 3420SOL     OW21892   3.720   2.055  17.268  0.1461 -0.5915  0.3772
 3420SOL    HW121893   3.801   2.019  17.305  0.6717 -1.2041 -1.3307
 3420SOL    HW221894   3.734   2.149  17.259  0.4788 -0.7729 -1.0062
 3421SOL     OW21895   4.713   1.059   4.054 -0.1954 -0.3938 -0.3092
 3421SOL    HW121896   4.656   1.127   4.019  1.3196  1.3315  0.6215
 3421SOL    HW221897   0.057   1.078   4.008  0.4714  0.9357  1.4098
 3422SOL     OW21898   0.452   0.830   5.210 -0.4102  0.5211  0.1694
 3422SOL    HW121899   0.473   0.749   5.257 -0.6930  1.1899  1.4415
 3422SOL    HW221900   0.507   0.885   5.265 -0.7172  0.5943  0.3978
 3423SOL     OW21901   0.279   1.639   6.452 -0.1322  0.4222  0.0115
 3423SOL    HW121902   0.273   1.607   6.542  0.6091  0.2818  0.0113
 3423SOL    HW221903   0.364   1.682   6.449 -0.1325  0.3764 -0.6808
 3424SOL     OW21904   1.728   0.425   2.355  0.2732  0.0422 -0.2201
 3424SOL    HW121905   1.709   0.385   2.440  2.2602  0.2522  0.3072
 3424SOL    HW221906   1.791   0.360   2.323  1.6616  0.5916  1.4489
 3425SOL     OW21907   1.652   2.438   8.183  0.5240 -0.4882  0.0056
 3425SOL    HW121908   1.646   2.443   8.279 -0.0333  2.1240 -0.1662
 3425SOL    HW221909   1.744   2.460   8.172  0.4694  0.0856  0.6263
 3426SOL     OW21910   3.559   3.215  12.324 -0.4220  0.1348  0.6929
 3426SOL    HW121911   3.512   3.247  12.402 -1.7357 -0.0616 -0.0066
 3426SOL    HW221912   3.626   3.283  12.324 -0.3662  0.0799  0.8037
 3427SOL     OW21913   3.538   0.623  12.109  0.5335  0.3955  0.0574
 3427SOL    HW121914   3.605   0.689  12.128  1.3888 -0.8544  1.4814
 3427SOL    HW221915   3.583   0.557  12.056 -1.1548 -0.1900 -0.6361
 3428SOL     OW21916   1.477   3.246   2.515 -0.3427  0.6354  0.3442
 3428SOL    HW121917   1.571   3.234   2.531 -0.3949  0.2943  0.3855
 3428SOL    HW221918   1.431   3.249   2.599 -1.1222  1.4262 -0.1137
 3429SOL     OW21919   3.152   0.339   3.504 -0.2778  0.3824  0.3279
 3429SOL    HW121920   3.109   0.313   3.586 -0.3993 -0.5975 -0.0482
 3429SOL    HW221921   3.220   0.272   3.498 -2.5920 -1.8192 -1.1877
 3430SOL     OW21922   0.990   2.541   2.571  0.2987 -0.3770  0.6444
 3430SOL    HW121923   0.992   2.590   2.488 -0.1725 -1.6700 -0.1291
 3430SOL    HW221924   1.078   2.558   2.605  0.3320  1.9931 -0.5612
 3431SOL     OW21925   0.746   0.645   7.855  0.2187 -0.2441 -0.6567
 3431SOL    HW121926   0.667   0.655   7.803  0.8436 -2.4663 -2.0711
 3431SOL    HW221927   0.742   0.555   7.888 -2.0396 -0.1224 -0.6018
 3432SOL     OW21928   1.526   0.295   2.830 -0.0136 -0.2198 -0.5660
 3432SOL    HW121929   1.457   0.306   2.896  1.3556  0.8337  0.7055
 3432SOL    HW221930   1.478   0.244   2.765  2.2708 -1.4229 -1.3019
 3433SOL     OW21931   0.400   0.230   9.678 -0.1467 -0.0393 -0.1851
 3433SOL    HW121932   0.471   0.273   9.630 -0.7759 -1.2453 -2.2056
 3433SOL    HW221933   0.442   0.147   9.701 -0.4565  0.2356  1.3336
 3434SOL     OW21934   2.961   2.569   5.221 -0.5097  0.0429  0.1623
 3434SOL    HW121935   2.994   2.479   5.212  1.0317  0.6401 -0.2749
 3434SOL    HW221936   2.906   2.588   5.145  0.2575  1.5033 -0.0230
 3435SOL     OW21937   0.964   2.414   0.211 -0.0937  0.1749 -0.5519
 3435SOL    HW121938   0.991   2.386   0.298  0.3641  0.1980 -0.6827
 3435SOL    HW221939   0.959   2.334   0.159  1.0483 -0.3307  0.1050
 3436SOL     OW21940   2.698   2.080   5.791 -0.2943 -0.1796  0.1471
 3436SOL    HW121941   2.731   2.130   5.716  2.1171 -0.7307  0.8296
 3436SOL    HW221942   2.605   2.081   5.770 -0.0178  0.3250 -1.0976
 3437SOL     OW21943   0.865   0.501   2.536  0.0265  0.2310  0.1244
 3437SOL    HW121944   0.882   0.564   2.606  1.1534  0.4933 -0.3945
 3437SOL    HW221945   0.953   0.466   2.528  0.4527  0.9004  1.9473
 3438SOL     OW21946   3.026   0.308   5.595 -0.5337 -1.0464 -0.2246
 3438SOL    HW121947   2.996   0.370   5.661  1.2475 -0.3665 -0.0624
 3438SOL    HW221948   3.113   0.343   5.574 -1.3681  1.7153  0.9272
 3439SOL     OW21949   3.942   1.940   4.766  0.2630  0.4040 -0.0793
 3439SOL    HW121950   3.945   1.900   4.853 -1.0677  1.2203  0.3397
 3439SOL    HW221951   3.848   1.958   4.764  0.2551  0.2251 -1.0888
 3440SOL     OW21952   1.628   0.341   7.846  0.1082 -0.7906 -0.6598
 3440SOL    HW121953   1.711   0.350   7.894  0.1830 -1.8089 -0.6073
 3440SOL    HW221954   1.662   0.340   7.756 -0.2663 -1.3293 -0.7951
 3441SOL     OW21955   3.126   0.631  10.928 -0.0174  0.0124  0.0329
 3441SOL    HW121956   3.035   0.619  10.954 -0.4590 -0.7332 -1.8526
 3441SOL    HW221957   3.132   0.584  10.844 -0.6725 -0.5735  0.3126
 3442SOL     OW21958   4.726   1.527  14.748  0.0562  0.6044 -0.2975
 3442SOL    HW121959   4.671   1.568  14.815  1.2926 -1.1966  1.8336
 3442SOL    HW221960   0.003   1.602  14.690 -0.3179 -0.5806 -1.9166
 3443SOL     OW21961   4.126   2.015   3.714  0.3212 -0.0512  0.1956
 3443SOL    HW121962   4.129   2.063   3.631  1.6594 -0.5969 -0.0697
 3443SOL    HW221963   4.220   2.019   3.732 -0.0107 -0.0953  1.8760
 3444SOL     OW21964   3.558   0.267   3.265  0.0153 -0.0383 -0.0280
 3444SOL    HW121965   3.474   0.225   3.282 -0.3041  1.6996  2.6917
 3444SOL    HW221966   3.606   0.199   3.218 -0.4792 -0.9545  0.7800
 3445SOL     OW21967   0.254   0.548   8.466  0.3522 -0.0100  0.1836
 3445SOL    HW121968   0.159   0.548   8.467  0.3556  2.4580  0.4728
 3445SOL    HW221969   0.275   0.633   8.426 -1.4078 -0.2364 -1.2051
 3446SOL     OW21970   3.327   0.124   4.211 -0.0984 -0.0292  0.5915
 3446SOL    HW121971   3.412   0.094   4.244  0.8564  0.2655 -1.6137
 3446SOL    HW221972   3.347   0.116   4.118  1.2039 -4.1785  1.2026
 3447SOL     OW21973   3.528   0.007   9.577  0.4193  0.0361  0.1421
 3447SOL    HW121974   3.439   0.043   9.573 -0.0269 -1.0455  0.3382
 3447SOL    HW221975   3.528   4.701   9.662  1.1051  0.3823  0.3217
 3448SOL     OW21976   3.374   1.194  15.849 -0.2557  0.0164  0.2582
 3448SOL    HW121977   3.463   1.226  15.860 -0.1894 -0.2493  0.4748
 3448SOL    HW221978   3.344   1.237  15.769 -1.1200 -1.4951 -0.2338
 3449SOL     OW21979   2.490   4.132  10.343  0.9055 -0.0026  0.8312
 3449SOL    HW121980   2.585   4.122  10.346  1.0433  1.2690  0.9395
 3449SOL    HW221981   2.477   4.223  10.372 -1.4092 -0.4429  1.1731
 3450SOL     OW21982   4.701   3.673   9.203  0.4437  0.1966 -0.1233
 3450SOL    HW121983   4.662   3.607   9.260  4.0088 -0.0667  2.0490
 3450SOL    HW221984   0.002   3.602   9.150  1.9286 -0.6030  2.0071
 3451SOL     OW21985   0.361   2.686  17.725  0.1218  0.0228 -0.8421
 3451SOL    HW121986   0.337   2.624  17.656 -1.3312 -1.2137  0.7716
 3451SOL    HW221987   0.279   2.736  17.732 -0.8929 -1.5772 -1.2460
 3452SOL     OW21988   3.059   2.819   3.626 -0.6310  0.0688  0.1302
 3452SOL    HW121989   3.153   2.819   3.613 -0.4375  0.7154  1.5650
 3452SOL    HW221990   3.035   2.907   3.656 -2.0842 -0.1295 -0.4240
 3453SOL     OW21991   0.368   3.272  10.959  0.3937  0.4069 -0.2933
 3453SOL    HW121992   0.336   3.190  10.919  0.1918 -0.0993  0.9033
 3453SOL    HW221993   0.433   3.305  10.896 -0.6901  1.1225 -1.0319
 3454SOL     OW21994   1.826   3.745   9.116  0.6571  0.2452  0.5933
 3454SOL    HW121995   1.868   3.685   9.178 -1.9840  2.7368  4.7813
 3454SOL    HW221996   1.888   3.818   9.128  1.3528 -0.2405 -0.0731
 3455SOL     OW21997   3.326   2.703   2.748  0.2919  0.0572  0.2359
 3455SOL    HW121998   3.365   2.677   2.665 -1.4074 -0.3144 -0.4411
 3455SOL    HW221999   3.275   2.625   2.767 -0.7913  1.2528  2.1981
 3456SOL     OW22000   1.289   1.758   5.486 -0.3488  0.5109 -0.1867
 3456SOL    HW122001   1.239   1.745   5.566  0.5344 -0.4001  0.2236
 3456SOL    HW222002   1.271   1.682   5.430  1.0313 -0.8868  1.2720
 3457SOL     OW22003   1.280   1.423   6.303 -0.2088  0.3666  0.1579
 3457SOL    HW122004   1.330   1.504   6.301 -0.2504  0.4225  1.6271
 3457SOL    HW222005   1.333   1.368   6.360 -2.5282 -1.6187  0.3924
 3458SOL     OW22006   2.592   2.698   0.881  0.6114  0.0405 -0.2317
 3458SOL    HW122007   2.631   2.739   0.804  1.5779 -1.1853 -0.4071
 3458SOL    HW222008   2.504   2.734   0.882  0.3819 -0.5332 -0.0825
 3459SOL     OW22009   2.079   3.603   6.329  0.0718  0.5656  0.7427
 3459SOL    HW122010   2.074   3.644   6.415  2.4556  1.9954  0.1957
 3459SOL    HW222011   2.136   3.527   6.336 -0.2749  0.1851 -0.5420
 3460SOL     OW22012   4.707   2.007   4.779  0.8004 -0.2749  0.3677
 3460SOL    HW122013   0.037   2.005   4.711  1.8195 -0.3877  1.3742
 3460SOL    HW222014   4.641   2.063   4.737  0.6938 -1.0201 -0.4621
 3461SOL     OW22015   1.424   3.821   3.780 -0.0229 -0.0461 -0.6721
 3461SOL    HW122016   1.450   3.912   3.792 -0.8425  0.3230 -1.6913
 3461SOL    HW222017   1.328   3.827   3.777 -0.0487 -0.3076 -0.4157
 3462SOL     OW22018   2.746   3.379   6.461 -0.0479 -0.3843 -0.9166
 3462SOL    HW122019   2.829   3.425   6.470 -1.0831  1.6064 -1.4190
 3462SOL    HW222020   2.695   3.438   6.405  2.2762  1.9992 -0.5073
 3463SOL     OW22021   4.212   0.552   6.354 -0.5683  0.4339 -0.5762
 3463SOL    HW122022   4.160   0.545   6.274 -0.1200  0.2285 -0.8480
 3463SOL    HW222023   4.302   0.535   6.328  0.0331  1.0590  1.1236
 3464SOL     OW22024   2.452   0.093   4.521 -0.1599  0.5161 -0.0112
 3464SOL    HW122025   2.523   0.039   4.487 -1.6419 -1.6918  0.4138
 3464SOL    HW222026   2.381   0.048   4.475  0.1787  0.0401 -0.0708
 3465SOL     OW22027   3.685   2.048   5.298 -0.1661 -0.2401  0.5145
 3465SOL    HW122028   3.642   1.969   5.330  0.7891 -0.8433  0.2887
 3465SOL    HW222029   3.731   2.075   5.377 -0.2075  2.6485 -0.4591
 3466SOL     OW22030   3.042   4.300   9.145  0.1232 -0.1015  0.2740
 3466SOL    HW122031   3.119   4.296   9.090 -0.3456 -0.0122 -0.3853
 3466SOL    HW222032   3.075   4.258   9.225 -0.7190 -1.1866  0.0371
 3467SOL     OW22033   0.795   1.169   4.756  0.6086 -0.1128  0.5110
 3467SOL    HW122034   0.782   1.099   4.692  1.9871 -1.5258  1.7707
 3467SOL    HW222035   0.705   1.200   4.761  0.1470 -1.5671  1.1975
 3468SOL     OW22036   3.220   4.127   9.886  0.8268 -0.5691 -0.2504
 3468SOL    HW122037   3.277   4.075   9.943  3.3601  2.2601 -0.2288
 3468SOL    HW222038   3.151   4.154   9.947  0.1245 -0.5219 -1.0661
 3469SOL     OW22039   4.494   4.464   5.450 -0.4065  0.0720 -0.5939
 3469SOL    HW122040   4.425   4.517   5.491  0.2908  0.6807 -0.2030
 3469SOL    HW222041   4.455   4.377   5.438 -0.3129  0.3950 -3.1781
 3470SOL     OW22042   1.990   2.311   8.338 -0.2666 -0.3632  0.1695
 3470SOL    HW122043   2.018   2.402   8.329 -0.8052 -0.0428  1.6487
 3470SOL    HW222044   2.045   2.268   8.404  1.5617 -1.6373 -2.1899
 3471SOL     OW22045   2.912   2.663   3.279 -0.1869  0.0409 -0.5587
 3471SOL    HW122046   2.912   2.569   3.294  1.7024  0.5620  2.8861
 3471SOL    HW222047   2.983   2.685   3.340 -3.5003  2.1449  2.5417
 3472SOL     OW22048   4.528   3.815   7.133 -0.2406  0.4468 -0.8359
 3472SOL    HW122049   4.605   3.813   7.189 -1.3342  1.6487  0.7092
 3472SOL    HW222050   4.497   3.724   7.138  0.9360  0.0607 -0.5601
 3473SOL     OW22051   4.268   4.346   8.583 -0.3580 -0.0333  0.1978
 3473SOL    HW122052   4.262   4.342   8.679 -0.9593 -2.9721  0.0321
 3473SOL    HW222053   4.338   4.410   8.568 -1.2027  0.4663 -1.6308
 3474SOL     OW22054   2.780   3.363  17.185  0.2181 -0.2738 -0.1330
 3474SOL    HW122055   2.861   3.313  17.172  2.0468  2.9569 -1.1429
 3474SOL    HW222056   2.744   3.304  17.251 -0.2198  0.5773  0.3830
 3475SOL     OW22057   3.505   1.533   1.737 -0.0631 -0.0269  0.3565
 3475SOL    HW122058   3.559   1.610   1.751 -1.3308  0.9466 -0.0347
 3475SOL    HW222059   3.539   1.492   1.657  0.8863 -0.3348  0.9257
 3476SOL     OW22060   1.238   1.040   2.972  0.1826  0.4844  0.0198
 3476SOL    HW122061   1.312   0.980   2.967  0.6951  0.8071  4.1387
 3476SOL    HW222062   1.240   1.064   3.064 -1.4021  2.6436 -0.5007
 3477SOL     OW22063   4.515   3.475   9.626  0.5803  0.3325  0.0818
 3477SOL    HW122064   4.488   3.413   9.694 -0.9269  0.8547 -0.0506
 3477SOL    HW222065   4.507   3.421   9.547 -0.6410 -0.7213  0.9356
 3478SOL     OW22066   1.431   1.352   4.711 -0.6502 -0.3455 -0.4736
 3478SOL    HW122067   1.428   1.385   4.621  0.5338 -1.7984 -1.0504
 3478SOL    HW222068   1.522   1.374   4.732 -1.0655  1.0568 -0.1617
 3479SOL     OW22069   1.593   2.021   7.031 -0.1925 -0.2401  0.2909
 3479SOL    HW122070   1.582   1.953   6.965 -3.6791  1.2599 -0.6897
 3479SOL    HW222071   1.663   2.073   6.991  2.9956 -3.2452  1.9740
 3480SOL     OW22072   2.710   2.315  12.595 -0.0861 -0.0309 -0.0309
 3480SOL    HW122073   2.786   2.368  12.572 -0.8365  0.9497 -0.2379
 3480SOL    HW222074   2.642   2.365  12.549  1.1637  0.1232 -1.7249
 3481SOL     OW22075   4.143   2.314   3.178  0.8038  0.4032 -0.7128
 3481SOL    HW122076   4.214   2.318   3.113  0.7245 -0.6409 -0.8678
 3481SOL    HW222077   4.103   2.228   3.167 -3.5164  2.6748 -2.4094
 3482SOL     OW22078   1.476   0.302   5.646  0.0017  0.0769 -0.4291
 3482SOL    HW122079   1.468   0.373   5.710  1.0941  0.4214 -0.6833
 3482SOL    HW222080   1.569   0.286   5.658  0.1664 -0.2002 -2.0407
 3483SOL     OW22081   1.641   1.146   5.735 -0.1701  0.7536 -0.2931
 3483SOL    HW122082   1.594   1.076   5.780  0.6073  0.7700  0.5472
 3483SOL    HW222083   1.592   1.154   5.653  1.4331  0.1117 -1.3395
 3484SOL     OW22084   4.006   3.003   0.411  0.2234  0.7051  0.3804
 3484SOL    HW122085   3.999   2.933   0.475  2.3446 -0.2369 -0.3911
 3484SOL    HW222086   4.091   3.042   0.433 -0.0915  2.0092 -0.6579
 3485SOL     OW22087   3.421   4.680  11.956 -0.1376 -0.4713  0.6296
 3485SOL    HW122088   3.488   4.617  11.984  0.7845 -0.3759 -1.3584
 3485SOL    HW222089   3.473   0.021  11.936  0.8676 -1.1627  0.5262
 3486SOL     OW22090   2.024   0.806   2.736 -0.0521  0.7020 -0.1398
 3486SOL    HW122091   2.000   0.718   2.707 -0.0100  0.5820  0.1915
 3486SOL    HW222092   2.119   0.810   2.749  0.1016 -2.8287 -0.2624
 3487SOL     OW22093   2.894   3.001  17.438 -0.3222 -0.0350  0.0089
 3487SOL    HW122094   2.878   2.973  17.347 -0.9873  1.8640 -0.4474
 3487SOL    HW222095   2.916   2.916  17.478  0.4009  0.3946  0.5149
 3488SOL     OW22096   0.230   3.164   5.053  0.2486  0.0245 -0.6791
 3488SOL    HW122097   0.203   3.173   4.962  2.0350  0.3617 -1.1697
 3488SOL    HW222098   0.151   3.180   5.105  0.7850 -1.0827  0.5030
 3489SOL     OW22099   1.745   1.661  11.630  0.1858 -0.5631  0.6323
 3489SOL    HW122100   1.791   1.710  11.562 -0.2669  0.2878  0.9542
 3489SOL    HW222101   1.792   1.577  11.622  1.4473  0.3184 -1.1264
 3490SOL     OW22102   1.829   2.468   9.038  0.3716  0.1180  0.0605
 3490SOL    HW122103   1.850   2.448   9.129 -0.4195 -2.4080 -0.3250
 3490SOL    HW222104   1.847   2.389   8.988 -0.0736 -0.2343  0.4633
 3491SOL     OW22105   2.976   1.263  14.474  0.1471 -0.1808  0.1930
 3491SOL    HW122106   3.068   1.267  14.447  0.7179  1.8141  2.4255
 3491SOL    HW222107   2.966   1.171  14.498 -0.4109 -0.3051 -0.5443
 3492SOL     OW22108   1.559   2.515   3.702  0.5488 -0.1477  0.1049
 3492SOL    HW122109   1.622   2.555   3.763  2.5160 -0.6003 -1.6447
 3492SOL    HW222110   1.613   2.459   3.646  0.6309 -0.9132  0.9585
 3493SOL     OW22111   2.817   2.724   2.776 -0.2783  0.3706 -0.0646
 3493SOL    HW122112   2.758   2.691   2.709 -1.3895 -0.7659  1.4712
 3493SOL    HW222113   2.797   2.667   2.851 -1.3550 -1.2211 -1.5868
 3494SOL     OW22114   1.359   2.419  12.705 -0.2111 -0.6555  0.2196
 3494SOL    HW122115   1.362   2.408  12.800  1.3138  1.0715  0.3697
 3494SOL    HW222116   1.451   2.396  12.694  0.1142  0.0682  1.4389
 3495SOL     OW22117   1.601   2.222   4.419 -0.2433 -0.1956 -0.3292
 3495SOL    HW122118   1.654   2.224   4.499  1.3240  0.8553 -1.3979
 3495SOL    HW222119   1.611   2.128   4.407  4.0167 -0.1343  2.6709
 3496SOL     OW22120   1.704   0.339  14.306  0.3764 -0.4059  0.0642
 3496SOL    HW122121   1.782   0.310  14.354 -0.7158 -2.4817  0.5809
 3496SOL    HW222122   1.724   0.432  14.305 -0.7929 -0.1249  1.7023
 3497SOL     OW22123   0.442   0.504  13.759 -0.0271  0.1887  0.5705
 3497SOL    HW122124   0.361   0.462  13.787 -1.1991  0.2413 -2.7128
 3497SOL    HW222125   0.507   0.448  13.802 -2.5348 -1.9369  1.6365
 3498SOL     OW22126   2.612   4.556   6.356  0.1677 -0.2199  0.0571
 3498SOL    HW122127   2.583   4.524   6.271 -0.2347 -0.6611  0.3577
 3498SOL    HW222128   2.535   4.611   6.369  0.7187  0.0670  2.1778
 3499SOL     OW22129   0.092   1.997   9.415 -0.2705  0.2118 -0.2091
 3499SOL    HW122130   0.131   1.934   9.477 -2.8048 -0.6817  0.4980
 3499SOL    HW222131   0.119   1.965   9.329 -2.6281 -0.5683 -0.6671
 3500SOL     OW22132   0.122   3.269   1.826  0.3505 -0.3040 -0.1880
 3500SOL    HW122133   0.140   3.290   1.735 -2.0201  1.9445 -0.1511
 3500SOL    HW222134   0.170   3.328   1.884  1.0003  0.8503 -1.8957
 3501SOL     OW22135   0.994   0.419   6.229 -0.6283  0.1605  0.1279
 3501SOL    HW122136   0.998   0.393   6.321  0.8847  1.0584  0.3216
 3501SOL    HW222137   1.069   0.369   6.197 -0.5819 -0.6786  1.5674
 3502SOL     OW22138   2.049   2.594   4.642  0.0104 -0.1961 -0.4189
 3502SOL    HW122139   2.139   2.589   4.674  0.6674 -0.1443 -2.2383
 3502SOL    HW222140   2.062   2.559   4.554 -0.2650  1.5037 -1.1377
 3503SOL     OW22141   2.551   1.197   8.108  0.5345  0.2172  0.4222
 3503SOL    HW122142   2.487   1.260   8.142 -2.1696 -0.5707 -3.2677
 3503SOL    HW222143   2.539   1.128   8.173  2.4764 -1.5445 -1.0915
 3504SOL     OW22144   3.221   2.080  12.960 -0.8450  0.3334  0.1098
 3504SOL    HW122145   3.268   2.038  13.032  1.0147  0.7838 -0.8166
 3504SOL    HW222146   3.256   2.169  12.966  1.2143 -0.4209 -0.6585
 3505SOL     OW22147   2.395   4.406   7.288  0.2148  0.2491  0.4638
 3505SOL    HW122148   2.368   4.490   7.325  2.4559 -0.1998  3.1382
 3505SOL    HW222149   2.457   4.444   7.226 -1.0031  2.2528  0.4830
 3506SOL     OW22150   2.947   1.288   6.022 -0.3627  0.5575 -0.4135
 3506SOL    HW122151   2.932   1.194   6.032  2.5731  0.1555  0.1954
 3506SOL    HW222152   2.943   1.312   6.114 -3.2868  1.8566 -0.8811
 3507SOL     OW22153   3.712   3.030   7.337  0.4945 -0.7662 -0.3556
 3507SOL    HW122154   3.789   3.071   7.377 -0.5997  0.5959  0.3394
 3507SOL    HW222155   3.638   3.065   7.387  0.5310  0.1167 -0.9174
 3508SOL     OW22156   3.227   3.125  11.212  0.0730 -0.0284 -0.4627
 3508SOL    HW122157   3.249   3.088  11.127 -0.2404  1.8903 -1.3670
 3508SOL    HW222158   3.136   3.094  11.215  0.4154 -0.8583  1.3859
 3509SOL     OW22159   0.821   0.374   4.786  0.3405 -0.3237  0.1034
 3509SOL    HW122160   0.726   0.378   4.794  0.2643 -0.2425 -0.8331
 3509SOL    HW222161   0.854   0.456   4.822 -0.2712  1.1079 -2.5885
 3510SOL     OW22162   1.782   1.076   2.063  0.5337 -0.1466 -0.0610
 3510SOL    HW122163   1.736   1.128   1.997  1.5464  1.8145  0.7906
 3510SOL    HW222164   1.779   1.135   2.139  2.5454 -1.1151  0.7758
 3511SOL     OW22165   2.128   3.165   9.240 -0.7170  0.2228 -0.1657
 3511SOL    HW122166   2.202   3.172   9.301 -0.1792  0.2626 -0.8293
 3511SOL    HW222167   2.087   3.080   9.257  1.6601 -0.7939  0.4627
 3512SOL     OW22168   2.716   2.197  16.356 -0.0630 -0.4889 -0.1883
 3512SOL    HW122169   2.787   2.137  16.377  1.0476 -0.5759 -4.3730
 3512SOL    HW222170   2.670   2.147  16.289 -2.5287 -0.0346  1.1173
 3513SOL     OW22171   2.937   4.532   3.668  0.3541  0.3571 -0.3098
 3513SOL    HW122172   2.868   4.503   3.608  0.7857  0.2005 -0.7237
 3513SOL    HW222173   2.936   4.476   3.746  0.3534 -0.1583 -0.6814
 3514SOL     OW22174   1.916   0.332   8.424  0.0640  0.4649 -0.2849
 3514SOL    HW122175   1.941   0.397   8.489 -2.5138 -0.1818  1.3930
 3514SOL    HW222176   1.942   0.254   8.473 -1.7117 -1.3478 -2.2395
 3515SOL     OW22177   1.630   4.333   4.302  0.2165 -0.0699  0.1097
 3515SOL    HW122178   1.543   4.371   4.289 -0.4269 -0.8379  2.2469
 3515SOL    HW222179   1.619   4.284   4.383  0.7736  0.2411  0.3725
 3516SOL     OW22180   1.241   0.565   5.676 -0.3463 -0.2891 -0.2661
 3516SOL    HW122181   1.196   0.481   5.671 -0.5384 -0.2164  0.2882
 3516SOL    HW222182   1.164   0.622   5.676 -1.2022 -1.4496  0.9034
 3517SOL     OW22183   4.204   2.981   4.359 -0.8369 -0.2001  0.3057
 3517SOL    HW122184   4.186   3.037   4.283 -0.9173 -2.2277 -1.1832
 3517SOL    HW222185   4.122   2.932   4.365 -0.3034 -0.7248  3.0949
 3518SOL     OW22186   0.430   1.579  13.483  0.6942 -0.2037  0.2543
 3518SOL    HW122187   0.358   1.641  13.478  0.7971 -0.1576 -0.7633
 3518SOL    HW222188   0.407   1.518  13.413 -0.9780  1.6979 -0.8332
 3519SOL     OW22189   2.745   0.599   3.589 -0.0520 -0.3428 -0.2932
 3519SOL    HW122190   2.788   0.514   3.600 -0.9405 -0.8268 -0.5560
 3519SOL    HW222191   2.743   0.624   3.682 -1.2018  1.8141 -0.8888
 3520SOL     OW22192   2.784   3.432   6.759 -0.1273 -0.1313  0.6437
 3520SOL    HW122193   2.861   3.441   6.815 -1.2425 -0.6404  2.2525
 3520SOL    HW222194   2.822   3.419   6.672  0.9870  2.0210  0.8091
 3521SOL     OW22195   1.037   2.578  11.229  0.3269  0.0444 -0.1911
 3521SOL    HW122196   1.037   2.518  11.303  3.3083 -1.7067 -1.6163
 3521SOL    HW222197   1.132   2.578  11.227  0.3557 -1.1723  1.4785
 3522SOL     OW22198   2.538   0.733   3.431 -0.0287 -0.0708  0.5582
 3522SOL    HW122199   2.619   0.691   3.459  0.4769  0.8940  0.5358
 3522SOL    HW222200   2.576   0.811   3.391  2.9690 -0.7901  2.0455
 3523SOL     OW22201   0.752   4.296  12.383 -0.5625 -0.0890 -0.0049
 3523SOL    HW122202   0.794   4.220  12.344 -0.7376  0.5424 -1.4131
 3523SOL    HW222203   0.771   4.364  12.318 -4.3192  2.3180  1.4142
 3524SOL     OW22204   2.138   4.032   3.738 -0.0059 -0.2470  0.0393
 3524SOL    HW122205   2.100   4.092   3.674  2.4804  1.2442 -0.0361
 3524SOL    HW222206   2.088   4.043   3.819  0.5633  1.9413  0.0884
 3525SOL     OW22207   2.925   2.769   7.493 -0.2183  0.0718  0.3996
 3525SOL    HW122208   2.982   2.695   7.471  1.1583  1.4495 -0.6840
 3525SOL    HW222209   2.873   2.773   7.413 -0.5773 -0.5485  0.5979
 3526SOL     OW22210   3.803   1.775   5.461  0.0802  0.1578  0.4433
 3526SOL    HW122211   3.740   1.730   5.517 -0.8352 -0.2810 -0.9518
 3526SOL    HW222212   3.813   1.852   5.517 -0.2161  0.8221 -0.4272
 3527SOL     OW22213   2.934   2.905   5.762  0.5370 -0.1641  0.0601
 3527SOL    HW122214   2.876   2.980   5.751 -0.3303 -0.9302 -0.5871
 3527SOL    HW222215   3.004   2.941   5.708  1.0502 -1.6095 -0.2441
 3528SOL     OW22216   3.268   1.895   2.892 -0.1983 -0.0274  0.0186
 3528SOL    HW122217   3.258   1.868   2.983  0.9013  1.8060  0.6935
 3528SOL    HW222218   3.359   1.867   2.880  0.5568  1.4569  2.2746
 3529SOL     OW22219   1.413   3.437   5.799  0.3884  0.5837 -0.2742
 3529SOL    HW122220   1.473   3.438   5.873 -2.1089  1.8616  1.6885
 3529SOL    HW222221   1.347   3.388   5.847 -0.2360  0.8302 -0.8732
 3530SOL     OW22222   1.605   3.871   9.594 -0.5023 -0.5661 -0.2234
 3530SOL    HW122223   1.562   3.947   9.555  0.9700  1.3442  1.8658
 3530SOL    HW222224   1.552   3.861   9.674 -0.7313 -0.6849 -0.3901
 3531SOL     OW22225   1.966   4.439   7.265 -0.3497 -0.5056 -0.0353
 3531SOL    HW122226   2.003   4.379   7.330  1.1376  0.6202  0.1468
 3531SOL    HW222227   2.025   4.440   7.190  0.8174 -0.6372  0.8722
 3532SOL     OW22228   4.006   0.547  12.847  0.5778  0.2370  0.2150
 3532SOL    HW122229   4.101   0.540  12.855  0.6812 -0.7446 -1.6630
 3532SOL    HW222230   3.989   0.458  12.876 -0.2094  0.3182  0.0121
 3533SOL     OW22231   3.233   0.951  15.875  0.3518  0.0699 -0.0894
 3533SOL    HW122232   3.311   1.007  15.875  0.1166  0.3954  0.0642
 3533SOL    HW222233   3.232   0.918  15.964  0.5058  1.2513  0.3591
 3534SOL     OW22234   2.408   3.600   2.345  0.2343 -0.6348  0.5220
 3534SOL    HW122235   2.391   3.688   2.312 -1.4269 -1.1952 -0.1019
 3534SOL    HW222236   2.335   3.555   2.302  0.1022  0.0429  0.0498
 3535SOL     OW22237   4.323   3.190  10.415 -0.1641 -0.3556 -0.1817
 3535SOL    HW122238   4.384   3.116  10.416  1.5503  1.0790  1.9789
 3535SOL    HW222239   4.238   3.148  10.423 -0.0498 -0.2489  1.5778
 3536SOL     OW22240   3.714   1.594   2.596  0.2706 -0.0440  0.0857
 3536SOL    HW122241   3.734   1.502   2.614  1.3475  0.3203  0.7218
 3536SOL    HW222242   3.732   1.589   2.503 -1.2551  3.1437 -0.3614
 3537SOL     OW22243   2.380   0.818  10.874  0.0741  0.6195 -0.3371
 3537SOL    HW122244   2.401   0.789  10.785  1.9124 -0.6171  0.4806
 3537SOL    HW222245   2.459   0.867  10.895 -0.0578  0.5308  0.3620
 3538SOL     OW22246   0.390   3.662  10.199 -0.2046  0.0491  0.1746
 3538SOL    HW122247   0.442   3.685  10.276 -0.1930  0.9929 -0.1163
 3538SOL    HW222248   0.415   3.570  10.205 -0.8263  0.0047  2.3114
 3539SOL     OW22249   2.475   3.964   5.439  0.3170 -0.2676 -0.8647
 3539SOL    HW122250   2.388   3.996   5.413 -0.1799 -1.2831 -0.4510
 3539SOL    HW222251   2.452   3.874   5.459 -2.7921  1.0219  1.4023
 3540SOL     OW22252   0.712   0.902   2.632 -0.1984  0.0848 -0.5582
 3540SOL    HW122253   0.643   0.841   2.604  1.3581 -1.8153 -0.2028
 3540SOL    HW222254   0.793   0.860   2.605 -0.1202  0.9816 -1.7143
 3541SOL     OW22255   3.842   1.604   7.010 -0.6298  0.3372 -0.0297
 3541SOL    HW122256   3.843   1.691   7.052  0.4985  0.7732 -0.9592
 3541SOL    HW222257   3.835   1.623   6.916  1.6953  0.1824 -0.2302
 3542SOL     OW22258   2.899   2.281   6.503  0.0338 -0.4433  0.0450
 3542SOL    HW122259   2.917   2.298   6.595 -2.0403  0.1527  0.3480
 3542SOL    HW222260   2.852   2.363   6.490 -0.4937 -0.9863 -1.5223
 3543SOL     OW22261   2.156   2.058   9.997  0.5099  0.0100  0.5106
 3543SOL    HW122262   2.119   1.973   9.974 -3.0219  1.3678  1.3000
 3543SOL    HW222263   2.209   2.046  10.076 -2.9943  0.6387  2.9238
 3544SOL     OW22264   1.577   3.962   1.317 -0.1675 -0.1751  0.4286
 3544SOL    HW122265   1.482   3.965   1.321 -0.2436  0.3211 -2.3402
 3544SOL    HW222266   1.580   3.896   1.247 -1.7591  0.4120 -0.1850
 3545SOL     OW22267   4.330   4.228   9.213  0.2248  0.3375 -0.1197
 3545SOL    HW122268   4.256   4.284   9.233 -1.3945 -0.9689 -2.4745
 3545SOL    HW222269   4.306   4.155   9.270 -1.2681  2.4208  1.8916
 3546SOL     OW22270   4.592   0.152  17.117 -0.4814 -0.2019 -0.1996
 3546SOL    HW122271   4.687   0.144  17.108  0.0237  1.3384  3.8028
 3546SOL    HW222272   4.568   0.064  17.144  2.0289 -0.3031  1.6195
 3547SOL     OW22273   3.825   3.651  14.881  0.1854  0.0568 -1.1112
 3547SOL    HW122274   3.871   3.725  14.921 -1.2827  0.1225  0.4163
 3547SOL    HW222275   3.757   3.700  14.834 -0.1544 -0.0434 -0.7180
 3548SOL     OW22276   2.570   3.571   5.023 -0.4702 -0.1525 -0.5311
 3548SOL    HW122277   2.634   3.628   4.979  0.5030 -2.6995 -2.4064
 3548SOL    HW222278   2.539   3.627   5.094 -0.6249 -0.4382 -0.3733
 3549SOL     OW22279   0.622   2.867  12.512  0.0906 -0.2873 -0.0019
 3549SOL    HW122280   0.616   2.781  12.554  1.2587 -1.2894 -1.8849
 3549SOL    HW222281   0.673   2.851  12.432 -1.4595  1.4784 -1.3546
 3550SOL     OW22282   3.262   1.260   0.410  0.5046 -0.5059  0.1692
 3550SOL    HW122283   3.351   1.279   0.380  1.2748 -0.7227  2.3516
 3550SOL    HW222284   3.257   1.167   0.432  0.5345 -0.6225 -0.3122
 3551SOL     OW22285   3.065   1.129   2.634 -0.0256 -0.5787  0.1410
 3551SOL    HW122286   2.982   1.095   2.601 -0.1696 -0.6755  0.6022
 3551SOL    HW222287   3.092   1.047   2.676 -3.2413 -1.7659 -0.0925
 3552SOL     OW22288   3.270   0.871  16.162  0.3979  0.5105  0.0879
 3552SOL    HW122289   3.352   0.833  16.191  1.2683 -0.1186 -3.1688
 3552SOL    HW222290   3.290   0.964  16.172  1.0983  0.2984  0.5823
 3553SOL     OW22291   1.788   1.308  15.734 -0.2955  0.2935  0.2091
 3553SOL    HW122292   1.724   1.377  15.748 -1.2924 -0.6591  0.3091
 3553SOL    HW222293   1.870   1.357  15.746  0.6270 -1.8161  2.4055
 3554SOL     OW22294   2.229   0.621   0.674 -0.6110 -0.5549 -0.3804
 3554SOL    HW122295   2.224   0.652   0.583  0.5976 -0.9898 -0.5934
 3554SOL    HW222296   2.137   0.622   0.700 -0.7326 -0.3470 -0.8147
 3555SOL     OW22297   3.482   0.764   4.843 -0.6712  0.3936  0.2501
 3555SOL    HW122298   3.427   0.796   4.771 -0.0941  1.0372  0.1001
 3555SOL    HW222299   3.534   0.841   4.867  1.2078  0.1229 -2.8406
 3556SOL     OW22300   2.191   1.875   3.861 -0.1475 -0.5603 -1.1375
 3556SOL    HW122301   2.242   1.889   3.782 -0.1769  1.0371 -0.8613
 3556SOL    HW222302   2.107   1.914   3.840 -0.4049  0.3826  1.6749
 3557SOL     OW22303   0.415   0.102   6.607 -0.7638  0.1653 -0.0883
 3557SOL    HW122304   0.394   0.135   6.694 -0.7815  0.7499 -0.3137
 3557SOL    HW222305   0.381   0.013   6.621  1.7622 -0.7313  0.3548
 3558SOL     OW22306   2.397   0.221   6.922  0.3045 -0.2214  0.0140
 3558SOL    HW122307   2.411   0.267   7.005  1.6011 -0.2708 -0.1768
 3558SOL    HW222308   2.417   0.294   6.863  1.6603 -0.1344  0.5671
 3559SOL     OW22309   0.174   4.080   7.484 -0.4392  0.1800  0.3965
 3559SOL    HW122310   0.152   4.086   7.391 -1.2541  0.4689  0.6050
 3559SOL    HW222311   0.269   4.070   7.471 -0.0748  1.3447  2.1297
 3560SOL     OW22312   0.419   1.271  15.858  0.8295 -0.0452 -0.5720
 3560SOL    HW122313   0.391   1.270  15.950 -0.1973  2.0006 -0.8582
 3560SOL    HW222314   0.342   1.270  15.801  1.0551  0.3207 -0.8869
 3561SOL     OW22315   0.275   3.311   3.989 -0.2070 -0.4245  0.5732
 3561SOL    HW122316   0.352   3.254   3.990  1.1818  1.4193 -0.9756
 3561SOL    HW222317   0.294   3.367   4.065 -1.5898  1.1171 -0.2239
 3562SOL     OW22318   1.052   3.337   7.343 -0.0449 -0.4525  0.1848
 3562SOL    HW122319   1.044   3.316   7.436  0.3072 -0.0046  0.3148
 3562SOL    HW222320   1.128   3.393   7.327  0.9378 -2.1146 -1.1041
 3563SOL     OW22321   3.110   4.542   8.830 -0.7443  0.0517  0.4837
 3563SOL    HW122322   3.125   4.617   8.888 -1.0377  0.5948 -0.1444
 3563SOL    HW222323   3.019   4.516   8.842 -0.9146  0.5881  0.3484
 3564SOL     OW22324   2.958   1.401   5.564 -0.4082  0.2026 -0.3888
 3564SOL    HW122325   3.016   1.467   5.601  2.0230 -1.5053 -1.1822
 3564SOL    HW222326   2.905   1.457   5.507 -0.5365  1.8121  1.3114
 3565SOL     OW22327   3.342   3.043   3.351 -0.3737  0.1114  0.3141
 3565SOL    HW122328   3.414   3.009   3.298 -2.6175 -2.6224 -0.9877
 3565SOL    HW222329   3.328   3.131   3.317  1.2516  0.4695  0.5718
 3566SOL     OW22330   4.096   4.666   7.897 -0.3625 -0.0828  0.2481
 3566SOL    HW122331   4.057   4.651   7.811 -1.6780 -1.9404  1.1729
 3566SOL    HW222332   4.105   4.578   7.932  2.1994 -0.0199 -0.2836
 3567SOL     OW22333   1.118   2.173   6.488 -0.0283 -0.2739 -0.2194
 3567SOL    HW122334   1.054   2.134   6.549 -0.0577  0.7437  0.3949
 3567SOL    HW222335   1.092   2.264   6.481 -0.5144 -0.7224 -4.2230
 3568SOL     OW22336   0.533   0.161   7.387  0.8545 -0.1378  0.3118
 3568SOL    HW122337   0.533   0.238   7.331  1.2240 -0.0608  0.4170
 3568SOL    HW222338   0.450   0.176   7.433  0.9341 -1.8043  0.9930
 3569SOL     OW22339   0.865   1.433   7.911  0.2277  0.2301  0.4447
 3569SOL    HW122340   0.920   1.373   7.962  1.3348  1.0408  0.2014
 3569SOL    HW222341   0.933   1.498   7.895  0.4731 -0.1713 -0.1176
 3570SOL     OW22342   2.027   1.574   8.197  0.0476  0.2864 -0.1909
 3570SOL    HW122343   1.983   1.549   8.116 -0.2514  0.2382 -0.0109
 3570SOL    HW222344   2.091   1.637   8.166 -0.5076  0.4356 -1.0219
 3571SOL     OW22345   4.284   2.977  13.277  1.0092 -0.2194 -0.2928
 3571SOL    HW122346   4.335   2.907  13.236  2.7817  1.9739 -1.8638
 3571SOL    HW222347   4.280   3.043  13.207 -0.4125 -0.8414 -0.7914
 3572SOL     OW22348   1.276   1.896   0.724  0.3639  0.1976 -0.1929
 3572SOL    HW122349   1.251   1.806   0.702 -1.3363  0.4949  0.4972
 3572SOL    HW222350   1.225   1.908   0.804 -2.2754 -1.1789 -1.6452
 3573SOL     OW22351   0.039   1.305  17.043 -0.5704  0.1299  0.2867
 3573SOL    HW122352   4.706   1.281  16.982  0.9797  0.0400 -1.4730
 3573SOL    HW222353   0.041   1.230  17.103  1.3723  0.2015  0.3243
 3574SOL     OW22354   3.529   2.542   3.955 -0.5495  0.1852  0.2360
 3574SOL    HW122355   3.492   2.478   4.015 -1.7895  0.1600 -0.5767
 3574SOL    HW222356   3.453   2.599   3.943 -0.9927 -0.6133 -0.6667
 3575SOL     OW22357   4.620   3.306   8.595 -0.1345 -0.6111 -0.3385
 3575SOL    HW122358   4.656   3.393   8.608 -0.3528 -0.5137 -0.3887
 3575SOL    HW222359   4.527   3.324   8.587  0.3046  1.3055 -1.0521
 3576SOL     OW22360   2.940   4.615  17.453  0.0877  0.0849 -0.0312
 3576SOL    HW122361   2.894   4.549  17.505  0.0610 -0.7320 -1.0973
 3576SOL    HW222362   2.875   4.684  17.442 -0.7925 -0.8746 -0.7660
 3577SOL     OW22363   4.579   2.957   6.423  0.0698 -0.4949 -0.2429
 3577SOL    HW122364   4.612   3.042   6.450  0.3096 -0.5107 -0.4867
 3577SOL    HW222365   4.595   2.917   6.508 -0.4441  0.4575  0.2861
 3578SOL     OW22366   0.800   0.748   9.994 -0.5340  1.1615 -0.1151
 3578SOL    HW122367   0.857   0.730   9.920  0.3180  0.1123  0.7958
 3578SOL    HW222368   0.849   0.705  10.064  0.1247  0.2059 -1.1800
 3579SOL     OW22369   4.398   1.609  12.002  0.5232  0.1081 -0.1599
 3579SOL    HW122370   4.390   1.704  11.990 -3.9624 -0.1485  0.8164
 3579SOL    HW222371   4.444   1.598  11.918 -1.3632  0.4354 -1.2258
 3580SOL     OW22372   0.281   0.976   4.882  0.1507  0.3422  0.5580
 3580SOL    HW122373   0.352   0.913   4.896  0.2359  0.5314  1.0044
 3580SOL    HW222374   0.277   0.988   4.788 -0.2405  0.4198  0.5849
 3581SOL     OW22375   4.009   3.470   5.846 -0.0499  0.2246  0.5167
 3581SOL    HW122376   4.059   3.501   5.922 -1.1379  0.2044  1.2395
 3581SOL    HW222377   4.037   3.527   5.774  0.7600 -3.4483 -2.0815
 3582SOL     OW22378   0.228   2.836   6.265 -0.5818  0.2837  0.5970
 3582SOL    HW122379   0.242   2.916   6.317  0.2418  2.0069 -2.2585
 3582SOL    HW222380   0.313   2.797   6.286 -0.1709 -0.1121 -1.7547
 3583SOL     OW22381   3.445   3.997   3.532  0.0191  0.5069 -0.5184
 3583SOL    HW122382   3.471   3.913   3.570 -0.8037  0.0994 -0.8396
 3583SOL    HW222383   3.489   4.009   3.448  1.6665  1.7964  0.5320
 3584SOL     OW22384   0.375   1.034  16.213  0.1819 -0.1181 -0.8493
 3584SOL    HW122385   0.463   1.013  16.243 -0.3176  1.3015  1.5940
 3584SOL    HW222386   0.381   1.127  16.193  0.1250  0.6048  2.5580
 3585SOL     OW22387   1.248   2.736   7.301  0.4479  0.0643  0.5164
 3585SOL    HW122388   1.256   2.777   7.387 -0.3022 -0.0844  0.6513
 3585SOL    HW222389   1.173   2.680   7.319 -0.5311  1.1825 -0.0536
 3586SOL     OW22390   1.723   3.140   3.351 -0.0719  0.3995 -0.0701
 3586SOL    HW122391   1.729   3.235   3.354 -0.0620  0.2943  3.5378
 3586SOL    HW222392   1.785   3.118   3.282  0.3886 -1.3158  0.8691
 3587SOL     OW22393   3.739   0.815  12.164  0.3009  0.1104 -0.2319
 3587SOL    HW122394   3.830   0.821  12.192  0.6096 -1.9748 -0.8171
 3587SOL    HW222395   3.692   0.798  12.246  0.1706 -1.1844 -0.5771
 3588SOL     OW22396   2.317   4.148   6.568  0.5455  0.0095  0.0154
 3588SOL    HW122397   2.309   4.182   6.656 -3.4503 -0.0369 -0.3211
 3588SOL    HW222398   2.395   4.195   6.538  0.8715 -1.6610 -1.7649
 3589SOL     OW22399   0.698   0.292   2.629  0.1068  0.7629 -0.4018
 3589SOL    HW122400   0.688   0.347   2.706 -0.0532  0.4712 -0.2117
 3589SOL    HW222401   0.718   0.366   2.571  1.6300 -0.5949 -1.6199
 3590SOL     OW22402   4.270   1.739   3.936 -0.3080  0.0225 -0.3624
 3590SOL    HW122403   4.223   1.770   4.013  1.5266  1.4166  0.1734
 3590SOL    HW222404   4.269   1.819   3.883 -0.2724  0.4472  0.2762
 3591SOL     OW22405   0.211   0.983   2.688 -0.2096  0.1855 -0.4647
 3591SOL    HW122406   0.217   0.938   2.604  0.8935 -0.0959 -0.2397
 3591SOL    HW222407   0.294   1.031   2.685 -0.7839  1.2302  0.5238
 3592SOL     OW22408   1.730   2.001   4.905  0.0444  0.2566  0.0793
 3592SOL    HW122409   1.801   1.985   4.966  0.2684 -0.8702 -0.4768
 3592SOL    HW222410   1.715   1.918   4.859 -0.3230  0.4108 -0.0864
 3593SOL     OW22411   1.671   0.217  10.380  0.1846  0.0662  0.3261
 3593SOL    HW122412   1.634   0.228  10.293  0.2003  1.2586  0.4684
 3593SOL    HW222413   1.755   0.263  10.384 -0.7833  1.8148  0.6883
 3594SOL     OW22414   4.218   3.119   3.413 -0.8041  0.1159 -0.9021
 3594SOL    HW122415   4.235   3.025   3.417  1.5302  0.4564 -2.7183
 3594SOL    HW222416   4.125   3.132   3.433 -1.0872 -1.2380 -1.3625
 3595SOL     OW22417   2.127   0.024   5.373 -0.1949  0.0246  0.4102
 3595SOL    HW122418   2.146   4.668   5.387  1.5733  0.4534  0.8007
 3595SOL    HW222419   2.182   0.055   5.445 -1.5979 -1.8275  2.2843
 3596SOL     OW22420   0.732   3.639   7.228  0.0608  0.5872  0.3154
 3596SOL    HW122421   0.648   3.617   7.269  1.9543 -2.0151  2.7962
 3596SOL    HW222422   0.697   3.709   7.173 -0.2010 -0.6427 -1.1014
 3597SOL     OW22423   2.581   0.993   6.765 -0.1435  0.4573  0.0907
 3597SOL    HW122424   2.616   1.007   6.677  2.8014 -0.7853  1.0674
 3597SOL    HW222425   2.565   0.899   6.767  1.7075  0.1886  2.1623
 3598SOL     OW22426   3.249   1.804   6.117  0.4212  0.3069 -0.4790
 3598SOL    HW122427   3.192   1.880   6.124 -0.8801 -0.6356 -0.8373
 3598SOL    HW222428   3.331   1.841   6.150  0.7181 -0.5458 -0.2570
 3599SOL     OW22429   4.547   3.657  17.099  0.1032 -0.7120  0.4582
 3599SOL    HW122430   4.547   3.570  17.060  1.7378 -0.6027  0.2162
 3599SOL    HW222431   4.512   3.711  17.029 -1.2036 -1.3049  0.6468
 3600SOL     OW22432   0.206   3.459  14.195  0.6272 -0.4459 -0.1964
 3600SOL    HW122433   0.121   3.425  14.225 -0.0458 -0.2839 -1.8897
 3600SOL    HW222434   0.258   3.391  14.238  0.6145  0.0998  0.6761
 3601SOL     OW22435   1.939   4.283   9.731  0.2519 -0.2797 -0.1725
 3601SOL    HW122436   1.889   4.216   9.777  1.6357 -0.3996  1.1635
 3601SOL    HW222437   1.877   4.352   9.709  0.8682  0.2234 -0.3347
 3602SOL     OW22438   0.501   2.211   5.136 -0.3956  0.4921 -0.0853
 3602SOL    HW122439   0.559   2.244   5.204 -1.0854  1.2830  0.1151
 3602SOL    HW222440   0.556   2.232   5.061 -0.2603  2.3950  0.5473
 3603SOL     OW22441   3.085   0.331   3.185 -0.1780  0.2468 -0.0545
 3603SOL    HW122442   2.991   0.342   3.172  0.0108 -0.7484 -2.4729
 3603SOL    HW222443   3.092   0.367   3.273 -0.1975 -1.5786  0.6853
 3604SOL     OW22444   4.702   1.890   8.473 -0.0603 -0.4161  0.3212
 3604SOL    HW122445   4.725   1.920   8.561 -0.8726  1.9694 -0.2864
 3604SOL    HW222446   0.046   1.907   8.424  1.1233 -1.6263  1.8440
 3605SOL     OW22447   3.033   0.088  14.223 -0.4440 -0.0493  0.2701
 3605SOL    HW122448   3.014   0.037  14.144  1.7199 -0.8116  0.2395
 3605SOL    HW222449   2.957   0.103  14.278 -0.5458  0.9564 -0.1372
 3606SOL     OW22450   3.635   0.893   8.957  0.1979 -0.2688  0.4575
 3606SOL    HW122451   3.723   0.892   8.994  0.7346  0.1979 -0.8098
 3606SOL    HW222452   3.591   0.963   9.005 -1.9186 -1.6178  0.4976
 3607SOL     OW22453   0.725   3.664   1.880 -0.0922  0.1037 -0.4102
 3607SOL    HW122454   0.640   3.622   1.890 -1.1064  2.0475 -0.7995
 3607SOL    HW222455   0.757   3.663   1.971  0.7814 -1.2780 -0.7335
 3608SOL     OW22456   4.203   3.088   1.321  0.1425 -0.7326 -0.6919
 3608SOL    HW122457   4.225   3.046   1.404 -1.1666  1.6890  0.9016
 3608SOL    HW222458   4.288   3.100   1.277  1.2062  0.2425  1.6383
 3609SOL     OW22459   1.153   1.432  12.653 -0.7517 -0.4576  0.1576
 3609SOL    HW122460   1.058   1.429  12.666 -0.7142  2.7203  1.0879
 3609SOL    HW222461   1.142   1.418  12.559 -0.8581 -0.0554  0.1084
 3610SOL     OW22462   3.883   1.277   2.868  0.0300  0.2638 -0.3259
 3610SOL    HW122463   3.839   1.213   2.924  0.6785 -0.5899 -0.7855
 3610SOL    HW222464   3.960   1.226   2.840  1.4558  1.8014  0.8078
 3611SOL     OW22465   2.345   1.140   3.775 -0.4569 -0.1028 -0.1731
 3611SOL    HW122466   2.299   1.185   3.704  0.9173 -0.2976 -1.1825
 3611SOL    HW222467   2.383   1.214   3.822 -1.2309 -0.0074  0.3060
 3612SOL     OW22468   4.210   3.326  12.791 -0.0427  0.5666 -0.2196
 3612SOL    HW122469   4.218   3.231  12.800 -1.9522  0.2880 -1.2790
 3612SOL    HW222470   4.270   3.358  12.858 -0.4682 -1.4600  1.1445
 3613SOL     OW22471   3.761   4.070   5.619  0.3813  0.2137 -0.3679
 3613SOL    HW122472   3.763   3.976   5.639 -1.1238  0.5017  1.1000
 3613SOL    HW222473   3.856   4.082   5.613  0.1884  2.2723  0.6035
 3614SOL     OW22474   2.564   1.642   5.484  0.4707  0.2753 -0.2545
 3614SOL    HW122475   2.569   1.729   5.524  0.5601  0.4543 -0.6512
 3614SOL    HW222476   2.638   1.604   5.531  0.3193 -0.6131 -0.7305
 3615SOL     OW22477   3.449   2.865   6.929 -0.2598  0.1682  0.7381
 3615SOL    HW122478   3.459   2.842   6.837  0.8114  0.9187  0.6676
 3615SOL    HW222479   3.524   2.815   6.961 -0.5849 -1.6455 -1.3596
 3616SOL     OW22480   0.166   2.204   4.878  0.3388  0.2689  0.3987
 3616SOL    HW122481   0.104   2.147   4.922  0.4698 -0.5349 -0.4595
 3616SOL    HW222482   0.199   2.243   4.959 -1.3596 -1.8163  2.0789
 3617SOL     OW22483   3.326   2.564  16.442  0.5370 -0.0515 -0.1218
 3617SOL    HW122484   3.282   2.604  16.367 -1.4217  2.6944  2.5199
 3617SOL    HW222485   3.408   2.543  16.396  0.4916  1.3336 -0.8294
 3618SOL     OW22486   1.443   1.493   6.672  0.0464  0.1262 -0.4141
 3618SOL    HW122487   1.382   1.420   6.686  0.4719 -0.4794 -1.6377
 3618SOL    HW222488   1.456   1.486   6.577 -0.5252 -0.3478 -0.4598
 3619SOL     OW22489   1.521   1.544   6.930  0.6478  0.7594 -0.0665
 3619SOL    HW122490   1.501   1.462   6.976  2.8344  0.0936 -0.2706
 3619SOL    HW222491   1.500   1.512   6.842  2.4351 -0.1411 -0.1643
 3620SOL     OW22492   3.674   2.340   5.463 -0.2858 -0.2458  0.2866
 3620SOL    HW122493   3.720   2.424   5.455 -1.1662  0.0532 -1.4054
 3620SOL    HW222494   3.726   2.288   5.526  3.1822  3.0229  0.1191
 3621SOL     OW22495   3.496   3.300  12.585  0.2630  0.3149  0.1417
 3621SOL    HW122496   3.403   3.281  12.599  0.2387  0.9769  0.8447
 3621SOL    HW222497   3.498   3.394  12.597 -1.9988  0.6667 -2.1113
 3622SOL     OW22498   2.575   2.027   6.476  0.3190  0.4697  0.5678
 3622SOL    HW122499   2.545   1.973   6.403  2.8031 -0.6159  0.3629
 3622SOL    HW222500   2.565   2.115   6.438  0.8722  0.5802  0.6784
 3623SOL     OW22501   3.452   2.588   4.520  0.3228 -0.1442  0.3217
 3623SOL    HW122502   3.518   2.640   4.567  0.7947  0.4432 -0.9906
 3623SOL    HW222503   3.373   2.585   4.573  1.0006  2.8483  1.4661
 3624SOL     OW22504   0.344   2.505   0.307 -0.1024 -0.2552  0.0971
 3624SOL    HW122505   0.384   2.591   0.293  1.1836 -0.7270  0.9179
 3624SOL    HW222506   0.420   2.456   0.274 -0.8007 -1.1529 -0.1669
 3625SOL     OW22507   2.733   4.537   3.230  0.4792  0.5299  0.2330
 3625SOL    HW122508   2.785   4.489   3.295 -0.1237 -1.1803 -0.5606
 3625SOL    HW222509   2.760   4.488   3.153  0.7627  1.1017 -0.0343
 3626SOL     OW22510   0.125   3.580   7.056  0.4432  0.4607  0.6115
 3626SOL    HW122511   0.157   3.645   7.118  0.2618 -1.7419  3.0404
 3626SOL    HW222512   0.130   3.622   6.970 -1.9131 -1.2842 -0.3705
 3627SOL     OW22513   1.782   2.195   1.623  0.1059 -0.1807 -0.1672
 3627SOL    HW122514   1.706   2.138   1.611  0.2538 -0.7051  1.4102
 3627SOL    HW222515   1.829   2.137   1.683 -2.2199 -1.6703  0.1967
 3628SOL     OW22516   0.944   1.579   8.813  0.0998  0.9792 -0.5917
 3628SOL    HW122517   1.026   1.543   8.779  0.9537  0.7915  1.6157
 3628SOL    HW222518   0.879   1.509   8.811 -0.2230  1.3069 -1.6652
 3629SOL     OW22519   1.633   3.657   7.634 -0.6932 -0.4530 -0.0161
 3629SOL    HW122520   1.629   3.749   7.661 -2.8876 -0.6684  0.4570
 3629SOL    HW222521   1.690   3.649   7.558 -0.5354  2.7894 -0.2562
 3630SOL     OW22522   0.966   2.425   2.905 -0.1739 -0.1360  0.4357
 3630SOL    HW122523   0.966   2.345   2.958  0.7161  0.6851  1.6587
 3630SOL    HW222524   1.043   2.418   2.849 -1.3819  0.7564 -1.3639
 3631SOL     OW22525   2.762   1.505   0.687  1.1174 -0.0621  0.6507
 3631SOL    HW122526   2.795   1.581   0.639  0.1654  1.4346  2.3712
 3631SOL    HW222527   2.791   1.431   0.634 -1.1217  0.3451 -1.1442
 3632SOL     OW22528   4.632   2.711  10.307 -0.6587 -0.0073  0.6436
 3632SOL    HW122529   4.680   2.670  10.379 -1.3057  1.7030  2.0486
 3632SOL    HW222530   4.712   2.749  10.271 -0.5797 -0.0376  0.7898
 3633SOL     OW22531   0.877   2.512   8.334  0.0007  0.1288 -0.6062
 3633SOL    HW122532   0.961   2.492   8.375 -0.3376  3.2180  1.5581
 3633SOL    HW222533   0.865   2.605   8.353  0.5813  0.3228 -1.1805
 3634SOL     OW22534   0.692   2.815   2.109  0.1054  0.1303  0.5081
 3634SOL    HW122535   0.688   2.720   2.104 -2.8160  0.2129  1.4230
 3634SOL    HW222536   0.753   2.839   2.179  0.6798  0.6608 -0.1749
 3635SOL     OW22537   1.799   4.467   8.622 -0.1688 -0.1666 -0.2773
 3635SOL    HW122538   1.848   4.526   8.565  0.3136  0.2893  0.6139
 3635SOL    HW222539   1.770   4.410   8.551 -1.6422  0.6503 -0.3225
 3636SOL     OW22540   4.276   0.487   2.188  0.9210 -0.0511  0.4887
 3636SOL    HW122541   4.301   0.397   2.167  0.9961  0.2202 -0.5581
 3636SOL    HW222542   4.287   0.491   2.283 -2.1032  1.9357  0.7531
 3637SOL     OW22543   4.723   3.308  17.550  0.0432  0.0486 -0.3715
 3637SOL    HW122544   4.683   3.301  17.464 -2.0134 -1.9722  0.7311
 3637SOL    HW222545   0.018   3.220  17.573  0.5238  0.5075  0.7300
 3638SOL     OW22546   0.091   4.425   5.113 -0.0264 -0.1179  0.4147
 3638SOL    HW122547   0.095   4.519   5.094 -1.1950  0.1564  1.5320
 3638SOL    HW222548   4.734   4.411   5.119 -0.5584  2.0658 -2.8257
 3639SOL     OW22549   4.272   2.772   4.543 -1.2425  0.4896  0.2213
 3639SOL    HW122550   4.318   2.836   4.487 -0.8738  0.0257 -0.0126
 3639SOL    HW222551   4.204   2.834   4.569 -0.6375  1.5174 -0.6016
 3640SOL     OW22552   3.784   2.131   6.507 -0.0565 -0.0279 -0.1554
 3640SOL    HW122553   3.698   2.171   6.494 -0.2565 -1.0783 -2.1753
 3640SOL    HW222554   3.762   2.040   6.531 -0.8577 -0.2443 -1.7036
 3641SOL     OW22555   3.641   3.167  12.792 -0.7915  0.0158  0.5238
 3641SOL    HW122556   3.678   3.252  12.817  1.6601 -0.3114 -1.9772
 3641SOL    HW222557   3.578   3.201  12.729 -0.3572 -0.9024 -0.4066
 3642SOL     OW22558   1.855   0.262  16.094 -0.0874  0.5762 -0.6627
 3642SOL    HW122559   1.820   0.331  16.037 -0.1562  2.1348  1.2730
 3642SOL    HW222560   1.945   0.292  16.098 -0.5703  1.6402  2.4191
 3643SOL     OW22561   2.271   2.287   8.421  0.4748  0.6041 -0.0387
 3643SOL    HW122562   2.282   2.372   8.380  1.8273 -0.1337 -1.2044
 3643SOL    HW222563   2.265   2.316   8.512  3.8045  2.5596 -0.4520
 3644SOL     OW22564   0.913   4.340   9.806 -0.3429 -0.0561 -0.2689
 3644SOL    HW122565   0.839   4.367   9.861  0.7056 -0.0705  1.1687
 3644SOL    HW222566   0.885   4.261   9.760  0.5422 -0.6973  0.2736
 3645SOL     OW22567   4.096   0.416  12.436  0.1909 -0.3277  0.4871
 3645SOL    HW122568   4.038   0.366  12.379  3.0720  0.1218 -2.8753
 3645SOL    HW222569   4.182   0.422  12.394  0.6408  1.0844  1.5773
 3646SOL     OW22570   4.127   1.669  15.292 -0.0118 -0.6064 -0.0263
 3646SOL    HW122571   4.165   1.696  15.376  1.4474 -2.9242  0.0428
 3646SOL    HW222572   4.043   1.712  15.278 -0.0128 -0.6778 -0.2408
 3647SOL     OW22573   2.986   3.744   6.701  0.0825  0.0314 -0.7132
 3647SOL    HW122574   3.041   3.725   6.777  1.0073  1.7169 -0.9632
 3647SOL    HW222575   3.027   3.815   6.651  0.5338  0.9001  0.8910
 3648SOL     OW22576   2.568   3.440  14.311 -0.4876 -0.0389  0.2256
 3648SOL    HW122577   2.481   3.463  14.278 -0.5111 -1.0933 -0.4615
 3648SOL    HW222578   2.620   3.416  14.235  2.0205  1.7449  1.3664
 3649SOL     OW22579   1.887   3.712   6.165 -0.0833 -0.2221 -0.0280
 3649SOL    HW122580   1.963   3.680   6.214 -1.1829 -1.4954  0.8208
 3649SOL    HW222581   1.878   3.641   6.102 -0.9878  0.8981 -1.1705
 3650SOL     OW22582   2.684   2.924  10.785  0.3698 -0.0644  0.5051
 3650SOL    HW122583   2.777   2.942  10.794  0.8713 -2.1990 -0.3476
 3650SOL    HW222584   2.658   3.013  10.758 -0.4550 -0.1200  1.1108
 3651SOL     OW22585   3.251   1.684   4.805 -0.2293  0.6087 -0.1097
 3651SOL    HW122586   3.164   1.645   4.793  0.2984 -0.7234  0.4414
 3651SOL    HW222587   3.232   1.777   4.819 -0.2333  0.3515  1.6027
 3652SOL     OW22588   1.457   4.536   9.564  0.1430 -0.5351  0.6384
 3652SOL    HW122589   1.530   4.589   9.597 -1.6476  1.9019  0.6426
 3652SOL    HW222590   1.453   4.558   9.472  2.4230 -0.2138  0.6056
 3653SOL     OW22591   3.993   1.223   4.825  0.3102 -0.4374 -0.0680
 3653SOL    HW122592   4.025   1.284   4.758 -0.4487 -0.5857 -0.5682
 3653SOL    HW222593   3.988   1.284   4.898 -1.0946 -0.2896 -0.2883
 3654SOL     OW22594   1.794   4.290  13.541  0.7354 -0.5370  0.7137
 3654SOL    HW122595   1.698   4.293  13.539  0.8823  2.8664 -1.4046
 3654SOL    HW222596   1.822   4.233  13.469 -0.7423  1.5305 -1.5383
 3655SOL     OW22597   3.999   2.080   3.065 -0.0707 -0.2916  0.7474
 3655SOL    HW122598   4.073   2.020   3.069  0.1052 -0.1789 -0.8202
 3655SOL    HW222599   3.956   2.051   2.984 -0.0034 -0.9089  0.9326
 3656SOL     OW22600   2.672   3.032   8.609 -0.1541  0.5934 -0.1436
 3656SOL    HW122601   2.741   3.016   8.544 -0.5163  0.3036 -0.4565
 3656SOL    HW222602   2.596   3.027   8.551 -1.2167  0.7382  1.2577
 3657SOL     OW22603   4.039   4.546   6.986  0.2185  0.1142  0.0652
 3657SOL    HW122604   4.009   4.463   7.022 -0.7033 -0.7633 -2.7301
 3657SOL    HW222605   3.997   4.542   6.900 -2.3101  1.4549  1.2480
 3658SOL     OW22606   2.121   3.362   5.746 -0.6868 -0.2937 -0.1943
 3658SOL    HW122607   2.183   3.292   5.724 -0.8606 -0.3572 -0.4877
 3658SOL    HW222608   2.041   3.320   5.778 -0.2986 -0.2623  0.8065
 3659SOL     OW22609   0.221   3.413   6.489  0.0641  0.4099 -0.2648
 3659SOL    HW122610   0.210   3.448   6.577  1.1141 -0.7881  0.3244
 3659SOL    HW222611   0.307   3.373   6.496  2.0155  4.5046 -0.4848
 3660SOL     OW22612   3.753   0.079  11.408  0.0020  0.3420 -0.0083
 3660SOL    HW122613   3.717   0.071  11.320  1.2978 -0.7062 -0.4411
 3660SOL    HW222614   3.832   0.130  11.394 -0.1425  0.4656 -0.3730
 3661SOL     OW22615   0.586   3.002  17.635  0.4837 -0.0199  0.2085
 3661SOL    HW122616   0.582   3.056  17.556  0.9767 -1.6598 -0.9320
 3661SOL    HW222617   0.584   3.070  17.704  2.3705  0.4660 -0.2121
 3662SOL     OW22618   4.078   3.179   5.770 -0.6343 -0.1441 -0.3822
 3662SOL    HW122619   4.079   3.270   5.741  0.2105  0.1596  0.5872
 3662SOL    HW222620   4.072   3.130   5.689  1.0075  0.9353 -1.1597
 3663SOL     OW22621   1.188   2.097   3.329 -0.5696  0.1410 -0.2496
 3663SOL    HW122622   1.253   2.160   3.362 -0.0414 -0.5568  0.0328
 3663SOL    HW222623   1.246   2.028   3.297 -2.6593 -1.4307 -0.6177
 3664SOL     OW22624   3.754   4.287  11.398  0.5176  0.6802 -0.0827
 3664SOL    HW122625   3.690   4.344  11.440  2.5577  2.1246  1.1008
 3664SOL    HW222626   3.729   4.300  11.307 -0.0026  1.4193  0.1663
 3665SOL     OW22627   0.942   2.824   2.990 -0.4932 -0.4418 -0.8168
 3665SOL    HW122628   0.981   2.782   3.067 -2.1729  2.4803  1.6093
 3665SOL    HW222629   0.886   2.759   2.947 -2.3809 -0.0834  1.0884
 3666SOL     OW22630   0.048   4.439   8.364 -0.7374 -0.3942 -0.4876
 3666SOL    HW122631   0.086   4.358   8.330  0.4645  1.0535 -2.6110
 3666SOL    HW222632   0.014   4.492   8.292 -0.9007  0.7160  0.4036
 3667SOL     OW22633   0.685   0.683   5.291 -0.0584 -0.3263  0.0113
 3667SOL    HW122634   0.712   0.774   5.279 -3.0785  0.6802  0.7933
 3667SOL    HW222635   0.755   0.667   5.354  1.9340 -0.7633 -2.3236
 3668SOL     OW22636   0.047   3.624   6.050  0.2246  0.4715 -0.3224
 3668SOL    HW122637   0.088   3.557   6.103  1.2218 -0.2703 -2.0121
 3668SOL    HW222638   4.707   3.645   6.102 -0.8494 -1.0287 -1.2989
 3669SOL     OW22639   1.172   3.201  10.459  0.9583 -0.3387  0.0336
 3669SOL    HW122640   1.255   3.168  10.495  2.0637  1.1185 -1.1844
 3669SOL    HW222641   1.188   3.166  10.371 -0.5123 -0.7569 -0.0621
 3670SOL     OW22642   1.457   2.201   2.850  0.5317  0.7997  0.1577
 3670SOL    HW122643   1.510   2.277   2.876  0.0645  1.2403 -0.1896
 3670SOL    HW222644   1.477   2.143   2.924  0.8683  0.5523 -0.1258
 3671SOL     OW22645   4.233   1.200   1.130  0.0423  0.0911  0.2525
 3671SOL    HW122646   4.177   1.256   1.076 -0.5152 -0.2911  0.4303
 3671SOL    HW222647   4.200   1.207   1.219  0.1962  2.0901  0.1592
 3672SOL     OW22648   1.885   1.502   2.774 -0.5281 -0.9580  0.5112
 3672SOL    HW122649   1.945   1.438   2.736 -0.0809 -0.8232  0.9971
 3672SOL    HW222650   1.813   1.446   2.803 -1.4412  0.4357  0.9707
 3673SOL     OW22651   4.267   4.202  14.753 -0.6773  0.0691 -0.2251
 3673SOL    HW122652   4.325   4.220  14.679 -1.8514 -0.6366 -1.3300
 3673SOL    HW222653   4.198   4.268  14.750 -1.1100 -0.2879  2.1825
 3674SOL     OW22654   2.837   3.614  17.112  0.3185 -0.2459  0.3145
 3674SOL    HW122655   2.932   3.617  17.108  0.4899 -2.4092  2.9578
 3674SOL    HW222656   2.815   3.525  17.138  3.2447 -0.2611  2.6147
 3675SOL     OW22657   4.660   3.178   9.122 -0.1726  0.3677  0.6342
 3675SOL    HW122658   4.687   3.102   9.174  0.6862  0.2206 -0.0349
 3675SOL    HW222659   4.567   3.160   9.105 -0.0511  0.6600 -0.3330
 3676SOL     OW22660   3.714   0.579  15.392  0.6316  0.4630  0.6719
 3676SOL    HW122661   3.723   0.489  15.359  0.3637  2.1925 -4.1617
 3676SOL    HW222662   3.697   0.564  15.485  2.1374  0.5876  0.9724
 3677SOL     OW22663   1.260   4.317   5.956  0.1621  0.1639  0.6424
 3677SOL    HW122664   1.246   4.223   5.967 -0.1509  0.0523 -0.6815
 3677SOL    HW222665   1.352   4.322   5.982  0.5179  1.0961 -0.7695
 3678SOL     OW22666   1.173   3.436   9.342  0.2832 -0.1856 -0.3790
 3678SOL    HW122667   1.204   3.373   9.277  0.6761  0.1218 -0.4860
 3678SOL    HW222668   1.083   3.402   9.348  0.9705 -1.8912  0.1275
 3679SOL     OW22669   4.055   1.348   6.659 -0.1116  0.5749  0.1254
 3679SOL    HW122670   4.072   1.424   6.602  3.2050 -0.3905 -0.1890
 3679SOL    HW222671   4.144   1.338   6.694  0.2911 -0.2067 -1.1238
 3680SOL     OW22672   0.596   4.650   2.844  0.2937 -0.0332  0.4859
 3680SOL    HW122673   0.554   4.734   2.863  0.4988  0.0607  0.5321
 3680SOL    HW222674   0.687   4.680   2.837  0.1295  1.1506  3.1320
 3681SOL     OW22675   2.653   1.094  17.290  0.3098 -0.2894  0.1499
 3681SOL    HW122676   2.595   1.143  17.347  1.0750  1.5987 -0.7008
 3681SOL    HW222677   2.604   1.074  17.210 -0.4969 -0.5931  0.7148
 3682SOL     OW22678   0.129   3.038  13.282  0.2345  0.1970  0.3598
 3682SOL    HW122679   0.167   3.124  13.302 -0.8302  0.3592  1.7218
 3682SOL    HW222680   0.052   3.037  13.339 -1.1949  2.3051 -1.4863
 3683SOL     OW22681   0.470   2.455  12.039 -0.1875  0.3665 -0.8343
 3683SOL    HW122682   0.526   2.533  12.042  1.5493 -0.9077  0.5825
 3683SOL    HW222683   0.399   2.477  12.099 -0.9834 -0.8732 -1.3241
 3684SOL     OW22684   1.388   1.654   6.054 -0.1104 -0.8776 -0.0293
 3684SOL    HW122685   1.476   1.630   6.083 -0.2662 -1.1527  0.2144
 3684SOL    HW222686   1.372   1.586   5.988 -1.5183 -0.5386 -0.0367
 3685SOL     OW22687   1.942   2.822   7.547 -0.9407 -0.0329  0.2400
 3685SOL    HW122688   2.002   2.883   7.591 -0.2686  0.3233 -1.1607
 3685SOL    HW222689   1.853   2.855   7.556 -0.5259  0.7616  1.3241
 3686SOL     OW22690   0.014   1.171   7.271  0.5268 -0.4587  0.7627
 3686SOL    HW122691   4.712   1.249   7.232 -0.4434 -0.8159  1.0357
 3686SOL    HW222692   0.102   1.169   7.234  0.3005  0.7557  0.1512
 3687SOL     OW22693   3.669   2.854   6.067 -0.1324 -0.2506  0.5487
 3687SOL    HW122694   3.741   2.912   6.042  0.8457 -1.7117 -0.0286
 3687SOL    HW222695   3.628   2.897   6.142 -0.8448 -2.6251  1.5318
 3688SOL     OW22696   2.438   4.062   8.687 -0.7358 -1.0513 -0.3457
 3688SOL    HW122697   2.345   4.052   8.709 -1.3021 -2.1877 -3.3413
 3688SOL    HW222698   2.444   4.008   8.609  2.1919  0.1010 -0.9172
 3689SOL     OW22699   0.843   0.671   3.786  0.5003 -0.2718 -0.1716
 3689SOL    HW122700   0.827   0.764   3.767 -1.0456 -0.5639 -0.3119
 3689SOL    HW222701   0.772   0.629   3.737 -0.2127  0.7771 -0.0398
 3690SOL     OW22702   0.308   0.645   5.436 -0.7659  0.1854 -0.3472
 3690SOL    HW122703   0.330   0.620   5.526 -1.0972  1.4557  0.0920
 3690SOL    HW222704   0.283   0.734   5.463 -1.6462 -0.0120 -0.4940
 3691SOL     OW22705   4.391   2.232   4.310  0.6630  0.2530 -0.0420
 3691SOL    HW122706   4.318   2.202   4.256  0.1600  1.1391  0.1324
 3691SOL    HW222707   4.351   2.305   4.358  0.5143 -0.0210  0.2420
 3692SOL     OW22708   4.638   3.251  10.621 -0.1028  0.8227  0.0164
 3692SOL    HW122709   4.544   3.263  10.609 -0.3213 -1.6600 -0.8972
 3692SOL    HW222710   4.660   3.229  10.530  1.8193  0.7565  0.4952
 3693SOL     OW22711   1.010   2.928   2.099 -0.3358  0.3241  0.3464
 3693SOL    HW122712   1.091   2.884   2.074 -1.8855 -2.2574 -0.1396
 3693SOL    HW222713   1.022   3.019   2.070  1.0873 -1.1511 -3.7164
 3694SOL     OW22714   2.555   1.786   6.617  0.4480  0.1907 -0.6455
 3694SOL    HW122715   2.494   1.784   6.543  1.0233 -1.1312 -1.0702
 3694SOL    HW222716   2.599   1.870   6.606  0.8799 -0.0714 -0.9153
 3695SOL     OW22717   1.939   4.674   8.992 -0.6029  0.1020  0.5050
 3695SOL    HW122718   1.984   4.684   8.908  1.5427 -0.2396  1.6122
 3695SOL    HW222719   1.924   4.579   8.991  0.0357  0.0199 -1.0887
 3696SOL     OW22720   3.973   0.947   5.792 -0.1104  0.2978  0.9129
 3696SOL    HW122721   3.970   0.969   5.885  1.2297 -1.0207  1.2852
 3696SOL    HW222722   3.961   1.033   5.752  1.1122  0.3972  0.7464
 3697SOL     OW22723   0.282   0.613   6.980  0.5108 -0.0019  0.5341
 3697SOL    HW122724   0.265   0.695   7.026 -0.0209 -0.6556  1.4911
 3697SOL    HW222725   0.378   0.616   6.985  0.6936 -1.7292 -1.7783
 3698SOL     OW22726   2.769   3.186   8.193  0.1709 -0.4943  0.1305
 3698SOL    HW122727   2.760   3.277   8.219 -0.2631 -0.5021 -0.0100
 3698SOL    HW222728   2.835   3.192   8.123 -0.6015 -1.0523 -0.6392
 3699SOL     OW22729   1.980   3.702  12.551 -0.1343  0.2098  0.4647
 3699SOL    HW122730   1.915   3.640  12.517 -0.1356 -0.2136  1.2270
 3699SOL    HW222731   2.023   3.648  12.618  1.2830  1.0893  0.2539
 3700SOL     OW22732   3.466   3.728   5.473  0.5140 -0.1055  0.3336
 3700SOL    HW122733   3.406   3.788   5.515  1.0368 -0.7317  1.9763
 3700SOL    HW222734   3.451   3.747   5.380  2.4715  1.1396  0.2665
 3701SOL     OW22735   4.631   2.485   6.313  0.1197 -0.1875 -0.0972
 3701SOL    HW122736   4.660   2.575   6.297  4.5397 -1.4836  0.5286
 3701SOL    HW222737   4.577   2.477   6.234  0.5982 -1.4618 -0.2844
 3702SOL     OW22738   2.235   1.845   7.817 -0.3470 -0.4889 -0.4299
 3702SOL    HW122739   2.307   1.905   7.797 -0.9923  0.3559 -0.1980
 3702SOL    HW222740   2.197   1.889   7.893  1.9838 -1.7392  1.4666
 3703SOL     OW22741   4.439   3.604  10.253 -0.1864 -0.6756  0.1599
 3703SOL    HW122742   4.409   3.547  10.323 -0.9692 -1.8202 -1.0946
 3703SOL    HW222743   4.356   3.647  10.231 -0.5629 -1.4322  0.1070
 3704SOL     OW22744   3.848   3.463   3.699  0.6218 -0.1605  0.2236
 3704SOL    HW122745   3.865   3.500   3.786  2.0639  1.8888 -0.9314
 3704SOL    HW222746   3.936   3.482   3.668  1.0097  2.2344  2.7626
 3705SOL     OW22747   2.110   1.408   4.064  0.7861 -0.2935  0.4305
 3705SOL    HW122748   2.062   1.483   4.098  1.0247 -0.2065  0.5797
 3705SOL    HW222749   2.188   1.458   4.038  0.1612  0.6700  0.3833
 3706SOL     OW22750   0.585   2.063   4.556 -0.7094 -0.0318  0.5178
 3706SOL    HW122751   0.490   2.065   4.548 -0.7195 -0.4601  0.5256
 3706SOL    HW222752   0.600   2.150   4.520  0.8553 -0.6127 -0.2295
 3707SOL     OW22753   1.265   4.732   8.174 -0.4461  0.2090 -0.5551
 3707SOL    HW122754   1.250   4.734   8.080  2.6973  1.0474 -1.0261
 3707SOL    HW222755   1.263   0.086   8.202 -1.6655  1.0685 -3.4673
 3708SOL     OW22756   4.205   1.329  14.940 -0.3485  0.2974  0.2158
 3708SOL    HW122757   4.194   1.419  14.971 -0.0859 -0.0933  1.4550
 3708SOL    HW222758   4.166   1.278  15.011 -0.3261 -0.4855 -0.3428
 3709SOL     OW22759   4.389   1.017   4.019  0.3961  0.3709 -0.3090
 3709SOL    HW122760   4.346   1.075   4.082 -0.1133  0.1127 -0.4203
 3709SOL    HW222761   4.447   1.087   3.989  1.6204  0.0260  1.2760
 3710SOL     OW22762   1.045   3.977   2.509 -0.5871 -0.1420  0.3365
 3710SOL    HW122763   0.960   3.953   2.471 -0.4992 -1.8906  1.2388
 3710SOL    HW222764   1.100   3.928   2.449 -0.7199  0.5058 -0.3164
 3711SOL     OW22765   3.142   3.371  11.035 -0.5989  0.4762  0.0304
 3711SOL    HW122766   3.191   3.335  10.961  1.8854 -0.0167  1.8714
 3711SOL    HW222767   3.056   3.334  11.016  0.3286 -2.1580  1.0036
 3712SOL     OW22768   3.858   2.294  15.385 -0.0623  0.1262 -0.3625
 3712SOL    HW122769   3.823   2.265  15.470  0.1951  2.9971  0.6962
 3712SOL    HW222770   3.788   2.301  15.319 -1.0416 -1.5921  0.4881
 3713SOL     OW22771   0.605   4.160   1.626  0.0679 -0.0374  0.6189
 3713SOL    HW122772   0.643   4.116   1.550 -0.9702  1.2534 -0.6494
 3713SOL    HW222773   0.551   4.091   1.663 -0.6607 -0.6154 -1.5349
 3714SOL     OW22774   4.544   0.210   9.552 -0.0738  0.1581  1.0702
 3714SOL    HW122775   4.460   0.244   9.524 -0.4809  0.2070  2.3519
 3714SOL    HW222776   4.595   0.290   9.541  1.4174 -0.8009  1.0139
 3715SOL     OW22777   2.453   1.113   3.498 -0.4360 -0.7522 -0.3850
 3715SOL    HW122778   2.424   1.100   3.588 -0.4725 -0.2309 -0.3205
 3715SOL    HW222779   2.410   1.188   3.457  2.1130 -0.4719 -2.5824
 3716SOL     OW22780   2.594   2.164   3.425  0.9075  0.2804 -0.3895
 3716SOL    HW122781   2.662   2.136   3.363  0.4943  2.1722 -1.6944
 3716SOL    HW222782   2.636   2.162   3.511 -1.0838  1.1015  0.5877
 3717SOL     OW22783   0.554   0.645   8.238  0.2973 -0.5868 -0.3770
 3717SOL    HW122784   0.466   0.681   8.229  0.0305 -0.9486  0.8173
 3717SOL    HW222785   0.603   0.727   8.231  0.2916 -0.7408 -2.3250
 3718SOL     OW22786   2.522   0.856   5.480 -0.2680 -0.0705  0.1205
 3718SOL    HW122787   2.577   0.782   5.506  0.3955  0.1000 -0.8024
 3718SOL    HW222788   2.568   0.882   5.400  1.1833 -2.4768  0.1786
 3719SOL     OW22789   3.423   4.606   5.182 -0.6977  0.0823 -0.7461
 3719SOL    HW122790   3.443   4.631   5.272 -1.8407  0.7066 -0.6644
 3719SOL    HW222791   3.434   4.694   5.146  1.0277 -0.3386 -1.2467
 3720SOL     OW22792   4.403   3.547  14.953  0.3142  0.2648 -0.4935
 3720SOL    HW122793   4.358   3.463  14.946  0.4363  0.0474  1.4331
 3720SOL    HW222794   4.343   3.613  14.918 -0.1237 -1.0738 -2.2752
 3721SOL     OW22795   2.787   4.139   2.850  0.0254  0.2508 -0.5210
 3721SOL    HW122796   2.707   4.086   2.844 -1.4473  2.4030  0.0236
 3721SOL    HW222797   2.846   4.083   2.901 -0.9701  1.5261  2.0138
 3722SOL     OW22798   0.230   2.880   7.597 -0.2090 -0.2480  0.0891
 3722SOL    HW122799   0.228   2.970   7.631  0.6066 -1.5170  3.4528
 3722SOL    HW222800   0.151   2.834   7.627  0.2435  0.2454  2.0704
 3723SOL     OW22801   0.081   2.579   3.392  0.1428 -0.2199  0.1052
 3723SOL    HW122802   0.019   2.542   3.329 -2.2049 -0.6957  2.7385
 3723SOL    HW222803   0.055   2.671   3.393 -0.4670 -0.4293  2.2386
 3724SOL     OW22804   1.406   0.134  16.760  0.1512 -0.2449  0.1026
 3724SOL    HW122805   1.446   0.066  16.814  1.0605  0.3850  0.2295
 3724SOL    HW222806   1.315   0.140  16.787 -0.0122  0.1936 -0.5561
 3725SOL     OW22807   0.179   3.894  10.208 -0.3107 -0.3734  0.2261
 3725SOL    HW122808   0.192   3.800  10.221  0.3399 -0.4031 -0.6454
 3725SOL    HW222809   0.242   3.925  10.273  0.6177  0.6982 -1.1839
 3726SOL     OW22810   2.268   3.829   1.818 -0.5981 -0.0650  0.1685
 3726SOL    HW122811   2.200   3.894   1.799  0.1452  0.6031 -0.1926
 3726SOL    HW222812   2.211   3.753   1.803 -0.1688 -0.3175 -0.2107
 3727SOL     OW22813   1.897   2.722   7.031 -0.0808 -0.6233  0.7000
 3727SOL    HW122814   1.881   2.779   6.955  1.9134  1.2400  1.6867
 3727SOL    HW222815   1.846   2.772   7.094  0.3595  1.2051 -0.3913
 3728SOL     OW22816   1.543   3.590   8.285  0.2849 -0.0372 -0.1442
 3728SOL    HW122817   1.619   3.568   8.338 -0.3749 -2.3099 -0.1385
 3728SOL    HW222818   1.577   3.661   8.231  2.8147 -0.4259  0.9420
 3729SOL     OW22819   0.474   3.205   7.085 -0.4317  0.1009  0.5134
 3729SOL    HW122820   0.427   3.225   7.166 -1.1103  0.6836 -0.0263
 3729SOL    HW222821   0.562   3.188   7.120  0.3948  2.6195 -0.3036
 3730SOL     OW22822   3.991   0.527  17.698 -0.2996 -0.0060  0.0260
 3730SOL    HW122823   3.914   0.525  17.641  1.3466  0.2372 -2.2324
 3730SOL    HW222824   4.059   0.486  17.645 -0.7088 -0.6766  0.0149
 3731SOL     OW22825   4.679   4.049   6.729 -0.4023 -0.1941  0.3065
 3731SOL    HW122826   4.635   4.066   6.646 -1.0892 -0.9142  0.5159
 3731SOL    HW222827   4.640   3.965   6.753  0.9055 -0.9872 -0.3420
 3732SOL     OW22828   3.295   1.017  14.323  0.2876  0.3565 -0.3029
 3732SOL    HW122829   3.305   0.927  14.353  1.3676  1.1520  1.7531
 3732SOL    HW222830   3.200   1.029  14.326  0.1693 -0.0529 -2.1323
 3733SOL     OW22831   1.556   4.698   2.812  0.2122  0.0976 -0.4517
 3733SOL    HW122832   1.536   4.702   2.718  2.7475  0.0064 -0.9978
 3733SOL    HW222833   1.650   4.710   2.819  0.1163  0.6096 -0.1197
 3734SOL     OW22834   2.610   2.841   3.068  0.0645 -0.0269  0.4256
 3734SOL    HW122835   2.657   2.764   3.033  1.1878  0.4930  0.8014
 3734SOL    HW222836   2.520   2.809   3.069 -0.0235  0.1511 -0.9476
 3735SOL     OW22837   0.373   3.956   3.723 -0.1403 -0.8144 -0.2833
 3735SOL    HW122838   0.362   3.968   3.628  1.4085 -0.2443 -0.3837
 3735SOL    HW222839   0.287   3.921   3.746 -0.8178 -0.6835 -2.6081
 3736SOL     OW22840   4.421   3.019   2.126  0.0912 -0.1213 -0.4869
 3736SOL    HW122841   4.466   3.040   2.208 -2.7426  0.2451  0.9618
 3736SOL    HW222842   4.395   3.105   2.093 -0.6206 -0.0574  0.2505
 3737SOL     OW22843   0.558   2.414  15.180  0.0794 -0.1442 -0.3213
 3737SOL    HW122844   0.474   2.416  15.226  0.0570 -1.4878 -0.3095
 3737SOL    HW222845   0.543   2.477  15.109  0.0706 -0.1521 -0.3265
 3738SOL     OW22846   1.174   2.589  12.604  0.0349 -0.2093 -0.4828
 3738SOL    HW122847   1.245   2.537  12.642 -2.1040 -2.5742  0.2918
 3738SOL    HW222848   1.126   2.595  12.687  0.0423  0.0100 -0.4955
 3739SOL     OW22849   4.512   0.428   6.886 -0.0016 -0.1500  0.0211
 3739SOL    HW122850   4.596   0.457   6.923 -1.0658  0.8162  1.6897
 3739SOL    HW222851   4.508   0.503   6.827  1.3459 -0.9091 -1.0415
 3740SOL     OW22852   3.224   1.035   3.301 -0.1977 -0.4112 -0.0433
 3740SOL    HW122853   3.283   1.017   3.375 -0.4150 -2.2530 -0.3258
 3740SOL    HW222854   3.241   1.129   3.290  1.4041 -0.8397 -1.2226
 3741SOL     OW22855   0.464   1.099   0.265  0.0800 -0.3292  0.3568
 3741SOL    HW122856   0.524   1.133   0.332  0.6775 -0.8458  0.0760
 3741SOL    HW222857   0.423   1.025   0.309 -3.8773  1.1374 -0.9363
 3742SOL     OW22858   0.341   2.267   8.037 -0.2809  0.0947 -0.9784
 3742SOL    HW122859   0.420   2.220   8.009 -1.1725 -1.2949 -1.1953
 3742SOL    HW222860   0.339   2.337   7.973  0.7819  1.1309  0.1404
 3743SOL     OW22861   1.058   2.788   3.440 -0.6968 -0.2022 -0.3925
 3743SOL    HW122862   1.135   2.750   3.396 -1.6998 -0.8115 -1.6312
 3743SOL    HW222863   1.072   2.883   3.432  1.1948 -0.6915 -2.9161
 3744SOL     OW22864   3.269   0.965   5.581  0.1136  0.4521  0.2867
 3744SOL    HW122865   3.188   1.013   5.567 -0.0059 -0.2152 -1.3504
 3744SOL    HW222866   3.251   0.874   5.559  0.2999  0.7262 -1.0259
 3745SOL     OW22867   3.514   3.197   2.005 -0.0998 -0.3860 -0.0142
 3745SOL    HW122868   3.570   3.167   2.076  1.6126  1.4882 -0.5608
 3745SOL    HW222869   3.457   3.250   2.061 -0.6544  0.4353 -1.3504
 3746SOL     OW22870   0.158   3.454  10.984 -0.2704 -0.5067 -0.4238
 3746SOL    HW122871   0.078   3.404  10.969 -1.2065  0.4278  1.3658
 3746SOL    HW222872   0.226   3.389  11.001 -0.9586 -1.1275 -0.0482
 3747SOL     OW22873   0.325   1.607   8.779 -0.2991 -0.2549 -0.1608
 3747SOL    HW122874   0.312   1.696   8.744  0.2171 -0.5557 -1.1160
 3747SOL    HW222875   0.231   1.589   8.775 -1.0828  3.0702  3.3426
 3748SOL     OW22876   4.578   4.669  14.360  0.6373 -0.5647 -0.6222
 3748SOL    HW122877   4.552   4.629  14.278  0.5995 -0.7349 -0.5261
 3748SOL    HW222878   4.493   4.679  14.403  1.0297  1.0359 -0.2093
 3749SOL     OW22879   0.251   3.101  10.321 -0.9150  0.1957  0.0564
 3749SOL    HW122880   0.346   3.103  10.333 -1.1792 -1.3037  2.4503
 3749SOL    HW222881   0.219   3.141  10.402 -0.5277 -0.0667  0.3383
 3750SOL     OW22882   3.647   3.910   1.703  0.3084 -0.1900  0.6805
 3750SOL    HW122883   3.606   3.862   1.631 -0.7382  0.1154  1.0616
 3750SOL    HW222884   3.738   3.881   1.701 -0.0118 -1.1027 -0.7735
 3751SOL     OW22885   4.686   3.907   1.715 -0.4646  0.2125 -0.0115
 3751SOL    HW122886   0.043   3.902   1.734 -0.7064  0.6481  1.2909
 3751SOL    HW222887   4.679   3.856   1.634 -1.8207 -0.5335  0.5839
 3752SOL     OW22888   4.112   2.115   9.446 -0.0392  0.6427 -0.2485
 3752SOL    HW122889   4.191   2.148   9.489  0.5722 -1.1487 -0.0102
 3752SOL    HW222890   4.148   2.030   9.420 -0.5307 -0.0225  1.2772
 3753SOL     OW22891   2.612   4.336   3.456 -0.0721 -0.1919 -0.4605
 3753SOL    HW122892   2.619   4.430   3.474  0.3858 -0.2668 -0.2600
 3753SOL    HW222893   2.520   4.318   3.438  0.2399 -1.4281 -0.7743
 3754SOL     OW22894   2.275   3.663   7.152 -0.2061  0.1222 -0.4286
 3754SOL    HW122895   2.348   3.720   7.175  0.2232 -0.8075  0.4873
 3754SOL    HW222896   2.300   3.636   7.064 -1.6366 -1.7890 -0.2419
 3755SOL     OW22897   0.242   3.758   7.226  0.4302  0.4396 -0.4373
 3755SOL    HW122898   0.301   3.810   7.170  1.3585  0.1274  0.2480
 3755SOL    HW222899   0.299   3.688   7.256  3.8010  1.8537 -3.4631
 3756SOL     OW22900   4.159   0.475   7.772 -0.1629  0.1347 -0.2839
 3756SOL    HW122901   4.229   0.536   7.748 -0.7496  1.3216  1.0200
 3756SOL    HW222902   4.092   0.536   7.804  1.1703  1.2763  0.3776
 3757SOL     OW22903   0.732   4.637  16.931 -0.4194 -0.7549 -0.3898
 3757SOL    HW122904   0.724   4.543  16.941 -2.7111 -0.5077  0.0830
 3757SOL    HW222905   0.675   4.657  16.857  0.8037  0.9722 -0.8611
 3758SOL     OW22906   4.132   3.350  11.379 -0.3562  0.8281  0.0092
 3758SOL    HW122907   4.136   3.364  11.474 -1.0651 -1.6703  0.4005
 3758SOL    HW222908   4.224   3.353  11.354  0.1366  1.7210  1.9300
 3759SOL     OW22909   2.181   1.004   6.195  0.8353 -0.1168 -0.0900
 3759SOL    HW122910   2.219   0.925   6.155  0.8997 -0.4755  0.6916
 3759SOL    HW222911   2.097   1.003   6.150  0.9724 -0.3077 -0.3433
 3760SOL     OW22912   1.644   4.432   4.611 -0.3887  0.3755  0.2281
 3760SOL    HW122913   1.606   4.346   4.595  1.1428 -0.7056  2.4474
 3760SOL    HW222914   1.735   4.411   4.633  0.0976  2.4396  0.2218
 3761SOL     OW22915   0.614   0.186   3.559  0.1604  0.1622 -0.7003
 3761SOL    HW122916   0.670   0.245   3.507 -1.1207  0.1706 -2.0719
 3761SOL    HW222917   0.564   0.147   3.487 -2.2225  0.4817  0.8033
 3762SOL     OW22918   3.139   1.639  13.184  0.3358 -0.1400  0.3194
 3762SOL    HW122919   3.225   1.647  13.226  1.6433  0.1320 -2.3967
 3762SOL    HW222920   3.093   1.721  13.206 -1.6848 -1.3048  0.4265
 3763SOL     OW22921   0.043   2.365   1.848 -0.2870 -0.3870  0.0228
 3763SOL    HW122922   0.022   2.445   1.896 -0.0614 -0.5009  0.3081
 3763SOL    HW222923   0.056   2.404   1.762 -1.2989 -1.5150 -0.6452
 3764SOL     OW22924   3.641   2.531  14.027 -0.1130 -0.2680  1.1171
 3764SOL    HW122925   3.677   2.607  13.982 -2.6608 -1.0665 -2.2785
 3764SOL    HW222926   3.571   2.513  13.964 -0.3557 -0.2616  1.3816
 3765SOL     OW22927   0.227   3.452   9.798  0.4844 -0.3567  0.2639
 3765SOL    HW122928   0.197   3.457   9.889  0.1303  1.1498  0.0544
 3765SOL    HW222929   0.151   3.486   9.752  1.4334  0.5927 -0.5886
 3766SOL     OW22930   3.677   3.408   4.043  0.3210 -0.4505  0.2897
 3766SOL    HW122931   3.652   3.318   4.063  0.2957 -0.3078  0.9048
 3766SOL    HW222932   3.773   3.407   4.045  0.2669  0.2194  4.6731
 3767SOL     OW22933   3.454   2.181   6.088  0.1129  0.3892  0.0477
 3767SOL    HW122934   3.459   2.227   6.171  3.1532  0.1221  0.0003
 3767SOL    HW222935   3.426   2.249   6.027 -0.7756 -0.6303 -0.6865
 3768SOL     OW22936   3.661   2.892  12.796 -0.1276 -0.2518  0.0327
 3768SOL    HW122937   3.667   2.987  12.780  1.5693 -0.6527 -1.6127
 3768SOL    HW222938   3.666   2.851  12.710  0.2245 -0.8322  0.3313
 3769SOL     OW22939   2.145   0.603   6.685  0.0012  0.1010  0.2821
 3769SOL    HW122940   2.078   0.670   6.682 -0.8414 -0.7297  0.6360
 3769SOL    HW222941   2.129   0.553   6.765  1.6356 -0.0149  0.5537
 3770SOL     OW22942   3.712   1.247   6.395 -0.1653  0.2686  0.2579
 3770SOL    HW122943   3.777   1.231   6.464 -0.3596  0.8190  0.5698
 3770SOL    HW222944   3.708   1.156   6.365 -2.4260 -0.3605  2.5301
 3771SOL     OW22945   1.670   3.343  11.993 -0.0992  0.3812  0.6124
 3771SOL    HW122946   1.687   3.249  11.995  1.7688  0.7044 -0.3289
 3771SOL    HW222947   1.606   3.341  11.922 -1.8145 -1.7211  2.2149
 3772SOL     OW22948   0.994   1.673   9.306  0.3499 -0.3628  0.0804
 3772SOL    HW122949   1.017   1.580   9.299 -0.5476 -0.4814 -1.2592
 3772SOL    HW222950   0.958   1.689   9.219 -2.2729 -0.4719  1.1351
 3773SOL     OW22951   1.754   2.045   3.975  0.5107 -0.4524  0.1966
 3773SOL    HW122952   1.702   1.971   3.945 -1.4114  0.0849  2.2780
 3773SOL    HW222953   1.706   2.128   3.969  0.7868 -0.4176 -1.5825
 3774SOL     OW22954   2.408   3.489   1.956 -0.3851  0.1948  0.2812
 3774SOL    HW122955   2.392   3.439   1.875  3.7341  0.4259 -0.6751
 3774SOL    HW222956   2.336   3.552   1.958 -1.6076 -1.1825 -0.0159
 3775SOL     OW22957   1.284   1.756   9.433  0.5457  0.0355  0.2898
 3775SOL    HW122958   1.202   1.746   9.384  0.7244 -0.9377  0.1968
 3775SOL    HW222959   1.313   1.845   9.414  2.1720 -0.7484 -1.0077
 3776SOL     OW22960   3.516   0.393   5.345  0.0903 -0.1584  0.1609
 3776SOL    HW122961   3.607   0.404   5.319 -1.0265  0.6600 -3.3709
 3776SOL    HW222962   3.477   0.456   5.284 -0.0303  1.7210  2.1528
 3777SOL     OW22963   2.289   1.446   0.886 -0.4183 -0.2940  0.0450
 3777SOL    HW122964   2.362   1.435   0.825  0.2423  1.8198  0.4667
 3777SOL    HW222965   2.275   1.539   0.869 -1.2905 -0.7638 -1.8028
 3778SOL     OW22966   3.515   3.660   9.298  0.3886  0.1987  0.4245
 3778SOL    HW122967   3.544   3.569   9.288 -3.1595 -0.9116  0.1371
 3778SOL    HW222968   3.601   3.686   9.265 -1.2600  0.6942 -3.5170
 3779SOL     OW22969   0.039   2.351   5.960  0.2354  1.1965 -0.2929
 3779SOL    HW122970   0.065   2.287   6.026 -0.6863  1.3046  0.1736
 3779SOL    HW222971   0.035   2.437   6.000 -1.1786  1.6665 -1.4703
 3780SOL     OW22972   4.506   3.558  12.585  0.3787  0.3157  0.6273
 3780SOL    HW122973   4.455   3.477  12.583  0.4174  0.3239 -0.8711
 3780SOL    HW222974   4.532   3.575  12.494  0.3220  0.1155  0.5739
 3781SOL     OW22975   4.539   0.001   4.365 -0.0014  0.1127 -0.1450
 3781SOL    HW122976   4.604   0.044   4.310 -0.3437  0.7432 -0.0584
 3781SOL    HW222977   4.598   4.668   4.392 -0.3893 -0.0546  0.2665
 3782SOL     OW22978   2.806   0.860  13.865  0.2890  0.1283 -0.3916
 3782SOL    HW122979   2.745   0.903  13.925  0.1555 -0.3608 -0.1802
 3782SOL    HW222980   2.875   0.825  13.920 -0.7597 -2.5647 -0.7472
 3783SOL     OW22981   3.605   3.350   8.585  0.7784  0.5203 -0.6407
 3783SOL    HW122982   3.594   3.403   8.664 -0.8101  0.2475 -0.6827
 3783SOL    HW222983   3.613   3.264   8.626 -2.3827  0.6766  0.2755
 3784SOL     OW22984   2.747   0.187   2.036  0.5768 -0.0399 -0.1280
 3784SOL    HW122985   2.763   0.210   1.945 -1.2865 -0.8815 -0.6650
 3784SOL    HW222986   2.675   0.125   2.036 -0.9117  1.6753 -1.5800
 3785SOL     OW22987   4.258   4.471   6.200  0.0452  0.5367  0.7483
 3785SOL    HW122988   4.304   4.480   6.283  1.2683 -2.0331  0.3407
 3785SOL    HW222989   4.276   4.557   6.161  1.3911  0.4824  1.2599
 3786SOL     OW22990   2.620   3.166  14.425 -0.2055 -0.0234 -0.0446
 3786SOL    HW122991   2.575   3.180  14.509 -3.0901 -1.3850 -1.3510
 3786SOL    HW222992   2.597   3.244  14.375  1.5768  0.4421 -0.1498
 3787SOL     OW22993   3.826   4.246  10.614 -0.2922  0.1070 -0.1665
 3787SOL    HW122994   3.827   4.317  10.678  3.1666 -0.1449  0.0926
 3787SOL    HW222995   3.919   4.238  10.592 -0.6921 -1.4787 -1.3031
 3788SOL     OW22996   4.426   1.949   2.197 -0.3854 -0.2369  0.2715
 3788SOL    HW122997   4.437   1.859   2.229  0.2595 -1.1209 -2.4487
 3788SOL    HW222998   4.422   1.932   2.103  0.9413  1.3936 -0.0903
 3789SOL     OW22999   4.195   1.363   2.499  0.1261  0.3388 -0.6499
 3789SOL    HW123000   4.136   1.344   2.426  0.1132 -1.1051 -0.2631
 3789SOL    HW223001   4.239   1.281   2.522 -2.0241 -0.3045  1.1635
 3790SOL     OW23002   0.373   1.940   5.101  0.2211  0.0785  0.7622
 3790SOL    HW123003   0.407   1.915   5.015 -0.3300  2.2852 -0.0982
 3790SOL    HW223004   0.392   2.034   5.097 -2.2503  0.7852  5.3754
 3791SOL     OW23005   4.336   0.131  16.334 -0.8474  0.8705  0.5311
 3791SOL    HW123006   4.323   0.053  16.281  3.6044  0.4637  0.0727
 3791SOL    HW223007   4.426   0.142  16.304 -0.0680 -1.5857  2.0261
 3792SOL     OW23008   0.415   1.591  16.094 -0.3330  0.7937 -0.0773
 3792SOL    HW123009   0.506   1.563  16.100  0.1003  2.1034 -0.6183
 3792SOL    HW223010   0.423   1.686  16.097  0.2335  0.6870  1.4375
 3793SOL     OW23011   1.040   4.667   2.471 -0.5592 -0.1526 -0.2343
 3793SOL    HW123012   0.995   4.685   2.554 -0.1649  0.3012 -0.1234
 3793SOL    HW223013   0.963   4.631   2.426  0.8610 -2.5292 -0.7382
 3794SOL     OW23014   0.428   2.403   4.795  0.5654  0.3483 -0.4416
 3794SOL    HW123015   0.400   2.457   4.868 -0.8304 -1.4802  0.3884
 3794SOL    HW223016   0.479   2.471   4.753 -0.5964  0.9977 -0.8162
 3795SOL     OW23017   1.622   2.223  13.798 -0.0273 -0.3549  0.1104
 3795SOL    HW123018   1.704   2.249  13.754 -2.2354  1.2256 -3.0892
 3795SOL    HW223019   1.601   2.296  13.857 -2.8964 -1.3818  0.3398
 3796SOL     OW23020   0.962   2.883   2.714 -0.0251  0.2514  0.3041
 3796SOL    HW123021   1.014   2.835   2.650 -0.8879 -1.0187  0.5527
 3796SOL    HW223022   0.947   2.825   2.789 -0.2590 -0.9547 -0.6782
 3797SOL     OW23023   1.367   3.280   5.339 -0.4195  0.1284  0.0974
 3797SOL    HW123024   1.443   3.241   5.383  0.6629  2.2466  0.1091
 3797SOL    HW223025   1.391   3.275   5.247 -1.6675  0.8969 -0.2719
 3798SOL     OW23026   0.124   4.156   7.226 -0.7961  0.0476  0.3765
 3798SOL    HW123027   0.186   4.210   7.177  1.0960 -2.6872 -0.2389
 3798SOL    HW223028   0.094   4.107   7.149  1.6643  0.3471 -0.7597
 3799SOL     OW23029   4.723   1.827   6.912  0.1526  0.7780 -0.6437
 3799SOL    HW123030   0.001   1.820   6.818  0.5759 -1.7874 -0.3925
 3799SOL    HW223031   0.058   1.884   6.939  0.5127  0.4853 -0.9911
 3800SOL     OW23032   2.122   2.417   7.245 -0.1214  0.2737  0.2113
 3800SOL    HW123033   2.052   2.357   7.219  0.4040 -0.9835  1.6873
 3800SOL    HW223034   2.126   2.472   7.167 -2.0481 -1.1175 -0.8578
 3801SOL     OW23035   4.338   2.283   3.892  0.5253 -0.0778  0.1214
 3801SOL    HW123036   4.320   2.303   3.984  0.7497 -2.0678  0.6027
 3801SOL    HW223037   4.311   2.359   3.842 -0.0750  0.6328  1.5406
 3802SOL     OW23038   2.794   3.277   1.052  0.4070  0.3083  0.4016
 3802SOL    HW123039   2.750   3.228   1.122  0.6836  1.1634  1.1717
 3802SOL    HW223040   2.733   3.272   0.979  0.9096  2.2223 -0.1440
 3803SOL     OW23041   4.590   2.342   9.581 -0.2250  0.6946 -0.1968
 3803SOL    HW123042   4.665   2.294   9.544 -0.7591  0.1361 -0.5532
 3803SOL    HW223043   4.619   2.399   9.652  1.2540 -0.1257 -0.1408
 3804SOL     OW23044   4.001   0.871   3.169 -0.5345 -0.5196  0.3729
 3804SOL    HW123045   4.084   0.875   3.216  1.0161  0.5117 -2.4128
 3804SOL    HW223046   3.936   0.902   3.231 -0.0019  2.2736 -0.4501
 3805SOL     OW23047   2.921   4.014   1.225  0.0688  0.3007 -0.1911
 3805SOL    HW123048   2.881   4.051   1.146 -1.1508 -1.6470 -0.4824
 3805SOL    HW223049   2.875   4.066   1.291  0.2287  0.3456 -0.1177
 3806SOL     OW23050   4.645   3.175  14.544 -0.1189 -0.4921  0.1518
 3806SOL    HW123051   4.675   3.213  14.461 -0.0982 -1.2470 -0.1903
 3806SOL    HW223052   4.661   3.244  14.607 -0.1012  0.2536 -0.6643
 3807SOL     OW23053   1.131   3.387   9.652 -0.7291  0.5918 -0.4721
 3807SOL    HW123054   1.192   3.346   9.713  0.4476  0.9574 -1.4009
 3807SOL    HW223055   1.186   3.408   9.577  0.6454  0.3495  0.4665
 3808SOL     OW23056   0.462   1.364   8.344  0.3209 -0.3631 -0.2015
 3808SOL    HW123057   0.522   1.425   8.386 -0.2577 -0.6517  1.0295
 3808SOL    HW223058   0.512   1.283   8.357 -0.1877 -0.4813  1.0569
 3809SOL     OW23059   3.431   1.670   7.653 -0.1199  0.4067 -0.6558
 3809SOL    HW123060   3.397   1.625   7.576 -0.6996  0.5957 -0.5064
 3809SOL    HW223061   3.482   1.741   7.611  0.1621 -0.5337 -1.9040
 3810SOL     OW23062   1.009   0.662   2.028  0.3592  0.3189 -0.0584
 3810SOL    HW123063   0.914   0.657   2.034  0.1005  2.1780 -2.4070
 3810SOL    HW223064   1.037   0.647   2.118  0.1552 -0.1208 -0.0671
 3811SOL     OW23065   3.090   3.345   8.537 -0.5583  0.3502 -0.8761
 3811SOL    HW123066   3.157   3.405   8.505  0.4945 -1.6470 -2.4017
 3811SOL    HW223067   3.138   3.264   8.551  0.6583  1.2010 -0.1512
 3812SOL     OW23068   0.159   2.370   7.760 -0.6115  0.1313  0.1345
 3812SOL    HW123069   0.234   2.420   7.793 -1.1893  1.1180 -0.0634
 3812SOL    HW223070   0.083   2.411   7.801 -1.2174 -0.5227 -0.3266
 3813SOL     OW23071   3.948   0.327   3.848  0.0792  0.8359 -0.3726
 3813SOL    HW123072   3.864   0.312   3.805 -0.0141 -1.8384  0.7107
 3813SOL    HW223073   3.915   0.363   3.931  0.5233 -0.5871  0.4204
 3814SOL     OW23074   2.146   3.218  10.212 -0.3993  0.1667 -0.0946
 3814SOL    HW123075   2.090   3.279  10.259 -0.8487 -2.0610  2.2315
 3814SOL    HW223076   2.142   3.248  10.121  1.0499 -0.2500 -0.3080
 3815SOL     OW23077   4.335   1.749   5.230 -0.4891 -0.5550  0.0429
 3815SOL    HW123078   4.428   1.752   5.251 -0.3548  2.1101 -0.9518
 3815SOL    HW223079   4.314   1.794   5.312  0.8679  3.2262 -1.7113
 3816SOL     OW23080   3.803   4.382   9.908 -0.3329  0.3454 -0.0787
 3816SOL    HW123081   3.785   4.350   9.997  1.4142 -0.1306  0.0936
 3816SOL    HW223082   3.885   4.426   9.932 -0.1148  0.0870 -0.3520
 3817SOL     OW23083   0.046   4.375   2.591  0.0646  0.5461 -0.1783
 3817SOL    HW123084   4.719   4.445   2.579 -1.6989 -1.0239  0.1931
 3817SOL    HW223085   0.116   4.406   2.533 -0.5551  1.8864 -0.2161
 3818SOL     OW23086   2.023   1.953  16.748  0.1212  0.6664 -0.2401
 3818SOL    HW123087   2.016   1.905  16.666 -1.2452  0.3792  0.0517
 3818SOL    HW223088   1.935   1.987  16.740 -0.0471  0.3623  0.2748
 3819SOL     OW23089   0.253   3.785  16.323  0.0172 -0.2315  0.1128
 3819SOL    HW123090   0.298   3.869  16.327 -0.1586 -0.1488  0.3883
 3819SOL    HW223091   0.247   3.775  16.228 -3.1913 -3.1467  0.5967
 3820SOL     OW23092   0.605   3.740   8.661 -0.3077 -0.3473  0.8810
 3820SOL    HW123093   0.523   3.752   8.711 -0.5710 -0.4911  0.4785
 3820SOL    HW223094   0.563   3.744   8.575 -0.5181 -1.2265  0.9474
 3821SOL     OW23095   2.377   2.372   9.757 -0.3439  0.0711  0.0529
 3821SOL    HW123096   2.320   2.435   9.800 -1.0407 -0.4066 -0.1774
 3821SOL    HW223097   2.445   2.356   9.822 -1.3938  0.9272  1.3544
 3822SOL     OW23098   0.390   1.818   2.069 -0.1519  0.0755  0.4292
 3822SOL    HW123099   0.468   1.867   2.041  0.5637 -1.2422  0.0878
 3822SOL    HW223100   0.420   1.735   2.031  2.2469  0.7541  0.8177
 3823SOL     OW23101   0.934   3.263  15.758  1.1953 -0.1144 -0.5873
 3823SOL    HW123102   1.006   3.289  15.815  0.5233 -0.2638  0.3274
 3823SOL    HW223103   0.953   3.315  15.680  0.8891  1.7049  0.5514
 3824SOL     OW23104   3.641   3.160   3.179  0.1626  0.0059  0.5356
 3824SOL    HW123105   3.683   3.238   3.143 -0.4020 -1.0017 -2.3264
 3824SOL    HW223106   3.552   3.184   3.155  0.5655  2.1009  1.1398
 3825SOL     OW23107   2.652   3.893   7.655 -0.0661 -0.2892 -0.5196
 3825SOL    HW123108   2.654   3.922   7.564  0.9150 -2.3970 -1.1441
 3825SOL    HW223109   2.643   3.969   7.713  0.1394 -0.7705  0.1429
 3826SOL     OW23110   4.472   0.964   3.174  0.2255 -0.4074 -0.6046
 3826SOL    HW123111   4.478   1.010   3.091 -2.8990  2.1857  0.6027
 3826SOL    HW223112   4.446   1.031   3.237 -1.4494 -0.6859 -1.0181
 3827SOL     OW23113   4.394   4.676   9.173 -0.1170 -0.2154 -0.1826
 3827SOL    HW123114   4.466   0.000   9.188  0.4571 -1.6454  2.8602
 3827SOL    HW223115   4.421   4.632   9.092  1.7153 -0.7519  0.7265
 3828SOL     OW23116   3.547   1.632   5.499  0.3198  0.0079  0.2258
 3828SOL    HW123117   3.562   1.576   5.575 -0.1989 -1.1990 -0.5493
 3828SOL    HW223118   3.575   1.571   5.430  1.0591  1.2356 -0.5579
 3829SOL     OW23119   3.648   2.521  17.028 -0.3279 -0.2663  0.1119
 3829SOL    HW123120   3.590   2.594  17.050 -0.9463 -0.0698 -2.1541
 3829SOL    HW223121   3.605   2.485  16.950  0.5432 -0.1075 -0.4382
 3830SOL     OW23122   2.457   0.356  11.332 -0.2410  0.0890 -0.5282
 3830SOL    HW123123   2.415   0.408  11.401  0.3635  0.3666 -0.3755
 3830SOL    HW223124   2.379   0.302  11.322 -1.0997  1.5463 -1.7654
 3831SOL     OW23125   0.714   1.015  14.330  0.4104 -0.1468  0.0776
 3831SOL    HW123126   0.660   1.072  14.385 -2.5050 -1.8522 -1.0234
 3831SOL    HW223127   0.644   0.960  14.295 -0.8695  0.4048  1.7727
 3832SOL     OW23128   2.707   1.636   0.290  0.2075 -0.4807 -0.0653
 3832SOL    HW123129   2.716   1.694   0.214  1.1585  1.7775  1.7620
 3832SOL    HW223130   2.677   1.554   0.250 -2.5665  1.1481 -1.3188
 3833SOL     OW23131   2.782   0.111   1.520  0.3356 -0.1425  0.2031
 3833SOL    HW123132   2.714   0.054   1.482  0.6058  1.1089 -2.1694
 3833SOL    HW223133   2.742   0.198   1.514 -2.0207 -1.2539 -0.3165
 3834SOL     OW23134   2.172   4.193   4.004 -0.2383 -0.4588  0.0229
 3834SOL    HW123135   2.105   4.259   4.023  2.3801  2.7531 -2.0743
 3834SOL    HW223136   2.190   4.222   3.915  1.6178  1.7869  1.1342
 3835SOL     OW23137   3.312   3.970   4.483  0.2871 -0.0899  0.5199
 3835SOL    HW123138   3.278   4.019   4.559  0.0652 -0.9095  0.9448
 3835SOL    HW223139   3.276   3.884   4.506  1.8603 -1.1912 -1.2444
 3836SOL     OW23140   1.915   3.446   0.976 -0.0066  0.5471  0.0285
 3836SOL    HW123141   1.859   3.450   1.053 -1.2666 -2.3123 -0.7526
 3836SOL    HW223142   2.000   3.481   1.003  0.5525 -1.1544  0.4972
 3837SOL     OW23143   2.967   0.310  13.828 -0.0896 -0.0673 -0.0981
 3837SOL    HW123144   3.009   0.225  13.820 -2.3990 -1.1729 -0.5153
 3837SOL    HW223145   2.904   0.304  13.756  0.5038 -3.2917 -0.3330
 3838SOL     OW23146   1.355   3.491   6.323  0.3701 -0.2486 -0.9449
 3838SOL    HW123147   1.358   3.418   6.385 -2.3738 -1.1254 -1.8287
 3838SOL    HW223148   1.342   3.574   6.368 -1.6458 -0.7831 -0.5325
 3839SOL     OW23149   3.345   1.695   5.863 -0.7757  0.3637  0.3855
 3839SOL    HW123150   3.417   1.756   5.850  1.2323 -2.0102  0.5180
 3839SOL    HW223151   3.302   1.713   5.946 -1.4604 -0.2886  0.1736
 3840SOL     OW23152   3.686   2.775   6.986 -0.3706 -0.0053  0.3147
 3840SOL    HW123153   3.711   2.704   7.046 -3.6942 -0.0023  1.6994
 3840SOL    HW223154   3.754   2.755   6.922  2.0537  4.9926  1.3478
 3841SOL     OW23155   3.749   2.668   4.974 -0.1909 -0.8458  0.0621
 3841SOL    HW123156   3.773   2.670   5.066 -0.5471  0.6012  0.1147
 3841SOL    HW223157   3.749   2.573   4.961 -0.9836 -0.8023 -0.3049
 3842SOL     OW23158   1.879   4.393  10.114  0.2287 -0.1177 -0.0527
 3842SOL    HW123159   1.789   4.378  10.144  0.2703  0.5757  0.4176
 3842SOL    HW223160   1.893   4.322  10.051  1.8027 -0.2638  0.4596
 3843SOL     OW23161   2.370   0.670   3.662 -0.1686 -0.1440 -0.0354
 3843SOL    HW123162   2.425   0.678   3.584 -0.1452 -0.6443 -0.0675
 3843SOL    HW223163   2.433   0.670   3.734 -0.5412 -0.9745  0.2962
 3844SOL     OW23164   2.198   2.651   9.843 -0.0671  0.4335  0.0780
 3844SOL    HW123165   2.212   2.620   9.933 -0.1729 -0.7792 -0.3147
 3844SOL    HW223166   2.105   2.628   9.833 -0.2102  0.1747  2.0032
 3845SOL     OW23167   0.587   3.120   4.498  0.0211 -0.2423  0.3793
 3845SOL    HW123168   0.669   3.131   4.546  0.3931 -0.4825 -0.1966
 3845SOL    HW223169   0.612   3.108   4.406  0.2791 -1.2792  0.5781
 3846SOL     OW23170   3.241   3.289  14.142  0.2677  0.1240  0.3494
 3846SOL    HW123171   3.308   3.337  14.093  0.4290  1.3732  1.7867
 3846SOL    HW223172   3.294   3.237  14.203  0.8621  0.9301  0.5191
 3847SOL     OW23173   3.227   3.031   4.905  0.1229  0.2360 -0.1684
 3847SOL    HW123174   3.273   3.110   4.934 -1.0273  0.6036  0.6574
 3847SOL    HW223175   3.297   2.967   4.893  0.5179  0.5065  0.6616
 3848SOL     OW23176   0.376   2.401   6.657 -0.0395 -0.2738  0.0893
 3848SOL    HW123177   0.461   2.357   6.644  0.1473  0.7302 -2.0073
 3848SOL    HW223178   0.324   2.331   6.617  0.3027 -0.1020 -0.6662
 3849SOL     OW23179   3.527   1.526   8.077  0.5427 -0.1873 -0.3455
 3849SOL    HW123180   3.598   1.462   8.087  0.1980 -0.8423 -1.9725
 3849SOL    HW223181   3.544   1.562   8.164 -0.7014 -2.6046  0.9216
 3850SOL     OW23182   4.301   1.418   7.447 -0.2877 -0.0134  0.1751
 3850SOL    HW123183   4.238   1.490   7.443  0.7359  0.8483 -0.3172
 3850SOL    HW223184   4.324   1.425   7.539  2.0191 -2.8301 -0.2157
 3851SOL     OW23185   0.068   4.378  14.192  0.1024 -0.6405 -0.0541
 3851SOL    HW123186   0.116   4.405  14.270 -0.4209 -0.2163  0.1165
 3851SOL    HW223187   0.104   4.454  14.146 -0.7405  0.5981  1.3680
 3852SOL     OW23188   0.340   3.874   2.687  0.1984 -0.2937 -0.2356
 3852SOL    HW123189   0.359   3.915   2.771  1.0882 -1.3268  0.0723
 3852SOL    HW223190   0.364   3.935   2.617 -3.2779  3.4121  1.8261
 3853SOL     OW23191   1.552   3.812   1.648  0.0542  0.2605 -0.1220
 3853SOL    HW123192   1.528   3.765   1.727 -1.1061 -1.5478 -1.5355
 3853SOL    HW223193   1.486   3.787   1.583 -0.5021  2.6657 -0.4881
 3854SOL     OW23194   2.093   1.254  10.336  1.1305  0.0953  0.1542
 3854SOL    HW123195   2.100   1.164  10.366  0.0534 -0.1342 -0.2919
 3854SOL    HW223196   2.134   1.306  10.405  1.5789 -0.8546  0.5887
 3855SOL     OW23197   4.623   3.317   5.354  0.0336 -0.0749 -0.0371
 3855SOL    HW123198   4.624   3.344   5.447 -0.7488  1.0613 -0.3523
 3855SOL    HW223199   4.671   3.389   5.313  0.7456  0.3276  1.4970
 3856SOL     OW23200   1.639   0.585   6.081 -0.1666 -0.1171  0.7483
 3856SOL    HW123201   1.702   0.615   6.016 -1.6325 -0.4443 -0.8279
 3856SOL    HW223202   1.701   0.541   6.140  1.4616  0.5383 -0.4611
 3857SOL     OW23203   3.974   3.949   9.085 -0.2485  0.2336 -0.1627
 3857SOL    HW123204   4.034   3.996   9.028  0.5094  1.0989  1.3489
 3857SOL    HW223205   3.894   3.998   9.068 -0.0072  1.0755  1.1463
 3858SOL     OW23206   0.749   3.339  11.799 -0.2519 -0.3451  0.3042
 3858SOL    HW123207   0.817   3.274  11.821  0.8543  0.8680  0.4866
 3858SOL    HW223208   0.672   3.283  11.804  0.6691 -1.7613 -1.3493
 3859SOL     OW23209   0.139   3.479  11.437 -0.3357  0.0772  0.6628
 3859SOL    HW123210   0.107   3.408  11.382 -0.2504  1.4417 -1.1265
 3859SOL    HW223211   0.208   3.519  11.385 -0.3850 -3.0049 -1.7346
 3860SOL     OW23212   3.308   1.879   3.970 -0.1530  0.4722 -0.0215
 3860SOL    HW123213   3.359   1.874   4.051 -0.9524  1.6071  0.5519
 3860SOL    HW223214   3.223   1.892   4.010  0.1757 -0.2367  0.8805
 3861SOL     OW23215   4.567   2.161   7.579  0.1115  0.7127 -0.1062
 3861SOL    HW123216   4.564   2.067   7.593 -0.8817  0.6688 -0.6028
 3861SOL    HW223217   4.504   2.162   7.507 -0.1363 -0.6993  0.0877
 3862SOL     OW23218   2.326   3.947   4.597  0.5787 -0.3817 -0.0991
 3862SOL    HW123219   2.288   3.909   4.518 -0.1908  1.0329 -0.4010
 3862SOL    HW223220   2.366   4.027   4.564 -0.3254  0.2334  0.2853
 3863SOL     OW23221   0.565   2.653  17.042 -0.1529  0.1276 -0.0440
 3863SOL    HW123222   0.605   2.623  16.960  0.1281 -1.7472  0.7904
 3863SOL    HW223223   0.503   2.713  17.001  1.3208  2.2038  0.7548
 3864SOL     OW23224   0.234   3.908   1.799  0.3242  0.8321  0.0454
 3864SOL    HW123225   0.224   4.003   1.806  3.1095  1.2204 -1.3772
 3864SOL    HW223226   0.308   3.889   1.741 -0.6983 -0.1867 -0.9455
 3865SOL     OW23227   4.244   1.399   9.025  0.2605 -0.3336  0.0551
 3865SOL    HW123228   4.315   1.409   9.089 -0.0702 -0.4759  0.4482
 3865SOL    HW223229   4.260   1.312   8.988 -0.6444 -0.6932  0.5062
 3866SOL     OW23230   2.709   4.044   9.282  0.3343  0.1375 -0.1346
 3866SOL    HW123231   2.781   3.992   9.247  0.1837 -0.7643  0.8872
 3866SOL    HW223232   2.647   3.984   9.323 -0.9628  1.4593 -0.2044
 3867SOL     OW23233   3.041   2.769   2.571 -0.1198 -0.3556 -0.2437
 3867SOL    HW123234   2.994   2.731   2.645  2.0711 -1.1340  0.7645
 3867SOL    HW223235   3.102   2.699   2.546  0.4975  0.7090 -1.7087
 3868SOL     OW23236   1.115   3.917   3.990 -0.0502  0.6186  0.1644
 3868SOL    HW123237   1.060   3.995   3.983 -0.5768  0.2731  0.5439
 3868SOL    HW223238   1.126   3.924   4.085  0.6671  1.0435  0.0541
 3869SOL     OW23239   3.849   2.813  12.309  0.6636 -0.1136 -0.1561
 3869SOL    HW123240   3.893   2.751  12.367  1.4270 -0.2919 -0.9204
 3869SOL    HW223241   3.863   2.897  12.352  0.9545 -0.2239 -0.0314
 3870SOL     OW23242   4.625   4.448   4.865 -0.2947  0.0400  0.0059
 3870SOL    HW123243   4.561   4.461   4.795  0.5770  2.5084 -0.3279
 3870SOL    HW223244   4.575   4.480   4.940 -2.1855  0.7754 -1.5828
 3871SOL     OW23245   1.280   3.802   8.081 -0.6779 -0.1626 -0.1648
 3871SOL    HW123246   1.230   3.721   8.077 -0.2498 -0.3656 -1.5216
 3871SOL    HW223247   1.340   3.784   8.008  0.6646  0.8056  0.6901
 3872SOL     OW23248   3.554   1.329  11.524 -0.1236  0.0603 -0.0799
 3872SOL    HW123249   3.493   1.272  11.476  1.3572 -0.2139 -1.6368
 3872SOL    HW223250   3.564   1.273  11.601  3.0785 -0.6654 -1.0049
 3873SOL     OW23251   1.533   3.023  12.625 -0.2147  0.1761  0.4650
 3873SOL    HW123252   1.617   3.035  12.669  0.0126  2.4779 -0.5767
 3873SOL    HW223253   1.560   2.936  12.596 -2.4310  0.5253 -2.6697
 3874SOL     OW23254   0.748   3.776   1.631 -0.3498 -0.3333  0.1941
 3874SOL    HW123255   0.806   3.718   1.583  1.8172  2.3042 -0.3561
 3874SOL    HW223256   0.759   3.748   1.722 -1.8070  3.2189  1.4843
 3875SOL     OW23257   3.882   0.266   6.684  0.1133 -0.0342  0.4247
 3875SOL    HW123258   3.839   0.253   6.768  1.3479 -0.1289  1.0369
 3875SOL    HW223259   3.851   0.353   6.658  1.9809  0.8420  1.1437
 3876SOL     OW23260   4.273   4.575   2.928  0.5616  0.3673  0.2865
 3876SOL    HW123261   4.188   4.604   2.894  0.5892  0.6496  0.4554
 3876SOL    HW223262   4.328   4.650   2.904  0.0306  0.2764 -1.1982
 3877SOL     OW23263   4.181   3.546   4.441  0.1125 -0.3276 -0.2699
 3877SOL    HW123264   4.264   3.579   4.406  0.9173 -1.2743  0.7110
 3877SOL    HW223265   4.211   3.501   4.520 -0.0557  0.8483  0.4567
 3878SOL     OW23266   4.545   1.054   2.932  0.5859  0.1676  0.8092
 3878SOL    HW123267   4.610   0.990   2.903 -0.8472 -1.7913  1.9242
 3878SOL    HW223268   4.598   1.134   2.932  0.3075  0.3409 -1.7541
 3879SOL     OW23269   0.386   4.297   3.961 -0.4104 -0.4970  0.0560
 3879SOL    HW123270   0.330   4.263   3.892 -0.1875 -0.1747 -0.2833
 3879SOL    HW223271   0.428   4.367   3.910  1.4271  0.6509  3.0978
 3880SOL     OW23272   2.221   2.129   3.502 -0.0988  0.1301  0.2113
 3880SOL    HW123273   2.264   2.057   3.547 -0.5330 -0.5609 -0.4777
 3880SOL    HW223274   2.183   2.177   3.576 -0.1376  1.3027 -0.5549
 3881SOL     OW23275   3.324   4.390   9.236 -0.2758 -0.5611 -0.2087
 3881SOL    HW123276   3.276   4.358   9.312  0.4656 -0.8023  0.1513
 3881SOL    HW223277   3.395   4.326   9.241 -0.4643 -0.4463  3.9101
 3882SOL     OW23278   4.382   4.022   8.594  0.2952 -0.0249  0.3383
 3882SOL    HW123279   4.426   3.971   8.525 -0.7657  0.8897 -1.0254
 3882SOL    HW223280   4.297   4.039   8.553 -0.2817  1.1069  2.0185
 3883SOL     OW23281   3.470   3.463   2.585 -0.7752  0.5073 -0.1327
 3883SOL    HW123282   3.561   3.495   2.585 -0.8087  0.6037  0.0811
 3883SOL    HW223283   3.439   3.502   2.667 -0.4481  0.0795  0.1933
 3884SOL     OW23284   1.485   2.858   1.829  0.3239 -0.3174  0.3914
 3884SOL    HW123285   1.445   2.826   1.748 -0.5248 -1.3655  1.2205
 3884SOL    HW223286   1.512   2.774   1.866 -0.4778 -0.1793  1.3192
 3885SOL     OW23287   3.343   3.219  16.276 -0.9713 -0.0093 -0.0382
 3885SOL    HW123288   3.325   3.143  16.220  0.3177  1.1565 -2.0632
 3885SOL    HW223289   3.287   3.202  16.352  3.5647 -0.9009  3.0703
 3886SOL     OW23290   3.047   2.437   5.731 -0.5062  0.3171 -0.0541
 3886SOL    HW123291   3.050   2.489   5.650 -0.8977  0.9895  0.3656
 3886SOL    HW223292   3.109   2.366   5.717 -0.7460 -0.2105  1.5978
 3887SOL     OW23293   3.904   4.713   8.834 -0.5733 -0.6017  0.3307
 3887SOL    HW123294   3.886   0.069   8.844 -0.7495 -0.6856  0.7562
 3887SOL    HW223295   3.844   4.684   8.902 -2.2517  0.4154 -0.7046
 3888SOL     OW23296   0.538   4.378   5.200 -0.3695  0.2257  0.0653
 3888SOL    HW123297   0.453   4.408   5.170 -1.4980 -1.4200  1.6120
 3888SOL    HW223298   0.595   4.444   5.160 -0.2279 -0.4596 -0.8670
 3889SOL     OW23299   0.724   0.675   9.252  0.1770  0.3949  0.0535
 3889SOL    HW123300   0.673   0.728   9.192 -0.3372  0.1318  0.2588
 3889SOL    HW223301   0.710   0.591   9.208  0.5580 -0.4939  1.6130
 3890SOL     OW23302   0.840   0.674   6.599  0.3598 -0.3323 -0.2911
 3890SOL    HW123303   0.832   0.606   6.665  1.0154 -0.0168  0.1030
 3890SOL    HW223304   0.800   0.748   6.646  1.4905 -0.0322  0.1852
 3891SOL     OW23305   1.904   4.106   1.260  0.5813 -0.4145  0.3727
 3891SOL    HW123306   1.943   4.077   1.343 -1.2951 -1.7938  0.7905
 3891SOL    HW223307   1.978   4.153   1.222  0.4196  0.6692  1.4003
 3892SOL     OW23308   2.422   4.435   2.331  0.4209 -0.3896  0.4219
 3892SOL    HW123309   2.500   4.384   2.307 -0.5708 -1.4104 -0.6583
 3892SOL    HW223310   2.465   4.516   2.358  1.6774 -0.5997 -0.9175
 3893SOL     OW23311   1.031   0.340   0.014  0.0116  0.2193  0.5956
 3893SOL    HW123312   0.989   0.297   0.089  2.1873 -1.5024  0.8228
 3893SOL    HW223313   1.041   0.431   0.043 -1.8117  0.4630  0.5014
 3894SOL     OW23314   4.470   2.951  10.440 -0.2421  0.4124 -0.0664
 3894SOL    HW123315   4.501   2.896  10.368 -2.9366  0.1222 -0.9828
 3894SOL    HW223316   4.541   2.952  10.505  0.2347 -0.8062 -0.5761
 3895SOL     OW23317   4.483   0.629   1.905 -0.1368  0.1025  0.0708
 3895SOL    HW123318   4.409   0.689   1.901 -0.9958 -1.0563 -1.3385
 3895SOL    HW223319   4.541   0.661   1.835  2.1019 -1.2811  1.2872
 3896SOL     OW23320   0.291   0.244   9.139 -0.0537 -0.4344 -0.6341
 3896SOL    HW123321   0.224   0.189   9.097  0.1695  0.3260 -2.0039
 3896SOL    HW223322   0.236   0.313   9.176 -0.1328 -0.7456 -0.1774
 3897SOL     OW23323   0.273   1.959  11.899  0.1617  0.1171 -0.0689
 3897SOL    HW123324   0.356   1.994  11.870  0.8757 -0.4394  1.2870
 3897SOL    HW223325   0.211   2.031  11.886  2.1679  1.4674 -1.9462
 3898SOL     OW23326   0.306   3.059   1.864 -0.9194  0.7339  0.3261
 3898SOL    HW123327   0.233   3.121   1.875 -0.0626  1.3166  2.6345
 3898SOL    HW223328   0.380   3.102   1.906  0.0938 -1.8588  1.1930
 3899SOL     OW23329   1.120   1.888   4.186  0.1941  0.1700  0.4860
 3899SOL    HW123330   1.095   1.972   4.147 -0.4763 -0.4799 -0.4876
 3899SOL    HW223331   1.159   1.843   4.111  0.4786 -1.3756  1.5618
 3900SOL     OW23332   0.749   0.375   8.815  0.0579 -0.0332 -0.1733
 3900SOL    HW123333   0.749   0.470   8.825 -1.0259 -0.0809  0.3037
 3900SOL    HW223334   0.664   0.358   8.856 -0.7191 -0.8524 -2.1260
 3901SOL     OW23335   0.375   1.911   6.439 -0.1104 -0.0933  0.5489
 3901SOL    HW123336   0.340   2.000   6.442 -2.0112 -0.8035 -0.5480
 3901SOL    HW223337   0.440   1.923   6.370 -1.4127 -0.2848 -0.6911
 3902SOL     OW23338   2.363   2.474   6.133 -0.2251  0.5060 -0.1155
 3902SOL    HW123339   2.319   2.409   6.189 -0.4198  1.2694  0.6158
 3902SOL    HW223340   2.331   2.447   6.047 -0.6853  1.2002 -0.1634
 3903SOL     OW23341   1.087   4.075   2.856 -0.0288  0.3452 -0.0649
 3903SOL    HW123342   1.144   4.007   2.890  1.8714  0.4320 -3.1175
 3903SOL    HW223343   1.111   4.070   2.764  0.4197 -1.6300  0.1650
 3904SOL     OW23344   1.595   4.572   5.054  0.8254  0.2843  0.1476
 3904SOL    HW123345   1.647   4.652   5.052  0.9618  0.2296  1.5028
 3904SOL    HW223346   1.578   4.564   5.148 -0.4057  0.8362 -0.0329
 3905SOL     OW23347   1.635   3.817   3.060  0.3430  0.3700 -0.1546
 3905SOL    HW123348   1.628   3.761   2.983 -1.4211  1.2561 -0.6371
 3905SOL    HW223349   1.564   3.785   3.116  1.3262  0.2319  1.0130
 3906SOL     OW23350   4.576   2.507   1.377  0.2457  0.2787 -0.3407
 3906SOL    HW123351   4.504   2.448   1.356  0.0691  0.6551 -0.7976
 3906SOL    HW223352   4.567   2.514   1.472 -0.4726  0.8886 -0.4535
 3907SOL     OW23353   3.858   2.620  13.184  0.2422 -0.3551 -0.0806
 3907SOL    HW123354   3.847   2.574  13.101 -0.6759 -0.3518  0.0342
 3907SOL    HW223355   3.769   2.634  13.218  0.8045  1.9288  0.4348
 3908SOL     OW23356   2.087   2.349   8.039 -0.0509 -0.2484 -0.6687
 3908SOL    HW123357   2.174   2.320   8.012  0.6527 -0.5435  1.9165
 3908SOL    HW223358   2.049   2.264   8.057 -2.4715  1.0351  0.3096
 3909SOL     OW23359   4.164   3.129   2.717 -0.2418 -0.0790  0.4636
 3909SOL    HW123360   4.093   3.088   2.669  0.6775 -2.1724  0.8891
 3909SOL    HW223361   4.200   3.051   2.760 -1.3606  0.1328  1.7774
 3910SOL     OW23362   3.880   4.242   7.488  0.7869 -0.3932  0.2227
 3910SOL    HW123363   3.815   4.308   7.511  1.2190 -1.3491  4.2768
 3910SOL    HW223364   3.930   4.292   7.423 -0.7912  0.1846 -0.5334
 3911SOL     OW23365   0.201   0.894   1.814 -0.0089  0.8790 -0.1544
 3911SOL    HW123366   0.257   0.816   1.816  2.5025  2.6602 -0.2210
 3911SOL    HW223367   0.154   0.873   1.733  2.5198 -0.0576 -1.3912
 3912SOL     OW23368   3.718   0.467   9.675  0.6975  0.4082 -0.3109
 3912SOL    HW123369   3.696   0.420   9.594  2.7174  0.3699 -0.8501
 3912SOL    HW223370   3.633   0.466   9.719  0.8462 -1.4743 -0.0486
 3913SOL     OW23371   2.249   3.314   2.955 -0.2410  0.4746 -0.1638
 3913SOL    HW123372   2.208   3.230   2.975 -1.6309  0.3074 -3.5937
 3913SOL    HW223373   2.196   3.369   3.013 -2.2264  0.4310 -1.9224
 3914SOL     OW23374   4.012   4.524   5.074  1.0885  0.1776  0.4835
 3914SOL    HW123375   4.054   4.554   4.994 -0.6478 -1.3115 -0.9703
 3914SOL    HW223376   3.998   4.606   5.123  1.1420 -0.1009  0.9669
 3915SOL     OW23377   3.419   3.719  11.080 -0.1435  0.0711  0.0070
 3915SOL    HW123378   3.474   3.796  11.067  1.0780 -0.4507  2.1285
 3915SOL    HW223379   3.355   3.764  11.136 -0.7833  1.6117 -1.9492
 3916SOL     OW23380   1.731   4.175   9.497  0.2701 -0.4317 -0.3293
 3916SOL    HW123381   1.652   4.176   9.550  0.5750 -1.0905  0.1410
 3916SOL    HW223382   1.751   4.268   9.488  0.4137 -0.3313  1.0434
 3917SOL     OW23383   0.537   4.419   1.846  0.4816 -0.4790 -0.0859
 3917SOL    HW123384   0.587   4.416   1.764 -0.6348  1.4846 -0.8396
 3917SOL    HW223385   0.502   4.331   1.858 -0.0841 -0.3153 -0.5231
 3918SOL     OW23386   0.007   3.770   3.215  0.3240 -0.1542  0.0755
 3918SOL    HW123387   0.047   3.788   3.130  1.0822 -2.6351 -0.0967
 3918SOL    HW223388   4.678   3.840   3.212 -0.5244 -1.0318 -2.0489
 3919SOL     OW23389   1.853   1.197   8.547  0.1643 -0.8120 -0.1038
 3919SOL    HW123390   1.808   1.276   8.518 -0.6605 -1.1558  0.2180
 3919SOL    HW223391   1.894   1.218   8.630 -1.4182  0.5873  0.3257
 3920SOL     OW23392   0.608   4.370   7.714  0.2394 -0.4368 -0.8377
 3920SOL    HW123393   0.620   4.412   7.799 -2.2111 -1.3816 -0.0177
 3920SOL    HW223394   0.534   4.310   7.722  0.8763 -1.2177 -0.9305
 3921SOL     OW23395   4.573   3.058   9.572 -0.0768 -0.3081 -0.0101
 3921SOL    HW123396   4.653   3.110   9.567  0.4614 -1.1582 -0.2365
 3921SOL    HW223397   4.548   3.085   9.660 -1.2412 -1.2013 -0.0720
 3922SOL     OW23398   3.355   0.534  15.494  0.2923  0.2166  0.0535
 3922SOL    HW123399   3.262   0.543  15.514  0.0483 -0.4133 -0.7713
 3922SOL    HW223400   3.394   0.491  15.570 -1.0691 -0.4260  0.3981
 3923SOL     OW23401   0.258   2.514   8.438  0.3734  0.2197 -0.7271
 3923SOL    HW123402   0.166   2.524   8.414  0.2326  0.8004  0.0670
 3923SOL    HW223403   0.265   2.418   8.444 -0.3214 -0.0427 -4.1207
 3924SOL     OW23404   4.503   4.073  11.008  0.4748 -0.0439 -0.6935
 3924SOL    HW123405   4.469   4.003  11.064  3.2359  1.4541  2.8272
 3924SOL    HW223406   4.475   4.149  11.059 -1.0008 -1.4985  0.6505
 3925SOL     OW23407   3.576   2.992   7.961 -0.8908  0.4634  0.2189
 3925SOL    HW123408   3.609   2.904   7.943  0.1943  1.1399 -1.1245
 3925SOL    HW223409   3.596   3.014   8.051  1.4066 -1.9268  0.2739
 3926SOL     OW23410   1.224   0.534   7.197 -0.2245 -0.3232  0.3043
 3926SOL    HW123411   1.301   0.480   7.216 -0.2031 -0.6282 -0.6541
 3926SOL    HW223412   1.180   0.549   7.281 -2.0631 -0.3007 -0.6763
 3927SOL     OW23413   3.762   2.406   4.997 -0.3964  0.1158  0.5490
 3927SOL    HW123414   3.688   2.412   5.058 -0.0600  2.9128  0.7045
 3927SOL    HW223415   3.798   2.325   5.033  0.0879 -0.5517 -1.4542
 3928SOL     OW23416   4.463   2.869   3.794  0.0826  0.5450  0.0694
 3928SOL    HW123417   4.372   2.854   3.768 -0.0518 -2.0338  1.9842
 3928SOL    HW223418   4.461   2.964   3.802  1.3755  0.7303 -1.7007
 3929SOL     OW23419   3.994   1.571   2.059 -0.2083 -0.2389 -0.2118
 3929SOL    HW123420   4.072   1.535   2.103  0.2441 -2.0039 -2.4429
 3929SOL    HW223421   4.011   1.547   1.968 -2.6126 -0.3056 -0.6248
 3930SOL     OW23422   1.018   3.280   6.688  0.1935 -0.2276 -0.7196
 3930SOL    HW123423   1.080   3.254   6.757 -1.4542 -1.1057  0.4358
 3930SOL    HW223424   0.947   3.220   6.711 -1.7259  2.0474 -0.7775
 3931SOL     OW23425   4.563   1.337   6.950 -0.2535  0.1245 -0.5065
 3931SOL    HW123426   4.541   1.251   6.985  0.7536  0.8790  1.9707
 3931SOL    HW223427   4.481   1.385   6.961  0.7870  2.0100 -0.9587
 3932SOL     OW23428   3.564   2.335  14.568 -0.0363 -0.3559  0.5674
 3932SOL    HW123429   3.590   2.299  14.652 -2.1395 -0.8321  1.0081
 3932SOL    HW223430   3.638   2.329  14.508  0.5697  1.5020  1.1328
 3933SOL     OW23431   4.298   3.534   6.253 -0.2495  0.0756 -0.5126
 3933SOL    HW123432   4.287   3.605   6.316 -1.4364 -0.6746  0.1111
 3933SOL    HW223433   4.340   3.470   6.311 -0.4584 -0.6308 -1.1358
 3934SOL     OW23434   0.832   4.501   5.729 -0.4412  0.5901  0.2571
 3934SOL    HW123435   0.742   4.473   5.715 -0.3806 -0.1554  1.3583
 3934SOL    HW223436   0.858   4.551   5.652  0.9420  1.8744  1.5560
 3935SOL     OW23437   2.814   0.404  15.556 -0.4267 -0.2349 -0.2377
 3935SOL    HW123438   2.722   0.414  15.580 -1.0765  0.5990 -3.1000
 3935SOL    HW223439   2.804   0.336  15.489  3.6878  0.4796 -1.5600
 3936SOL     OW23440   0.567   4.722  10.906 -0.2293 -0.3440 -0.5342
 3936SOL    HW123441   0.607   0.061  10.864  2.8380 -0.5629  1.9966
 3936SOL    HW223442   0.614   4.644  10.877  0.9666  0.9499 -2.0141
 3937SOL     OW23443   0.917   4.524   2.067 -0.3863  0.5918  0.1150
 3937SOL    HW123444   0.860   4.534   2.144  0.2129  0.5550  0.5562
 3937SOL    HW223445   0.986   4.471   2.106  0.6162  1.6861 -0.1878
 3938SOL     OW23446   3.437   0.478  15.926  0.0862  0.3370 -0.1287
 3938SOL    HW123447   3.509   0.414  15.933  1.2658  1.7312  0.5610
 3938SOL    HW223448   3.396   0.466  16.011  1.8965 -0.3231  0.6595
 3939SOL     OW23449   1.613   3.406   4.991 -0.0935  0.0735  0.3640
 3939SOL    HW123450   1.645   3.388   5.080  0.2867  1.3364  0.4850
 3939SOL    HW223451   1.547   3.472   5.011  0.0951 -0.1801  1.8883
 3940SOL     OW23452   2.130   1.632   7.355  0.0262 -0.0776  0.5842
 3940SOL    HW123453   2.154   1.558   7.411 -0.0070 -0.1673  0.4796
 3940SOL    HW223454   2.177   1.622   7.272 -2.9956  0.3656 -1.1892
 3941SOL     OW23455   1.677   4.259   7.736  0.0244  0.0659 -0.1902
 3941SOL    HW123456   1.643   4.345   7.763  2.9415  1.1049  0.1559
 3941SOL    HW223457   1.594   4.224   7.704  0.1690  0.9368 -1.5311
 3942SOL     OW23458   2.744   1.423   7.417  0.4528  0.1859  0.1282
 3942SOL    HW123459   2.741   1.350   7.479 -0.4314 -1.2890 -1.6633
 3942SOL    HW223460   2.730   1.382   7.331  1.0056  1.3226 -0.4903
 3943SOL     OW23461   1.240   2.815   9.247 -0.2462 -0.4688 -0.3302
 3943SOL    HW123462   1.324   2.860   9.258 -0.8404  0.6100 -0.2375
 3943SOL    HW223463   1.269   2.740   9.194  1.9243  1.6547 -2.1267
 3944SOL     OW23464   1.006   2.938   3.858 -0.6486  0.0223  0.0825
 3944SOL    HW123465   0.970   2.976   3.938  1.5849  0.8357  0.6975
 3944SOL    HW223466   1.075   2.886   3.899  0.1705  0.5137 -0.6777
 3945SOL     OW23467   2.187   0.403   3.840 -0.1860  0.1822 -0.4387
 3945SOL    HW123468   2.246   0.458   3.891  1.2488 -0.8013 -1.0462
 3945SOL    HW223469   2.247   0.378   3.771  0.8745  1.8068 -0.0863
 3946SOL     OW23470   4.241   0.409   5.988 -0.0228 -0.0033  0.1243
 3946SOL    HW123471   4.284   0.351   6.051  0.6164  0.2748 -0.0631
 3946SOL    HW223472   4.169   0.437   6.044 -1.2723  1.0398 -2.0173
 3947SOL     OW23473   3.936   1.150   5.596  0.7691  0.2414  0.9748
 3947SOL    HW123474   4.005   1.200   5.552 -0.0318  1.0773  0.6875
 3947SOL    HW223475   3.864   1.212   5.598 -0.0077 -0.6613  1.0326
 3948SOL     OW23476   3.340   3.439   7.665  0.0667 -0.4419  0.2407
 3948SOL    HW123477   3.405   3.371   7.677 -0.7541 -0.8363  2.5852
 3948SOL    HW223478   3.264   3.393   7.702 -0.2090  2.0379  2.8588
 3949SOL     OW23479   3.538   2.948  16.581 -0.1935  0.2911  0.0725
 3949SOL    HW123480   3.528   2.904  16.497  0.9014 -0.4135  0.3129
 3949SOL    HW223481   3.625   2.983  16.562 -1.4500  1.5517 -3.3765
 3950SOL     OW23482   0.655   4.408   0.923  0.2483 -0.1421  0.5541
 3950SOL    HW123483   0.705   4.448   0.994  0.3388  1.3078 -0.3302
 3950SOL    HW223484   0.602   4.345   0.971  1.5276 -1.1050  0.6841
 3951SOL     OW23485   1.993   0.827   6.657 -0.1083  0.2323 -0.1554
 3951SOL    HW123486   2.040   0.880   6.721 -0.7147  0.3347  0.2083
 3951SOL    HW223487   1.903   0.860   6.659 -1.1477 -2.7595  1.3748
 3952SOL     OW23488   2.127   3.391   2.443  0.3481 -0.9337  0.3987
 3952SOL    HW123489   2.162   3.337   2.514 -0.1632  0.9732  2.1003
 3952SOL    HW223490   2.192   3.377   2.374 -0.2220  1.2179 -0.5536
 3953SOL     OW23491   2.263   4.153  16.441 -0.2011 -0.2789  0.5614
 3953SOL    HW123492   2.249   4.187  16.529  0.5890  0.2977  0.4693
 3953SOL    HW223493   2.252   4.061  16.467  2.1115 -0.7469 -0.1256
 3954SOL     OW23494   1.483   3.033  10.196 -0.1889 -0.3332 -0.2975
 3954SOL    HW123495   1.563   2.982  10.208 -0.3910  0.2110  3.2792
 3954SOL    HW223496   1.428   2.955  10.204 -2.2089  1.2975  1.6809
 3955SOL     OW23497   4.150   1.584   7.155  0.6180  0.3605 -0.5542
 3955SOL    HW123498   4.126   1.557   7.243 -0.2789  0.6641 -0.7076
 3955SOL    HW223499   4.081   1.647   7.135 -0.2174 -0.5841 -0.6226
 3956SOL     OW23500   4.525   0.390   5.634 -0.4287 -0.1734  0.2547
 3956SOL    HW123501   4.494   0.327   5.699  1.6794 -0.8591  0.5704
 3956SOL    HW223502   4.468   0.369   5.559 -0.6532  0.9265  0.1190
 3957SOL     OW23503   2.681   1.938   4.287  0.1404  0.3998  0.5418
 3957SOL    HW123504   2.638   1.950   4.371 -1.6591 -0.0789 -0.3159
 3957SOL    HW223505   2.615   1.895   4.233  2.1914  0.6801 -2.2197
 3958SOL     OW23506   2.216   0.946  10.177 -0.1306  0.3907  0.3492
 3958SOL    HW123507   2.177   0.967  10.262  1.9026  1.3829  1.0339
 3958SOL    HW223508   2.301   0.989  10.175  0.4629 -0.7809  0.3866
 3959SOL     OW23509   0.515   3.692   1.114  0.3599  0.0344  0.4765
 3959SOL    HW123510   0.432   3.739   1.120 -0.0007 -0.5093 -0.3502
 3959SOL    HW223511   0.508   3.635   1.037  1.0026 -0.5428  0.8398
 3960SOL     OW23512   2.400   2.139   6.239 -0.8113 -0.0972 -0.4163
 3960SOL    HW123513   2.348   2.063   6.264 -2.1040  0.9109 -0.0211
 3960SOL    HW223514   2.457   2.094   6.176 -1.0307 -1.2541  0.2219
 3961SOL     OW23515   2.132   4.259   8.872 -0.4388  0.1067  0.4522
 3961SOL    HW123516   2.141   4.228   8.782 -1.1189  0.8288  0.1425
 3961SOL    HW223517   2.068   4.197   8.907  0.1580 -0.7328  0.0771
 3962SOL     OW23518   0.096   2.078   2.606  0.2016  0.3236  0.3025
 3962SOL    HW123519   0.081   2.043   2.519 -1.3859 -1.0209  1.1203
 3962SOL    HW223520   0.105   1.996   2.655  0.8132  0.5725  0.6115
 3963SOL     OW23521   3.377   2.921   4.496 -0.1596  0.9979  0.0328
 3963SOL    HW123522   3.445   2.960   4.551 -0.4524  0.3202  0.8617
 3963SOL    HW223523   3.432   2.870   4.437 -1.0292  1.2792 -1.0316
 3964SOL     OW23524   4.179   4.371  17.688  0.1336 -0.1717 -0.5391
 3964SOL    HW123525   4.266   4.371  17.728  1.0999  2.3757 -2.6427
 3964SOL    HW223526   4.186   4.318  17.609 -0.3678 -0.0688 -0.6546
 3965SOL     OW23527   1.541   3.663   5.555  0.1831 -0.5864 -0.2750
 3965SOL    HW123528   1.623   3.673   5.603  0.3976 -1.5504 -0.4433
 3965SOL    HW223529   1.542   3.749   5.512  2.2853 -0.9051 -0.8444
 3966SOL     OW23530   3.944   1.318   7.103  0.1547  0.3862  1.2447
 3966SOL    HW123531   3.928   1.368   7.023 -1.7930  1.6128  2.3896
 3966SOL    HW223532   3.884   1.245   7.093  2.6175 -1.4055 -0.5202
 3967SOL     OW23533   4.220   2.022   5.347  0.3964  0.1104 -0.0012
 3967SOL    HW123534   4.161   2.039   5.421  0.9186  2.4253 -0.1378
 3967SOL    HW223535   4.168   1.950   5.309 -0.9081 -0.2432  2.4509
 3968SOL     OW23536   1.275   3.415   0.839 -0.4691 -0.8075 -0.5189
 3968SOL    HW123537   1.287   3.325   0.869  2.1122 -0.0300  0.7671
 3968SOL    HW223538   1.336   3.417   0.765  2.1368  1.3002  1.7158
 3969SOL     OW23539   2.956   1.006   6.079  0.5823  0.3649 -0.1727
 3969SOL    HW123540   2.909   0.967   6.153  1.7887 -2.0762 -0.7062
 3969SOL    HW223541   2.899   0.981   6.006  1.5199 -0.6554 -0.5370
 3970SOL     OW23542   2.875   2.078  17.028 -0.2396  0.1566 -0.9062
 3970SOL    HW123543   2.808   2.146  17.023  1.1253  1.4292 -2.0045
 3970SOL    HW223544   2.958   2.126  17.029  0.5048 -1.0971 -2.9385
 3971SOL     OW23545   3.233   2.606   9.433  0.2342 -0.4365  0.2645
 3971SOL    HW123546   3.195   2.532   9.384  1.8542 -1.3345  0.3505
 3971SOL    HW223547   3.256   2.659   9.357 -1.6785 -1.1936 -0.8601
 3972SOL     OW23548   3.831   1.222  14.697  0.1281 -0.1217 -0.1234
 3972SOL    HW123549   3.873   1.261  14.774  1.7984  0.9795 -1.6169
 3972SOL    HW223550   3.822   1.307  14.654  0.6150 -0.9065 -1.7556
 3973SOL     OW23551   0.426   1.168   1.113  0.3459  0.2758 -0.0775
 3973SOL    HW123552   0.504   1.214   1.082  0.3193  1.0207  0.9847
 3973SOL    HW223553   0.391   1.131   1.031  0.7161  0.2407 -0.2196
 3974SOL     OW23554   3.941   1.841   5.037  0.0836  0.4121 -0.1271
 3974SOL    HW123555   3.863   1.814   5.086 -0.0298  2.2680  0.7177
 3974SOL    HW223556   4.001   1.849   5.111  0.5424 -0.9846 -0.3551
 3975SOL     OW23557   3.698   0.800   2.800 -0.3380 -0.4040  0.2476
 3975SOL    HW123558   3.607   0.772   2.811  0.3366 -2.1430  1.3867
 3975SOL    HW223559   3.717   0.752   2.720 -2.5958  0.6138 -0.9122
 3976SOL     OW23560   4.394   2.043   7.342  0.4335  0.2473 -0.4307
 3976SOL    HW123561   4.301   2.023   7.341  0.8451 -1.7122  0.8905
 3976SOL    HW223562   4.430   1.954   7.341  1.6405  0.7188  0.6861
 3977SOL     OW23563   1.716   4.121   3.300 -0.4496 -0.2797 -0.4128
 3977SOL    HW123564   1.643   4.164   3.254 -0.5560  0.7297  0.7128
 3977SOL    HW223565   1.670   4.091   3.378 -0.2675 -0.6546 -0.4508
 3978SOL     OW23566   1.766   0.926  10.153 -0.4490 -0.0777 -0.1854
 3978SOL    HW123567   1.817   0.849  10.180  0.8567  1.0158  0.4402
 3978SOL    HW223568   1.792   0.988  10.221  0.8112 -1.2122  0.3643
 3979SOL     OW23569   3.641   4.224   1.271 -0.0801  0.4947 -0.2811
 3979SOL    HW123570   3.618   4.151   1.213  1.7937  0.5294 -1.0518
 3979SOL    HW223571   3.620   4.186   1.357 -1.9968  0.3579 -0.7971
 3980SOL     OW23572   1.207   4.038   8.148 -0.6820 -0.1882  0.0514
 3980SOL    HW123573   1.282   4.064   8.096  0.5837 -1.8000  1.0742
 3980SOL    HW223574   1.230   3.945   8.153 -1.0992 -0.4286 -2.3679
 3981SOL     OW23575   3.927   3.401  14.832  0.0740 -0.4117  0.1677
 3981SOL    HW123576   3.873   3.478  14.849  0.4692 -0.6262  2.3787
 3981SOL    HW223577   3.860   3.334  14.842 -1.7721  1.4482  0.3087
 3982SOL     OW23578   0.821   0.192   8.104  0.3829 -0.2106  0.1723
 3982SOL    HW123579   0.899   0.236   8.137  0.0731  1.2030 -0.9678
 3982SOL    HW223580   0.790   0.140   8.178 -1.4708  1.2054  0.3927
 3983SOL     OW23581   2.703   0.638   7.319  0.5047  0.5758 -0.6598
 3983SOL    HW123582   2.727   0.701   7.250  0.2502  0.3442 -0.9626
 3983SOL    HW223583   2.785   0.636   7.368 -0.4068  3.2943  0.9620
 3984SOL     OW23584   2.931   2.024   4.366 -0.4020 -0.0381  0.1821
 3984SOL    HW123585   2.843   1.994   4.345 -1.2207  1.2271  1.8048
 3984SOL    HW223586   2.910   2.112   4.397 -0.6135 -0.3922  1.0336
 3985SOL     OW23587   0.295   4.284   4.984 -0.1265 -0.5275 -0.3187
 3985SOL    HW123588   0.231   4.308   5.052 -0.3180  1.8870 -1.3331
 3985SOL    HW223589   0.282   4.360   4.926  0.9568 -0.5628 -0.5970
 3986SOL     OW23590   4.687   3.715  10.410  0.0556  0.0684 -0.0494
 3986SOL    HW123591   4.649   3.787  10.359 -0.2705 -0.6311 -0.7881
 3986SOL    HW223592   4.669   3.741  10.500  0.7508  3.8840 -1.0097
 3987SOL     OW23593   4.366   4.540   3.811  0.3566  0.6569 -0.2088
 3987SOL    HW123594   4.422   4.615   3.790  1.0262  0.6889  1.7058
 3987SOL    HW223595   4.400   4.477   3.748  0.4699  0.2492  0.2635
 3988SOL     OW23596   4.693   1.918   0.294  0.4353  0.2358 -0.3666
 3988SOL    HW123597   4.621   1.980   0.287 -1.1058 -1.4424  0.4831
 3988SOL    HW223598   4.704   1.909   0.200  1.2642  2.6614 -0.4807
 3989SOL     OW23599   0.473   3.190   2.650 -0.0028 -0.1942  0.3783
 3989SOL    HW123600   0.392   3.233   2.623  0.4634  0.6225  0.2911
 3989SOL    HW223601   0.439   3.130   2.717  0.3345 -0.5839  0.2012
 3990SOL     OW23602   2.656   0.175   8.786  0.1034  0.7392  0.6466
 3990SOL    HW123603   2.579   0.180   8.730 -0.2479 -1.2675  0.9572
 3990SOL    HW223604   2.615   0.151   8.869 -0.4141 -0.6290 -0.0149
 3991SOL     OW23605   3.360   3.042  12.224  0.3345 -0.2512  0.2047
 3991SOL    HW123606   3.414   3.034  12.146  0.0374  3.2509 -0.3456
 3991SOL    HW223607   3.396   3.116  12.272  1.2316 -0.2204 -0.5144
 3992SOL     OW23608   0.822   4.726   6.306 -0.1564 -0.1929  0.1383
 3992SOL    HW123609   0.749   0.031   6.352  0.5101  1.0163  0.0862
 3992SOL    HW223610   0.798   4.634   6.299 -0.7378  0.0905 -1.5451
 3993SOL     OW23611   2.467   0.515   5.583 -0.2938  0.0056  0.8121
 3993SOL    HW123612   2.556   0.482   5.572 -0.4083 -0.2507  0.6520
 3993SOL    HW223613   2.407   0.443   5.564 -0.4907  0.6816 -1.1528
 3994SOL     OW23614   2.868   0.915  11.138  0.1123  0.1774  0.0659
 3994SOL    HW123615   2.873   0.826  11.103 -0.3811  0.2454 -0.1811
 3994SOL    HW223616   2.959   0.946  11.137  0.4746 -0.9032 -0.6997
 3995SOL     OW23617   1.688   0.519   3.437 -0.2659 -0.0395 -0.2321
 3995SOL    HW123618   1.665   0.514   3.344  0.5493  1.6906 -0.5370
 3995SOL    HW223619   1.704   0.427   3.455 -0.5320 -0.1168 -0.3989
 3996SOL     OW23620   2.879   4.411   3.039  0.3311 -0.3709  0.2285
 3996SOL    HW123621   2.974   4.419   3.052 -0.0686  4.4410  0.0874
 3996SOL    HW223622   2.881   4.432   2.946  1.2710 -0.0947  0.3160
 3997SOL     OW23623   2.326   3.840   5.908  0.1135  0.6130 -0.0825
 3997SOL    HW123624   2.421   3.837   5.917  0.1675 -0.7155 -1.0142
 3997SOL    HW223625   2.302   3.783   5.982 -0.5016  1.5768  0.4518
 3998SOL     OW23626   4.271   2.772   6.060 -0.2415 -0.2375 -0.6333
 3998SOL    HW123627   4.213   2.816   5.997 -1.2401  1.8838  1.7492
 3998SOL    HW223628   4.316   2.849   6.094 -1.2727 -0.0167  0.2373
 3999SOL     OW23629   3.431   3.763   5.055  0.0331  0.0952 -0.3100
 3999SOL    HW123630   3.519   3.752   5.020 -0.2043 -1.2110 -0.4625
 3999SOL    HW223631   3.430   3.856   5.030  0.7056  0.6491  1.6936
 4000SOL     OW23632   1.548   0.985   3.200 -0.2460  1.1173 -0.0381
 4000SOL    HW123633   1.480   1.044   3.233 -1.0537 -0.4811  1.1807
 4000SOL    HW223634   1.609   1.044   3.157 -0.1771  0.1637 -1.2345
 4001SOL     OW23635   1.617   0.649   2.677  0.5234 -0.4340  0.3719
 4001SOL    HW123636   1.656   0.695   2.603  1.0755 -1.5366 -0.0137
 4001SOL    HW223637   1.678   0.576   2.682  0.9840  0.0163  1.3487
 4002SOL     OW23638   3.616   0.580   4.329  0.2621 -0.5340 -0.3065
 4002SOL    HW123639   3.704   0.587   4.293  0.3104  1.5605  0.1896
 4002SOL    HW223640   3.613   0.612   4.420  0.4095 -0.5981 -0.2798
 4003SOL     OW23641   0.981   4.386   7.094  0.5843 -0.0596  0.2275
 4003SOL    HW123642   0.914   4.395   7.162  0.3707 -2.9721  0.4053
 4003SOL    HW223643   0.933   4.378   7.011  0.5267 -0.1552  0.2690
 4004SOL     OW23644   3.913   2.513   5.992 -0.2579 -0.2595  0.5231
 4004SOL    HW123645   3.923   2.507   6.087 -1.3888 -1.6228  0.5558
 4004SOL    HW223646   3.857   2.438   5.972 -1.8811  0.9745  0.4704
 4005SOL     OW23647   3.788   0.528  12.292  0.3232 -0.4591  0.0841
 4005SOL    HW123648   3.809   0.435  12.284  2.5294  0.2832 -2.7850
 4005SOL    HW223649   3.717   0.513  12.355  0.0031  1.4744  0.1732
 4006SOL     OW23650   3.213   4.495  17.353 -0.8585 -0.2318 -0.1992
 4006SOL    HW123651   3.129   4.541  17.361 -0.4893  0.2083  1.1873
 4006SOL    HW223652   3.282   4.562  17.350 -0.1791 -0.9109  0.2225
 4007SOL     OW23653   4.263   4.671   4.041  0.6473  0.3027 -0.2300
 4007SOL    HW123654   4.278   4.641   3.952  0.3139  1.7269 -0.7729
 4007SOL    HW223655   4.335   4.733   4.044  0.7818  0.0614  1.6782
 4008SOL     OW23656   0.592   0.961   7.681 -0.1491 -0.4288  0.0940
 4008SOL    HW123657   0.641   0.949   7.761 -2.6189  1.6707  1.9335
 4008SOL    HW223658   0.626   0.887   7.631 -1.6383 -0.1732 -1.3410
 4009SOL     OW23659   3.564   2.890  13.077 -0.4659  0.3442  0.2616
 4009SOL    HW123660   3.592   2.907  12.987 -0.7458  0.2973  0.1671
 4009SOL    HW223661   3.645   2.914  13.123  0.1145 -2.2986  0.6514
 4010SOL     OW23662   0.140   3.459  10.059  0.0196  0.4758 -0.1002
 4010SOL    HW123663   0.067   3.445  10.118 -0.0569  0.2157 -0.2571
 4010SOL    HW223664   0.210   3.480  10.120  0.3687 -1.2376  0.0971
 4011SOL     OW23665   2.884   2.064   2.889  0.0158 -0.1538  0.1319
 4011SOL    HW123666   2.922   2.117   2.818 -0.5086 -0.5450 -0.4372
 4011SOL    HW223667   2.792   2.075   2.867 -0.0340  0.8675  0.8479
 4012SOL     OW23668   0.841   4.703   7.166 -0.2605 -0.2541 -0.1207
 4012SOL    HW123669   0.836   0.060   7.149 -2.0731 -0.3063  0.1815
 4012SOL    HW223670   0.759   4.689   7.213  0.2870 -0.9483  0.6246
 4013SOL     OW23671   1.626   0.432   7.261  0.2583 -0.3616 -0.3022
 4013SOL    HW123672   1.544   0.383   7.258  1.1744 -1.9428  0.3581
 4013SOL    HW223673   1.603   0.520   7.292 -1.5078 -1.9638  2.9603
 4014SOL     OW23674   4.553   0.292   9.189 -0.0199  0.4151  0.4167
 4014SOL    HW123675   4.522   0.295   9.099 -1.2305  0.8161  0.8548
 4014SOL    HW223676   4.601   0.210   9.183 -2.2918 -0.7849 -1.0723
 4015SOL     OW23677   1.361   3.067   3.110 -0.4784 -0.2830 -0.9357
 4015SOL    HW123678   1.453   3.055   3.090 -0.1265 -0.0971  0.5842
 4015SOL    HW223679   1.323   3.031   3.030 -0.9739 -0.3617 -0.6654
 4016SOL     OW23680   0.082   2.520   2.816 -0.7306 -0.4540 -0.0571
 4016SOL    HW123681   0.026   2.591   2.786  1.7091  0.9659 -1.3347
 4016SOL    HW223682   0.144   2.570   2.869 -1.6414  2.8820 -2.1194
 4017SOL     OW23683   3.289   0.547  12.129 -0.3318 -0.2108  0.0160
 4017SOL    HW123684   3.234   0.624  12.147 -1.5486 -0.5250 -2.4082
 4017SOL    HW223685   3.379   0.573  12.151 -0.1337 -1.1137  0.3068
 4018SOL     OW23686   4.100   2.166   3.473 -0.3549  0.4028 -0.0674
 4018SOL    HW123687   4.101   2.255   3.508  0.4036 -0.2714  1.6234
 4018SOL    HW223688   4.011   2.144   3.445  0.2537 -3.6761  1.2110
 4019SOL     OW23689   3.032   0.501   7.353 -0.3543 -0.1426  0.0830
 4019SOL    HW123690   3.021   0.455   7.436  1.0652  0.5416  0.6444
 4019SOL    HW223691   3.012   0.592   7.376 -3.3693 -0.0751 -2.8007
 4020SOL     OW23692   3.861   2.329  13.268  0.0996 -0.5765 -0.1592
 4020SOL    HW123693   3.856   2.424  13.274  2.6739 -0.4156 -0.6360
 4020SOL    HW223694   3.795   2.318  13.200 -0.3349 -1.9289  0.4575
 4021SOL     OW23695   3.027   1.218  14.116 -0.2179  0.5722 -0.0769
 4021SOL    HW123696   3.014   1.154  14.185  0.2241 -1.1241 -1.5636
 4021SOL    HW223697   2.936   1.211  14.084  0.3762 -2.3514 -1.1242
 4022SOL     OW23698   4.694   4.228   7.711  0.2495 -0.0053 -0.7279
 4022SOL    HW123699   4.705   4.164   7.640 -1.0362 -1.5101  0.4233
 4022SOL    HW223700   4.672   4.165   7.779  2.5223  1.3645  1.2476
 4023SOL     OW23701   4.289   1.257   3.781 -0.0522 -0.6574  0.1571
 4023SOL    HW123702   4.255   1.341   3.752 -0.8283 -0.6183  1.1602
 4023SOL    HW223703   4.230   1.221   3.848 -0.2900  1.6053  1.1661
 4024SOL     OW23704   0.526   1.890   6.693 -0.1881  0.4660  0.2665
 4024SOL    HW123705   0.438   1.887   6.731 -0.5983  3.3673 -0.4035
 4024SOL    HW223706   0.505   1.886   6.600  1.2576  0.6392 -0.0659
 4025SOL     OW23707   3.194   3.948   4.891 -0.0532 -0.2068 -0.9972
 4025SOL    HW123708   3.226   3.890   4.961  0.6354  0.8886 -0.3854
 4025SOL    HW223709   3.174   4.021   4.950  0.7815 -0.7282 -0.0589
 4026SOL     OW23710   3.237   3.235   8.227 -0.0069  0.0982 -0.2453
 4026SOL    HW123711   3.326   3.231   8.261 -0.5041  1.4868  1.2037
 4026SOL    HW223712   3.255   3.304   8.164  0.6862 -0.3334 -0.5203
 4027SOL     OW23713   1.084   0.935   8.089 -0.2660 -0.3181  0.4776
 4027SOL    HW123714   1.051   0.929   8.179 -0.5893  1.0789  0.4522
 4027SOL    HW223715   1.178   0.927   8.106  0.1076  1.7178 -0.6682
 4028SOL     OW23716   1.080   3.847  11.276  1.1804  0.4508  0.6789
 4028SOL    HW123717   1.054   3.798  11.353  2.4166 -0.1736  0.6943
 4028SOL    HW223718   1.056   3.788  11.205 -2.2198  1.4285  0.9941
 4029SOL     OW23719   1.429   1.203   7.491 -0.4169 -0.1511  0.3699
 4029SOL    HW123720   1.397   1.229   7.404  0.1229  2.4907  0.9660
 4029SOL    HW223721   1.524   1.190   7.484 -0.6250 -0.7674 -1.4239
 4030SOL     OW23722   1.229   4.097   1.777  0.2040  0.1961 -0.0002
 4030SOL    HW123723   1.318   4.127   1.791  0.4524 -1.3529  1.6646
 4030SOL    HW223724   1.183   4.175   1.746  0.2810  0.2632  0.0564
 4031SOL     OW23725   4.705   1.829  12.038  0.0897 -0.1756 -0.4263
 4031SOL    HW123726   0.011   1.768  11.978  1.1067  1.0788 -0.9725
 4031SOL    HW223727   4.613   1.829  12.013 -0.3105 -3.1543  1.0684
 4032SOL     OW23728   2.261   1.796   8.211  0.2257 -0.3691 -0.4335
 4032SOL    HW123729   2.205   1.824   8.138 -0.0471  0.7574  0.2030
 4032SOL    HW223730   2.282   1.880   8.252 -3.7740 -0.2388  1.3714
 4033SOL     OW23731   2.315   2.579  10.345 -0.4803  0.6319 -0.1340
 4033SOL    HW123732   2.224   2.598  10.324 -0.9072  0.4664  1.5156
 4033SOL    HW223733   2.334   2.499  10.295 -2.2045  0.6815 -0.8496
 4034SOL     OW23734   1.821   0.692   3.587 -0.5538 -0.0935 -0.2378
 4034SOL    HW123735   1.868   0.628   3.640  0.0926 -0.7573 -1.6125
 4034SOL    HW223736   1.784   0.623   3.532  2.4450 -1.7089 -0.2259
 4035SOL     OW23737   1.908   0.191   5.267 -0.2390 -0.2271  0.6821
 4035SOL    HW123738   1.847   0.147   5.208  1.1314  0.9481 -1.5618
 4035SOL    HW223739   1.974   0.123   5.277  0.2031 -0.0065 -0.7769
 4036SOL     OW23740   0.752   3.919   7.060  0.1348  0.1557  1.0432
 4036SOL    HW123741   0.769   3.993   7.001  0.9376 -0.2868  0.7162
 4036SOL    HW223742   0.768   3.958   7.146 -0.1490  0.7700  0.8165
 4037SOL     OW23743   0.010   1.761   6.659 -0.4871 -0.0900  0.4111
 4037SOL    HW123744   0.013   1.669   6.683  1.0702  0.3470  1.8601
 4037SOL    HW223745   4.695   1.754   6.579 -0.9222  0.7590  0.6185
 4038SOL     OW23746   2.473   2.705   9.749  0.5638 -0.1213  0.0718
 4038SOL    HW123747   2.478   2.791   9.790 -0.8971  1.1024 -2.2962
 4038SOL    HW223748   2.380   2.692   9.767  0.6699 -0.7334  0.1928
 4039SOL     OW23749   3.131   1.909  16.564  0.0728 -0.1283  0.4107
 4039SOL    HW123750   3.149   1.907  16.658 -0.1676 -0.5908  0.4457
 4039SOL    HW223751   3.221   1.904  16.531  0.1810 -0.8568  0.8057
 4040SOL     OW23752   0.789   3.297   8.528  0.3074 -0.2703  0.2519
 4040SOL    HW123753   0.833   3.215   8.547 -0.3476 -0.3506  1.4310
 4040SOL    HW223754   0.702   3.260   8.513 -0.3435  1.8611 -1.3089
 4041SOL     OW23755   3.228   3.612   8.423 -0.3162  0.2671 -0.5404
 4041SOL    HW123756   3.269   3.611   8.337 -1.0210 -0.4996 -0.8616
 4041SOL    HW223757   3.137   3.623   8.393 -0.3963 -2.2751 -1.1973
 4042SOL     OW23758   2.314   0.933   4.447  0.3598  0.1075 -0.6165
 4042SOL    HW123759   2.304   0.979   4.364 -0.7593 -1.9731 -1.6083
 4042SOL    HW223760   2.253   0.988   4.497  0.0447  1.6905 -2.7339
 4043SOL     OW23761   2.245   1.406   7.446  0.0907 -0.2762  0.0660
 4043SOL    HW123762   2.303   1.386   7.372  0.4430 -0.2072  0.3216
 4043SOL    HW223763   2.311   1.444   7.504 -1.1687  0.9213  0.7006
 4044SOL     OW23764   2.048   2.999   5.609  0.0359  0.0299 -0.3529
 4044SOL    HW123765   2.032   3.060   5.681  1.0233 -1.6656  1.2852
 4044SOL    HW223766   2.115   2.945   5.650 -1.7739  0.9415  3.8554
 4045SOL     OW23767   3.835   2.636   4.467 -0.3750  0.1490  0.3360
 4045SOL    HW123768   3.779   2.640   4.545 -0.3647  1.5537  0.2659
 4045SOL    HW223769   3.908   2.581   4.494 -0.3244 -1.5161 -3.1562
 4046SOL     OW23770   1.303   4.079  10.050 -0.3891  0.1232  0.3180
 4046SOL    HW123771   1.364   4.124   9.993 -2.0384  1.4017 -0.4583
 4046SOL    HW223772   1.234   4.133  10.011 -2.1119 -0.5972  2.3288
 4047SOL     OW23773   2.763   3.632   8.513 -0.1279  0.3535  0.3669
 4047SOL    HW123774   2.695   3.687   8.473 -0.7395 -1.7319 -1.4634
 4047SOL    HW223775   2.765   3.672   8.600  0.9672 -0.0058  0.5058
 4048SOL     OW23776   2.201   3.713  12.190  0.3453 -0.5538 -0.1685
 4048SOL    HW123777   2.263   3.780  12.219  0.9224 -2.1199  2.2703
 4048SOL    HW223778   2.265   3.675  12.130  1.4056 -0.4836  0.9025
 4049SOL     OW23779   3.601   1.016   8.581  0.2063  0.8091 -0.1195
 4049SOL    HW123780   3.623   0.923   8.568 -1.1709  0.3455  0.8324
 4049SOL    HW223781   3.682   1.040   8.625 -1.6330  1.1588  3.0692
 4050SOL     OW23782   4.409   2.791   8.162 -0.2679 -0.0124  0.1053
 4050SOL    HW123783   4.457   2.833   8.233 -1.9457  0.3107  1.0487
 4050SOL    HW223784   4.333   2.849   8.161  0.2789  0.6861 -0.9193
 4051SOL     OW23785   1.840   1.220   5.137  0.2076 -0.0370  0.1110
 4051SOL    HW123786   1.874   1.243   5.224  1.8711  1.2931 -0.8918
 4051SOL    HW223787   1.860   1.299   5.087  0.3135 -0.3910 -0.4026
 4052SOL     OW23788   4.418   2.634   7.692 -0.3362  0.1040  0.0831
 4052SOL    HW123789   4.364   2.567   7.651 -0.7780  0.8344 -0.5276
 4052SOL    HW223790   4.375   2.623   7.777  2.1940  2.2586  1.6230
 4053SOL     OW23791   2.391   0.680   5.829  0.0795 -0.1461 -0.9874
 4053SOL    HW123792   2.421   0.608   5.885  1.0009 -0.2018 -1.5502
 4053SOL    HW223793   2.415   0.646   5.742 -1.8829 -1.8520 -0.8613
 4054SOL     OW23794   0.026   3.892  10.785 -0.0975 -0.2352 -0.2057
 4054SOL    HW123795   4.685   3.854  10.744  0.5232 -3.2063  1.3348
 4054SOL    HW223796   0.058   3.815  10.833  1.0383  0.8586  0.7800
 4055SOL     OW23797   2.051   4.340  16.035 -0.2121 -0.6273 -0.2154
 4055SOL    HW123798   2.098   4.275  16.086  0.2103  0.0770  0.3006
 4055SOL    HW223799   2.029   4.405  16.102 -1.2253 -1.1878  0.0049
 4056SOL     OW23800   0.264   1.576   9.521  0.7550 -0.2012  0.2290
 4056SOL    HW123801   0.291   1.573   9.429  0.9399  0.2544  0.2689
 4056SOL    HW223802   0.237   1.668   9.530 -1.9993 -0.7056 -2.4979
 4057SOL     OW23803   3.546   2.378   5.216  0.3032  0.6011 -0.1090
 4057SOL    HW123804   3.501   2.295   5.200  0.9724  0.0333  1.0424
 4057SOL    HW223805   3.597   2.361   5.294  1.2649 -0.7116 -1.0253
 4058SOL     OW23806   4.472   0.349   6.302 -0.0040 -0.4505  0.0021
 4058SOL    HW123807   4.525   0.273   6.276 -1.3113 -1.3191 -0.1032
 4058SOL    HW223808   4.494   0.346   6.395 -0.4199  0.3607  0.1279
 4059SOL     OW23809   0.644   2.927   5.485  0.1782  0.2008  0.0636
 4059SOL    HW123810   0.676   2.971   5.405 -1.8913  0.4298 -0.6415
 4059SOL    HW223811   0.680   2.988   5.549  1.2395  0.6215 -0.9183
 4060SOL     OW23812   0.686   4.010   7.483 -0.1787 -0.5987  0.4750
 4060SOL    HW123813   0.690   4.046   7.571 -1.9463 -0.8041  0.6265
 4060SOL    HW223814   0.685   3.917   7.505 -4.8001 -0.5134  0.5195
 4061SOL     OW23815   0.280   2.516  16.789  0.6180  0.2174  0.2950
 4061SOL    HW123816   0.204   2.530  16.845  0.7491 -1.1440  0.8181
 4061SOL    HW223817   0.279   2.421  16.779 -0.4678  0.5673 -2.8660
 4062SOL     OW23818   2.225   1.573   2.055  0.1326  0.6819 -0.0907
 4062SOL    HW123819   2.169   1.510   2.010 -1.3977  0.4412  2.1614
 4062SOL    HW223820   2.221   1.531   2.141  1.1817 -3.0525 -1.8403
 4063SOL     OW23821   3.298   2.919   7.169 -0.2279 -0.1576  0.3716
 4063SOL    HW123822   3.354   2.932   7.092  0.4922  0.1689  0.9516
 4063SOL    HW223823   3.266   2.830   7.155  1.2481 -0.3438 -1.8165
 4064SOL     OW23824   1.487   4.112   9.607  0.1013  0.2769 -0.1960
 4064SOL    HW123825   1.441   4.067   9.678 -0.8491  1.5382 -0.0006
 4064SOL    HW223826   1.408   4.145   9.565  1.3498  0.9934 -1.9813
 4065SOL     OW23827   0.509   1.083   6.832 -0.7670 -0.1625 -0.1747
 4065SOL    HW123828   0.455   1.162   6.824 -1.6379 -0.8142 -0.8005
 4065SOL    HW223829   0.525   1.078   6.737 -0.5884 -1.1126 -0.0936
 4066SOL     OW23830   3.428   1.579  13.662 -0.5914 -0.1158  0.5361
 4066SOL    HW123831   3.431   1.497  13.713  0.4711  1.0862  2.4173
 4066SOL    HW223832   3.390   1.545  13.581  0.5296 -1.2979  0.5094
 4067SOL     OW23833   2.285   3.290   2.635  0.1250 -1.3380 -0.0358
 4067SOL    HW123834   2.361   3.247   2.596  0.4918 -2.0998  1.5217
 4067SOL    HW223835   2.313   3.310   2.725 -1.9092  2.0721 -0.1587
 4068SOL     OW23836   1.582   4.307   4.982  0.4051  0.8235 -0.0345
 4068SOL    HW123837   1.583   4.402   4.991  2.5453  0.7637  0.1545
 4068SOL    HW223838   1.616   4.277   5.066 -1.3871  0.3717  0.5261
 4069SOL     OW23839   2.447   3.892   9.408 -0.0941 -0.1755  0.1109
 4069SOL    HW123840   2.519   3.829   9.399  1.2560  1.3766  0.0122
 4069SOL    HW223841   2.371   3.835   9.399  1.8590 -2.3855 -2.3581
 4070SOL     OW23842   4.478   2.546  13.040 -0.0882 -0.2776 -0.2974
 4070SOL    HW123843   4.384   2.541  13.057 -0.1255  0.1934 -0.3759
 4070SOL    HW223844   4.502   2.467  13.089  0.7341 -1.4665 -2.6424
 4071SOL     OW23845   2.378   0.818   4.730 -0.2709 -0.0267  0.0831
 4071SOL    HW123846   2.359   0.906   4.763 -0.4492  0.9261 -2.5749
 4071SOL    HW223847   2.370   0.826   4.635 -0.7880 -1.3109  0.0147
 4072SOL     OW23848   3.124   3.612  17.103  0.1788 -0.3662 -0.1057
 4072SOL    HW123849   3.150   3.695  17.063 -1.9703  0.7596  0.7925
 4072SOL    HW223850   3.203   3.559  17.102  0.4563  0.0838 -1.4048
 4073SOL     OW23851   3.456   1.919   7.975  0.3125 -1.1734 -0.0288
 4073SOL    HW123852   3.534   1.959   8.014  1.3132 -0.9829 -2.2078
 4073SOL    HW223853   3.482   1.916   7.882 -0.4204 -2.4886 -0.1858
 4074SOL     OW23854   0.021   2.681   7.289 -0.3274  0.5920 -0.0300
 4074SOL    HW123855   4.705   2.602   7.282  0.4835 -0.0855  1.6331
 4074SOL    HW223856   0.107   2.652   7.258  0.3281  0.9020  1.4893
 4075SOL     OW23857   1.569   4.360   3.042 -0.0751  0.8515  0.6616
 4075SOL    HW123858   1.662   4.370   3.023 -0.6820  1.6027 -1.8539
 4075SOL    HW223859   1.536   4.302   2.973  0.1692  0.3289  0.9793
 4076SOL     OW23860   1.629   2.860   4.776 -0.5680 -0.1896  0.4155
 4076SOL    HW123861   1.632   2.948   4.814 -0.5496  0.3239 -0.7825
 4076SOL    HW223862   1.722   2.837   4.781 -0.7454 -1.4715 -2.4135
 4077SOL     OW23863   0.983   1.127   9.581 -0.3245  0.3270 -0.5505
 4077SOL    HW123864   0.924   1.053   9.569 -0.6845  0.3317  1.1947
 4077SOL    HW223865   0.999   1.128   9.676  1.7872 -0.2094 -0.8958
 4078SOL     OW23866   1.811   3.996   1.759 -0.1683 -0.6643 -0.0040
 4078SOL    HW123867   1.807   4.082   1.801  3.0190  0.1166 -1.2878
 4078SOL    HW223868   1.767   4.009   1.675 -1.2425 -0.7499  0.5367
 4079SOL     OW23869   3.449   4.209   4.762 -0.4768  0.2721 -0.1856
 4079SOL    HW123870   3.440   4.196   4.857  2.0033 -0.0332 -0.0010
 4079SOL    HW223871   3.373   4.165   4.725 -1.3263  0.3608  1.4318
 4080SOL     OW23872   1.298   0.705  16.777  0.0942 -0.2008 -0.5126
 4080SOL    HW123873   1.330   0.646  16.709 -2.2949  0.5767 -2.3144
 4080SOL    HW223874   1.219   0.657  16.801 -0.0136 -0.0226 -0.5075
 4081SOL     OW23875   1.170   3.994   5.307 -0.1947  0.2644  0.0785
 4081SOL    HW123876   1.203   3.966   5.222 -2.2629  0.1505 -0.6717
 4081SOL    HW223877   1.143   4.085   5.296  0.0205  0.4761  1.2978
 4082SOL     OW23878   4.460   3.959   4.640  0.2102  0.0404 -0.0260
 4082SOL    HW123879   4.386   3.984   4.585  1.2154  0.2378 -1.3069
 4082SOL    HW223880   4.420   3.910   4.711  0.1458 -0.2580 -0.2705
 4083SOL     OW23881   4.617   2.929   9.889 -0.3140 -0.3375 -0.2810
 4083SOL    HW123882   4.593   2.855   9.833 -0.7456  0.6815 -1.4420
 4083SOL    HW223883   4.558   3.000   9.863 -0.8994 -1.2498 -1.4802
 4084SOL     OW23884   2.868   0.373  17.691  0.8539  0.0786 -0.1643
 4084SOL    HW123885   2.917   0.371  17.609  0.6050  0.3149 -0.3185
 4084SOL    HW223886   2.915   0.299  17.731  1.9623  1.8076  1.7248
 4085SOL     OW23887   4.583   2.258   5.424  0.0173  0.0198  0.2467
 4085SOL    HW123888   4.656   2.254   5.362  1.2498  0.0216  1.7089
 4085SOL    HW223889   4.538   2.339   5.398  0.8666  0.6460  0.7377
 4086SOL     OW23890   3.735   0.664   3.721 -0.1890  0.0686  0.2537
 4086SOL    HW123891   3.724   0.569   3.713 -2.6779  0.5932 -2.5092
 4086SOL    HW223892   3.725   0.667   3.816 -0.7554  2.9478  0.0875
 4087SOL     OW23893   3.720   3.608   6.271 -0.1121  0.1138 -0.6682
 4087SOL    HW123894   3.726   3.563   6.356 -0.0037  0.5297 -0.4570
 4087SOL    HW223895   3.739   3.533   6.215 -3.3852 -1.8139  0.7982
 4088SOL     OW23896   3.536   0.739  13.871 -0.2712  0.1573 -0.1545
 4088SOL    HW123897   3.446   0.743  13.906 -0.4843  1.7297 -0.8968
 4088SOL    HW223898   3.587   0.676  13.922  0.6084  0.8794 -0.1331
 4089SOL     OW23899   0.613   2.316   5.392 -0.1248 -0.1012  0.5232
 4089SOL    HW123900   0.687   2.347   5.339 -1.3203  0.7903 -0.6391
 4089SOL    HW223901   0.650   2.308   5.480  0.6803  1.1923  0.2986
 4090SOL     OW23902   1.990   2.772  14.668 -0.6590  0.3879 -0.1324
 4090SOL    HW123903   2.064   2.828  14.647 -1.8896  1.3292 -1.9118
 4090SOL    HW223904   2.026   2.696  14.622  1.1095  0.3533  1.2919
 4091SOL     OW23905   0.293   0.391   6.764  0.5675 -0.1572  0.1086
 4091SOL    HW123906   0.287   0.446   6.686 -2.7723 -0.0109  0.4532
 4091SOL    HW223907   0.270   0.449   6.837 -0.0366 -2.9554  2.1554
 4092SOL     OW23908   1.478   1.721   2.704  0.4288 -0.1020  0.4940
 4092SOL    HW123909   1.447   1.779   2.635  2.4393  1.6828  1.1119
 4092SOL    HW223910   1.557   1.763   2.737 -0.2619  1.0569  0.6600
 4093SOL     OW23911   1.124   4.456   2.758 -0.6093 -0.3934  0.3056
 4093SOL    HW123912   1.209   4.418   2.776  0.1712  0.0349 -2.4025
 4093SOL    HW223913   1.118   4.534   2.813 -1.0232  1.9315 -2.9908
 4094SOL     OW23914   4.480   0.220   4.708 -0.0069 -0.3619  0.7866
 4094SOL    HW123915   4.539   0.148   4.687  0.2903  0.0591  0.1452
 4094SOL    HW223916   4.541   0.277   4.755 -0.0416  1.2055 -1.0517
 4095SOL     OW23917   0.650   0.295  12.676  0.0726 -0.5756 -0.3007
 4095SOL    HW123918   0.597   0.367  12.711 -0.4195 -0.8442 -0.4829
 4095SOL    HW223919   0.620   0.300  12.585  1.6252 -0.1787 -0.7772
 4096SOL     OW23920   1.845   1.643   9.279  0.0103  0.2128  0.1039
 4096SOL    HW123921   1.884   1.686   9.355  1.0455  0.3305 -0.4802
 4096SOL    HW223922   1.793   1.571   9.315 -0.9227  1.4920  1.2951
 4097SOL     OW23923   1.067   3.283   7.652  0.1099 -0.2260 -0.4554
 4097SOL    HW123924   1.086   3.194   7.682  2.6423  0.2534 -0.5591
 4097SOL    HW223925   1.101   3.336   7.724 -0.0017 -2.6770  1.4192
 4098SOL     OW23926   0.050   4.370  13.337 -0.5321  0.1398  0.0158
 4098SOL    HW123927   0.089   4.456  13.351 -1.0709  0.2623  0.8244
 4098SOL    HW223928   0.003   4.373  13.254  1.8836 -1.2253 -1.3998
 4099SOL     OW23929   4.266   4.382  11.322  0.1465  0.2536  0.6397
 4099SOL    HW123930   4.308   4.419  11.399 -1.3698  1.3194  0.9537
 4099SOL    HW223931   4.174   4.387  11.350 -0.9043  1.1886 -2.9827
 4100SOL     OW23932   1.979   3.563   6.695 -0.1040 -0.2915  0.1417
 4100SOL    HW123933   2.059   3.518   6.722  0.3836  0.3364 -0.2227
 4100SOL    HW223934   2.014   3.652   6.681  0.8165 -0.4192  1.6531
 4101SOL     OW23935   0.757   1.248  14.612  0.2335  0.4474 -0.0025
 4101SOL    HW123936   0.786   1.240  14.521  1.1469 -0.7423  0.3961
 4101SOL    HW223937   0.663   1.258  14.593  0.8521  1.0028 -2.7918
 4102SOL     OW23938   3.501   0.077   1.456 -0.2590 -0.4033  0.5434
 4102SOL    HW123939   3.581   0.117   1.422 -0.3315  0.9374  1.9562
 4102SOL    HW223940   3.530   0.025   1.531  0.1306 -2.2550 -0.8884
 4103SOL     OW23941   3.346   4.464   1.836  0.4925  0.1526 -0.1254
 4103SOL    HW123942   3.270   4.518   1.815  1.6581  1.1316 -1.8025
 4103SOL    HW223943   3.311   4.376   1.819 -2.3529  0.9059  1.7769
 4104SOL     OW23944   0.657   1.039   1.397 -0.2036 -0.3258  0.5554
 4104SOL    HW123945   0.607   1.042   1.316 -0.0023 -1.0700  0.4084
 4104SOL    HW223946   0.701   1.125   1.392 -1.0726  0.1340  0.8580
 4105SOL     OW23947   2.869   2.563   9.269  0.2982  0.1056  0.0688
 4105SOL    HW123948   2.809   2.537   9.339  2.5366 -3.2703  0.7158
 4105SOL    HW223949   2.949   2.515   9.291 -0.7895 -1.2285  1.0897
 4106SOL     OW23950   2.605   0.498   1.250  0.0179  0.3037 -0.1891
 4106SOL    HW123951   2.664   0.569   1.275  0.1907  0.3367 -0.7031
 4106SOL    HW223952   2.575   0.521   1.162 -1.7525  1.2741  0.6662
 4107SOL     OW23953   0.486   4.554  12.711 -0.4314  0.1913 -0.6468
 4107SOL    HW123954   0.478   4.608  12.633 -2.0409  0.0776 -0.5660
 4107SOL    HW223955   0.526   4.472  12.681  0.1812  0.2429  0.0470
 4108SOL     OW23956   3.106   2.744   0.362  0.1526 -0.4240  0.1978
 4108SOL    HW123957   3.052   2.781   0.293 -0.6497  0.7930  1.4660
 4108SOL    HW223958   3.191   2.724   0.325 -0.6416 -1.2950 -1.1692
 4109SOL     OW23959   0.615   2.836   2.722  0.3288  0.2235 -0.0769
 4109SOL    HW123960   0.638   2.858   2.812  2.7860  1.3419 -0.9813
 4109SOL    HW223961   0.594   2.743   2.722  2.1788 -0.1894  0.2887
 4110SOL     OW23962   4.558   1.711   7.080  0.0558 -0.2916 -0.2181
 4110SOL    HW123963   4.612   1.634   7.098 -0.2626 -0.6867 -0.9778
 4110SOL    HW223964   4.618   1.750   7.017 -0.4124 -1.6090 -1.4711
 4111SOL     OW23965   3.761   3.705   8.917  0.4005  0.1244  0.0456
 4111SOL    HW123966   3.753   3.712   8.821 -0.6385  3.1142  0.3495
 4111SOL    HW223967   3.715   3.622   8.928 -0.8500  0.7585 -0.3923
 4112SOL     OW23968   2.034   1.437   3.779 -0.0503 -0.2712  0.1388
 4112SOL    HW123969   2.101   1.382   3.737  1.5306  1.0370  0.9367
 4112SOL    HW223970   2.084   1.492   3.839 -2.0392 -1.5402  2.9112
 4113SOL     OW23971   4.423   0.678   6.825 -0.0198 -0.2164 -0.0870
 4113SOL    HW123972   4.357   0.648   6.762  0.2306 -0.8018 -0.0776
 4113SOL    HW223973   4.385   0.756   6.864 -2.2260 -0.2856 -2.0754
 4114SOL     OW23974   3.263   2.065   2.642 -0.2996  0.6595 -0.1404
 4114SOL    HW123975   3.198   2.003   2.609  0.7075 -1.2196  1.4852
 4114SOL    HW223976   3.290   2.025   2.724  0.8756 -1.7450 -1.7174
 4115SOL     OW23977   3.642   1.185   8.220 -0.7245 -0.8199  0.2496
 4115SOL    HW123978   3.696   1.262   8.206  1.1559 -2.1738  0.0191
 4115SOL    HW223979   3.606   1.218   8.302  1.7445  0.6376  0.7270
 4116SOL     OW23980   4.660   3.326   3.249  0.2597 -0.6659  0.2348
 4116SOL    HW123981   4.627   3.410   3.282 -1.4243 -0.5260 -1.8402
 4116SOL    HW223982   4.584   3.276   3.279 -0.0909  0.7278  1.6705
 4117SOL     OW23983   1.852   4.646   2.182 -0.8106 -0.0572 -0.2697
 4117SOL    HW123984   1.939   4.682   2.169 -0.6711 -0.0569  0.7134
 4117SOL    HW223985   1.868   4.563   2.136 -2.6163 -1.1297  1.0078
 4118SOL     OW23986   2.415   2.196   0.197 -0.7049 -0.6000 -0.2076
 4118SOL    HW123987   2.429   2.226   0.287  1.4486 -4.1662  0.6286
 4118SOL    HW223988   2.506   2.177   0.174 -0.9824  0.9448 -2.4713
 4119SOL     OW23989   1.795   3.523  16.822  1.0382 -0.5585 -0.5373
 4119SOL    HW123990   1.848   3.591  16.863  0.8869 -0.0995 -1.0960
 4119SOL    HW223991   1.713   3.573  16.828 -0.3956 -2.8934 -0.4386
 4120SOL     OW23992   4.662   1.481   6.729  0.6155 -0.3996  0.2885
 4120SOL    HW123993   4.665   1.440   6.816  0.3634 -0.7269  0.1424
 4120SOL    HW223994   4.569   1.503   6.732 -0.0008 -3.1380  0.7081
 4121SOL     OW23995   4.492   0.773   2.444 -0.5924  0.3206 -0.4570
 4121SOL    HW123996   4.422   0.726   2.490  0.1645  0.3723  0.7326
 4121SOL    HW223997   4.480   0.765   2.349  0.0813 -1.7018 -0.3660
 4122SOL     OW23998   2.621   4.198   5.530 -0.3016  0.1372  0.0704
 4122SOL    HW123999   2.569   4.118   5.523 -0.6668  0.3457  0.4359
 4122SOL    HW224000   2.587   4.249   5.457  1.9920  0.1926 -0.9816
 4123SOL     OW24001   2.208   2.305  16.447 -0.0832  0.4718 -0.1799
 4123SOL    HW124002   2.270   2.245  16.488 -0.2818  0.2542 -0.1983
 4123SOL    HW224003   2.149   2.316  16.522 -0.6540  1.4503 -0.7787
 4124SOL     OW24004   3.687   3.309  15.703  0.8202  0.8869  0.3971
 4124SOL    HW124005   3.604   3.262  15.707  0.7506  0.7198 -2.4754
 4124SOL    HW224006   3.747   3.241  15.732  1.0688  1.1282  0.4518
 4125SOL     OW24007   2.069   2.526  14.556  0.2731  0.2041 -0.0997
 4125SOL    HW124008   2.080   2.543  14.462 -2.8661 -1.6477 -0.8200
 4125SOL    HW224009   1.988   2.475  14.558  1.5494 -1.6735  3.6821
 4126SOL     OW24010   0.373   4.482  12.969  0.2590  0.1788  0.0803
 4126SOL    HW124011   0.418   4.556  13.012  1.6283 -0.4467 -0.2915
 4126SOL    HW224012   0.383   4.502  12.876  2.9003 -1.2510  0.0685
 4127SOL     OW24013   1.308   3.845   4.501  0.3362 -0.3183  0.3781
 4127SOL    HW124014   1.287   3.910   4.568  0.6426  1.5568 -1.3419
 4127SOL    HW224015   1.399   3.867   4.482 -0.2435  0.4206 -1.5142
 4128SOL     OW24016   2.005   0.793  14.356 -0.7270 -0.3824  0.0130
 4128SOL    HW124017   2.064   0.782  14.281  2.5014  0.5751  2.4523
 4128SOL    HW224018   2.065   0.810  14.428 -1.1653  2.0550 -0.2056
 4129SOL     OW24019   0.137   2.904   3.804  0.0978  0.6316 -0.6383
 4129SOL    HW124020   0.113   2.950   3.724  0.4722  0.9750 -0.5482
 4129SOL    HW224021   0.118   2.961   3.878 -0.0122 -0.2833  0.0417
 4130SOL     OW24022   0.941   2.824  11.327  0.2331 -0.3180  0.4989
 4130SOL    HW124023   0.917   2.822  11.420 -0.1173 -0.1287  0.4104
 4130SOL    HW224024   0.932   2.733  11.298 -3.1262  0.1263  0.2153
 4131SOL     OW24025   0.691   2.888  11.129  0.4428  0.1477 -0.2008
 4131SOL    HW124026   0.768   2.837  11.103 -1.1273 -0.5727 -3.4544
 4131SOL    HW224027   0.717   2.921  11.215  0.9783  3.6652 -1.7228
 4132SOL     OW24028   0.012   0.150   3.752 -0.1197  0.1977 -0.0264
 4132SOL    HW124029   4.733   0.188   3.838  0.2786 -1.9077  0.9698
 4132SOL    HW224030   0.025   0.231   3.703  0.3539  0.4953  0.5856
 4133SOL     OW24031   1.391   3.946  10.296  0.0794 -0.1340  0.1809
 4133SOL    HW124032   1.336   3.870  10.316 -0.7076 -0.0278 -1.5883
 4133SOL    HW224033   1.349   3.986  10.220  0.6702  1.8727  0.9055
 4134SOL     OW24034   4.400   1.589   6.750  0.2326  0.0470  0.4686
 4134SOL    HW124035   4.380   1.631   6.834 -1.3169 -0.6857  0.4706
 4134SOL    HW224036   4.370   1.662   6.696  1.8976  0.2516 -0.1903
 4135SOL     OW24037   3.156   0.053   8.960 -0.6510 -0.4647  0.5694
 4135SOL    HW124038   3.087   0.114   8.935 -0.8111 -0.9855 -0.2433
 4135SOL    HW224039   3.214   0.126   8.983 -1.7419  0.6016 -0.0311
 4136SOL     OW24040   0.232   3.819  17.694 -0.3151 -0.2989  0.2450
 4136SOL    HW124041   0.303   3.761  17.666 -1.9093 -1.6690 -0.9942
 4136SOL    HW224042   0.274   3.866   0.019 -0.3256  1.2180 -0.7359
 4137SOL     OW24043   4.001   0.541   4.772 -0.0519  0.0908 -0.4500
 4137SOL    HW124044   4.025   0.632   4.756  1.3732 -0.0177  1.0246
 4137SOL    HW224045   3.932   0.528   4.707 -0.3272  0.6391 -0.2626
 4138SOL     OW24046   3.757   1.244   3.954  0.3872  0.0803  0.2872
 4138SOL    HW124047   3.725   1.316   3.900 -2.7837 -1.2308  0.3804
 4138SOL    HW224048   3.782   1.298   4.029  0.3545  1.9552 -1.0667
 4139SOL     OW24049   1.093   1.303  10.055 -0.1699  0.7439  0.3695
 4139SOL    HW124050   1.149   1.250  10.112  0.3660  1.6772  0.7062
 4139SOL    HW224051   1.082   1.384  10.105  0.7675  0.0425  1.7054
 4140SOL     OW24052   2.723   2.460   5.273 -0.8854  0.0413 -0.2396
 4140SOL    HW124053   2.676   2.421   5.199  0.3277 -0.3639 -0.7956
 4140SOL    HW224054   2.812   2.458   5.238 -0.6645 -0.4724  0.3524
 4141SOL     OW24055   2.845   4.220  10.280  0.2364  0.0883  0.4275
 4141SOL    HW124056   2.788   4.274  10.335  1.1472  1.8454 -0.3552
 4141SOL    HW224057   2.832   4.133  10.317  0.0541 -0.3475 -0.6658
 4142SOL     OW24058   0.374   3.261   5.649  0.3591  0.2367 -0.7105
 4142SOL    HW124059   0.357   3.197   5.718  1.1455 -0.2846 -1.0073
 4142SOL    HW224060   0.306   3.235   5.586 -1.5908  0.2809  1.3790
 4143SOL     OW24061   0.584   0.611   3.670  0.2330 -0.0471  0.1809
 4143SOL    HW124062   0.553   0.560   3.595 -1.4266  2.5539 -0.8987
 4143SOL    HW224063   0.506   0.666   3.683  0.6544  0.5061  0.3949
 4144SOL     OW24064   2.442   4.473  17.078  0.1984 -0.0864 -0.3552
 4144SOL    HW124065   2.441   4.528  17.156  0.4339  0.6795 -0.8951
 4144SOL    HW224066   2.452   4.538  17.009  1.6088 -0.4888 -0.5341
 4145SOL     OW24067   0.828   1.706  15.555 -0.2565 -0.2325 -0.2863
 4145SOL    HW124068   0.887   1.676  15.486 -1.5104 -0.5026 -1.2348
 4145SOL    HW224069   0.874   1.707  15.640 -0.5846  0.0268 -0.1105
 4146SOL     OW24070   0.623   1.104   9.193  0.0910  0.8752  0.2258
 4146SOL    HW124071   0.647   1.084   9.283  1.0330  0.7138 -0.0533
 4146SOL    HW224072   0.682   1.178   9.177  0.7951 -0.3125 -2.6400
 4147SOL     OW24073   3.916   3.366   2.120 -0.5786 -0.4346  0.5964
 4147SOL    HW124074   3.938   3.404   2.035  2.4241 -0.8853  1.1473
 4147SOL    HW224075   3.823   3.380   2.135 -0.5562  1.0794 -0.7054
 4148SOL     OW24076   1.881   0.243   2.210  0.1545 -0.3524  0.8655
 4148SOL    HW124077   1.828   0.210   2.137 -1.1121 -0.1635  1.6966
 4148SOL    HW224078   1.913   0.325   2.175 -1.4785 -0.6850 -1.4339
 4149SOL     OW24079   2.508   2.194  12.855 -0.1668 -0.5484 -0.1122
 4149SOL    HW124080   2.470   2.159  12.775  0.5558  0.3540 -0.8510
 4149SOL    HW224081   2.572   2.125  12.871  0.2149 -0.5362 -1.6382
 4150SOL     OW24082   3.218   2.678   5.263  0.1715 -0.0015  0.2618
 4150SOL    HW124083   3.127   2.663   5.236  0.1410  1.3489 -0.3883
 4150SOL    HW224084   3.204   2.772   5.275 -1.3486  0.1500 -2.5395
 4151SOL     OW24085   0.020   2.158  16.874 -0.3011  0.0546  0.4939
 4151SOL    HW124086   4.676   2.210  16.868 -0.8926 -0.8606  0.5314
 4151SOL    HW224087   4.726   2.075  16.911  1.7188 -0.3380  1.2761
 4152SOL     OW24088   1.310   2.887   7.529 -0.9574 -0.0101 -0.0154
 4152SOL    HW124089   1.266   2.959   7.576  0.0017  0.6424 -0.1176
 4152SOL    HW224090   1.377   2.853   7.589 -1.7704  0.6020  1.2568
 4153SOL     OW24091   3.106   3.440   4.780 -0.7911 -0.3915  0.0072
 4153SOL    HW124092   3.072   3.355   4.751 -4.0859  1.2981 -1.0929
 4153SOL    HW224093   3.184   3.454   4.726 -1.4038  2.0594 -0.2491
 4154SOL     OW24094   1.727   3.340   1.423 -0.3265  0.4260 -0.6645
 4154SOL    HW124095   1.788   3.325   1.496  0.0303 -0.1591 -1.0861
 4154SOL    HW224096   1.649   3.289   1.444 -0.7431  1.5319  0.4503
 4155SOL     OW24097   3.334   0.775  16.950 -0.2924  0.3909 -0.3552
 4155SOL    HW124098   3.261   0.830  16.922  2.3177  2.3988 -3.1892
 4155SOL    HW224099   3.314   0.781  17.043  0.1800 -1.3038 -0.1419
 4156SOL     OW24100   3.403   3.619   3.092 -0.3244 -0.2624 -0.1287
 4156SOL    HW124101   3.366   3.643   3.007  1.4752  1.5634 -0.3984
 4156SOL    HW224102   3.489   3.657   3.077  0.2049 -1.4813 -0.1792
 4157SOL     OW24103   3.256   0.453   8.193 -0.3755 -0.2415  0.0686
 4157SOL    HW124104   3.304   0.373   8.174  1.3722  0.8258 -0.0566
 4157SOL    HW224105   3.305   0.492   8.266 -0.0676 -0.4305 -0.0380
 4158SOL     OW24106   4.252   1.080   5.000 -0.0538 -0.0136  0.5380
 4158SOL    HW124107   4.212   0.996   5.024 -0.9291  0.2070 -0.1298
 4158SOL    HW224108   4.244   1.089   4.905  3.0875 -1.8064  0.1022
 4159SOL     OW24109   1.561   3.177   3.578 -0.3351  0.0519  0.1403
 4159SOL    HW124110   1.492   3.117   3.552 -1.0957  0.5694  0.9415
 4159SOL    HW224111   1.628   3.150   3.515  0.0773  0.1342  0.5417
 4160SOL     OW24112   1.283   2.049   4.342  0.1103 -0.5500  0.1350
 4160SOL    HW124113   1.226   1.984   4.301 -0.4044 -0.4067  0.6183
 4160SOL    HW224114   1.311   2.011   4.425 -0.3612 -0.1452  0.4771
 4161SOL     OW24115   1.942   3.686  15.678 -0.1737  0.2201 -0.1681
 4161SOL    HW124116   1.885   3.722  15.746 -0.4705 -0.1878 -0.2024
 4161SOL    HW224117   1.975   3.768  15.640 -1.9533  1.5523  1.1111
 4162SOL     OW24118   3.312   2.733  14.990 -0.3634  0.3481 -0.1024
 4162SOL    HW124119   3.287   2.644  14.963 -0.9024 -0.0379  1.6671
 4162SOL    HW224120   3.231   2.784  14.992 -1.3925 -1.3074  0.3832
 4163SOL     OW24121   2.328   2.072   6.909 -0.0392  0.2687  0.1111
 4163SOL    HW124122   2.268   2.069   6.983  1.0368 -2.6756  0.8567
 4163SOL    HW224123   2.340   2.166   6.899 -0.2964  0.2013 -0.8685
 4164SOL     OW24124   3.197   2.368   7.129  0.0759  0.3440 -1.1040
 4164SOL    HW124125   3.107   2.347   7.101  0.9344 -2.1103 -2.0683
 4164SOL    HW224126   3.241   2.303   7.074  0.2934  1.5128 -2.3212
 4165SOL     OW24127   0.548   4.359   2.452  0.2952  0.3947 -1.0487
 4165SOL    HW124128   0.629   4.401   2.481 -0.0235  0.5924 -0.4489
 4165SOL    HW224129   0.547   4.380   2.359 -0.8864  0.9352 -0.9170
 4166SOL     OW24130   2.399   3.728   5.535  0.3489 -0.3152 -0.1855
 4166SOL    HW124131   2.328   3.721   5.599  0.0195  0.4435 -0.4682
 4166SOL    HW224132   2.457   3.657   5.562  0.1993  0.3164  1.7737
 4167SOL     OW24133   3.319   1.558  14.730  0.1051  0.3703  0.4240
 4167SOL    HW124134   3.258   1.509  14.675 -0.2522  1.6453 -0.3363
 4167SOL    HW224135   3.403   1.539  14.689 -0.3225  1.6665 -1.0512
 4168SOL     OW24136   3.963   3.303   4.065  0.2364  0.0909  0.3625
 4168SOL    HW124137   4.018   3.380   4.077 -1.0840  0.9259  1.0973
 4168SOL    HW224138   3.924   3.300   4.153  0.6185 -3.9768  0.3783
 4169SOL     OW24139   2.652   0.009  14.358  0.3328 -0.0554 -0.1505
 4169SOL    HW124140   2.584   0.035  14.421 -0.7608  1.4450 -1.9720
 4169SOL    HW224141   2.608   0.033  14.277  0.3961 -1.7518 -0.6985
 4170SOL     OW24142   4.064   2.825   1.388 -0.4579 -0.1067  0.7760
 4170SOL    HW124143   4.075   2.787   1.301 -0.5987 -0.8529  1.0861
 4170SOL    HW224144   4.061   2.919   1.366 -0.1647 -0.1376  0.6017
 4171SOL     OW24145   1.098   3.415   2.362  0.0405 -0.5063  0.0228
 4171SOL    HW124146   1.154   3.481   2.321  0.3309  0.1856  1.5511
 4171SOL    HW224147   1.029   3.477   2.382  1.9950  2.2293 -1.7239
 4172SOL     OW24148   4.714   1.756   7.898 -0.6846 -0.3783  0.5001
 4172SOL    HW124149   4.673   1.821   7.841 -0.3853 -2.0551 -1.6683
 4172SOL    HW224150   4.725   1.798   7.983  0.1896  0.3936  0.0026
 4173SOL     OW24151   3.116   3.319   3.084  0.5623  0.0215 -0.7833
 4173SOL    HW124152   3.060   3.375   3.137 -0.1855  0.0803 -1.6259
 4173SOL    HW224153   3.132   3.371   3.004 -1.0552 -1.8812 -2.3412
 4174SOL     OW24154   4.228   0.213   9.022  0.4165  0.8018  0.6104
 4174SOL    HW124155   4.314   0.198   8.982  0.0965 -2.5706  1.1993
 4174SOL    HW224156   4.183   0.164   8.953 -0.8396 -1.2311  2.8848
 4175SOL     OW24157   1.728   1.455  15.447 -0.3685  0.1613  0.1268
 4175SOL    HW124158   1.801   1.402  15.414  0.9499  1.2241  1.2692
 4175SOL    HW224159   1.780   1.532  15.471  0.3642  0.1216 -1.3418
 4176SOL     OW24160   3.183   1.677   4.194 -0.6733  0.1111 -0.3223
 4176SOL    HW124161   3.137   1.753   4.158  0.7830  0.5401 -1.2659
 4176SOL    HW224162   3.214   1.718   4.275  0.8271  0.3619 -1.0280
 4177SOL     OW24163   1.212   0.728   3.954  0.3015 -0.4853  0.1888
 4177SOL    HW124164   1.304   0.709   3.974  0.7554  0.8406 -0.6034
 4177SOL    HW224165   1.183   0.655   3.898  0.5103 -0.5533  0.1686
 4178SOL     OW24166   2.939   3.024  14.301  0.0200 -0.3743 -0.1713
 4178SOL    HW124167   2.952   2.996  14.391  0.0385 -0.1929 -0.1180
 4178SOL    HW224168   3.032   3.027  14.278 -0.2500 -1.2286 -1.3955
 4179SOL     OW24169   2.749   3.520  14.513  0.2124 -0.2100 -0.2476
 4179SOL    HW124170   2.692   3.508  14.437  0.9236 -3.2048 -0.2987
 4179SOL    HW224171   2.708   3.463  14.578  0.0133 -1.4541 -1.4664
 4180SOL     OW24172   0.391   0.483   7.433 -0.0460  0.3211  0.2597
 4180SOL    HW124173   0.445   0.547   7.387  0.0321  0.7007  0.8658
 4180SOL    HW224174   0.300   0.512   7.427  0.0314  0.0669 -2.0475
 4181SOL     OW24175   2.044   1.153   3.969 -0.1432 -0.2202  0.5110
 4181SOL    HW124176   2.103   1.078   3.964  0.3069  0.0401  1.9339
 4181SOL    HW224177   2.108   1.220   3.991  0.0355 -0.5492  0.9923
 4182SOL     OW24178   1.839   4.468   2.413  0.3468 -0.5675 -0.3176
 4182SOL    HW124179   1.770   4.532   2.397 -0.5634 -1.2921  0.7208
 4182SOL    HW224180   1.910   4.532   2.423 -0.7270  0.8958 -1.9622
 4183SOL     OW24181   1.690   0.784   5.237 -0.2258  0.9675  0.2496
 4183SOL    HW124182   1.749   0.855   5.264 -0.4563  0.9101  0.8983
 4183SOL    HW224183   1.723   0.707   5.284  1.3504  0.9834 -0.8235
 4184SOL     OW24184   3.967   4.173   2.545  0.0930  0.3676 -0.1952
 4184SOL    HW124185   4.010   4.242   2.595  0.7809  0.0724 -0.3834
 4184SOL    HW224186   3.912   4.225   2.486 -1.1314  1.3940  1.8282
 4185SOL     OW24187   3.717   1.838   1.179 -0.2240 -0.0341 -0.0127
 4185SOL    HW124188   3.703   1.915   1.235 -1.7415 -1.5008  1.6437
 4185SOL    HW224189   3.756   1.866   1.097 -0.6676  0.4598 -0.0517
 4186SOL     OW24190   1.804   3.918   2.332  0.5506  0.4035 -0.2904
 4186SOL    HW124191   1.740   3.930   2.402  0.4240  1.8047 -0.6447
 4186SOL    HW224192   1.791   3.825   2.313 -0.5373  0.6383 -0.6700
 4187SOL     OW24193   4.692   0.134   8.362  0.0481  0.3191  0.6133
 4187SOL    HW124194   0.014   0.112   8.434  1.8481  1.1741 -0.5919
 4187SOL    HW224195   4.734   0.201   8.307  0.0665  1.4914  2.0277
 4188SOL     OW24196   2.110   4.121  15.831  0.5490 -0.3726  0.5873
 4188SOL    HW124197   2.083   4.188  15.894  0.5452  0.3565 -0.1919
 4188SOL    HW224198   2.205   4.132  15.829  0.5036 -0.3013 -1.0641
 4189SOL     OW24199   0.155   3.470   9.411  0.1647 -0.0002 -0.0516
 4189SOL    HW124200   0.181   3.534   9.345 -0.2876  0.2976  0.0562
 4189SOL    HW224201   0.123   3.525   9.483  1.0478 -0.9621  1.0673
 4190SOL     OW24202   4.304   3.437  10.923  0.7087 -0.3165  0.0334
 4190SOL    HW124203   4.295   3.365  10.861 -0.5639  1.4768 -1.9164
 4190SOL    HW224204   4.353   3.403  10.997 -0.9354 -2.8288 -0.0241
 4191SOL     OW24205   0.540   2.133  14.451  0.1400 -0.0842 -0.0542
 4191SOL    HW124206   0.528   2.189  14.374  0.1896  1.2143  0.8750
 4191SOL    HW224207   0.459   2.083  14.449 -0.5117  0.9686 -0.3239
 4192SOL     OW24208   2.241   0.066   3.571 -0.2014 -0.0554 -0.1774
 4192SOL    HW124209   2.160   0.106   3.601 -0.9428  1.6499 -4.4717
 4192SOL    HW224210   2.264   0.108   3.489 -0.0645 -0.3087 -0.2702
 4193SOL     OW24211   4.526   2.549   3.581 -0.0731  0.3001 -0.3475
 4193SOL    HW124212   4.606   2.542   3.633 -0.2453 -1.4908 -0.3459
 4193SOL    HW224213   4.552   2.639   3.558  0.5561  0.8233  2.4915
 4194SOL     OW24214   2.626   1.431  17.433 -0.0850  0.1597  0.3993
 4194SOL    HW124215   2.556   1.456  17.373 -1.6902  2.6679  3.3278
 4194SOL    HW224216   2.609   1.340  17.458  3.2764 -0.5700  0.0210
 4195SOL     OW24217   3.802   0.489   6.390  0.4779 -0.2622  0.9318
 4195SOL    HW124218   3.888   0.454   6.413 -0.5722 -4.2884 -1.2870
 4195SOL    HW224219   3.764   0.414   6.345 -1.5122  0.1924  1.8850
 4196SOL     OW24220   2.284   3.405   6.041 -0.2190  0.1353  0.3514
 4196SOL    HW124221   2.282   3.498   6.061 -1.5148  0.6580 -2.1457
 4196SOL    HW224222   2.363   3.394   5.988 -0.5216  1.2661 -0.3289
 4197SOL     OW24223   2.731   0.220   3.962  0.1697  0.1516 -0.2018
 4197SOL    HW124224   2.687   0.292   4.007  0.0244 -1.9150  2.8935
 4197SOL    HW224225   2.800   0.193   4.021 -1.5296 -0.3068  1.5844
 4198SOL     OW24226   3.920   1.470  12.370  0.3031 -0.8483  0.0607
 4198SOL    HW124227   3.840   1.515  12.396  0.1210 -0.5364 -1.0262
 4198SOL    HW224228   3.926   1.401  12.436 -0.2312 -0.9822 -0.0274
 4199SOL     OW24229   3.583   1.600   2.935 -0.2690 -0.5158  0.1726
 4199SOL    HW124230   3.591   1.516   2.980  1.1006  0.4709  1.7589
 4199SOL    HW224231   3.531   1.643   3.003 -0.4757  0.7685 -0.7787
 4200SOL     OW24232   0.647   1.470   6.720 -0.0577  0.9038 -0.3553
 4200SOL    HW124233   0.650   1.375   6.730  1.4348  1.1578  1.7498
 4200SOL    HW224234   0.552   1.477   6.712 -0.0392 -0.6997 -1.8561
 4201SOL     OW24235   2.408   3.469   7.699  0.2229 -0.6262 -0.5074
 4201SOL    HW124236   2.467   3.528   7.746 -2.8901  3.0792 -1.2138
 4201SOL    HW224237   2.377   3.535   7.637 -3.1513 -1.2213  0.4938
 4202SOL     OW24238   3.594   1.366  12.503 -0.6797  0.2830  0.1280
 4202SOL    HW124239   3.529   1.313  12.457  1.5713 -0.8424 -1.7963
 4202SOL    HW224240   3.651   1.302  12.547 -1.1675  0.1682  0.5875
 4203SOL     OW24241   0.867   0.381   7.500 -0.6171 -0.6434 -0.4856
 4203SOL    HW124242   0.909   0.304   7.539  0.2250  0.3493  0.5786
 4203SOL    HW224243   0.775   0.359   7.512 -0.2919 -0.7578  1.8790
 4204SOL     OW24244   0.837   3.605   9.392 -0.1372  0.1990  0.2620
 4204SOL    HW124245   0.746   3.577   9.390 -0.0833  0.1679 -1.8825
 4204SOL    HW224246   0.872   3.532   9.340 -2.1692 -1.5489  1.3818
 4205SOL     OW24247   2.676   0.525   4.441 -0.0460 -0.0918  0.0757
 4205SOL    HW124248   2.583   0.549   4.445 -0.0334 -0.3042  1.4348
 4205SOL    HW224249   2.714   0.605   4.476  3.0321 -2.3943  1.9690
 4206SOL     OW24250   4.253   0.430   8.459  0.7135  0.3505  0.7450
 4206SOL    HW124251   4.175   0.378   8.445  0.3307  1.0579  0.2573
 4206SOL    HW224252   4.257   0.431   8.555 -0.7394 -2.9815  0.8216
 4207SOL     OW24253   3.146   4.598  15.177 -0.0584  0.5308 -0.1331
 4207SOL    HW124254   3.228   4.593  15.127 -0.4508  0.9348 -0.8268
 4207SOL    HW224255   3.168   4.550  15.257 -3.2886 -0.9986 -0.1393
 4208SOL     OW24256   1.967   2.463  11.830 -0.8259  0.2081  0.2550
 4208SOL    HW124257   1.951   2.533  11.766  0.8743  0.9867  0.6973
 4208SOL    HW224258   1.978   2.516  11.908  1.8924 -0.7351  0.5212
 4209SOL     OW24259   3.929   2.422   7.510  0.1196 -0.2995 -0.7414
 4209SOL    HW124260   3.890   2.474   7.439 -2.3777  0.5083  1.2399
 4209SOL    HW224261   3.886   2.463   7.585  0.7782 -1.1357  0.0857
 4210SOL     OW24262   3.764   1.190  16.730  0.2154  0.0147  0.1295
 4210SOL    HW124263   3.685   1.239  16.710  0.1163 -0.1674  0.0709
 4210SOL    HW224264   3.805   1.256  16.785 -2.2283  2.3951 -0.8984
 4211SOL     OW24265   0.714   0.773   4.329 -1.1186  0.3577 -0.3949
 4211SOL    HW124266   0.762   0.717   4.390 -0.4405  0.6793 -0.6330
 4211SOL    HW224267   0.633   0.724   4.321 -0.1513 -1.2069 -0.5123
 4212SOL     OW24268   0.162   1.505   5.255 -0.0824 -0.0651 -0.2581
 4212SOL    HW124269   0.210   1.504   5.338  1.4824 -0.7489 -1.1687
 4212SOL    HW224270   0.233   1.480   5.195  2.7982  1.5558  2.4271
 4213SOL     OW24271   1.693   1.081   4.854 -0.4521 -0.0720 -0.0443
 4213SOL    HW124272   1.601   1.095   4.878 -0.8382 -0.7861 -1.1044
 4213SOL    HW224273   1.744   1.129   4.919 -0.1141 -2.7416  1.6409
 4214SOL     OW24274   0.976   0.449   8.665  0.4468  0.5408  0.0556
 4214SOL    HW124275   1.015   0.439   8.752  0.4599 -1.3040 -0.1813
 4214SOL    HW224276   0.898   0.396   8.678 -0.5047  1.7866 -0.5583
 4215SOL     OW24277   1.338   4.003  14.519  0.0812 -0.5465 -0.2748
 4215SOL    HW124278   1.352   4.085  14.567 -1.5557 -0.3519 -0.1128
 4215SOL    HW224279   1.342   4.039  14.431  1.4906  2.5728  1.0633
 4216SOL     OW24280   1.842   2.994   1.209 -0.6363  0.6275 -0.1046
 4216SOL    HW124281   1.880   2.945   1.282 -0.3212  0.8150 -0.1380
 4216SOL    HW224282   1.784   2.930   1.170 -0.6313  1.5471 -1.6186
 4217SOL     OW24283   4.008   3.995   7.522 -0.3461 -0.6464  0.4450
 4217SOL    HW124284   3.953   4.070   7.504  0.1472  0.0526  1.7896
 4217SOL    HW224285   3.938   3.933   7.544 -0.2653 -1.4883 -1.7421
 4218SOL     OW24286   3.448   4.444   3.794 -0.4138  0.0498 -0.1957
 4218SOL    HW124287   3.463   4.385   3.720  0.5446  0.3689 -0.2661
 4218SOL    HW224288   3.534   4.440   3.835  0.6754 -2.6760 -2.6896
 4219SOL     OW24289   1.897   3.348   2.934  0.4992 -0.2670 -0.3391
 4219SOL    HW124290   1.902   3.431   2.886  0.1222  1.1080  2.0204
 4219SOL    HW224291   1.879   3.396   3.015  0.3741 -0.5982 -0.1728
 4220SOL     OW24292   0.108   1.420   3.287  0.1496  0.3110 -0.6772
 4220SOL    HW124293   0.164   1.496   3.269 -0.6650  1.0108 -0.2380
 4220SOL    HW224294   0.165   1.361   3.336  2.1507  0.9991 -2.1687
 4221SOL     OW24295   0.659   0.958   2.922  0.7504  0.3683  0.2675
 4221SOL    HW124296   0.564   0.969   2.933  0.9566  2.6416 -0.0929
 4221SOL    HW224297   0.655   0.916   2.836 -1.6541  2.5364 -0.6966
 4222SOL     OW24298   1.039   3.962   6.499  0.1254  0.2207  0.5750
 4222SOL    HW124299   1.055   3.980   6.406 -1.6041  3.0592  0.8206
 4222SOL    HW224300   1.042   4.050   6.538  1.9819  0.1628  0.5916
 4223SOL     OW24301   1.140   4.245   9.916  0.1430  0.2783 -0.0118
 4223SOL    HW124302   1.202   4.265   9.846 -0.0124 -1.6061 -0.6901
 4223SOL    HW224303   1.054   4.266   9.879  1.1770  1.4106 -1.8020
 4224SOL     OW24304   2.099   1.465   8.847 -0.3180 -0.1514  0.3793
 4224SOL    HW124305   2.144   1.549   8.847 -2.6387  1.0934 -0.3509
 4224SOL    HW224306   2.032   1.479   8.913  0.1240  0.8921  0.6063
 4225SOL     OW24307   1.464   2.134   1.717 -0.7280 -0.3993 -0.1399
 4225SOL    HW124308   1.463   2.044   1.682 -1.0816  0.3730 -2.1219
 4225SOL    HW224309   1.427   2.124   1.805 -1.6295 -2.1974 -0.7206
 4226SOL     OW24310   1.710   1.348   8.785 -0.6772 -0.0531 -0.2088
 4226SOL    HW124311   1.723   1.398   8.704  1.3178  0.9518  0.7366
 4226SOL    HW224312   1.791   1.297   8.795 -1.0377 -0.5909 -0.0132
 4227SOL     OW24313   4.086   3.989  10.123  0.0162 -0.3392  0.1679
 4227SOL    HW124314   4.037   4.051  10.177 -0.1583 -0.5643  0.2742
 4227SOL    HW224315   4.076   4.033  10.039  0.8026 -0.5515 -0.0304
 4228SOL     OW24316   3.274   1.866   5.245  0.2395 -0.1096  0.1805
 4228SOL    HW124317   3.250   1.863   5.337  3.4415  0.0209  0.9942
 4228SOL    HW224318   3.362   1.830   5.247  0.7044  0.9944 -0.5911
 4229SOL     OW24319   3.647   0.455  16.740  0.0585  0.0212  0.1273
 4229SOL    HW124320   3.739   0.434  16.721  0.4805 -1.4378  3.8238
 4229SOL    HW224321   3.662   0.537  16.786  1.3083 -0.3807  0.4386
 4230SOL     OW24322   2.267   2.290  10.260  0.3852  0.1777 -0.3235
 4230SOL    HW124323   2.290   2.197  10.253  0.9858  0.4045 -1.2994
 4230SOL    HW224324   2.171   2.285  10.256  0.6111 -1.2631 -3.9213
 4231SOL     OW24325   1.789   3.665   6.836  0.1127  0.0975  0.4628
 4231SOL    HW124326   1.837   3.603   6.781  0.7858  0.1824  0.9515
 4231SOL    HW224327   1.850   3.663   6.909  0.3230 -4.0610  0.2028
 4232SOL     OW24328   3.089   1.594  11.060  0.4636 -0.4088  0.1136
 4232SOL    HW124329   3.000   1.586  11.095  0.5833 -1.2927  0.2331
 4232SOL    HW224330   3.111   1.681  11.093  1.7988 -1.1334  1.1463
 4233SOL     OW24331   3.104   0.659   1.519 -0.2749 -0.5664  0.2292
 4233SOL    HW124332   3.192   0.669   1.484  0.1977  2.0030  2.1495
 4233SOL    HW224333   3.121   0.646   1.612 -1.1367 -1.8208  0.2143
 4234SOL     OW24334   0.027   4.695   8.765 -0.0705 -0.4274  0.5911
 4234SOL    HW124335   4.688   4.719   8.711  0.4548  1.4052  0.6609
 4234SOL    HW224336   0.062   4.618   8.720 -0.2864 -0.8911  1.2196
 4235SOL     OW24337   2.179   3.774   9.367 -0.2892  0.5849 -0.2252
 4235SOL    HW124338   2.103   3.736   9.323  0.9371  0.6842 -2.4098
 4235SOL    HW224339   2.191   3.713   9.440 -3.5072  2.2614  1.7338
 4236SOL     OW24340   3.689   1.643  15.261  0.0737 -0.3402  0.4828
 4236SOL    HW124341   3.740   1.658  15.341  2.4420  2.9083 -1.6501
 4236SOL    HW224342   3.710   1.553  15.236  0.4917 -0.2636  0.5483
 4237SOL     OW24343   4.465   3.754  16.675 -0.0668  0.0101 -0.1539
 4237SOL    HW124344   4.503   3.749  16.763  1.5086  1.7280 -0.7356
 4237SOL    HW224345   4.539   3.745  16.616 -1.7991 -1.2616 -2.1501
 4238SOL     OW24346   0.671   0.499   8.433 -0.0327  0.0226  0.0270
 4238SOL    HW124347   0.622   0.543   8.501  0.2423 -0.1450  0.3328
 4238SOL    HW224348   0.641   0.547   8.356 -3.2971 -2.3335 -0.2279
 4239SOL     OW24349   1.887   4.012   8.529  0.4092  0.0451 -0.1464
 4239SOL    HW124350   1.828   4.044   8.462 -0.1606 -0.7129 -0.0023
 4239SOL    HW224351   1.824   3.978   8.593 -0.4224  0.7239 -0.6032
 4240SOL     OW24352   1.764   2.878  10.297 -0.2858 -0.4999  0.2802
 4240SOL    HW124353   1.833   2.941  10.317  0.4756 -1.2215 -0.0815
 4240SOL    HW224354   1.726   2.861  10.383 -1.9760  1.7828 -0.0221
 4241SOL     OW24355   0.049   1.720  11.742  0.7058 -0.2402  0.1943
 4241SOL    HW124356   0.042   1.806  11.700  1.2379  1.2836  3.2899
 4241SOL    HW224357   0.142   1.723  11.765  0.4123 -0.0631  1.3474
 4242SOL     OW24358   1.395   2.637   6.765  0.3916 -0.2886 -0.4043
 4242SOL    HW124359   1.428   2.588   6.690 -0.3107 -2.8943  0.9840
 4242SOL    HW224360   1.437   2.601   6.843 -2.5326  1.3653  1.9257
 4243SOL     OW24361   0.512   1.431   2.494  0.1094  0.0635  0.3017
 4243SOL    HW124362   0.585   1.372   2.510  0.1961  1.0517  3.5087
 4243SOL    HW224363   0.478   1.442   2.583 -0.8255  0.5515 -0.1141
 4244SOL     OW24364   2.083   1.116  17.150  0.4235 -0.0811  0.3442
 4244SOL    HW124365   2.154   1.150  17.096 -0.1951 -0.5563 -0.7505
 4244SOL    HW224366   2.137   1.076  17.218  3.2238  2.9314 -0.1065
 4245SOL     OW24367   2.329   1.015   5.640  0.3947 -0.4459 -0.3467
 4245SOL    HW124368   2.376   0.947   5.593  1.5765  1.6139 -2.1427
 4245SOL    HW224369   2.405   1.066   5.667  0.2661  0.3254 -1.4158
 4246SOL     OW24370   0.126   4.057   6.966 -0.7182 -0.4015 -0.4431
 4246SOL    HW124371   0.039   4.079   6.934 -0.8749  1.1387  1.0666
 4246SOL    HW224372   0.148   3.975   6.922  1.2538 -0.6602  1.0457
 4247SOL     OW24373   2.946   0.811   2.952 -0.8253  0.8156 -0.0871
 4247SOL    HW124374   2.936   0.720   2.922  1.0870  0.4989  0.2765
 4247SOL    HW224375   2.996   0.801   3.033  0.1441 -0.6516 -0.8618
 4248SOL     OW24376   4.018   1.150   8.325 -0.1932 -0.8493  0.5323
 4248SOL    HW124377   4.086   1.161   8.392 -0.3118  0.4172  0.4473
 4248SOL    HW224378   3.987   1.060   8.338  0.2749 -0.6839  2.7912
 4249SOL     OW24379   3.444   1.178  12.361  0.5425 -0.0405  0.2366
 4249SOL    HW124380   3.452   1.228  12.280  0.3606  0.0387  0.2677
 4249SOL    HW224381   3.356   1.143  12.351  0.1983  0.8853  0.0073
 4250SOL     OW24382   0.302   4.075  10.389 -0.4641 -0.5839 -0.0138
 4250SOL    HW124383   0.392   4.043  10.396  0.1549  0.8183 -1.3878
 4250SOL    HW224384   0.316   4.142  10.321 -1.1707  1.6293  2.0081
 4251SOL     OW24385   2.375   3.065  16.531  0.2486  0.0705  0.1669
 4251SOL    HW124386   2.338   3.031  16.612 -0.2977  1.7686  0.6378
 4251SOL    HW224387   2.459   3.019  16.524 -0.7992 -1.8532  0.3526
 4252SOL     OW24388   4.085   0.876   8.177 -0.5980  0.0070  0.1620
 4252SOL    HW124389   4.165   0.838   8.214 -1.4262 -0.9195  1.0187
 4252SOL    HW224390   4.114   0.921   8.098  2.2778 -0.2599  1.0735
 4253SOL     OW24391   4.299   0.309   0.065  0.0994 -0.0827 -0.2292
 4253SOL    HW124392   4.292   0.255  17.733  2.0808 -0.6746  0.0000
 4253SOL    HW224393   4.360   0.380   0.046  2.2126 -1.7921  0.1759
 4254SOL     OW24394   2.856   3.211  16.871  0.3837  0.3564 -0.0482
 4254SOL    HW124395   2.932   3.175  16.916  1.0012  1.4821 -0.1959
 4254SOL    HW224396   2.787   3.145  16.882 -0.7371  2.0062  2.9300
 4255SOL     OW24397   1.551   2.684  15.231 -0.1009 -0.2998  0.1045
 4255SOL    HW124398   1.599   2.601  15.226 -1.0466 -0.8951  0.8764
 4255SOL    HW224399   1.506   2.660  15.312  0.2158 -0.8295  0.1239
 4256SOL     OW24400   2.343   1.853  11.947  1.0602  0.0399 -0.3678
 4256SOL    HW124401   2.374   1.790  12.012  0.7107  0.1452 -0.0986
 4256SOL    HW224402   2.297   1.798  11.884 -1.4907 -0.7415  2.1751
 4257SOL     OW24403   1.122   2.423  12.190 -0.1295  0.3625 -0.4684
 4257SOL    HW124404   1.156   2.370  12.117  0.7330  2.4282 -1.5605
 4257SOL    HW224405   1.111   2.358  12.260 -1.6688  0.5702 -0.5138
 4258SOL     OW24406   0.395   2.339  13.870 -0.2540 -0.1688  0.5155
 4258SOL    HW124407   0.453   2.395  13.922  0.4429  2.1941 -2.8034
 4258SOL    HW224408   0.442   2.330  13.787  0.5437 -1.4717  1.1048
 4259SOL     OW24409   0.619   1.985   2.036 -0.5459 -0.4002 -0.4026
 4259SOL    HW124410   0.612   1.965   2.129  0.4737 -0.6288 -0.3752
 4259SOL    HW224411   0.618   2.080   2.024 -1.6748 -0.3583  0.1181
 4260SOL     OW24412   3.591   0.525  17.712 -0.2378 -0.3819 -0.0049
 4260SOL    HW124413   3.647   0.577  17.655  1.0007 -1.5742  0.1295
 4260SOL    HW224414   3.521   0.504  17.650  0.7765 -1.9842 -0.6161
 4261SOL     OW24415   0.218   0.127   3.508  0.1738  0.2732 -0.0999
 4261SOL    HW124416   0.310   0.152   3.520  0.6322 -1.5251  0.1012
 4261SOL    HW224417   0.189   0.124   3.599 -0.2235  1.3646 -0.1926
 4262SOL     OW24418   4.292   1.257   9.284 -0.7567  0.1908 -0.3384
 4262SOL    HW124419   4.237   1.258   9.362 -0.0984 -0.3187  0.1373
 4262SOL    HW224420   4.226   1.231   9.220  1.4330 -2.7720 -1.4318
 4263SOL     OW24421   0.545   1.665  10.354  0.2274  0.6983  0.1746
 4263SOL    HW124422   0.520   1.596  10.415  0.0636 -2.6277 -3.6287
 4263SOL    HW224423   0.460   1.694  10.319 -0.0089  1.7143  1.5775
 4264SOL     OW24424   4.733   3.924   0.731 -0.1909  1.1273  0.4733
 4264SOL    HW124425   0.026   3.977   0.805  1.7481 -0.9816  1.1847
 4264SOL    HW224426   4.662   3.982   0.702  2.8811  3.9683 -1.3014
 4265SOL     OW24427   2.157   0.008  16.950 -0.4825  0.6360 -0.8212
 4265SOL    HW124428   2.155   0.083  17.010  1.3174 -1.4150  1.8246
 4265SOL    HW224429   2.075   0.008  16.901 -0.6887  2.3717 -0.4792
 4266SOL     OW24430   4.456   4.443   2.202 -0.8335  0.1182 -0.1406
 4266SOL    HW124431   4.380   4.442   2.143  0.6323 -0.9125 -2.0295
 4266SOL    HW224432   4.521   4.475   2.140 -1.1870 -2.1829 -1.7011
 4267SOL     OW24433   0.361   4.125   9.816 -0.5501  1.4136  0.2998
 4267SOL    HW124434   0.344   4.081   9.899  0.1401  0.4649 -0.0579
 4267SOL    HW224435   0.455   4.106   9.809 -1.3390 -1.2027 -3.2255
 4268SOL     OW24436   2.198   4.663   7.286 -0.4577  0.0775  0.0181
 4268SOL    HW124437   2.186   4.655   7.381  0.7186 -0.6824  0.1105
 4268SOL    HW224438   2.137   4.597   7.255 -0.2722 -0.5791  1.0275
 4269SOL     OW24439   0.779   2.461   8.690 -0.0742  0.1438 -0.1744
 4269SOL    HW124440   0.687   2.473   8.713  0.5791  1.0377  2.0209
 4269SOL    HW224441   0.803   2.549   8.662  1.6704  0.5805  2.6778
 4270SOL     OW24442   4.132   0.373   4.523  0.1238  1.1697  0.8767
 4270SOL    HW124443   4.121   0.350   4.616 -0.0042 -1.7067  0.1650
 4270SOL    HW224444   4.224   0.357   4.505  0.1349  2.9287 -0.6441
 4271SOL     OW24445   3.506   1.030   2.331 -0.6957  0.8648 -0.2564
 4271SOL    HW124446   3.485   1.057   2.241 -1.2529 -0.0700 -0.4065
 4271SOL    HW224447   3.444   1.082   2.381 -0.4799 -1.9977  3.0373
 4272SOL     OW24448   3.768   3.486   4.561  0.1112 -0.5395 -0.0168
 4272SOL    HW124449   3.805   3.554   4.505  2.0250 -0.3038  1.5009
 4272SOL    HW224450   3.842   3.465   4.618  0.8794 -0.0399 -0.8266
 4273SOL     OW24451   3.988   0.070   2.613  0.1997  0.5698 -0.2327
 4273SOL    HW124452   4.036   0.073   2.530  0.3499  1.6337 -0.1139
 4273SOL    HW224453   3.975   0.164   2.629 -2.4366  0.3039 -0.7871
 4274SOL     OW24454   1.947   1.920   2.791 -0.4524 -0.6339 -0.4067
 4274SOL    HW124455   2.038   1.916   2.822 -0.7164  2.0996  0.7109
 4274SOL    HW224456   1.946   2.012   2.763  0.1966 -0.1527  1.1418
 4275SOL     OW24457   0.841   1.209   0.661  0.6666 -0.0541 -0.0206
 4275SOL    HW124458   0.859   1.291   0.616 -0.1364  0.7816  1.1868
 4275SOL    HW224459   0.927   1.166   0.659  0.8662  0.3597 -0.4936
 4276SOL     OW24460   1.134   2.000   3.751 -0.1294  0.6948  0.0239
 4276SOL    HW124461   1.133   2.078   3.696  1.6579  0.3350 -0.5167
 4276SOL    HW224462   1.063   2.032   3.807 -0.6003 -2.3864  1.1703
 4277SOL     OW24463   2.268   4.460  16.329 -0.1346  0.0928  0.1059
 4277SOL    HW124464   2.344   4.403  16.319 -0.9070 -0.7013 -1.3147
 4277SOL    HW224465   2.300   4.549  16.345  2.7824 -0.6661 -1.5960
 4278SOL     OW24466   4.670   2.058   8.052  0.1565  0.6775  0.5087
 4278SOL    HW124467   4.602   2.090   7.992  0.7221 -1.0384 -1.0633
 4278SOL    HW224468   4.693   2.139   8.097 -0.0716  1.0049  0.0463
 4279SOL     OW24469   3.169   3.659   4.365 -0.4833 -0.0356 -0.2002
 4279SOL    HW124470   3.087   3.665   4.413 -0.6606  1.7195 -0.7349
 4279SOL    HW224471   3.177   3.564   4.378 -3.4635 -0.2185  0.2788
 4280SOL     OW24472   4.489   1.693   8.467 -0.0655 -0.4598 -0.3074
 4280SOL    HW124473   4.490   1.737   8.552  2.3896  1.8072 -1.5272
 4280SOL    HW224474   4.560   1.745   8.430 -1.2832  1.3774 -0.0540
 4281SOL     OW24475   1.895   4.384   2.123 -0.0400 -0.0888 -0.1082
 4281SOL    HW124476   1.979   4.382   2.169  0.6741 -1.8936 -1.5172
 4281SOL    HW224477   1.835   4.374   2.198  0.2365  0.1940  0.1493
 4282SOL     OW24478   3.364   2.994   3.805  0.6877  0.4521  0.9713
 4282SOL    HW124479   3.404   3.081   3.811 -1.2054  1.3391  0.7329
 4282SOL    HW224480   3.273   3.024   3.798 -0.0590 -1.8364  0.7544
 4283SOL     OW24481   4.539   2.765  12.563 -0.5421 -0.1018 -0.0309
 4283SOL    HW124482   4.511   2.702  12.629 -3.4630 -1.9516 -3.0164
 4283SOL    HW224483   4.533   2.846  12.613 -0.1234  0.5117 -0.9565
 4284SOL     OW24484   1.946   4.001  10.726 -0.1523  0.2762  0.0112
 4284SOL    HW124485   2.025   3.971  10.770  0.0440 -1.6152 -1.6438
 4284SOL    HW224486   1.960   4.092  10.700  0.6981 -0.4382 -1.9932
 4285SOL     OW24487   4.614   3.353   6.280  0.6820  0.1144  0.0775
 4285SOL    HW124488   4.592   3.301   6.202 -0.7098  0.8895 -0.0575
 4285SOL    HW224489   4.660   3.294   6.339  3.2588  0.8014 -1.2452
 4286SOL     OW24490   1.859   0.885   3.814 -0.0116 -0.5373  0.1697
 4286SOL    HW124491   1.810   0.823   3.869 -0.7025 -1.9863 -2.0759
 4286SOL    HW224492   1.860   0.836   3.732 -0.2503  1.3616 -0.9551
 4287SOL     OW24493   3.535   4.321   6.864 -0.3618  0.7139  0.2984
 4287SOL    HW124494   3.453   4.273   6.853  0.5303 -0.4818 -1.2828
 4287SOL    HW224495   3.504   4.397   6.912  1.9881  1.7382  0.1829
 4288SOL     OW24496   1.221   0.755  10.220  0.3347  0.0066  0.4399
 4288SOL    HW124497   1.212   0.760  10.315 -0.2578 -0.2873  0.3967
 4288SOL    HW224498   1.314   0.778  10.215 -0.0453  1.3033 -0.9066
 4289SOL     OW24499   0.479   2.440   8.327 -0.6979 -0.0386 -0.4019
 4289SOL    HW124500   0.464   2.486   8.244  1.1616  0.5585 -0.4056
 4289SOL    HW224501   0.416   2.493   8.376 -1.0050 -0.3542 -0.4604
 4290SOL     OW24502   2.427   4.428  10.396 -0.0628 -0.7299 -0.4363
 4290SOL    HW124503   2.482   4.493  10.440 -1.0421 -1.9726  2.6292
 4290SOL    HW224504   2.447   4.437  10.303  0.6575 -2.4299 -0.4394
 4291SOL     OW24505   4.168   1.864   9.413  0.4091 -0.3100  0.0579
 4291SOL    HW124506   4.081   1.824   9.410 -0.6905  2.0734 -0.1025
 4291SOL    HW224507   4.218   1.791   9.376  2.2522  0.0968  1.7216
 4292SOL     OW24508   3.955   1.102   1.477  0.3607  0.1092 -0.3076
 4292SOL    HW124509   4.037   1.126   1.433 -0.3639 -0.7032 -2.0873
 4292SOL    HW224510   3.925   1.030   1.421  1.5581  0.3061 -1.2127
 4293SOL     OW24511   3.642   3.022   4.400  0.0140  0.7673  0.5161
 4293SOL    HW124512   3.668   2.982   4.483 -1.0356  2.6936  1.7551
 4293SOL    HW224513   3.608   3.109   4.420  2.2473  1.3779  1.7188
 4294SOL     OW24514   4.058   3.577   3.568  0.5644 -0.1145  0.4872
 4294SOL    HW124515   4.112   3.603   3.494  2.0199 -0.2383  1.5046
 4294SOL    HW224516   4.089   3.630   3.641 -1.9646  0.8133  0.8818
 4295SOL     OW24517   1.952   1.650   4.185 -0.6066  0.4772 -0.2266
 4295SOL    HW124518   2.002   1.729   4.166  0.7713  0.0800  1.7004
 4295SOL    HW224519   1.884   1.659   4.119 -1.4160  0.3323  0.5954
 4296SOL     OW24520   4.381   4.166   9.584 -0.2524  0.1561  0.1179
 4296SOL    HW124521   4.371   4.127   9.671 -1.2773  1.3057  0.5118
 4296SOL    HW224522   4.476   4.166   9.570  0.0579 -0.6908  2.2090
 4297SOL     OW24523   1.701   2.450  15.260  0.5003  0.4026 -0.4317
 4297SOL    HW124524   1.784   2.405  15.242  0.8686 -0.0064  2.4245
 4297SOL    HW224525   1.663   2.397  15.329  0.9964  0.0097 -0.4599
 4298SOL     OW24526   2.716   4.608   0.699 -0.0920  0.8718 -0.2166
 4298SOL    HW124527   2.797   4.603   0.750  0.2782 -1.4089 -1.0501
 4298SOL    HW224528   2.685   4.692   0.733  2.0487  2.0642 -1.1680
 4299SOL     OW24529   1.403   2.396   7.526  0.1011 -0.3336  0.4919
 4299SOL    HW124530   1.388   2.406   7.432  1.2841 -0.5411  0.2805
 4299SOL    HW224531   1.318   2.357   7.547  0.3915 -0.7186  0.9490
 4300SOL     OW24532   3.912   4.653   7.475  0.6460 -0.2744 -0.2283
 4300SOL    HW124533   3.907   4.601   7.555 -1.2120  0.5515  0.1844
 4300SOL    HW224534   4.001   4.687   7.484  0.4111  0.2464  0.1071
 4301SOL     OW24535   4.083   1.973   6.558  0.3905  0.4294  0.0212
 4301SOL    HW124536   4.143   2.037   6.597 -0.5789  1.4926 -0.2325
 4301SOL    HW224537   3.997   1.996   6.593  0.9854 -0.1937  1.9206
 4302SOL     OW24538   4.005   1.466   8.723  0.1460 -0.1177  0.2904
 4302SOL    HW124539   4.054   1.495   8.646  0.4219  2.2015  1.3397
 4302SOL    HW224540   3.923   1.444   8.680  1.4932 -3.0975 -0.6985
 4303SOL     OW24541   2.762   3.450   5.967  1.0141 -0.2351  0.1387
 4303SOL    HW124542   2.687   3.474   5.912 -0.0975 -1.1699  1.2293
 4303SOL    HW224543   2.829   3.422   5.905 -1.6174 -1.9053 -1.9414
 4304SOL     OW24544   2.340   1.718   6.348 -0.0004 -0.3781 -0.4291
 4304SOL    HW124545   2.412   1.688   6.293 -0.1795 -1.0434 -0.3109
 4304SOL    HW224546   2.324   1.629   6.381  1.2982  0.1720  1.7221
 4305SOL     OW24547   1.259   1.519   7.369  0.3008 -0.6556  0.4005
 4305SOL    HW124548   1.174   1.517   7.324  0.1115  0.2533  0.7246
 4305SOL    HW224549   1.248   1.611   7.393 -0.0393 -0.4370 -0.5913
 4306SOL     OW24550   3.320   0.077   8.715 -0.1344 -0.1012 -0.2566
 4306SOL    HW124551   3.268   0.049   8.791 -0.5291  0.5885 -0.2785
 4306SOL    HW224552   3.261   0.077   8.640  0.5423 -1.4009 -0.7955
 4307SOL     OW24553   1.943   2.748  15.323  0.4267 -0.0841 -0.1484
 4307SOL    HW124554   1.875   2.792  15.273  0.6018 -2.6981 -2.6348
 4307SOL    HW224555   2.003   2.731  15.251  0.8406 -3.8859  1.1128
 4308SOL     OW24556   2.405   2.540  17.728 -0.2977  0.2310 -0.0292
 4308SOL    HW124557   2.367   2.526   0.068 -0.7853 -1.0682 -0.4483
 4308SOL    HW224558   2.444   2.627  17.734 -1.1144  0.5355  0.8969
 4309SOL     OW24559   1.149   2.872   2.511 -0.4984 -0.8096 -0.4514
 4309SOL    HW124560   1.087   2.944   2.511 -0.9482 -1.1941 -2.1270
 4309SOL    HW224561   1.232   2.917   2.496 -0.9000  0.5370  1.4409
 4310SOL     OW24562   1.324   1.410  10.483  0.3503 -0.2957 -0.2969
 4310SOL    HW124563   1.351   1.479  10.422 -3.2142  0.7286 -0.7157
 4310SOL    HW224564   1.228   1.411  10.473  0.3144 -0.7848  0.0271
 4311SOL     OW24565   0.115   2.231   2.118 -0.4512 -0.1903 -0.2190
 4311SOL    HW124566   0.024   2.243   2.146 -1.2395 -0.2036 -2.7574
 4311SOL    HW224567   0.102   2.231   2.023 -0.5131  2.2662 -0.2121
 4312SOL     OW24568   3.676   1.460   4.832  0.5399 -0.1629 -0.6952
 4312SOL    HW124569   3.606   1.509   4.875 -0.4454 -2.1445 -0.0263
 4312SOL    HW224570   3.669   1.373   4.874  2.9805  0.6465  1.4059
 4313SOL     OW24571   3.618   2.199   8.334 -0.1300  0.0941  0.2314
 4313SOL    HW124572   3.684   2.237   8.275 -0.7935 -2.6299 -2.2837
 4313SOL    HW224573   3.566   2.149   8.272 -1.1484 -1.4618  2.3503
 4314SOL     OW24574   2.818   2.998   8.390  0.1992  0.4471 -0.2871
 4314SOL    HW124575   2.910   2.981   8.371  0.3163  0.2756  0.4459
 4314SOL    HW224576   2.800   3.075   8.336 -0.5017 -0.0865 -0.8184
 4315SOL     OW24577   3.645   0.185  11.182 -0.6942 -0.0456 -0.6147
 4315SOL    HW124578   3.672   0.264  11.136 -1.0592  0.5469  0.1949
 4315SOL    HW224579   3.577   0.143  11.128 -0.0754  0.9304 -2.1501
 4316SOL     OW24580   3.299   1.516  14.997 -0.0019  0.8384  0.1651
 4316SOL    HW124581   3.393   1.500  14.992 -0.5092 -2.1640  0.1101
 4316SOL    HW224582   3.286   1.535  14.904  0.1710 -3.1768 -0.6795
 4317SOL     OW24583   3.567   1.399  15.848 -0.0659 -0.0929  0.0299
 4317SOL    HW124584   3.606   1.339  15.911 -0.3505 -1.3423 -1.0007
 4317SOL    HW224585   3.591   1.364  15.762 -2.1413 -0.7676 -0.2842
 4318SOL     OW24586   1.449   0.868  15.895  0.3859  0.6551 -0.3839
 4318SOL    HW124587   1.469   0.866  15.989  2.3529 -1.3645 -0.8336
 4318SOL    HW224588   1.538   0.864  15.859  0.4837  0.0438 -0.0754
 4319SOL     OW24589   1.734   4.306   1.328  0.1407  0.3337  0.5130
 4319SOL    HW124590   1.806   4.362   1.300  2.0843 -3.1065 -1.4596
 4319SOL    HW224591   1.788   4.227   1.331 -0.5849 -0.1599  0.5926
 4320SOL     OW24592   0.344   1.277   6.763 -0.2569 -0.1621  0.2744
 4320SOL    HW124593   0.301   1.310   6.685  1.6429 -1.3137 -1.2809
 4320SOL    HW224594   0.278   1.302   6.827 -0.4952  0.4421 -0.2207
 4321SOL     OW24595   1.076   2.808  10.429  0.6139  0.1281 -0.0729
 4321SOL    HW124596   1.021   2.731  10.443  1.8536 -1.1301 -2.1700
 4321SOL    HW224597   1.033   2.852  10.355 -0.7580 -4.5279 -2.0345
 4322SOL     OW24598   4.629   0.449   4.376 -0.1875 -0.8178  0.2840
 4322SOL    HW124599   4.689   0.375   4.364  1.9272  1.1672 -1.4031
 4322SOL    HW224600   4.643   0.495   4.293  0.1833 -0.8331  0.3388
 4323SOL     OW24601   4.190   3.123  13.564 -0.0848 -0.5533  0.4172
 4323SOL    HW124602   4.242   3.086  13.635  0.7405  3.1387  1.7372
 4323SOL    HW224603   4.182   3.216  13.585 -0.2993 -0.0198 -2.0075
 4324SOL     OW24604   1.880   1.167  13.682  0.1676  0.6010 -0.0839
 4324SOL    HW124605   1.947   1.113  13.722  0.5251  0.6234 -0.6520
 4324SOL    HW224606   1.931   1.241  13.648 -1.9131  1.5300 -1.2357
 4325SOL     OW24607   0.617   0.232   8.494 -0.2544  0.0115  0.2616
 4325SOL    HW124608   0.634   0.325   8.477  1.2708 -0.1687  0.8524
 4325SOL    HW224609   0.527   0.232   8.461 -0.3415 -1.5250  0.5112
 4326SOL     OW24610   1.561   0.065   6.528 -0.1204 -0.1056  0.1875
 4326SOL    HW124611   1.513   0.142   6.497  0.0634 -0.0249  0.0993
 4326SOL    HW224612   1.641   0.110   6.556 -1.0510  0.5664  1.7409
 4327SOL     OW24613   1.267   1.962   4.851 -0.7118 -0.3583  0.2056
 4327SOL    HW124614   1.189   2.000   4.892 -0.1646 -0.8143  1.6555
 4327SOL    HW224615   1.292   1.891   4.910 -1.5533  0.0362  1.0243
 4328SOL     OW24616   0.872   2.417  13.821  0.3193 -0.2218 -0.5807
 4328SOL    HW124617   0.853   2.324  13.833 -1.2617  0.6484  3.4317
 4328SOL    HW224618   0.841   2.450  13.905  1.0135 -0.9682 -0.0321
 4329SOL     OW24619   1.822   2.582   2.111 -0.6955 -0.1204 -0.8347
 4329SOL    HW124620   1.831   2.637   2.189  1.4392 -0.9801 -0.4576
 4329SOL    HW224621   1.822   2.494   2.149 -2.3072 -0.1841 -0.9723
 4330SOL     OW24622   1.433   2.924  17.018 -0.4374 -0.5548 -0.1677
 4330SOL    HW124623   1.410   2.867  17.092 -2.7581 -0.2975 -0.7073
 4330SOL    HW224624   1.526   2.907  17.004 -0.1053  0.4201  0.8008
 4331SOL     OW24625   0.542   2.890   8.671 -0.5923  0.2560 -0.2665
 4331SOL    HW124626   0.485   2.940   8.612 -1.7158 -1.9364 -1.0566
 4331SOL    HW224627   0.490   2.894   8.751  1.0811  1.0140  0.7799
 4332SOL     OW24628   2.939   3.246  14.169  0.5373  0.4976 -0.4428
 4332SOL    HW124629   3.030   3.276  14.176 -0.2591  2.7530  0.5131
 4332SOL    HW224630   2.929   3.177  14.233  0.8853  1.4331  0.6225
 4333SOL     OW24631   1.704   1.484   4.410 -0.9233  0.5080 -0.0739
 4333SOL    HW124632   1.778   1.505   4.467 -0.0140  1.8307 -1.7616
 4333SOL    HW224633   1.667   1.571   4.394 -0.0835  0.8521 -0.0963
 4334SOL     OW24634   0.942   1.159   8.419  0.5419 -0.6142  0.0365
 4334SOL    HW124635   0.987   1.215   8.483 -0.5850 -0.1265  0.3965
 4334SOL    HW224636   1.006   1.090   8.400  1.4444  0.7602 -1.9143
 4335SOL     OW24637   2.245   3.836   6.727  0.3684  0.2532  0.2302
 4335SOL    HW124638   2.331   3.847   6.687  0.5414 -0.6565  0.3520
 4335SOL    HW224639   2.203   3.899   6.669  1.6318  0.0242 -0.9375
 4336SOL     OW24640   0.298   4.463   2.785 -0.6905 -0.0688  0.1661
 4336SOL    HW124641   0.296   4.432   2.694 -1.0265  0.1265  0.1072
 4336SOL    HW224642   0.241   4.540   2.780  1.7163  1.7136 -0.0209
 4337SOL     OW24643   2.356   2.447  14.559 -0.5283  0.2461 -0.5842
 4337SOL    HW124644   2.264   2.471  14.554 -0.3801  1.3998  1.8743
 4337SOL    HW224645   2.360   2.402  14.644 -0.0887  1.6928  0.1786
 4338SOL     OW24646   2.317   2.018   4.302 -0.5713  0.2710 -0.4768
 4338SOL    HW124647   2.314   1.923   4.316  0.5008 -0.0001 -2.0759
 4338SOL    HW224648   2.394   2.040   4.355 -1.9732 -0.8152  1.9833
 4339SOL     OW24649   3.325   3.875   8.872 -0.5870  0.1829  0.1107
 4339SOL    HW124650   3.387   3.902   8.940 -1.5963  2.1255  0.2687
 4339SOL    HW224651   3.251   3.869   8.933  1.2406 -2.2041  2.0762
 4340SOL     OW24652   2.057   3.022   7.266 -0.4007 -0.3409 -0.2508
 4340SOL    HW124653   2.073   2.928   7.255  0.0198 -0.2350 -0.5631
 4340SOL    HW224654   2.059   3.035   7.361  0.6320  1.3126 -0.4899
 4341SOL     OW24655   2.854   0.005   1.261 -0.1812  0.1301  0.4437
 4341SOL    HW124656   2.813   0.089   1.240 -1.0493 -0.4737 -0.3037
 4341SOL    HW224657   2.778   4.697   1.298  1.4908 -2.2883  0.9408
 4342SOL     OW24658   0.005   1.253  17.437  0.4857  0.5492  0.0182
 4342SOL    HW124659   0.011   1.307  17.516  0.9748 -1.5495  1.4359
 4342SOL    HW224660   4.681   1.311  17.393  0.1911  0.6327  0.5297
 4343SOL     OW24661   2.907   1.764  11.428  0.1640  0.1937  0.4621
 4343SOL    HW124662   2.822   1.794  11.462 -0.1557  0.3836 -0.5070
 4343SOL    HW224663   2.964   1.833  11.460 -0.5024  0.5964  0.7857
 4344SOL     OW24664   3.478   0.161  16.103 -0.0211  0.3402 -0.1017
 4344SOL    HW124665   3.495   0.127  16.191 -0.1048 -1.7093 -0.8713
 4344SOL    HW224666   3.417   0.233  16.120  1.4600  1.6213 -0.1807
 4345SOL     OW24667   0.469   1.201   3.444  0.0399 -0.2879 -0.6045
 4345SOL    HW124668   0.479   1.216   3.350 -1.3664 -1.3185 -0.9168
 4345SOL    HW224669   0.552   1.234   3.477  0.8937 -1.4237 -1.6179
 4346SOL     OW24670   3.603   3.330  16.499  0.1889 -0.3985  0.4200
 4346SOL    HW124671   3.685   3.290  16.469 -1.4599 -1.3837 -2.8072
 4346SOL    HW224672   3.572   3.367  16.416  0.0957 -0.0411  0.6151
 4347SOL     OW24673   3.735   3.758   1.969  0.2598 -0.1326 -0.3040
 4347SOL    HW124674   3.766   3.791   2.053 -0.9926 -2.4876  1.0961
 4347SOL    HW224675   3.662   3.814   1.944 -1.6543 -1.7816  1.5956
 4348SOL     OW24676   2.982   0.553   2.893 -0.5031 -0.1006 -0.1349
 4348SOL    HW124677   2.981   0.538   2.798 -0.5660 -1.8654  0.1357
 4348SOL    HW224678   3.068   0.511   2.898 -0.5600 -0.0779  1.0006
 4349SOL     OW24679   1.724   0.229   1.538  0.2684 -0.5672 -0.0029
 4349SOL    HW124680   1.657   0.268   1.481  0.2161 -1.6657 -0.6941
 4349SOL    HW224681   1.787   0.210   1.469 -0.6768  0.2308 -1.0969
 4350SOL     OW24682   3.967   3.133  12.908 -0.2806 -0.4244  0.2154
 4350SOL    HW124683   3.961   3.040  12.932 -2.1258  0.0759  1.6221
 4350SOL    HW224684   3.900   3.155  12.843 -2.6722 -1.7742  2.2276
 4351SOL     OW24685   0.771   0.428  10.751  0.7125  0.0331  0.8866
 4351SOL    HW124686   0.745   0.500  10.693 -1.0238  0.3470  2.0691
 4351SOL    HW224687   0.831   0.379  10.695 -0.1601 -1.6762  1.4828
 4352SOL     OW24688   2.969   3.210  15.580 -0.2611 -0.2141  0.0248
 4352SOL    HW124689   2.897   3.190  15.640 -1.1979  0.5236 -0.8509
 4352SOL    HW224690   2.994   3.298  15.608  0.3316 -0.3867  0.0440
 4353SOL     OW24691   4.330   3.262   1.991 -0.1381  0.2457  0.5544
 4353SOL    HW124692   4.376   3.337   1.954  0.9843 -0.8886 -0.3406
 4353SOL    HW224693   4.267   3.304   2.050  0.7586  0.7941  1.1240
 4354SOL     OW24694   3.832   4.583   2.161 -0.0875 -0.5403  0.0279
 4354SOL    HW124695   3.760   4.521   2.166  0.9242 -1.6989  0.2377
 4354SOL    HW224696   3.787   4.663   2.187  1.1899 -0.0640  0.7702
 4355SOL     OW24697   1.735   0.672   7.101  0.1260 -0.1425  0.3530
 4355SOL    HW124698   1.723   0.762   7.133  0.8736 -0.3578  1.2264
 4355SOL    HW224699   1.649   0.640   7.127  1.0058 -3.6481 -1.1053
 4356SOL     OW24700   1.156   3.773   7.559  0.1142 -0.2066  0.4614
 4356SOL    HW124701   1.097   3.848   7.565  0.2867 -0.1491  1.4102
 4356SOL    HW224702   1.094   3.716   7.514 -0.2476  0.2966  0.3231
 4357SOL     OW24703   0.486   1.620  15.051 -0.2877  0.4077  0.3765
 4357SOL    HW124704   0.528   1.638  15.136  0.3700  1.8149 -0.2327
 4357SOL    HW224705   0.395   1.619  15.080 -0.6429  0.4472 -0.7539
 4358SOL     OW24706   4.721   2.680  12.930  0.3115 -0.2656  0.1084
 4358SOL    HW124707   4.647   2.635  12.969  0.7757  0.5396  1.9203
 4358SOL    HW224708   4.732   2.763  12.976  1.0016 -0.0351 -0.4587
 4359SOL     OW24709   4.523   2.504   2.252  0.4130  0.3160  0.2360
 4359SOL    HW124710   4.541   2.414   2.223 -2.8973  0.0672 -0.9610
 4359SOL    HW224711   4.514   2.496   2.347  5.0435  0.6101  0.7074
 4360SOL     OW24712   4.094   2.116   7.098 -0.0824 -0.1151 -0.2631
 4360SOL    HW124713   4.037   2.192   7.092 -1.9640 -1.4986 -0.0118
 4360SOL    HW224714   4.172   2.140   7.048 -0.2495  2.5925  0.7393
 4361SOL     OW24715   2.851   2.445   7.539 -0.4175  0.0737  0.0271
 4361SOL    HW124716   2.776   2.469   7.593 -1.0027 -0.5302 -0.5119
 4361SOL    HW224717   2.927   2.457   7.596 -0.8212  2.2861  0.0776
 4362SOL     OW24718   2.853   3.400   8.656  0.1651  0.0819  0.2714
 4362SOL    HW124719   2.932   3.404   8.601 -0.5508  2.0890 -0.5812
 4362SOL    HW224720   2.815   3.487   8.649 -1.1785 -0.5929 -0.9582
 4363SOL     OW24721   3.013   4.562   7.457  0.5185 -0.4262 -0.3411
 4363SOL    HW124722   3.011   4.640   7.513  0.9224 -1.4358  1.0787
 4363SOL    HW224723   3.066   4.584   7.380  0.3970  2.9429  0.5272
 4364SOL     OW24724   3.343   1.993  17.375 -0.8639  0.1475 -0.6468
 4364SOL    HW124725   3.342   1.913  17.427 -1.7757  0.7644  0.2839
 4364SOL    HW224726   3.337   1.957  17.286 -1.9686 -0.7352 -0.2137
 4365SOL     OW24727   3.236   3.920   7.523 -0.4630 -0.4078  0.5122
 4365SOL    HW124728   3.287   3.995   7.495  1.0015 -2.1054 -1.3529
 4365SOL    HW224729   3.189   3.953   7.600  0.6991  1.1599  0.5489
 4366SOL     OW24730   1.689   0.951   8.573 -0.2360 -0.0029 -0.6633
 4366SOL    HW124731   1.765   0.906   8.610 -0.4493  0.6088  0.5190
 4366SOL    HW224732   1.723   1.038   8.553  1.1457 -0.3583  0.1370
 4367SOL     OW24733   2.539   4.345  14.487  0.3296  0.1973  0.6403
 4367SOL    HW124734   2.611   4.387  14.440  1.5835 -2.1890  0.4389
 4367SOL    HW224735   2.472   4.413  14.482  1.4442  1.3257  1.2731
 4368SOL     OW24736   4.533   4.065   7.323 -0.3299 -0.0697 -0.1710
 4368SOL    HW124737   4.603   4.000   7.332  0.9013  1.3259  0.1862
 4368SOL    HW224738   4.459   4.009   7.299  0.0237  0.4690 -2.5729
 4369SOL     OW24739   2.565   1.583   6.244 -0.0439  0.3282  0.5223
 4369SOL    HW124740   2.565   1.496   6.285  1.6127 -0.2234 -0.6368
 4369SOL    HW224741   2.629   1.567   6.175  0.1955  0.3957  0.7285
 4370SOL     OW24742   2.184   1.736   3.076 -0.1336 -0.1586 -0.4040
 4370SOL    HW124743   2.225   1.721   3.160 -1.6975 -1.6541  0.1148
 4370SOL    HW224744   2.200   1.656   3.025  2.4181  0.5885 -0.7610
 4371SOL     OW24745   2.574   3.293   0.884  0.4383 -0.1892 -0.6973
 4371SOL    HW124746   2.553   3.356   0.816 -2.5711 -2.2187 -1.6749
 4371SOL    HW224747   2.528   3.213   0.858 -0.9711  0.2990  0.2889
 4372SOL     OW24748   3.348   3.466   4.673 -0.0558 -0.0431  0.0856
 4372SOL    HW124749   3.396   3.549   4.681 -2.1010  1.2383 -0.9411
 4372SOL    HW224750   3.419   3.411   4.640  0.2320 -0.1871  0.9457
 4373SOL     OW24751   4.595   4.207   6.223 -0.6761  0.1897  0.0032
 4373SOL    HW124752   4.581   4.142   6.155 -2.4861 -0.8611  1.3665
 4373SOL    HW224753   4.687   4.194   6.243 -0.2657  2.2136 -0.5480
 4374SOL     OW24754   2.824   4.567   8.871 -0.5613  0.3268 -0.2644
 4374SOL    HW124755   2.791   4.655   8.855 -0.5088  0.0055 -2.1389
 4374SOL    HW224756   2.783   4.547   8.956  0.4411  2.1428  0.6507
 4375SOL     OW24757   2.569   3.657   7.849 -0.0852  0.2190 -0.0303
 4375SOL    HW124758   2.574   3.641   7.943 -0.3565  0.3925  0.0134
 4375SOL    HW224759   2.493   3.713   7.836 -0.2344 -0.0136 -0.1482
 4376SOL     OW24760   0.673   1.263  16.056 -0.2340  0.1447  0.0790
 4376SOL    HW124761   0.734   1.236  15.987 -1.2237 -2.3403  0.1724
 4376SOL    HW224762   0.627   1.181  16.076 -1.7695  0.8238 -0.6451
 4377SOL     OW24763   1.939   3.624   7.070  0.1294 -0.1403  0.4352
 4377SOL    HW124764   1.915   3.714   7.088  1.0786  0.1613  0.1937
 4377SOL    HW224765   2.032   3.631   7.046 -0.0683  0.7492 -0.0461
 4378SOL     OW24766   1.559   0.462   8.769  0.4305 -0.4256 -0.1187
 4378SOL    HW124767   1.609   0.385   8.797  1.3574  0.1990 -0.0289
 4378SOL    HW224768   1.588   0.536   8.823  1.0612  0.0007 -1.0320
 4379SOL     OW24769   1.186   0.255   5.591  0.3361 -0.1013 -0.0069
 4379SOL    HW124770   1.275   0.285   5.609  1.3286 -2.2961 -1.2433
 4379SOL    HW224771   1.212   0.174   5.547 -1.0024  0.4763 -1.8713
 4380SOL     OW24772   2.692   0.706   6.292  0.3335 -0.1721 -0.3961
 4380SOL    HW124773   2.685   0.787   6.241  0.4938  0.1150  0.0379
 4380SOL    HW224774   2.725   0.731   6.378 -1.1689  1.8627 -0.3953
 4381SOL     OW24775   2.901   4.024   7.410  1.0294 -0.5318 -0.2803
 4381SOL    HW124776   2.930   3.998   7.498 -1.0769 -2.4355 -0.1094
 4381SOL    HW224777   2.906   4.119   7.410  0.5479 -0.5010  2.2663
 4382SOL     OW24778   0.651   1.268   7.915  0.0889  0.0993 -0.6582
 4382SOL    HW124779   0.675   1.207   7.845  1.4190 -0.6013  0.4001
 4382SOL    HW224780   0.711   1.342   7.905 -0.7094  0.8020 -0.1711
 4383SOL     OW24781   2.827   1.696   5.548 -0.0536 -0.0348 -0.6471
 4383SOL    HW124782   2.859   1.673   5.461  1.1371  0.1795 -0.2719
 4383SOL    HW224783   2.876   1.774   5.573 -0.4528 -0.4519  1.5018
 4384SOL     OW24784   0.813   3.161   6.822  0.5341 -0.1524 -0.1802
 4384SOL    HW124785   0.852   3.096   6.881 -0.5290 -1.0744 -0.4737
 4384SOL    HW224786   0.766   3.110   6.756  0.4160  0.1683 -0.3404
 4385SOL     OW24787   4.055   3.644   1.961 -0.4192  0.1515  0.1143
 4385SOL    HW124788   3.970   3.666   1.997 -1.8328  0.0547 -3.1227
 4385SOL    HW224789   4.087   3.713   1.902 -4.0520  0.9276 -0.9203
 4386SOL     OW24790   1.613   0.442   3.807  0.0693  0.3733  0.3075
 4386SOL    HW124791   1.659   0.450   3.890 -0.5557 -5.0485  1.1960
 4386SOL    HW224792   1.572   0.528   3.800 -3.6051 -1.3605  0.6207
 4387SOL     OW24793   1.817   3.314   6.256  0.2240  0.4160 -0.0665
 4387SOL    HW124794   1.783   3.276   6.175 -0.8058 -1.1823  1.1237
 4387SOL    HW224795   1.754   3.384   6.272  0.2351  0.4215 -0.0469
 4388SOL     OW24796   0.417   1.651   3.464  0.5837 -0.1195  0.4067
 4388SOL    HW124797   0.388   1.611   3.546 -0.4005  0.3063  0.2677
 4388SOL    HW224798   0.336   1.668   3.415  0.2437  1.5637  1.5663
 4389SOL     OW24799   4.190   3.184   0.245 -0.0833 -0.6464 -0.4400
 4389SOL    HW124800   4.137   3.240   0.301  0.8290  0.1699 -0.4125
 4389SOL    HW224801   4.272   3.233   0.241 -0.3844  0.0122  1.7226
 4390SOL     OW24802   0.581   3.570   5.319  0.2721 -0.1997 -0.1453
 4390SOL    HW124803   0.555   3.478   5.317  2.2619 -0.7583 -1.4677
 4390SOL    HW224804   0.504   3.626   5.313 -0.7681 -1.8801 -2.3318
 4391SOL     OW24805   4.713   1.236   0.332 -0.3602 -0.4566  0.0907
 4391SOL    HW124806   4.685   1.167   0.272  0.3703 -1.6360  1.1036
 4391SOL    HW224807   0.008   1.307   0.277  2.9606 -1.9656  0.0789
 4392SOL     OW24808   4.421   4.012   2.894  0.5626 -0.6730  0.5410
 4392SOL    HW124809   4.443   4.015   2.801  1.2594  1.0640  0.7484
 4392SOL    HW224810   4.415   3.917   2.901  0.2100 -0.5679  1.6261
 4393SOL     OW24811   4.260   4.200   8.338 -0.0424 -0.5216  0.1740
 4393SOL    HW124812   4.265   4.270   8.403 -2.5687  2.4398 -2.7895
 4393SOL    HW224813   4.166   4.191   8.354  0.0917 -2.2476 -0.0184
 4394SOL     OW24814   2.263   1.568   3.913  0.2756 -0.1302 -0.3342
 4394SOL    HW124815   2.335   1.566   3.850  0.4953  3.3088 -0.1568
 4394SOL    HW224816   2.248   1.661   3.896  0.8960 -0.1053 -0.7516
 4395SOL     OW24817   3.349   2.256  15.207 -0.3213 -0.0295 -0.0107
 4395SOL    HW124818   3.362   2.293  15.120 -1.4357  0.0645 -0.1411
 4395SOL    HW224819   3.355   2.162  15.191 -0.0233 -0.1601  0.8179
 4396SOL     OW24820   2.800   1.433   6.925  0.1175 -0.6598  0.0637
 4396SOL    HW124821   2.808   1.527   6.908  0.2351 -0.6509  0.1662
 4396SOL    HW224822   2.806   1.388   6.841 -0.7020 -1.1025  0.2511
 4397SOL     OW24823   4.227   2.409   6.997 -0.9069 -0.1707 -0.3537
 4397SOL    HW124824   4.296   2.396   7.062 -0.7587 -2.4761 -0.9716
 4397SOL    HW224825   4.235   2.325   6.952  1.5581  1.7581 -3.4994
 4398SOL     OW24826   3.279   0.938   7.352 -0.0116  0.3703 -0.6608
 4398SOL    HW124827   3.315   0.893   7.275 -1.5818  0.7042 -1.5992
 4398SOL    HW224828   3.333   0.903   7.422  0.1166  0.7759 -0.5550
 4399SOL     OW24829   0.219   2.499   2.182  0.4730 -0.6250 -0.0513
 4399SOL    HW124830   0.175   2.416   2.167  0.0390 -0.2230 -1.0669
 4399SOL    HW224831   0.267   2.513   2.100  1.0789 -1.6348  0.1356
 4400SOL     OW24832   2.415   1.968  17.310  0.0187 -0.0923  0.0283
 4400SOL    HW124833   2.322   1.972  17.333  0.5360  1.6846  1.7852
 4400SOL    HW224834   2.414   1.995  17.218  1.3392 -0.2128 -0.0164
 4401SOL     OW24835   4.023   3.878   9.499 -0.0271  0.3913 -0.6255
 4401SOL    HW124836   4.019   3.832   9.582  0.8340  0.1288 -0.7297
 4401SOL    HW224837   3.932   3.909   9.496 -0.3344 -0.4470  0.3954
 4402SOL     OW24838   1.840   2.952  10.018 -0.1208  0.3174 -0.1152
 4402SOL    HW124839   1.935   2.942  10.013 -0.3697 -1.5093 -1.3625
 4402SOL    HW224840   1.826   2.930  10.110 -0.1912 -0.8725 -0.4171
 4403SOL     OW24841   2.089   1.380   5.726  0.0399  0.2186  0.3481
 4403SOL    HW124842   2.033   1.400   5.802 -0.8386 -0.6370 -0.0669
 4403SOL    HW224843   2.164   1.437   5.739  2.6236 -2.7498 -1.6538
 4404SOL     OW24844   4.440   4.228   6.885  0.4318 -0.3888 -0.3154
 4404SOL    HW124845   4.488   4.158   6.839 -0.0068  0.1434 -1.5712
 4404SOL    HW224846   4.431   4.185   6.970 -0.8784 -0.6029 -0.5660
 4405SOL     OW24847   1.836   4.262   1.867  0.3295 -0.1088 -0.1393
 4405SOL    HW124848   1.816   4.346   1.826  1.5653 -0.8330 -2.2135
 4405SOL    HW224849   1.844   4.297   1.956 -0.7396 -1.4049  0.4745
 4406SOL     OW24850   4.565   3.495   4.586  0.3175 -0.2401  0.7825
 4406SOL    HW124851   4.635   3.559   4.573 -0.9668  0.7718 -1.0811
 4406SOL    HW224852   4.603   3.410   4.565  2.3458  0.6300  0.8498
 4407SOL     OW24853   3.310   2.252   9.102 -0.1271 -0.7497  0.1270
 4407SOL    HW124854   3.280   2.331   9.057 -2.1426 -2.2103 -1.1022
 4407SOL    HW224855   3.268   2.193   9.040 -0.9497 -0.8131  0.7552
 4408SOL     OW24856   0.469   4.086   4.951 -0.2483 -0.2071 -0.1443
 4408SOL    HW124857   0.489   4.103   5.043 -1.2573  0.9481 -0.1419
 4408SOL    HW224858   0.391   4.141   4.945  0.0152  0.0990 -0.7750
 4409SOL     OW24859   0.388   4.067   0.881  0.3320  0.4940 -0.5706
 4409SOL    HW124860   0.441   4.026   0.812 -0.7254  1.8723 -2.2223
 4409SOL    HW224861   0.403   4.159   0.860  1.0923 -0.0298 -2.3318
 4410SOL     OW24862   2.353   0.295   1.996  0.1316  0.2821  0.0475
 4410SOL    HW124863   2.336   0.207   2.028 -0.4502 -0.5068 -2.4245
 4410SOL    HW224864   2.267   0.333   1.978 -0.2254 -1.4062 -1.7793
 4411SOL     OW24865   0.376   3.794   9.934  0.0677  0.1159  0.1629
 4411SOL    HW124866   0.465   3.797   9.898  0.7972 -1.9531  1.7229
 4411SOL    HW224867   0.386   3.755  10.021  1.2766  3.2000  1.4193
 4412SOL     OW24868   3.420   2.807   4.977 -0.2465 -0.4910  0.7434
 4412SOL    HW124869   3.438   2.844   5.063 -2.1988 -1.6793  1.6698
 4412SOL    HW224870   3.395   2.716   4.996 -0.4045 -0.6648 -0.2891
 4413SOL     OW24871   0.207   0.745   4.106  0.2373  0.6872  0.1577
 4413SOL    HW124872   0.277   0.682   4.124  0.1558  0.4287 -0.4558
 4413SOL    HW224873   0.186   0.776   4.194  0.0959 -0.4144  0.5103
 4414SOL     OW24874   2.098   4.327   7.500  0.0165 -0.6500  0.5980
 4414SOL    HW124875   2.118   4.337   7.593  0.1022  0.0367  0.5089
 4414SOL    HW224876   2.029   4.261   7.506 -1.7450  1.1138 -0.2701
 4415SOL     OW24877   4.165   4.064   8.922  0.1873  0.3064 -0.1717
 4415SOL    HW124878   4.154   4.089   8.831 -1.9592  1.4065  0.3912
 4415SOL    HW224879   4.243   4.009   8.917  0.5307  0.7332  0.3998
 4416SOL     OW24880   2.323   4.733  16.429  0.2264  0.1066 -0.0959
 4416SOL    HW124881   2.383   0.070  16.429  0.2734  0.0614  2.2016
 4416SOL    HW224882   2.243   0.048  16.428  1.0879  1.4433  0.3054
 4417SOL     OW24883   2.696   3.932  17.124 -0.1190  0.4813 -0.4239
 4417SOL    HW124884   2.742   3.907  17.044 -2.0410 -0.5745 -1.1983
 4417SOL    HW224885   2.759   3.995  17.158 -1.5343  1.5557  0.2152
 4418SOL     OW24886   1.946   0.935   9.790  0.3451 -0.2058 -0.0446
 4418SOL    HW124887   2.016   0.982   9.836  0.9361 -0.1996 -0.9567
 4418SOL    HW224888   1.920   0.995   9.720 -1.6883 -0.8307  0.1891
 4419SOL     OW24889   4.646   4.483   0.214  0.3136  0.2560 -0.2830
 4419SOL    HW124890   4.674   4.560   0.164 -0.3319  0.9382  0.4229
 4419SOL    HW224891   4.558   4.465   0.181 -0.5114  1.3820  1.3391
 4420SOL     OW24892   4.711   0.110   5.884  0.1401  0.3258  0.2393
 4420SOL    HW124893   0.057   0.154   5.902  0.6521 -1.1100  1.3347
 4420SOL    HW224894   4.650   0.169   5.928 -0.9353 -0.7527  0.2026
 4421SOL     OW24895   0.034   1.295   2.443  0.0639  0.2380  0.2468
 4421SOL    HW124896   4.700   1.285   2.506  0.6849  1.3284  1.1354
 4421SOL    HW224897   0.012   1.217   2.392  1.6727  0.7689 -1.2402
 4422SOL     OW24898   1.744   2.826   7.229  0.4937 -0.3281  0.6164
 4422SOL    HW124899   1.671   2.770   7.257  1.6435 -2.2681 -0.2400
 4422SOL    HW224900   1.808   2.823   7.300 -1.1554  2.1189  2.1953
 4423SOL     OW24901   3.943   1.816   3.601  0.2972 -0.2911  0.0214
 4423SOL    HW124902   3.863   1.867   3.602 -0.3239 -1.1507 -4.6092
 4423SOL    HW224903   3.998   1.892   3.620  0.9402 -0.7490  0.0044
 4424SOL     OW24904   3.854   0.462   8.582  0.2768 -0.0909  0.3623
 4424SOL    HW124905   3.810   0.380   8.560  1.4861 -1.1461  1.9897
 4424SOL    HW224906   3.814   0.481   8.667 -1.4260  0.6016 -0.5816
 4425SOL     OW24907   0.591   4.538   4.129  0.4868 -0.9897 -0.1898
 4425SOL    HW124908   0.607   4.528   4.035 -0.6909 -0.5604 -0.4314
 4425SOL    HW224909   0.658   4.604   4.148  0.0291 -0.4820 -0.3523
 4426SOL     OW24910   3.264   1.561   3.431  0.0217 -0.0061  0.3612
 4426SOL    HW124911   3.204   1.592   3.364 -0.2010 -0.4287  0.3651
 4426SOL    HW224912   3.296   1.478   3.395 -1.3930 -1.0470  1.5266
 4427SOL     OW24913   1.584   4.623   4.424  0.4131 -1.0526 -0.1872
 4427SOL    HW124914   1.674   4.646   4.402 -0.1595  0.0328 -1.4255
 4427SOL    HW224915   1.598   4.534   4.456 -0.3016 -0.8912  0.5741
 4428SOL     OW24916   2.740   1.515   4.787 -0.4857  0.1573  0.4933
 4428SOL    HW124917   2.790   1.563   4.853 -1.1423  1.3870  0.0965
 4428SOL    HW224918   2.756   1.426   4.819  0.3067  0.5107  1.0617
 4429SOL     OW24919   1.667   0.147   1.051  0.1392 -0.2432  0.1581
 4429SOL    HW124920   1.686   0.189   1.134  0.4808  0.7719 -0.4353
 4429SOL    HW224921   1.572   0.134   1.057  0.2746 -0.7371  1.1803
 4430SOL     OW24922   1.124   0.824  10.478 -0.0267 -0.0128  0.5056
 4430SOL    HW124923   1.190   0.854  10.541  1.3376  2.8019 -2.2739
 4430SOL    HW224924   1.051   0.881  10.505  1.5613  1.5598  1.4735
 4431SOL     OW24925   3.276   3.315  14.972  0.0560 -0.3194  0.1670
 4431SOL    HW124926   3.282   3.385  15.037 -2.1564  0.5232 -0.5301
 4431SOL    HW224927   3.188   3.284  14.996  0.1287 -1.4113 -0.9768
 4432SOL     OW24928   4.109   0.568   8.135  0.1048  0.1188 -0.2770
 4432SOL    HW124929   4.068   0.654   8.140 -1.6660 -0.6760 -1.2520
 4432SOL    HW224930   4.127   0.552   8.227  0.1605  0.3712 -0.2427
 4433SOL     OW24931   0.007   0.093   4.208 -0.4526  0.3083  0.1270
 4433SOL    HW124932   0.018   0.162   4.143 -1.2496 -0.0726 -0.4279
 4433SOL    HW224933   0.096   0.073   4.238 -0.0274  0.9086 -0.7497
 4434SOL     OW24934   1.143   3.730  16.692 -0.0881 -0.2498 -0.0731
 4434SOL    HW124935   1.172   3.710  16.780  0.3930 -2.7458 -0.8007
 4434SOL    HW224936   1.048   3.734  16.705  0.0058 -0.1919  0.5789
 4435SOL     OW24937   2.438   4.485   8.638 -0.3834 -0.3448  0.3308
 4435SOL    HW124938   2.390   4.532   8.571  1.3047  3.7219  1.9703
 4435SOL    HW224939   2.485   4.554   8.685 -0.2224  1.1894 -2.1100
 4436SOL     OW24940   1.814   1.929  10.386  0.6705 -0.0024 -0.6818
 4436SOL    HW124941   1.775   2.017  10.385 -0.1431 -0.3718 -1.1575
 4436SOL    HW224942   1.862   1.930  10.469 -0.4017  0.9180 -0.0643
 4437SOL     OW24943   0.121   0.517   3.921  0.0462  0.3487  0.5698
 4437SOL    HW124944   0.200   0.515   3.975  0.3772  0.9872  0.1030
 4437SOL    HW224945   0.128   0.608   3.893  0.9132  0.6672  1.8271
 4438SOL     OW24946   1.153   0.341   8.872  0.1124  0.4365 -0.0028
 4438SOL    HW124947   1.143   0.255   8.832 -2.3725  0.0434  1.4164
 4438SOL    HW224948   1.134   0.317   8.962 -2.1872 -0.6467 -0.7665
 4439SOL     OW24949   0.553   2.186   0.511 -0.2506  0.2964  0.4705
 4439SOL    HW124950   0.468   2.229   0.505 -0.6969 -0.8168 -0.9747
 4439SOL    HW224951   0.591   2.229   0.435  0.0066 -1.5099 -0.4085
 4440SOL     OW24952   2.141   1.613   6.715  0.3866 -0.0518  0.2367
 4440SOL    HW124953   2.094   1.569   6.787  1.0703 -0.3473  0.5031
 4440SOL    HW224954   2.165   1.538   6.660  0.0280 -0.1499  0.2153
 4441SOL     OW24955   4.193   2.798   3.392 -0.2703  0.1665 -0.3020
 4441SOL    HW124956   4.118   2.743   3.415 -1.1989  3.0390  3.5838
 4441SOL    HW224957   4.163   2.822   3.304 -0.5777 -1.0583 -0.5307
 4442SOL     OW24958   2.599   3.691   5.804 -0.9929 -0.1272  0.4471
 4442SOL    HW124959   2.550   3.612   5.829  1.4126 -2.5304 -2.4317
 4442SOL    HW224960   2.538   3.727   5.741 -0.8474 -0.0775  0.3346
 4443SOL     OW24961   0.339   0.303   7.887 -0.3737 -0.6904  0.7070
 4443SOL    HW124962   0.407   0.296   7.819  1.6617  1.5544  2.4766
 4443SOL    HW224963   0.386   0.348   7.958  0.0334 -0.9171  0.5811
 4444SOL     OW24964   2.476   1.374   8.491  0.0910 -0.2684  0.2186
 4444SOL    HW124965   2.416   1.367   8.565 -3.0810  0.9941 -2.2352
 4444SOL    HW224966   2.540   1.313   8.527  1.5576  1.3634  0.3827
 4445SOL     OW24967   0.441   0.214   5.613  0.7954  0.0877  0.4047
 4445SOL    HW124968   0.384   0.139   5.631  1.8284 -0.3971  1.6822
 4445SOL    HW224969   0.415   0.273   5.685 -0.5202 -2.6162  2.1291
 4446SOL     OW24970   2.361   0.349   3.622  0.0742  0.0792  0.1646
 4446SOL    HW124971   2.418   0.296   3.567 -0.5405 -0.7619  0.3328
 4446SOL    HW224972   2.425   0.405   3.666  0.6773 -1.7568  1.6279
 4447SOL     OW24973   0.906   2.207   5.965 -0.2922 -0.2243 -0.1299
 4447SOL    HW124974   0.821   2.214   6.008  0.4536  2.7311  0.8657
 4447SOL    HW224975   0.967   2.220   6.038  0.2196  1.4742 -0.8385
 4448SOL     OW24976   3.997   2.419   8.929  0.6218  0.5697 -0.7252
 4448SOL    HW124977   4.013   2.513   8.916  1.0894  0.5362 -0.4211
 4448SOL    HW224978   4.077   2.381   8.893  0.5321  1.2106 -1.6075
 4449SOL     OW24979   1.167   2.677   4.650  0.9754 -0.4338  0.3533
 4449SOL    HW124980   1.130   2.763   4.630  1.1181 -0.2998  0.6585
 4449SOL    HW224981   1.254   2.716   4.650 -0.2126  2.2088 -0.8250
 4450SOL     OW24982   0.171   0.723   4.960 -0.3493 -0.0707  0.1927
 4450SOL    HW124983   0.206   0.697   4.875  1.2969  0.9876  0.5298
 4450SOL    HW224984   0.192   0.817   4.963  0.6780 -0.2662 -0.8851
 4451SOL     OW24985   0.667   0.417   4.120  0.3615 -0.4369  0.0467
 4451SOL    HW124986   0.611   0.410   4.197 -1.8029 -1.7959 -1.6620
 4451SOL    HW224987   0.719   0.498   4.129  0.6253 -0.4179 -1.7450
 4452SOL     OW24988   2.029   2.567  10.282 -0.1293  0.2570  0.7312
 4452SOL    HW124989   2.030   2.472  10.269 -0.7591  0.0535  2.1547
 4452SOL    HW224990   1.936   2.590  10.295 -0.1091  0.6200  0.2430
 4453SOL     OW24991   2.468   4.235  16.306  0.5025  0.0079  0.6046
 4453SOL    HW124992   2.492   4.150  16.268  0.1488  0.1863 -0.0221
 4453SOL    HW224993   2.424   4.205  16.386  1.5691  1.2569  1.6457
 4454SOL     OW24994   4.340   3.046  12.876  0.4025 -0.2183 -0.2946
 4454SOL    HW124995   4.308   3.105  12.945  0.9137  2.3108 -2.2125
 4454SOL    HW224996   4.292   2.965  12.895  0.5072  0.1125  1.4056
 4455SOL     OW24997   0.050   2.072   8.699  0.1035  0.1464 -0.3708
 4455SOL    HW124998   0.001   2.094   8.779 -0.0540 -0.6112 -0.2588
 4455SOL    HW224999   0.058   2.159   8.661  0.8369  0.1577 -0.1877
 4456SOL     OW25000   0.667   3.038   1.522 -0.3919  0.1529 -0.4584
 4456SOL    HW125001   0.700   3.067   1.607  0.7346  2.0844 -1.5579
 4456SOL    HW225002   0.658   2.943   1.533  2.3818 -0.2204 -1.3095
 4457SOL     OW25003   0.175   0.116   8.523  0.7121  0.2479 -0.8529
 4457SOL    HW125004   0.230   0.193   8.508 -0.5221  1.7185  2.1161
 4457SOL    HW225005   0.241   0.064   8.568  1.6875  1.6558 -0.6436
 4458SOL     OW25006   1.268   4.360   4.714  0.1280  1.0076  0.0681
 4458SOL    HW125007   1.303   4.420   4.647  0.3377  1.6485  0.7515
 4458SOL    HW225008   1.190   4.403   4.747 -1.2153 -1.4457  0.0673
 4459SOL     OW25009   3.290   4.499   3.483  0.1615 -0.7016 -0.3271
 4459SOL    HW125010   3.312   4.430   3.545  1.4690  1.0467  1.1465
 4459SOL    HW225011   3.373   4.519   3.439 -1.1440  1.3138 -1.9075
 4460SOL     OW25012   3.251   1.867  13.412 -0.5570  0.5706  0.1437
 4460SOL    HW125013   3.203   1.945  13.384 -0.4141  1.0748  1.2964
 4460SOL    HW225014   3.318   1.861  13.344  0.4480 -2.5558  1.3805
 4461SOL     OW25015   0.634   1.681  15.285  0.0739 -0.1766  0.0971
 4461SOL    HW125016   0.643   1.775  15.305  1.2066 -1.0901  3.8788
 4461SOL    HW225017   0.601   1.649  15.369 -0.7408  0.0462 -0.1437
 4462SOL     OW25018   1.651   0.785   6.817  0.4603  0.2118  0.3422
 4462SOL    HW125019   1.593   0.730   6.869  1.3525  0.1794  1.2835
 4462SOL    HW225020   1.721   0.721   6.805  2.4077  2.2132  1.0673
 4463SOL     OW25021   2.622   1.242   4.308  0.8403  0.4017  0.0564
 4463SOL    HW125022   2.643   1.282   4.224 -0.9064 -0.2988 -0.7038
 4463SOL    HW225023   2.655   1.153   4.298  2.0878  1.0732 -1.7717
 4464SOL     OW25024   1.629   0.299   4.917  0.9103 -0.4776  0.4748
 4464SOL    HW125025   1.682   0.375   4.893  0.4136  0.5610  2.7144
 4464SOL    HW225026   1.556   0.340   4.964 -0.3785 -0.5415 -1.4309
 4465SOL     OW25027   3.913   1.203   9.912 -0.5736  0.1968 -0.1667
 4465SOL    HW125028   3.909   1.143   9.986 -0.4979  0.9409  0.4305
 4465SOL    HW225029   3.875   1.148   9.843  1.5582 -0.0453 -1.1583
 4466SOL     OW25030   3.239   1.851   3.171  0.0721 -0.3562 -0.5889
 4466SOL    HW125031   3.267   1.889   3.255 -2.4618  1.8115 -0.7175
 4466SOL    HW225032   3.144   1.854   3.178  0.1910  0.4264  0.6569
 4467SOL     OW25033   0.391   1.852  16.162 -0.0803  0.4800 -0.3067
 4467SOL    HW125034   0.457   1.862  16.231 -1.6170  0.1511  1.2212
 4467SOL    HW225035   0.314   1.833  16.215 -0.7092  0.1120 -1.3652
 4468SOL     OW25036   0.736   2.617   8.130  0.0205  0.0231  0.2688
 4468SOL    HW125037   0.823   2.619   8.171  1.1982  0.0604 -2.2083
 4468SOL    HW225038   0.682   2.598   8.206 -0.1877 -0.6288 -0.0409
 4469SOL     OW25039   2.207   2.233  17.105  0.2636  0.1735  0.0541
 4469SOL    HW125040   2.287   2.267  17.146 -0.3160  0.5328  0.8969
 4469SOL    HW225041   2.144   2.287  17.153  0.1415  0.6090 -0.5969
 4470SOL     OW25042   3.586   4.545   3.105  0.3887 -0.3801 -0.1204
 4470SOL    HW125043   3.610   4.606   3.036 -2.3387  0.4462 -0.3476
 4470SOL    HW225044   3.562   4.464   3.060 -1.3021  0.5514 -0.9063
 4471SOL     OW25045   4.576   2.481   4.901  0.3675  0.2304 -0.3785
 4471SOL    HW125046   4.549   2.477   4.809 -0.6369  0.9991 -0.1190
 4471SOL    HW225047   4.591   2.391   4.930 -0.1606 -0.3154 -1.7960
 4472SOL     OW25048   1.442   4.209   9.846  0.0537  0.2568  0.9792
 4472SOL    HW125049   1.502   4.182   9.776 -1.8372 -0.5321 -0.3632
 4472SOL    HW225050   1.403   4.284   9.802  1.9269  0.0299 -1.1086
 4473SOL     OW25051   3.572   1.006  15.442 -0.4575  0.1617 -0.2376
 4473SOL    HW125052   3.572   1.070  15.370 -0.2754 -0.0561 -0.4314
 4473SOL    HW225053   3.504   0.945  15.412 -1.4950  1.9662 -1.5724
 4474SOL     OW25054   0.494   0.687  13.574  0.0064 -0.0459 -0.2496
 4474SOL    HW125055   0.576   0.726  13.606  0.3348 -0.8777 -0.0694
 4474SOL    HW225056   0.483   0.608  13.627 -0.3347 -0.8598 -1.5308
 4475SOL     OW25057   1.100   2.985   0.675 -0.2539  0.1232  0.4406
 4475SOL    HW125058   1.045   2.952   0.747  0.3491 -1.8448  0.0221
 4475SOL    HW225059   1.106   2.900   0.630 -2.3561  1.0512 -1.5606
 4476SOL     OW25060   2.625   3.041   5.741  0.5131  0.0106 -0.0914
 4476SOL    HW125061   2.585   2.961   5.709  0.4343 -0.1956  0.5161
 4476SOL    HW225062   2.663   3.082   5.663 -0.0109 -0.2312 -0.4721
 4477SOL     OW25063   1.881   1.747   9.550 -0.3515 -0.3281 -0.3613
 4477SOL    HW125064   1.896   1.823   9.606  3.4645 -1.5717  0.3219
 4477SOL    HW225065   1.933   1.693   9.609 -0.1338  1.3958  1.0161
 4478SOL     OW25066   0.608   3.184   0.080  0.3122 -0.0639 -0.2912
 4478SOL    HW125067   0.609   3.279   0.072 -0.5071 -0.1844 -1.9638
 4478SOL    HW225068   0.700   3.160   0.074  0.4489  0.7370 -1.2407
 4479SOL     OW25069   0.018   2.373   0.593  0.6451 -0.0957  0.0775
 4479SOL    HW125070   4.704   2.363   0.674 -0.0244 -1.6109 -0.5348
 4479SOL    HW225071   0.098   2.422   0.614  0.1596  1.6054 -2.0914
 4480SOL     OW25072   1.454   0.527  15.251  0.2182 -0.0740 -0.1868
 4480SOL    HW125073   1.474   0.546  15.159  2.1110  4.2728  1.1226
 4480SOL    HW225074   1.473   0.433  15.249  1.7261  0.2356 -0.4447
 4481SOL     OW25075   0.389   4.690   8.649  0.1260 -0.3164 -0.2280
 4481SOL    HW125076   0.317   4.628   8.636 -0.9145  0.8405  0.0153
 4481SOL    HW225077   0.457   4.659   8.588  1.9144  2.3560  0.3848
 4482SOL     OW25078   2.917   1.798   3.551 -0.2761  0.4035  0.5177
 4482SOL    HW125079   2.916   1.760   3.463  1.6337 -0.0283  0.6885
 4482SOL    HW225080   3.000   1.766   3.584 -0.6789 -2.4807 -1.3017
 4483SOL     OW25081   2.544   1.370   6.571 -0.5534 -0.0175  0.0103
 4483SOL    HW125082   2.635   1.358   6.599 -0.0880  0.1245 -1.4535
 4483SOL    HW225083   2.502   1.321   6.642 -1.9177  1.6891  0.3989
 4484SOL     OW25084   0.255   1.058   6.489 -0.2597 -0.2368 -0.3894
 4484SOL    HW125085   0.245   1.114   6.413 -0.9358 -0.7186 -0.6561
 4484SOL    HW225086   0.286   0.978   6.445 -1.1291  0.5418 -2.3914
 4485SOL     OW25087   2.978   2.734  10.651  0.7624 -0.0568  0.4021
 4485SOL    HW125088   2.887   2.704  10.644  0.9465 -0.0663 -2.0510
 4485SOL    HW225089   2.975   2.828  10.671  2.3194  0.1381 -0.2943
 4486SOL     OW25090   3.504   3.298   7.247 -0.3295 -0.3882  0.3097
 4486SOL    HW125091   3.423   3.257   7.218 -2.1130  2.4454  1.2406
 4486SOL    HW225092   3.504   3.247   7.328 -1.1332  1.7386  1.6493
 4487SOL     OW25093   2.750   2.193   1.548  0.3991 -0.1233  0.4648
 4487SOL    HW125094   2.829   2.179   1.601  2.0874  0.4428 -1.9379
 4487SOL    HW225095   2.699   2.222   1.624  1.4735  0.6911  0.8611
 4488SOL     OW25096   3.655   0.132   3.001  0.4925  0.2000 -0.4280
 4488SOL    HW125097   3.562   0.114   2.992  0.4281  0.9821 -1.2481
 4488SOL    HW225098   3.660   0.192   2.928 -1.3030  0.5064 -0.3014
 4489SOL     OW25099   0.317   2.966   6.954 -0.1813 -0.2451 -0.1592
 4489SOL    HW125100   0.276   2.966   7.040 -1.8691  0.2672 -0.9614
 4489SOL    HW225101   0.394   3.015   6.981 -1.1223  0.8255  0.5994
 4490SOL     OW25102   4.285   1.331   7.020 -0.0874 -0.0863  0.2525
 4490SOL    HW125103   4.265   1.281   7.099 -1.3958 -0.2271 -0.1669
 4490SOL    HW225104   4.248   1.413   7.054 -0.6904 -0.2968  0.0957
 4491SOL     OW25105   2.950   1.669   8.876 -0.0539  0.4678  0.3596
 4491SOL    HW125106   3.037   1.669   8.915 -0.1677  0.5989  0.6078
 4491SOL    HW225107   2.900   1.626   8.945 -0.0676  0.1744  0.1712
 4492SOL     OW25108   1.841   3.484   9.938  0.0969  0.3127 -0.5335
 4492SOL    HW125109   1.899   3.554   9.907 -0.9693  2.3564  2.0996
 4492SOL    HW225110   1.859   3.489  10.032  1.0414 -0.0214 -0.6941
 4493SOL     OW25111   0.604   3.247   9.596  0.6009  0.6648  0.4620
 4493SOL    HW125112   0.655   3.217   9.671  0.4215  0.8640  0.6671
 4493SOL    HW225113   0.521   3.202   9.615  0.4719  0.0947 -1.5210
 4494SOL     OW25114   1.114   2.803   4.091 -0.5099  0.0874  0.5331
 4494SOL    HW125115   1.040   2.746   4.070  1.1278 -0.0625 -4.8999
 4494SOL    HW225116   1.163   2.754   4.157 -0.2931  1.1022  1.1201
 4495SOL     OW25117   2.223   0.713   7.712 -0.2311 -0.0366 -0.0582
 4495SOL    HW125118   2.301   0.768   7.722  0.3366 -0.9420  0.5343
 4495SOL    HW225119   2.170   0.758   7.778 -0.2862 -0.7373  0.3801
 4496SOL     OW25120   1.920   1.111   5.837 -0.2080  0.1755  0.0163
 4496SOL    HW125121   1.847   1.145   5.785 -0.3571 -2.6851 -1.6375
 4496SOL    HW225122   1.937   1.189   5.890 -2.4765  0.2619  0.5997
 4497SOL     OW25123   3.933   1.457   7.363  0.4733  0.2724  0.2508
 4497SOL    HW125124   3.838   1.466   7.359  0.6664  1.8747 -0.6650
 4497SOL    HW225125   3.953   1.418   7.278  1.0805 -1.6214  1.2644
 4498SOL     OW25126   0.211   4.178   1.806  0.4484 -0.3943  0.3082
 4498SOL    HW125127   0.148   4.245   1.831 -0.4247 -0.2964 -2.1567
 4498SOL    HW225128   0.270   4.177   1.882  3.2649  0.5243 -1.8618
 4499SOL     OW25129   2.981   0.941   0.538  0.7902 -0.1088  0.2116
 4499SOL    HW125130   2.965   0.992   0.618 -1.2949 -3.3041  1.8146
 4499SOL    HW225131   2.935   0.862   0.565  1.6649 -0.4630  0.6635
 4500SOL     OW25132   4.456   3.247   6.629  0.0558 -0.1361  0.1766
 4500SOL    HW125133   4.363   3.232   6.649  0.5717 -1.0402  1.8745
 4500SOL    HW225134   4.494   3.189   6.694  1.3776  0.8161  0.2397
 4501SOL     OW25135   1.116   2.900   6.494  0.1680  0.8384 -0.1505
 4501SOL    HW125136   1.123   2.933   6.584  0.1413  1.8002 -0.5011
 4501SOL    HW225137   1.148   2.977   6.447  2.4490 -2.0296 -3.3199
 4502SOL     OW25138   2.474   3.271  16.755  0.0905 -0.0960  0.6807
 4502SOL    HW125139   2.415   3.301  16.824  0.6603  1.7975  0.3667
 4502SOL    HW225140   2.559   3.312  16.772  1.3330 -1.1172 -3.1215
 4503SOL     OW25141   0.644   1.181   7.033 -0.6069 -0.1573 -0.0296
 4503SOL    HW125142   0.569   1.198   7.089 -0.8511  1.4041 -0.8517
 4503SOL    HW225143   0.599   1.149   6.954  0.8936  0.9467 -1.3412
 4504SOL     OW25144   0.070   3.503   1.005 -0.0957  0.6488  0.1048
 4504SOL    HW125145   0.121   3.576   0.970 -0.8047  1.1822  0.1835
 4504SOL    HW225146   0.116   3.430   0.963 -1.8474  0.3779 -1.3444
 4505SOL     OW25147   3.028   2.647   2.207 -0.2168 -0.7778 -0.2373
 4505SOL    HW125148   2.999   2.727   2.251 -1.4077 -0.8432 -0.8847
 4505SOL    HW225149   2.960   2.630   2.141 -1.5699 -0.3763  1.0522
 4506SOL     OW25150   1.842   1.654   2.553  0.1023 -0.4276 -0.0288
 4506SOL    HW125151   1.862   1.623   2.642  0.2860 -0.9955 -0.2637
 4506SOL    HW225152   1.760   1.606   2.539  0.6135 -0.1676 -3.8421
 4507SOL     OW25153   3.236   1.445   0.616 -0.3383 -0.4047 -0.2839
 4507SOL    HW125154   3.169   1.397   0.664 -1.6196  1.5526 -0.0895
 4507SOL    HW225155   3.269   1.383   0.552 -0.8914 -0.1453 -0.8220
 4508SOL     OW25156   2.134   0.791   9.972  0.6848  0.2316 -0.3054
 4508SOL    HW125157   2.050   0.764  10.010  0.4262 -0.2564 -1.2358
 4508SOL    HW225158   2.167   0.846  10.043  0.2608  1.8228 -1.3464
 4509SOL     OW25159   4.356   1.304   8.675  0.2144  0.2232  0.3845
 4509SOL    HW125160   4.314   1.283   8.592  0.4474  2.7342 -0.3582
 4509SOL    HW225161   4.351   1.400   8.673  0.8829  0.2652  0.7396
 4510SOL     OW25162   4.178   2.493   9.605  0.1357  0.3066  0.1885
 4510SOL    HW125163   4.132   2.577   9.612 -3.2473 -1.6129  0.7423
 4510SOL    HW225164   4.249   2.501   9.668  0.0002  1.0058  0.2511
 4511SOL     OW25165   1.295   1.065   3.238 -0.0737 -0.4002 -0.1716
 4511SOL    HW125166   1.283   0.970   3.243  1.8091 -0.5860  0.7551
 4511SOL    HW225167   1.238   1.093   3.309 -0.6075 -0.4619 -0.5717
 4512SOL     OW25168   1.437   0.064   6.810 -0.1926 -0.0319  0.3308
 4512SOL    HW125169   1.455   0.005   6.883  0.0292 -0.1696  0.1654
 4512SOL    HW225170   1.522   0.071   6.765  0.5409 -0.7751  1.6084
 4513SOL     OW25171   3.912   0.469   7.535 -0.2901 -0.5727  0.2086
 4513SOL    HW125172   4.006   0.473   7.519  0.0435  3.8578  3.2886
 4513SOL    HW225173   3.885   0.549   7.489  0.0252 -0.2133  0.6530
 4514SOL     OW25174   0.187   2.701  10.398 -0.1587 -0.5056  0.0070
 4514SOL    HW125175   0.206   2.704  10.491 -0.7186 -1.8218  0.1600
 4514SOL    HW225176   0.269   2.665  10.364  1.3140  1.0265  1.9759
 4515SOL     OW25177   1.105   0.171   9.831  0.1636 -0.1390 -0.4984
 4515SOL    HW125178   1.119   0.259   9.866 -0.5139 -0.2440  0.0286
 4515SOL    HW225179   1.195   0.141   9.819 -0.0266 -0.2213 -1.7866
 4516SOL     OW25180   4.530   0.413  12.871 -0.1298 -0.1689 -0.1376
 4516SOL    HW125181   4.560   0.334  12.916  0.1941 -0.8414 -1.5272
 4516SOL    HW225182   4.580   0.487  12.905  1.9339 -1.9878  0.7764
 4517SOL     OW25183   1.421   0.299  10.961 -0.5949 -0.4386 -0.5166
 4517SOL    HW125184   1.358   0.275  11.030 -0.4462  0.7440  0.0183
 4517SOL    HW225185   1.386   0.245  10.889 -2.0957 -0.3280  0.1363
 4518SOL     OW25186   3.497   4.584   3.334  0.2954  0.2983  0.0292
 4518SOL    HW125187   3.569   4.583   3.397  0.4885  1.5649 -0.1763
 4518SOL    HW225188   3.539   4.549   3.255  0.2167  1.1549 -0.3895
 4519SOL     OW25189   2.898   1.792   2.995 -0.2421 -0.1125  0.4622
 4519SOL    HW125190   2.907   1.887   2.991 -0.1378 -0.0946  1.2078
 4519SOL    HW225191   2.891   1.774   2.901 -1.5454  3.2229 -0.1034
 4520SOL     OW25192   2.001   3.370   9.419 -0.2447  0.2801  0.4050
 4520SOL    HW125193   1.967   3.305   9.481 -0.7958 -0.1165 -0.3141
 4520SOL    HW225194   2.020   3.307   9.350 -0.7833 -0.7144  1.1613
 4521SOL     OW25195   3.299   1.185  10.770 -0.1908 -0.3786 -0.0575
 4521SOL    HW125196   3.234   1.216  10.707  1.5277 -1.8524 -2.5136
 4521SOL    HW225197   3.276   1.240  10.846 -1.9071 -1.9330  0.5348
 4522SOL     OW25198   2.406   3.480   9.414  0.0791 -0.1571  0.4426
 4522SOL    HW125199   2.343   3.530   9.362 -1.9839 -4.7153 -1.4331
 4522SOL    HW225200   2.361   3.395   9.416  0.2798 -0.3327 -2.4831
 4523SOL     OW25201   4.048   2.015   3.978  0.2894 -0.2450 -0.6037
 4523SOL    HW125202   3.975   1.960   4.003 -0.4282  0.2698 -1.5793
 4523SOL    HW225203   4.049   2.004   3.883 -5.3828  0.4104 -0.7428
 4524SOL     OW25204   1.053   2.594   5.801 -0.0112 -0.2599  0.4901
 4524SOL    HW125205   1.018   2.573   5.714  2.9778 -0.0114 -0.7592
 4524SOL    HW225206   1.036   2.688   5.807 -3.5202 -0.8728  0.0509
 4525SOL     OW25207   0.812   2.066   7.845  0.7380 -0.1690  0.1224
 4525SOL    HW125208   0.890   2.099   7.891  0.5411 -0.9910  1.0444
 4525SOL    HW225209   0.821   1.975   7.871 -0.9633 -0.6242 -0.8694
 4526SOL     OW25210   2.880   2.942  12.355  0.6240 -0.3129  0.0703
 4526SOL    HW125211   2.852   3.007  12.420 -1.6885 -1.8839  0.6343
 4526SOL    HW225212   2.796   2.918  12.315  1.2756  0.3865 -1.7110
 4527SOL     OW25213   4.684   3.508  10.242  0.0502  0.4812 -0.3125
 4527SOL    HW125214   4.718   3.578  10.298 -0.2592 -0.3073  0.8495
 4527SOL    HW225215   4.595   3.541  10.235 -0.8099 -1.9370 -0.6199
 4528SOL     OW25216   1.815   1.110  17.264 -0.2453 -0.6610  0.8198
 4528SOL    HW125217   1.896   1.107  17.214  0.6544  0.8576  2.1683
 4528SOL    HW225218   1.849   1.100  17.353 -0.7585 -2.1928  0.8466
 4529SOL     OW25219   3.107   3.366  11.298  0.3408  0.1593  0.5026
 4529SOL    HW125220   3.115   3.376  11.203  0.2348  0.1664  0.4942
 4529SOL    HW225221   3.165   3.291  11.313 -0.3430 -0.5438 -0.3722
 4530SOL     OW25222   3.432   4.667  14.617 -0.1893 -0.2979 -0.3625
 4530SOL    HW125223   3.439   4.633  14.706 -0.1679  1.2086  0.2228
 4530SOL    HW225224   3.507   4.622  14.579  0.6122 -0.1185  1.0151
 4531SOL     OW25225   3.592   3.090   5.153 -0.2863  1.0635  0.0145
 4531SOL    HW125226   3.623   3.026   5.088 -0.0473  0.2604  0.9272
 4531SOL    HW225227   3.597   3.168   5.098 -0.9142  1.8072  1.0311
 4532SOL     OW25228   0.612   2.295   6.572 -0.1983 -0.1518  0.1094
 4532SOL    HW125229   0.633   2.202   6.580 -0.5959 -0.2671 -0.1848
 4532SOL    HW225230   0.687   2.332   6.618 -1.2647  2.5385 -0.3589
 4533SOL     OW25231   1.751   1.618   5.671 -0.1280 -0.2101  0.5301
 4533SOL    HW125232   1.690   1.582   5.607 -0.8587 -0.6362  1.4759
 4533SOL    HW225233   1.778   1.543   5.724  0.4851  0.2601  0.8914
 4534SOL     OW25234   4.447   0.396  10.647 -0.4654 -0.2185  0.2621
 4534SOL    HW125235   4.446   0.333  10.720  0.0627 -0.2585  0.2338
 4534SOL    HW225236   4.356   0.419  10.629 -0.8033 -2.2607 -0.6527
 4535SOL     OW25237   0.719   1.442   9.222 -0.0150  0.5535  0.7588
 4535SOL    HW125238   0.725   1.394   9.305 -1.0285 -0.4848  0.2244
 4535SOL    HW225239   0.794   1.498   9.240  0.2848  0.1383  0.7920
 4536SOL     OW25240   2.033   3.936  15.613 -0.4770  0.0501 -0.1088
 4536SOL    HW125241   2.119   3.927  15.572 -1.1399  0.0756 -1.4816
 4536SOL    HW225242   2.055   3.967  15.701  1.4081 -1.2515 -0.1152
 4537SOL     OW25243   0.058   0.677   8.741 -0.6193 -0.1738 -0.3809
 4537SOL    HW125244   0.001   0.654   8.667  0.5547 -1.2003 -0.9595
 4537SOL    HW225245   0.007   0.653   8.818  0.1286  0.6407  0.3693
 4538SOL     OW25246   1.156   0.447   4.815 -0.1762  0.0876  0.3048
 4538SOL    HW125247   1.228   0.488   4.767 -1.3732 -0.2686 -1.7595
 4538SOL    HW225248   1.088   0.514   4.807  3.2535  3.5531  0.2214
 4539SOL     OW25249   2.142   4.094   0.918 -0.0408  0.1451 -1.3182
 4539SOL    HW125250   2.201   4.127   0.985  0.5869 -0.8991 -1.3584
 4539SOL    HW225251   2.103   4.177   0.888 -0.1025  0.3963 -0.5445
 4540SOL     OW25252   0.240   4.259   3.465  0.5604  0.4267  0.1751
 4540SOL    HW125253   0.219   4.310   3.386  0.1750  0.7988  0.5210
 4540SOL    HW225254   0.284   4.179   3.435  1.2997  0.9169 -0.0538
 4541SOL     OW25255   3.475   1.778  12.443  0.0408 -0.3042  0.2632
 4541SOL    HW125256   3.488   1.833  12.366 -1.1700 -0.4478 -0.0473
 4541SOL    HW225257   3.398   1.821  12.481 -0.4815 -1.6371  0.7186
 4542SOL     OW25258   3.981   3.264   8.676  0.2139 -0.2587  0.1808
 4542SOL    HW125259   3.901   3.273   8.728 -0.5114  2.2525 -1.4122
 4542SOL    HW225260   3.969   3.172   8.652 -1.4978 -0.0049  0.0750
 4543SOL     OW25261   0.671   4.162  14.340 -0.2816 -0.2009  0.0903
 4543SOL    HW125262   0.597   4.148  14.281  0.2795 -0.6141 -0.5291
 4543SOL    HW225263   0.678   4.070  14.364  0.7863 -1.3927 -4.7995
 4544SOL     OW25264   3.353   0.465   8.717  0.2930  0.2217  0.5420
 4544SOL    HW125265   3.399   0.540   8.753 -1.3488  1.1003  0.7786
 4544SOL    HW225266   3.261   0.483   8.733  0.6714 -0.6794  3.6939
 4545SOL     OW25267   3.733   0.284   4.919  0.3099  0.7476  0.5146
 4545SOL    HW125268   3.680   0.324   4.850  0.0254 -0.9014 -0.2254
 4545SOL    HW225269   3.806   0.255   4.864 -0.5735  1.7908 -1.2218
 4546SOL     OW25270   3.830   1.466   6.251  0.1202 -0.4919 -0.1298
 4546SOL    HW125271   3.786   1.404   6.310  2.9595 -1.1731  1.2466
 4546SOL    HW225272   3.757   1.480   6.191  0.6858  1.9779 -0.2250
 4547SOL     OW25273   3.611   3.933   4.758  0.0042  0.0129  0.1041
 4547SOL    HW125274   3.580   4.023   4.745 -2.7145 -0.8768  0.2535
 4547SOL    HW225275   3.703   3.945   4.734 -0.7430 -0.3507 -2.9508
 4548SOL     OW25276   4.260   1.573   0.457  0.2298 -0.5971  0.1883
 4548SOL    HW125277   4.216   1.533   0.533  0.0905  2.6829  1.8503
 4548SOL    HW225278   4.281   1.500   0.400  0.2399 -1.0845  0.8152
 4549SOL     OW25279   4.675   1.146  11.425  0.2935 -0.6006  0.1996
 4549SOL    HW125280   0.033   1.146  11.416  0.1221 -0.6957 -1.6412
 4549SOL    HW225281   4.652   1.239  11.433 -0.3995 -0.7413 -0.1209
 4550SOL     OW25282   4.703   0.943   7.441  0.7032 -1.0056 -0.0105
 4550SOL    HW125283   0.046   0.949   7.494  0.0606 -0.0992  0.8527
 4550SOL    HW225284   4.730   0.880   7.374  1.9413 -0.9017  0.3809
 4551SOL     OW25285   4.143   2.088  15.222  0.2135  0.2599 -0.5395
 4551SOL    HW125286   4.055   2.101  15.187  0.6851 -0.1424 -1.8634
 4551SOL    HW225287   4.136   2.092  15.317  0.6848 -0.8724 -0.4525
 4552SOL     OW25288   0.544   3.893   1.999 -0.6441  0.1206 -0.2610
 4552SOL    HW125289   0.613   3.885   2.064  0.6716  1.1802 -1.5311
 4552SOL    HW225290   0.506   3.806   1.992  0.1679 -0.2294 -0.3061
 4553SOL     OW25291   2.939   3.615   2.722  0.0152 -0.5172 -0.0618
 4553SOL    HW125292   2.860   3.567   2.748 -1.5445  1.8232 -0.4499
 4553SOL    HW225293   2.920   3.705   2.750 -1.6846 -1.0341  0.4707
 4554SOL     OW25294   4.303   3.476   3.853 -0.0066  0.2473  0.2119
 4554SOL    HW125295   4.338   3.518   3.931  1.9193 -2.6925  0.9592
 4554SOL    HW225296   4.252   3.548   3.816 -0.6928 -0.4467 -0.2039
 4555SOL     OW25297   1.209   2.320   8.275  0.8293  0.0652 -0.2418
 4555SOL    HW125298   1.249   2.249   8.326 -2.1735 -2.8779 -1.9233
 4555SOL    HW225299   1.125   2.274   8.281  0.6203  0.1847 -2.3705
 4556SOL     OW25300   2.392   2.331  17.282  0.4594 -0.3638 -0.1401
 4556SOL    HW125301   2.432   2.417  17.293 -2.1621  0.8333  0.0314
 4556SOL    HW225302   2.403   2.286  17.365  3.0116  1.1107  0.3172
 4557SOL     OW25303   3.725   2.432   7.735 -0.3147 -0.3330 -0.1638
 4557SOL    HW125304   3.661   2.365   7.710 -0.9026  0.4777 -0.8570
 4557SOL    HW225305   3.660   2.500   7.753  0.6625  1.2709 -2.8073
 4558SOL     OW25306   4.452   0.951   8.834  0.0745  0.3506  0.1039
 4558SOL    HW125307   4.471   0.862   8.863  0.8505 -0.0921 -1.7379
 4558SOL    HW225308   4.518   0.970   8.767  1.3174 -0.7232  1.0315
 4559SOL     OW25309   2.895   0.231   5.923 -0.0280 -0.3858  0.0224
 4559SOL    HW125310   2.980   0.188   5.921  0.6266  0.8859  1.0068
 4559SOL    HW225311   2.904   0.285   6.002  0.7078 -1.5431  0.7263
 4560SOL     OW25312   3.009   3.493   2.479  0.3838  0.4057 -0.6191
 4560SOL    HW125313   2.918   3.501   2.448 -0.0259  0.3871  0.5708
 4560SOL    HW225314   3.007   3.549   2.557  1.2534 -1.0094  0.4018
 4561SOL     OW25315   4.487   3.606   2.032  0.2020 -0.4677  0.0333
 4561SOL    HW125316   4.508   3.556   2.111  1.6770  0.8333  0.4727
 4561SOL    HW225317   4.393   3.588   2.030 -0.1157  1.0071  1.7189
 4562SOL     OW25318   0.911   2.983   7.330  0.1169 -0.4306  0.0979
 4562SOL    HW125319   0.878   3.070   7.307  0.6815 -0.4427 -0.7662
 4562SOL    HW225320   1.002   2.978   7.299  0.8588 -1.1187  2.3664
 4563SOL     OW25321   3.044   1.860   4.045  0.1600 -0.3415 -0.0154
 4563SOL    HW125322   2.998   1.934   4.083 -0.1000 -0.8852  0.7217
 4563SOL    HW225323   2.967   1.805   4.029 -0.6865  1.3545 -1.7205
 4564SOL     OW25324   2.102   0.052   9.326 -0.1261 -0.3860 -0.1265
 4564SOL    HW125325   2.104   4.698   9.297 -1.5646  0.0479 -1.5734
 4564SOL    HW225326   2.040   0.041   9.398 -0.5800  2.0077 -0.1376
 4565SOL     OW25327   3.842   0.311   1.863 -0.8858  0.2250 -0.1120
 4565SOL    HW125328   3.887   0.290   1.781 -0.0511  0.4689  0.2822
 4565SOL    HW225329   3.822   0.225   1.898 -0.2913 -0.0797 -0.5235
 4566SOL     OW25330   1.931   3.780  16.637  0.5779 -0.3116 -0.3545
 4566SOL    HW125331   1.846   3.771  16.681  2.8193 -1.5140  3.6758
 4566SOL    HW225332   1.933   3.695  16.594  1.4029 -0.4926  0.0586
 4567SOL     OW25333   3.090   1.553   7.167  0.1527 -0.6911  1.2389
 4567SOL    HW125334   2.998   1.564   7.144  1.2939  2.6755 -1.8067
 4567SOL    HW225335   3.135   1.561   7.083 -1.1301 -1.4837  0.4819
 4568SOL     OW25336   0.686   2.838   4.323 -0.4506 -0.0790  0.4140
 4568SOL    HW125337   0.782   2.832   4.328 -0.4085 -0.8144 -1.2033
 4568SOL    HW225338   0.667   2.833   4.229 -0.5567  1.7130  0.3431
 4569SOL     OW25339   3.872   4.427  10.817 -0.3061 -0.3556 -0.1153
 4569SOL    HW125340   3.808   4.457  10.881 -1.4399 -0.4487 -1.2143
 4569SOL    HW225341   3.948   4.436  10.875  0.6513  0.1286 -1.4461
 4570SOL     OW25342   4.091   4.473  10.979 -0.1201 -0.0290 -0.3461
 4570SOL    HW125343   4.081   4.419  11.058  1.8087 -0.2170 -0.2468
 4570SOL    HW225344   4.096   4.564  11.006 -1.5328  0.4213 -1.5768
 4571SOL     OW25345   3.955   1.894   1.544 -0.0099 -0.5953 -0.1052
 4571SOL    HW125346   3.889   1.962   1.531  0.9497 -0.0610 -2.1153
 4571SOL    HW225347   3.905   1.812   1.548  1.7325 -1.5267  2.9019
 4572SOL     OW25348   4.190   2.086   5.904  0.1184 -0.0412 -0.4610
 4572SOL    HW125349   4.205   2.154   5.970  1.7089 -1.1321  0.2929
 4572SOL    HW225350   4.238   2.134   5.837  0.4926 -1.5268 -1.2350
 4573SOL     OW25351   0.490   3.599  16.177 -0.0203 -0.1618  0.4800
 4573SOL    HW125352   0.450   3.539  16.241  0.1543 -0.1031  0.6461
 4573SOL    HW225353   0.448   3.574  16.095 -1.7499  0.6875  1.0971
 4574SOL     OW25354   4.123   0.976   8.735 -0.0496  0.2345 -0.0083
 4574SOL    HW125355   4.175   0.974   8.655 -0.6606  1.9091 -0.4468
 4574SOL    HW225356   4.175   1.033   8.792 -1.7451  0.7594  1.0227
 4575SOL     OW25357   0.531   0.210   9.296  0.9908 -0.1856 -0.0353
 4575SOL    HW125358   0.442   0.210   9.261  0.5896  2.5496  0.9649
 4575SOL    HW225359   0.519   0.245   9.384  1.8568  0.0232 -0.0004
 4576SOL     OW25360   3.737   2.867   3.507  0.3986 -0.1707 -0.1800
 4576SOL    HW125361   3.708   2.958   3.497 -0.1916 -0.2844  0.5381
 4576SOL    HW225362   3.723   2.850   3.600 -0.2282  0.8783 -0.0883
 4577SOL     OW25363   1.465   3.861   3.286  0.1879 -0.0369 -0.2345
 4577SOL    HW125364   1.424   3.942   3.257 -1.9260 -1.0699 -0.1747
 4577SOL    HW225365   1.510   3.897   3.362 -2.5000  0.0462  1.3288
 4578SOL     OW25366   4.164   3.864  11.321 -0.2500  0.3737  0.5351
 4578SOL    HW125367   4.135   3.809  11.394 -1.1585 -0.2922 -0.3376
 4578SOL    HW225368   4.156   3.954  11.352  1.1451  0.6782 -0.0032
 4579SOL     OW25369   2.805   0.232  14.749 -0.2464 -0.2440 -0.0203
 4579SOL    HW125370   2.835   0.142  14.733  2.1966  0.3207  1.4616
 4579SOL    HW225371   2.887   0.281  14.738 -0.8368  0.6577 -0.3741
 4580SOL     OW25372   3.831   3.114  17.008  0.1591 -0.4596 -0.0223
 4580SOL    HW125373   3.740   3.103  17.036 -0.3183  1.6699 -0.7422
 4580SOL    HW225374   3.821   3.138  16.916  3.7824  3.2192  0.5410
 4581SOL     OW25375   3.468   0.756   2.362  0.2918  0.2580  0.1195
 4581SOL    HW125376   3.479   0.851   2.358  0.9370  0.0816 -2.0069
 4581SOL    HW225377   3.375   0.737   2.372  1.1467 -4.2391 -0.4888
 4582SOL     OW25378   4.221   3.503   9.455  0.1755 -0.1869 -0.2554
 4582SOL    HW125379   4.280   3.573   9.429 -0.7162  0.3551 -0.8326
 4582SOL    HW225380   4.225   3.520   9.549  0.0065  0.0943 -0.3003
 4583SOL     OW25381   2.524   2.509   2.297  0.2785  0.2381  0.6925
 4583SOL    HW125382   2.561   2.450   2.363  0.9984 -1.6025 -1.3608
 4583SOL    HW225383   2.479   2.442   2.246  0.2598  2.0796 -1.7132
 4584SOL     OW25384   3.014   3.167  15.066  0.3443  0.0791  0.0975
 4584SOL    HW125385   2.952   3.220  15.116 -1.8632 -1.4875 -1.0129
 4584SOL    HW225386   2.964   3.179  14.985 -0.8156  0.9112  0.9328
 4585SOL     OW25387   3.801   1.004   9.712 -0.0799 -0.3085 -0.2938
 4585SOL    HW125388   3.795   0.922   9.762 -0.4306  0.6078  1.1629
 4585SOL    HW225389   3.771   0.963   9.631  1.7396 -0.4855 -0.8960
 4586SOL     OW25390   0.298   0.793   8.361  0.4050 -0.4072 -0.3571
 4586SOL    HW125391   0.223   0.828   8.409  0.4634 -0.3655 -0.2967
 4586SOL    HW225392   0.299   0.856   8.289 -1.0611 -0.6990 -0.6473
 4587SOL     OW25393   4.332   0.804  13.327 -0.5116 -0.5369 -0.0360
 4587SOL    HW125394   4.372   0.806  13.240 -2.5257 -0.8318 -0.9800
 4587SOL    HW225395   4.395   0.764  13.386  0.6615 -0.7190 -1.4114
 4588SOL     OW25396   1.563   0.007   0.544 -0.7755  0.1748 -0.2143
 4588SOL    HW125397   1.488   4.698   0.507 -1.6313  0.7025  0.8391
 4588SOL    HW225398   1.558   4.701   0.630 -0.2964  2.6963  1.0879
 4589SOL     OW25399   1.390   4.248   5.507 -0.3839  0.0863  0.1517
 4589SOL    HW125400   1.308   4.246   5.458 -0.7257 -0.8005  0.7594
 4589SOL    HW225401   1.395   4.163   5.550  1.7926  0.3787  0.4940
 4590SOL     OW25402   3.310   1.186   7.707  0.0988  0.6285  0.2478
 4590SOL    HW125403   3.247   1.130   7.752  0.7038 -0.6303 -0.4698
 4590SOL    HW225404   3.276   1.268   7.742 -1.3636 -0.0555  0.4333
 4591SOL     OW25405   1.308   4.455   9.086  0.3266 -0.1875 -0.3583
 4591SOL    HW125406   1.393   4.494   9.067  0.5104 -0.5577 -0.2986
 4591SOL    HW225407   1.257   4.534   9.103 -0.7505 -1.3100  1.5417
 4592SOL     OW25408   1.455   4.157   7.592 -0.0314 -0.1611  0.5138
 4592SOL    HW125409   1.373   4.190   7.556  1.0568 -0.0110 -1.8218
 4592SOL    HW225410   1.449   4.063   7.580 -0.4522  0.0358 -0.8390
 4593SOL     OW25411   3.378   1.322   1.897  0.2586  0.3417  0.2553
 4593SOL    HW125412   3.340   1.307   1.810 -1.5597  0.3267  1.0622
 4593SOL    HW225413   3.461   1.366   1.878  0.2087  1.1746  2.0545
 4594SOL     OW25414   4.233   0.925  11.545 -0.4471  0.0073 -0.1123
 4594SOL    HW125415   4.322   0.941  11.577 -1.7765  1.6069  2.8238
 4594SOL    HW225416   4.225   0.832  11.566  0.3948 -0.3881 -1.5362
 4595SOL     OW25417   1.127   0.311   6.486 -0.4742 -0.5808 -0.3071
 4595SOL    HW125418   1.050   0.325   6.540  0.2314  1.5836  0.1153
 4595SOL    HW225419   1.172   0.241   6.534  0.5118  1.4548  1.6993
 4596SOL     OW25420   0.330   1.006   8.564 -0.2281 -0.1148 -0.4077
 4596SOL    HW125421   0.390   0.948   8.515 -2.5661  0.5550 -4.0833
 4596SOL    HW225422   0.389   1.067   8.608 -0.5980  1.5879 -2.2677
 4597SOL     OW25423   1.309   1.989   6.420 -0.4569 -0.5914 -0.5056
 4597SOL    HW125424   1.229   2.037   6.443 -0.9989 -1.3762 -0.7849
 4597SOL    HW225425   1.283   1.938   6.344  0.7950 -0.4000 -1.0738
 4598SOL     OW25426   4.303   2.004   3.340 -0.2838  0.0058  0.0077
 4598SOL    HW125427   4.230   2.058   3.371  0.1633  1.2927 -1.1765
 4598SOL    HW225428   4.287   2.015   3.246 -2.0393  0.7935  0.3986
 4599SOL     OW25429   1.073   3.659   6.116 -0.2431  0.2546 -0.2510
 4599SOL    HW125430   1.057   3.594   6.185  0.2878  1.3590  0.9149
 4599SOL    HW225431   1.081   3.602   6.040 -0.1868 -1.4474  1.0447
 4600SOL     OW25432   2.513   4.492  10.157 -0.2839  0.6240  0.4203
 4600SOL    HW125433   2.538   4.581  10.133 -0.0585  0.4109 -0.1369
 4600SOL    HW225434   2.419   4.506  10.150 -0.3548  0.3681  0.8211
 4601SOL     OW25435   1.849   4.183   7.524 -0.4486 -0.6095  0.5040
 4601SOL    HW125436   1.780   4.188   7.589  1.0026 -0.2502  2.0157
 4601SOL    HW225437   1.805   4.224   7.449  0.2686  0.1195  0.4757
 4602SOL     OW25438   2.353   0.206   1.486  0.2514  0.2842 -0.1497
 4602SOL    HW125439   2.422   0.262   1.452 -0.6214  1.8410  0.6711
 4602SOL    HW225440   2.302   0.272   1.533  0.0787 -0.4396  0.6897
 4603SOL     OW25441   0.500   2.859   0.584  0.1683  0.4976  0.0333
 4603SOL    HW125442   0.541   2.823   0.663 -0.7987  0.2965  0.4368
 4603SOL    HW225443   0.558   2.933   0.566  0.0055  0.4376 -0.7562
 4604SOL     OW25444   3.803   3.460  14.290  0.0743  0.3711  0.5049
 4604SOL    HW125445   3.824   3.512  14.213 -0.7071 -0.2901 -0.1585
 4604SOL    HW225446   3.807   3.370  14.256 -0.6433  0.4080  0.3374
 4605SOL     OW25447   3.283   4.653  16.056  0.0924 -0.3864 -0.2658
 4605SOL    HW125448   3.309   4.628  15.968  0.5742  1.6425 -0.7017
 4605SOL    HW225449   3.371   4.671  16.089  0.0864  1.0426 -1.0607
 4606SOL     OW25450   1.958   2.825   0.207 -0.3884  0.5785 -0.5921
 4606SOL    HW125451   1.975   2.739   0.245  0.6180  0.8518 -0.4341
 4606SOL    HW225452   1.865   2.837   0.225 -0.8071 -3.3027 -0.0144
 4607SOL     OW25453   1.362   0.344  13.394  0.0791 -0.7198  0.7777
 4607SOL    HW125454   1.367   0.366  13.301 -0.9728 -1.3295  0.5787
 4607SOL    HW225455   1.326   0.427  13.425  0.0674 -1.3603  2.4879
 4608SOL     OW25456   1.212   0.239  11.150  0.1457 -0.1848 -0.0644
 4608SOL    HW125457   1.133   0.293  11.138  0.5388  0.7665  1.5020
 4608SOL    HW225458   1.199   0.188  11.230 -0.6522 -0.7249 -0.5372
 4609SOL     OW25459   1.068   0.952   1.993 -0.3077 -0.4784 -0.1456
 4609SOL    HW125460   1.043   0.860   1.985 -0.9502 -0.1150 -2.3152
 4609SOL    HW225461   0.980   0.988   1.991 -0.2293 -0.3601 -1.5708
 4610SOL     OW25462   4.384   0.277   4.454 -0.3652 -0.4889  0.2731
 4610SOL    HW125463   4.433   0.266   4.535  1.0472  2.9455 -0.1201
 4610SOL    HW225464   4.452   0.269   4.387  0.1151  0.8568  0.6186
 4611SOL     OW25465   1.217   0.560   3.761  0.8663 -0.1183 -0.1832
 4611SOL    HW125466   1.231   0.561   3.666  1.5489 -0.9453 -0.0870
 4611SOL    HW225467   1.213   0.469   3.791 -1.8536 -0.2933 -1.1160
 4612SOL     OW25468   3.015   2.166   5.494  0.9597  0.1703 -0.0982
 4612SOL    HW125469   3.069   2.189   5.570  0.8121 -0.9178  0.3249
 4612SOL    HW225470   3.068   2.213   5.428  2.0979 -0.5608  0.2859
 4613SOL     OW25471   1.034   3.925  16.360 -0.6029  0.1109  0.1878
 4613SOL    HW125472   1.007   3.881  16.279 -1.5646  0.8253  0.1189
 4613SOL    HW225473   0.956   3.976  16.380  0.6038  1.3609  1.6971
 4614SOL     OW25474   2.252   2.857   2.938 -0.0424 -0.0654  0.1580
 4614SOL    HW125475   2.322   2.808   2.894  0.4254  0.5555  0.1918
 4614SOL    HW225476   2.216   2.913   2.869 -0.3930  0.8122  1.0665
 4615SOL     OW25477   2.011   3.240   6.522  0.5863 -0.2329 -0.1245
 4615SOL    HW125478   2.025   3.176   6.453  1.6428  0.5484 -0.6225
 4615SOL    HW225479   2.090   3.291   6.505  0.5773  0.6926  2.5519
 4616SOL     OW25480   2.713   3.896   7.224 -0.5567 -0.3582 -0.2188
 4616SOL    HW125481   2.756   3.831   7.279  0.9453  0.3994 -0.4940
 4616SOL    HW225482   2.736   3.973   7.277  2.2660 -0.0503 -1.9187
 4617SOL     OW25483   1.014   3.766   5.377 -0.1308  0.2728 -0.3131
 4617SOL    HW125484   1.066   3.830   5.328 -1.1553  1.7006  0.4322
 4617SOL    HW225485   1.042   3.683   5.340  1.0648 -0.3449  2.0395
 4618SOL     OW25486   1.767   2.668   2.415 -0.2257  0.4614  0.0797
 4618SOL    HW125487   1.740   2.577   2.419  0.1481  0.3079 -0.9753
 4618SOL    HW225488   1.686   2.710   2.444 -0.2496  1.2403 -1.0899
 4619SOL     OW25489   0.086   4.015   9.411 -0.1741 -0.0446 -0.0966
 4619SOL    HW125490   0.056   4.093   9.364  0.6610  0.9338  1.0137
 4619SOL    HW225491   0.088   4.049   9.500 -0.2884  0.1622 -0.1727
 4620SOL     OW25492   3.825   3.730  11.155  0.1639 -0.1735 -0.1950
 4620SOL    HW125493   3.862   3.646  11.184  0.3792  0.5216  1.5322
 4620SOL    HW225494   3.859   3.795  11.216 -0.1750  0.4469 -0.6667
 4621SOL     OW25495   3.046   1.832   6.795  0.6085 -0.1956 -0.4039
 4621SOL    HW125496   3.074   1.845   6.885 -1.0777 -0.0268  0.0975
 4621SOL    HW225497   2.972   1.892   6.782  0.6128  0.0229  0.6091
 4622SOL     OW25498   2.386   0.574   8.737  0.0807 -0.0227 -0.5516
 4622SOL    HW125499   2.395   0.656   8.786 -0.3807 -0.2073 -0.1492
 4622SOL    HW225500   2.460   0.526   8.775  0.8629  1.8303  0.2538
 4623SOL     OW25501   2.424   1.453   4.781 -0.2994  0.8302  0.3564
 4623SOL    HW125502   2.503   1.504   4.762  0.2467 -0.7180 -1.5716
 4623SOL    HW225503   2.461   1.366   4.800  1.2397  1.2827 -0.5111
 4624SOL     OW25504   3.272   0.976  16.699 -0.4179 -0.0612 -0.1411
 4624SOL    HW125505   3.201   0.969  16.762  0.7735  1.7576  1.4123
 4624SOL    HW225506   3.277   0.892  16.655 -0.2046 -0.8092  1.3171
 4625SOL     OW25507   2.891   3.803   3.842  0.5871  0.2140  0.0362
 4625SOL    HW125508   2.896   3.819   3.748 -0.0856 -1.7407 -0.3499
 4625SOL    HW225509   2.815   3.856   3.865  0.6833  1.1334 -1.7868
 4626SOL     OW25510   4.468   1.060  11.252 -0.3625  0.0386  0.7257
 4626SOL    HW125511   4.535   1.088  11.314 -1.9356  0.5075  2.1993
 4626SOL    HW225512   4.387   1.092  11.291  0.2768 -1.5609  3.3725
 4627SOL     OW25513   1.955   3.587   2.546  0.3688  0.4191  0.0146
 4627SOL    HW125514   2.023   3.521   2.529 -2.1711 -2.6183  1.6553
 4627SOL    HW225515   2.001   3.663   2.511  2.6183 -0.4317  1.0683
 4628SOL     OW25516   1.344   2.198   3.946 -0.0225  0.0791  0.0483
 4628SOL    HW125517   1.326   2.292   3.957 -1.0776 -0.3839  2.2326
 4628SOL    HW225518   1.253   2.173   3.937 -0.1793 -0.5706  3.3310
 4629SOL     OW25519   0.483   0.465   3.474  0.0442  0.5486  0.2463
 4629SOL    HW125520   0.444   0.400   3.533  3.8377 -2.7030 -0.8439
 4629SOL    HW225521   0.478   0.427   3.386  3.0096 -2.8525  1.5383
 4630SOL     OW25522   1.350   0.747  16.338 -0.3364  0.0682  0.5014
 4630SOL    HW125523   1.405   0.669  16.348 -2.7975 -1.8888 -1.3337
 4630SOL    HW225524   1.410   0.820  16.323  2.4006 -2.1899  0.3933
 4631SOL     OW25525   1.560   3.959   6.483 -0.1886 -0.0441  0.3873
 4631SOL    HW125526   1.594   3.964   6.572  1.0118  0.0224 -0.0730
 4631SOL    HW225527   1.523   4.046   6.469 -1.0435 -0.2757  1.2305
 4632SOL     OW25528   4.269   0.005   8.492  0.2022 -0.0777  0.7132
 4632SOL    HW125529   4.253   4.657   8.450 -1.7545 -0.0917  1.4622
 4632SOL    HW225530   4.307   0.055   8.420 -1.0560 -1.4028 -0.8698
 4633SOL     OW25531   1.038   3.891  13.109 -0.1172 -0.2306 -0.4136
 4633SOL    HW125532   1.008   3.966  13.058 -0.3067  0.3502  0.5613
 4633SOL    HW225533   1.020   3.918  13.199  0.4091 -1.1717 -0.0251
 4634SOL     OW25534   4.350   3.583   7.927 -0.0179  0.0072 -0.3757
 4634SOL    HW125535   4.362   3.620   7.839  0.8996 -2.0615 -1.1271
 4634SOL    HW225536   4.270   3.536   7.903 -1.5191  1.0460  2.6721
 4635SOL     OW25537   0.520   0.156   2.902 -0.0605 -0.0894  0.1608
 4635SOL    HW125538   0.453   0.195   2.847  0.0870  0.4930  0.3933
 4635SOL    HW225539   0.564   0.239   2.915 -0.3858  0.2374 -0.8399
 4636SOL     OW25540   3.369   2.392   5.916 -0.2332 -0.0233  0.2799
 4636SOL    HW125541   3.396   2.409   5.826  1.4035  0.3861  0.8453
 4636SOL    HW225542   3.289   2.442   5.932 -1.0715 -0.6289 -2.0391
 4637SOL     OW25543   4.688   0.465  15.712  0.1056  0.4801 -0.3315
 4637SOL    HW125544   4.734   0.447  15.794  0.5855  1.8349 -0.3029
 4637SOL    HW225545   0.020   0.477  15.646  0.2555  1.9400  0.0909
 4638SOL     OW25546   0.686   2.664   5.446 -0.9311 -0.2373 -0.7774
 4638SOL    HW125547   0.609   2.626   5.487 -0.8772  0.0970 -0.3632
 4638SOL    HW225548   0.658   2.753   5.468 -1.3879 -0.0445 -2.1606
 4639SOL     OW25549   2.848   4.501   6.504 -0.6852 -0.3723  0.1431
 4639SOL    HW125550   2.773   4.550   6.469 -0.9885  0.2798  1.7288
 4639SOL    HW225551   2.879   4.548   6.581 -1.9152  0.6738 -0.0062
 4640SOL     OW25552   2.328   3.572  12.002 -0.8718  0.8194 -0.1829
 4640SOL    HW125553   2.283   3.491  12.028 -0.1500  0.9242  1.4246
 4640SOL    HW225554   2.375   3.547  11.922  2.1511 -1.2769  2.2435
 4641SOL     OW25555   0.588   0.348   6.886 -0.7072  0.0574  0.8247
 4641SOL    HW125556   0.512   0.346   6.829  1.8330 -1.1858 -2.4902
 4641SOL    HW225557   0.657   0.383   6.831 -1.2285 -0.9593 -0.4645
 4642SOL     OW25558   1.154   2.380   8.747  0.3623  0.4026 -0.0451
 4642SOL    HW125559   1.089   2.412   8.809 -0.8182 -2.9595  0.4495
 4642SOL    HW225560   1.230   2.355   8.800  0.2996  0.0284 -0.1380
 4643SOL     OW25561   0.012   1.298   5.023 -0.3573  0.2663 -0.4076
 4643SOL    HW125562   0.002   1.393   5.032 -0.5361  0.1138  1.0020
 4643SOL    HW225563   4.664   1.282   4.981 -0.6479 -0.3545  0.4214
 4644SOL     OW25564   3.117   0.829  11.128 -0.0867 -0.0630  0.0393
 4644SOL    HW125565   3.144   0.744  11.094  1.3434  0.4684 -0.1393
 4644SOL    HW225566   3.178   0.884  11.078 -0.6288 -1.2799 -1.9689
 4645SOL     OW25567   4.509   2.784   4.361  0.1340 -0.6955  0.1544
 4645SOL    HW125568   4.417   2.763   4.343 -0.1237  1.5148 -1.1438
 4645SOL    HW225569   4.559   2.703   4.372  1.2456 -0.1126 -0.6437
 4646SOL     OW25570   0.568   2.272  14.242  0.2644 -0.0181 -0.2187
 4646SOL    HW125571   0.635   2.237  14.183  0.9440 -2.0390  1.7770
 4646SOL    HW225572   0.617   2.345  14.281  1.0102 -1.0688  0.7803
 4647SOL     OW25573   4.414   3.198   4.785  0.2697 -0.0790 -0.3809
 4647SOL    HW125574   4.357   3.163   4.717  1.8966 -1.7761 -0.8739
 4647SOL    HW225575   4.497   3.201   4.738  1.9035  0.5920  2.5207
 4648SOL     OW25576   3.330   1.357   3.266  0.7502  0.7450 -0.2436
 4648SOL    HW125577   3.301   1.366   3.176  1.5555 -2.2128 -0.7966
 4648SOL    HW225578   3.422   1.333   3.251 -0.0199 -1.9801 -0.5586
 4649SOL     OW25579   4.055   1.178  15.107 -0.1175 -0.3226 -0.1141
 4649SOL    HW125580   4.006   1.096  15.105  1.9516 -1.5670  0.2317
 4649SOL    HW225581   4.057   1.179  15.203  2.2192 -2.2136 -0.1345
 4650SOL     OW25582   1.645   3.789  12.109 -0.2449 -0.2056  0.3589
 4650SOL    HW125583   1.708   3.761  12.043  1.2325  1.4760  1.0834
 4650SOL    HW225584   1.587   3.846  12.059 -2.5715 -2.1841  0.7560
 4651SOL     OW25585   0.934   2.783   6.242 -0.3406  0.4950 -0.1428
 4651SOL    HW125586   0.946   2.725   6.167  0.0300  0.9008 -0.3935
 4651SOL    HW225587   1.022   2.794   6.278 -0.1909  1.7191 -0.8853
 4652SOL     OW25588   2.506   0.726   1.882 -0.2207  0.0560 -0.3721
 4652SOL    HW125589   2.517   0.655   1.945  0.1330 -1.2206 -1.8819
 4652SOL    HW225590   2.527   0.676   1.803 -0.5434  1.9984 -1.6744
 4653SOL     OW25591   2.593   4.547   6.844  0.5221 -0.4858  0.1072
 4653SOL    HW125592   2.675   4.500   6.829  1.3303  1.8770 -2.8457
 4653SOL    HW225593   2.604   4.632   6.802  0.7627  0.2567  1.6635
 4654SOL     OW25594   1.271   1.091   6.533 -0.4250 -0.1259  0.0700
 4654SOL    HW125595   1.233   1.014   6.574 -1.2933 -0.1469 -0.7529
 4654SOL    HW225596   1.228   1.155   6.590  0.9597 -0.2477  1.2380
 4655SOL     OW25597   2.914   1.304   2.813  0.6221 -0.1084  0.1176
 4655SOL    HW125598   2.974   1.372   2.782  0.3532  0.0956  0.0476
 4655SOL    HW225599   2.941   1.228   2.761  0.6388  0.7920 -1.1879
 4656SOL     OW25600   0.496   1.828   4.867 -0.4649 -0.0713  0.0313
 4656SOL    HW125601   0.489   1.914   4.826  1.9144  0.1408  0.0693
 4656SOL    HW225602   0.548   1.783   4.801  3.2641  2.5155  1.2422
 4657SOL     OW25603   3.685   3.995  16.594 -0.0018 -0.1983 -0.1725
 4657SOL    HW125604   3.718   3.962  16.678  1.7954  1.0673 -0.4035
 4657SOL    HW225605   3.671   4.087  16.617 -2.1206 -0.1874 -1.4717
 4658SOL     OW25606   1.495   0.384  16.799 -0.4156  0.0484  0.2702
 4658SOL    HW125607   1.445   0.418  16.724  1.0584  0.6966 -0.4328
 4658SOL    HW225608   1.461   0.294  16.802 -0.0728 -0.0956 -0.2033
 4659SOL     OW25609   0.816   1.463   7.052 -0.3247  0.3094  0.1746
 4659SOL    HW125610   0.740   1.510   7.018  0.3377 -0.7316 -2.7435
 4659SOL    HW225611   0.775   1.377   7.066 -0.4426  0.8222  2.9631
 4660SOL     OW25612   4.511   2.170   4.694 -0.3807 -0.1042 -0.7011
 4660SOL    HW125613   4.507   2.196   4.787  1.6929  0.8895 -0.8979
 4660SOL    HW225614   4.477   2.252   4.659  0.7228  0.4573 -0.4628
 4661SOL     OW25615   3.798   2.777  17.001 -0.3858  0.6880 -0.4250
 4661SOL    HW125616   3.757   2.696  16.971 -1.1270  1.0995 -0.5326
 4661SOL    HW225617   3.815   2.817  16.916 -2.5451  1.1560 -0.6472
 4662SOL     OW25618   3.754   4.687   5.309 -0.1427 -0.3219 -0.2590
 4662SOL    HW125619   3.742   0.014   5.239 -1.2818  1.5009  1.6254
 4662SOL    HW225620   3.690   4.719   5.372 -1.2270 -0.4945 -1.2815
 4663SOL     OW25621   4.345   4.076  17.102  0.0257 -0.1923  0.1278
 4663SOL    HW125622   4.305   4.027  17.174 -0.7667  0.7574  0.3353
 4663SOL    HW225623   4.279   4.064  17.033 -0.1452 -0.1279  0.2822
 4664SOL     OW25624   1.582   1.050   6.731 -0.0953 -0.0926  0.2023
 4664SOL    HW125625   1.624   0.976   6.776  0.3937  0.2782  0.3580
 4664SOL    HW225626   1.515   1.074   6.795  0.5226 -0.6031  1.0427
 4665SOL     OW25627   3.339   4.347  11.675  0.3492  0.4785 -0.2484
 4665SOL    HW125628   3.381   4.266  11.647 -2.8517 -0.7829 -1.4379
 4665SOL    HW225629   3.395   4.421  11.652  1.2342  0.0336  0.4776
 4666SOL     OW25630   3.747   3.523   8.407 -0.4708  0.1300  0.1238
 4666SOL    HW125631   3.695   3.472   8.470 -0.4424  1.1854  0.9946
 4666SOL    HW225632   3.754   3.605   8.456  1.6155  0.0635 -0.0317
 4667SOL     OW25633   4.259   3.118   5.501 -0.0366 -0.0550 -0.3899
 4667SOL    HW125634   4.345   3.120   5.543 -0.1522 -1.5683 -0.0823
 4667SOL    HW225635   4.276   3.191   5.441 -0.0888  0.6389  0.4422
 4668SOL     OW25636   1.707   0.447  15.922  0.4809  0.1618 -0.2640
 4668SOL    HW125637   1.693   0.413  15.833 -1.5954 -1.4591  0.6912
 4668SOL    HW225638   1.640   0.513  15.939  1.5515  0.0883  4.2020
 4669SOL     OW25639   0.312   2.449   5.360 -0.1166  0.0172  0.2367
 4669SOL    HW125640   0.380   2.383   5.349 -0.1741  0.0720 -0.4741
 4669SOL    HW225641   0.358   2.521   5.318  1.2779 -2.0120 -1.6791
 4670SOL     OW25642   4.117   0.590   9.138  0.1255  0.1334  0.2453
 4670SOL    HW125643   4.162   0.572   9.055  3.0113  1.1212  1.6191
 4670SOL    HW225644   4.089   0.498   9.144 -1.9641  0.9096  2.1151
 4671SOL     OW25645   1.651   2.447   5.844  0.2266 -0.1819 -0.1545
 4671SOL    HW125646   1.560   2.450   5.872  0.4883 -0.9211  0.7592
 4671SOL    HW225647   1.682   2.392   5.915  0.0868 -0.5799 -0.4064
 4672SOL     OW25648   0.124   2.278   9.507 -0.1273 -0.0914  0.5680
 4672SOL    HW125649   0.092   2.191   9.484  0.2228 -0.0667  0.0024
 4672SOL    HW225650   0.127   2.326   9.424  0.7482 -0.2723  0.4918
 4673SOL     OW25651   4.501   3.917   5.530  0.3937  0.6196  0.2780
 4673SOL    HW125652   4.442   3.969   5.586 -0.4400 -1.1273  1.0074
 4673SOL    HW225653   4.478   3.939   5.440  0.5458 -0.1581  0.0501
 4674SOL     OW25654   2.857   4.259   0.421 -0.4744  0.2793 -0.2056
 4674SOL    HW125655   2.888   4.250   0.511 -0.9683 -1.5987 -0.2195
 4674SOL    HW225656   2.843   4.353   0.418 -2.5985 -0.1035 -1.6191
 4675SOL     OW25657   3.909   2.903   4.432 -0.1942 -0.0459  0.3908
 4675SOL    HW125658   3.886   2.810   4.434  0.9971 -0.3402  0.4838
 4675SOL    HW225659   3.860   2.933   4.355 -2.5517  0.5924  2.1522
 4676SOL     OW25660   2.130   2.289   3.269  0.4656  0.1982 -0.1370
 4676SOL    HW125661   2.182   2.274   3.190 -0.0897 -0.2713 -0.4156
 4676SOL    HW225662   2.154   2.218   3.329  0.2347 -0.1999 -0.5106
 4677SOL     OW25663   0.921   3.584   9.883 -0.2257  0.2011 -0.0781
 4677SOL    HW125664   0.919   3.504   9.830 -0.9473  0.1588  0.0096
 4677SOL    HW225665   1.003   3.626   9.857 -0.6797  1.5002  0.6143
 4678SOL     OW25666   0.105   4.042   7.913 -0.2008 -0.1556  0.1421
 4678SOL    HW125667   0.146   3.960   7.885 -0.0398 -0.3256  0.8722
 4678SOL    HW225668   0.011   4.026   7.904 -0.5317  1.6767  0.4889
 4679SOL     OW25669   2.486   3.266   3.568 -0.3072  0.4025 -0.0537
 4679SOL    HW125670   2.538   3.186   3.570 -0.0954  0.5423  0.0204
 4679SOL    HW225671   2.557   3.330   3.567  2.2574 -2.4331 -1.8891
 4680SOL     OW25672   4.540   3.008  12.690 -0.4645 -0.4076 -0.0007
 4680SOL    HW125673   4.593   3.086  12.708  1.7843 -1.8102 -0.4987
 4680SOL    HW225674   4.467   3.017  12.751 -0.4339  0.0654 -0.0333
 4681SOL     OW25675   0.021   4.098   5.845  0.3634  0.4237 -0.2362
 4681SOL    HW125676   4.734   4.182   5.805  0.2897  1.0077  1.0300
 4681SOL    HW225677   0.034   4.117   5.938 -0.2968  2.4041 -0.5574
 4682SOL     OW25678   1.525   1.887  11.612 -1.3689 -0.4050 -0.7714
 4682SOL    HW125679   1.583   1.816  11.640  1.9520  1.8500 -1.8894
 4682SOL    HW225680   1.487   1.897  11.699 -0.1157  0.5909 -0.3286
 4683SOL     OW25681   1.016   0.570  10.455 -0.2514  0.7408 -0.4044
 4683SOL    HW125682   1.041   0.509  10.524  1.0814  1.4153 -0.2787
 4683SOL    HW225683   1.069   0.648  10.475  1.3376 -0.5330  0.3977
 4684SOL     OW25684   1.455   0.690   5.231  0.5811  0.0698 -0.6535
 4684SOL    HW125685   1.537   0.738   5.222 -0.1463  1.1588 -1.4569
 4684SOL    HW225686   1.448   0.662   5.140 -1.3316 -0.4335 -0.3687
 4685SOL     OW25687   0.210   2.606  11.780  0.1856 -0.1338 -0.1479
 4685SOL    HW125688   0.250   2.645  11.858  2.0223 -0.1055 -1.1084
 4685SOL    HW225689   0.124   2.647  11.787 -0.6810 -2.0931  0.7828
 4686SOL     OW25690   3.472   3.601  11.997 -0.0051  0.7196  0.1322
 4686SOL    HW125691   3.473   3.696  12.006  0.8971  0.9406 -2.0986
 4686SOL    HW225692   3.533   3.594  11.923  0.2236 -0.1809  0.4056
 4687SOL     OW25693   1.260   2.233   5.065  0.3239  0.6338 -0.1358
 4687SOL    HW125694   1.338   2.268   5.108  0.2714  1.2328 -0.5283
 4687SOL    HW225695   1.267   2.272   4.978 -0.4095  0.6716 -0.1821
 4688SOL     OW25696   3.012   1.158  12.184 -0.6552  0.1426 -0.1390
 4688SOL    HW125697   2.935   1.162  12.241 -0.2214  0.0748  0.4515
 4688SOL    HW225698   3.052   1.245  12.178  0.0066 -0.0138  1.8745
 4689SOL     OW25699   2.099   1.887   4.181  0.0339  0.2331 -0.2119
 4689SOL    HW125700   2.131   1.965   4.225  1.6457 -1.5348  1.7182
 4689SOL    HW225701   2.114   1.896   4.086  2.1119  1.6457  0.2445
 4690SOL     OW25702   4.059   4.142   9.879  0.2987 -0.0368 -0.1470
 4690SOL    HW125703   4.017   4.227   9.896 -0.7722 -0.6731  0.4110
 4690SOL    HW225704   3.984   4.085   9.865  0.1439 -0.3497  1.8720
 4691SOL     OW25705   1.576   4.084  10.434 -0.1465  0.0485  0.4726
 4691SOL    HW125706   1.511   4.041  10.379 -1.0356  0.2531  1.3581
 4691SOL    HW225707   1.632   4.010  10.462  1.4316  0.8511 -0.5622
 4692SOL     OW25708   2.681   3.103  17.553  0.3028 -0.1621 -0.0679
 4692SOL    HW125709   2.765   3.075  17.516  1.5913 -1.7119  3.9852
 4692SOL    HW225710   2.613   3.075  17.492  0.9301 -2.1071  0.1253
 4693SOL     OW25711   3.457   0.227   6.478 -0.2152 -0.3423  0.1384
 4693SOL    HW125712   3.461   0.175   6.397  0.8605  1.0572 -0.7292
 4693SOL    HW225713   3.533   0.203   6.531  0.1188  1.2565  0.3915
 4694SOL     OW25714   1.202   2.969   5.123  0.1746  0.2941  0.4734
 4694SOL    HW125715   1.202   2.891   5.068  1.7765  0.7421 -0.1556
 4694SOL    HW225716   1.258   2.944   5.197 -1.5444 -3.8720  0.3895
 4695SOL     OW25717   2.593   2.360   2.538 -0.1020 -0.3554  0.0828
 4695SOL    HW125718   2.571   2.334   2.628 -0.3713  0.3734  0.2295
 4695SOL    HW225719   2.620   2.273   2.509 -1.7953 -0.7497 -0.3156
 4696SOL     OW25720   0.907   1.972   5.265 -0.1244  0.4070  0.3007
 4696SOL    HW125721   0.812   1.964   5.257 -0.1931 -0.2759  1.8529
 4696SOL    HW225722   0.924   1.999   5.355 -3.1951  1.9576  0.3901
 4697SOL     OW25723   0.660   4.473  10.786 -0.4217 -0.5037  0.0001
 4697SOL    HW125724   0.578   4.439  10.821  0.1250 -1.1476  0.6525
 4697SOL    HW225725   0.653   4.455  10.692 -0.2555 -1.9987  0.2752
 4698SOL     OW25726   1.146   0.436   3.373  0.4196  0.2302 -0.1817
 4698SOL    HW125727   1.203   0.431   3.296  0.7800 -1.7495  0.2071
 4698SOL    HW225728   1.112   0.347   3.387 -0.0761  0.3929 -0.3481
 4699SOL     OW25729   2.581   4.625   7.545  0.1985 -0.0301 -0.2582
 4699SOL    HW125730   2.564   4.645   7.453  0.8677 -0.3307 -0.4476
 4699SOL    HW225731   2.654   4.685   7.562 -0.6815  1.1676 -0.7060
 4700SOL     OW25732   2.802   0.650   8.057  0.1022 -0.3285 -0.3995
 4700SOL    HW125733   2.890   0.656   8.093 -0.1793 -1.3337  0.4607
 4700SOL    HW225734   2.770   0.740   8.065  2.5949  0.3814  1.4854
 4701SOL     OW25735   2.278   1.757  15.207  0.0978  0.3056  0.1549
 4701SOL    HW125736   2.239   1.669  15.213  0.2304  0.2390  0.0438
 4701SOL    HW225737   2.329   1.749  15.288 -0.9514  1.9300  0.9680
 4702SOL     OW25738   4.177   0.874  10.504  0.2246  0.1260 -0.5156
 4702SOL    HW125739   4.262   0.831  10.507 -2.0796 -4.3582  0.3146
 4702SOL    HW225740   4.199   0.958  10.545  0.2411 -0.1235 -0.0194
 4703SOL     OW25741   2.350   1.353   8.240  0.1233  0.3962  0.1561
 4703SOL    HW125742   2.406   1.349   8.318  2.8880  3.3936 -1.6654
 4703SOL    HW225743   2.338   1.448   8.232  0.8703  0.4826  0.0103
 4704SOL     OW25744   1.060   0.248  13.320  0.1873  0.0288  0.2595
 4704SOL    HW125745   1.151   0.277  13.326 -0.3051  1.7389 -0.3732
 4704SOL    HW225746   1.023   0.325  13.277 -1.1225  0.3522  1.9890
 4705SOL     OW25747   0.823   3.954   3.504 -0.1222  0.0469 -0.3125
 4705SOL    HW125748   0.839   3.909   3.588 -1.6109 -2.8790 -1.6182
 4705SOL    HW225749   0.912   3.962   3.469  0.5929  1.9988  1.9335
 4706SOL     OW25750   3.597   2.716  13.491  0.1820 -0.1389 -0.2529
 4706SOL    HW125751   3.645   2.633  13.493 -0.7309 -0.6902 -1.5486
 4706SOL    HW225752   3.566   2.715  13.401  0.8199  0.9771 -0.4861
 4707SOL     OW25753   0.445   3.343   8.031 -0.3630  0.5892 -0.2810
 4707SOL    HW125754   0.524   3.353   8.084 -0.3344 -1.7963  0.1005
 4707SOL    HW225755   0.381   3.384   8.090 -0.8415  0.1909 -0.5283
 4708SOL     OW25756   0.419   4.586  13.866  0.2923  0.3597  0.0693
 4708SOL    HW125757   0.414   4.524  13.939 -0.5695  0.4762  0.1052
 4708SOL    HW225758   0.419   4.535  13.785  0.9960  2.4331 -1.2240
 4709SOL     OW25759   3.336   4.321   5.445 -0.7116  0.5435  0.0514
 4709SOL    HW125760   3.321   4.389   5.511  0.5069 -0.6585  1.5695
 4709SOL    HW225761   3.430   4.306   5.450 -1.1154 -2.5223 -1.6665
 4710SOL     OW25762   3.966   3.771   4.135 -0.4641  0.2073 -0.1970
 4710SOL    HW125763   3.964   3.835   4.064 -2.6424  0.4790  0.1003
 4710SOL    HW225764   3.905   3.813   4.197 -0.3069  1.4098 -0.8685
 4711SOL     OW25765   0.212   0.201   6.460  0.4013  0.0088  0.0277
 4711SOL    HW125766   0.178   0.122   6.418 -0.7973 -0.1124  1.2108
 4711SOL    HW225767   0.278   0.166   6.520  1.8993 -0.3706 -1.8415
 4712SOL     OW25768   0.619   1.833   3.480  0.1519 -0.7677 -0.0092
 4712SOL    HW125769   0.578   1.869   3.559 -0.7846  1.2208 -1.4010
 4712SOL    HW225770   0.553   1.765   3.465  0.9134 -1.5753  0.2904
 4713SOL     OW25771   2.160   1.716  11.787  0.1005 -0.0398  0.1932
 4713SOL    HW125772   2.149   1.783  11.720  0.7867 -1.2449 -1.1225
 4713SOL    HW225773   2.075   1.734  11.827  0.9489  3.3564  0.4685
 4714SOL     OW25774   1.676   3.240   2.232 -0.2311  0.0758 -0.0333
 4714SOL    HW125775   1.754   3.205   2.274  0.1004  0.4800 -0.3050
 4714SOL    HW225776   1.706   3.270   2.146 -1.6185 -1.3120 -0.9979
 4715SOL     OW25777   0.136   3.403  16.504  0.2970  0.2430  0.1505
 4715SOL    HW125778   0.152   3.430  16.413  1.1253 -1.3226 -0.1805
 4715SOL    HW225779   0.041   3.406  16.508  0.2832 -0.0097  0.0604
 4716SOL     OW25780   0.936   0.624   4.449 -0.4654  0.0008  0.0878
 4716SOL    HW125781   1.001   0.569   4.491 -0.2661 -0.0817 -0.3284
 4716SOL    HW225782   0.927   0.576   4.367 -0.4342  0.0517  0.0543
 4717SOL     OW25783   3.640   4.555  13.170  0.1578 -0.0377  0.1246
 4717SOL    HW125784   3.590   4.540  13.250  0.8938  1.6513  0.9030
 4717SOL    HW225785   3.567   4.566  13.109 -0.1535 -2.0510  0.1513
 4718SOL     OW25786   0.357   3.211   7.348 -0.0627 -0.4588  0.2202
 4718SOL    HW125787   0.428   3.189   7.408  1.4875 -1.5411 -2.0466
 4718SOL    HW225788   0.308   3.273   7.403  0.1578 -1.8467  1.9857
 4719SOL     OW25789   1.374   3.681   7.856  0.3071  0.0984 -0.4314
 4719SOL    HW125790   1.297   3.638   7.818  1.0402 -1.5473 -0.0750
 4719SOL    HW225791   1.452   3.628   7.835  1.1969  1.8423 -1.4786
 4720SOL     OW25792   2.855   2.376   3.872  0.5405  0.0136 -0.3058
 4720SOL    HW125793   2.900   2.430   3.807 -0.0988  0.2673 -0.5390
 4720SOL    HW225794   2.911   2.299   3.875  1.0075  0.4319  1.7186
 4721SOL     OW25795   0.575   4.318   6.813  0.4827  0.1103  0.2793
 4721SOL    HW125796   0.548   4.340   6.902 -0.7674 -0.0498 -0.0452
 4721SOL    HW225797   0.519   4.241   6.801 -0.2076  0.4057  1.6278
 4722SOL     OW25798   3.354   0.961   1.103  0.4038  0.1734 -0.2369
 4722SOL    HW125799   3.379   1.022   1.172 -2.3614  0.6503  0.3357
 4722SOL    HW225800   3.345   1.019   1.028 -2.1434 -0.2587 -0.2594
 4723SOL     OW25801   0.897   3.257   8.895 -0.0509 -0.7734  0.1545
 4723SOL    HW125802   0.917   3.170   8.929  1.0166 -0.8953 -0.7700
 4723SOL    HW225803   0.982   3.301   8.904  0.0115 -0.9872  0.6252
 4724SOL     OW25804   2.678   3.659   4.210  0.2066  0.4857  0.1381
 4724SOL    HW125805   2.635   3.744   4.208  0.1119  0.5139  3.0618
 4724SOL    HW225806   2.691   3.646   4.116  1.2958  1.1732  0.2030
 4725SOL     OW25807   0.641   3.318   7.353  0.1335  0.1766  0.5654
 4725SOL    HW125808   0.644   3.257   7.427  1.4264  1.2245  1.3575
 4725SOL    HW225809   0.668   3.256   7.285  0.8382 -0.2790  1.2506
 4726SOL     OW25810   4.039   1.810   5.316  0.2885  0.3685 -0.0862
 4726SOL    HW125811   4.039   1.717   5.291  0.1651  0.4222 -0.2916
 4726SOL    HW225812   3.949   1.815   5.348  0.6896 -1.0024  1.2564
 4727SOL     OW25813   3.476   3.571  14.185  0.1854  0.1613 -0.0632
 4727SOL    HW125814   3.417   3.591  14.112 -0.1655 -1.5164 -0.2522
 4727SOL    HW225815   3.566   3.579  14.153  0.1933  0.5728  0.0747
 4728SOL     OW25816   3.257   0.721   1.155  0.0727  0.3390 -0.0646
 4728SOL    HW125817   3.301   0.805   1.143  0.1782  0.5768  1.9912
 4728SOL    HW225818   3.183   0.729   1.095 -1.3004 -0.4459  1.5063
 4729SOL     OW25819   2.190   3.294   8.994 -0.1209  0.3343 -0.0626
 4729SOL    HW125820   2.184   3.256   9.082  2.7119  0.0245 -0.0255
 4729SOL    HW225821   2.127   3.367   8.992 -1.2235 -0.5570  2.0582
 4730SOL     OW25822   3.235   4.622   7.754 -0.3343  0.1355 -0.7110
 4730SOL    HW125823   3.301   4.673   7.801 -0.3323 -0.0862 -0.4710
 4730SOL    HW225824   3.190   4.690   7.704 -0.2147  0.0899 -0.8815
 4731SOL     OW25825   0.257   2.160   6.564 -0.5488 -0.3451 -0.3327
 4731SOL    HW125826   0.220   2.220   6.500  2.1441  1.4695 -0.1788
 4731SOL    HW225827   0.183   2.103   6.584 -0.2960 -1.3865 -2.3616
 4732SOL     OW25828   1.394   3.636   8.517 -0.2544  0.4150 -0.0342
 4732SOL    HW125829   1.463   3.682   8.565 -1.6849  1.9448  0.5090
 4732SOL    HW225830   1.440   3.622   8.434  1.1657 -1.1482  1.0136
 4733SOL     OW25831   0.748   4.018   0.607  0.5109  0.3687  0.2237
 4733SOL    HW125832   0.806   3.958   0.654 -2.2244 -1.6669  0.9733
 4733SOL    HW225833   0.760   4.095   0.662  0.0998  1.9350 -1.8470
 4734SOL     OW25834   0.542   1.377  12.839 -0.3968 -0.0718  0.7850
 4734SOL    HW125835   0.576   1.466  12.833  0.7058 -0.5474 -0.1778
 4734SOL    HW225836   0.620   1.321  12.845 -1.1611 -1.3556 -1.2148
 4735SOL     OW25837   4.069   3.387  10.751 -0.0110 -0.1798 -0.1559
 4735SOL    HW125838   3.981   3.390  10.787 -0.4268  0.8534 -1.2643
 4735SOL    HW225839   4.062   3.464  10.695  0.5262 -1.2891 -1.7679
 4736SOL     OW25840   1.948   0.204   1.386 -0.0872  0.1991 -0.2412
 4736SOL    HW125841   2.011   0.132   1.392  1.1248  1.2815  0.0435
 4736SOL    HW225842   2.001   0.268   1.434 -0.2762 -0.8907  1.4148
 4737SOL     OW25843   1.441   0.328   4.421 -0.6424 -0.3690  0.9717
 4737SOL    HW125844   1.445   0.272   4.498  0.3034  2.0588  2.6931
 4737SOL    HW225845   1.363   0.289   4.382 -0.1236  0.6701 -1.1222
 4738SOL     OW25846   4.324   0.444   7.087  0.4389  0.1793  0.0458
 4738SOL    HW125847   4.267   0.368   7.078 -0.4043  0.7424  0.6087
 4738SOL    HW225848   4.391   0.420   7.023  0.8311  0.5420  0.3177
 4739SOL     OW25849   3.886   3.600  11.469 -0.5798  0.3348  0.1745
 4739SOL    HW125850   3.974   3.631  11.492 -0.4580  0.4941 -0.4893
 4739SOL    HW225851   3.901   3.540  11.396 -0.1205  0.2003  0.3741
 4740SOL     OW25852   2.084   3.834   5.207  0.2135  0.2458 -0.1582
 4740SOL    HW125853   2.037   3.865   5.130 -0.7694 -0.4472  0.1708
 4740SOL    HW225854   2.102   3.748   5.169  0.5625  1.3935 -2.5851
 4741SOL     OW25855   4.281   4.433   4.709  0.6649  0.0525  0.7778
 4741SOL    HW125856   4.367   4.444   4.670 -0.0620 -1.1189 -1.1640
 4741SOL    HW225857   4.277   4.523   4.742  1.7567  1.0641 -1.9032
 4742SOL     OW25858   2.078   3.642   1.330 -0.6545 -0.3494 -0.4983
 4742SOL    HW125859   2.145   3.708   1.346 -2.7110  1.1175  1.9499
 4742SOL    HW225860   2.108   3.627   1.240 -1.3093 -2.2014 -0.3974
 4743SOL     OW25861   3.834   2.677   5.230  0.3934 -0.3074 -0.3013
 4743SOL    HW125862   3.774   2.700   5.300  0.8227  0.7861 -0.2921
 4743SOL    HW225863   3.918   2.705   5.267  0.4253 -0.9167  0.0926
 4744SOL     OW25864   2.299   0.714   3.292 -0.2702  0.0864 -0.4429
 4744SOL    HW125865   2.381   0.682   3.331 -0.9211  0.3656  1.1487
 4744SOL    HW225866   2.238   0.699   3.364  1.1558  0.6355  0.8864
 4745SOL     OW25867   2.466   3.048   8.443  0.2517 -0.3690 -0.3720
 4745SOL    HW125868   2.465   2.965   8.396  2.6079 -1.1120  0.8980
 4745SOL    HW225869   2.442   3.102   8.368  1.6194 -1.2453 -1.4427
 4746SOL     OW25870   0.810   2.415   6.212 -0.2505  0.0378 -0.0241
 4746SOL    HW125871   0.872   2.403   6.284 -0.6857 -1.0648  0.1718
 4746SOL    HW225872   0.874   2.449   6.150  0.9079 -0.3977  0.9143
 4747SOL     OW25873   4.339   2.181   5.687 -0.5148 -0.3154  0.0885
 4747SOL    HW125874   4.378   2.104   5.645 -0.4552  0.5598 -1.4474
 4747SOL    HW225875   4.421   2.228   5.702 -1.2353  0.6515  0.9896
 4748SOL     OW25876   3.194   1.385  12.155  0.9308 -0.5130  0.2233
 4748SOL    HW125877   3.184   1.396  12.060  2.7989  1.3029  0.2343
 4748SOL    HW225878   3.289   1.373  12.148  1.0886  0.5184  0.5869
 4749SOL     OW25879   3.989   4.263   9.571 -0.4931  0.0318 -0.4688
 4749SOL    HW125880   4.083   4.279   9.560 -0.1778 -1.0088  0.6858
 4749SOL    HW225881   3.950   4.271   9.484 -0.5172  0.9776 -0.3716
 4750SOL     OW25882   3.852   0.110   6.459 -0.2236  0.8821 -0.4156
 4750SOL    HW125883   3.873   0.179   6.521  1.6446 -0.9938  1.0519
 4750SOL    HW225884   3.878   0.156   6.379 -0.5484 -0.4877 -1.3078
 4751SOL     OW25885   0.520   0.834   4.949 -0.5124  0.3727 -0.3136
 4751SOL    HW125886   0.499   0.783   5.028  2.7243  0.5351  0.6273
 4751SOL    HW225887   0.587   0.894   4.982 -0.1043 -0.7752  0.9633
 4752SOL     OW25888   4.511   1.656   3.844 -0.6913 -0.8536 -0.4974
 4752SOL    HW125889   4.428   1.678   3.887 -0.9116 -1.0697 -0.8060
 4752SOL    HW225890   4.570   1.699   3.905 -1.6970  0.0598 -0.1555
 4753SOL     OW25891   0.080   2.578  14.133 -0.6943  0.3941 -0.0943
 4753SOL    HW125892   0.056   2.522  14.206 -1.4045 -1.6983 -1.9536
 4753SOL    HW225893   0.175   2.588  14.144 -0.7311 -2.2440  2.5224
 4754SOL     OW25894   0.840   3.620   5.744 -0.2517  0.2758  0.4632
 4754SOL    HW125895   0.909   3.590   5.804 -2.6490 -2.0501  2.0879
 4754SOL    HW225896   0.859   3.564   5.669  0.6217  2.6609 -1.0865
 4755SOL     OW25897   0.261   0.385   0.946  0.0269  0.0527 -0.1297
 4755SOL    HW125898   0.309   0.376   1.028  1.0697  3.0886 -0.3855
 4755SOL    HW225899   0.308   0.457   0.904  0.5452 -0.2761 -0.1160
 4756SOL     OW25900   2.945   3.252   4.373 -0.0558  0.2578  0.1798
 4756SOL    HW125901   2.926   3.297   4.290 -1.4243  0.3460  0.5394
 4756SOL    HW225902   3.019   3.303   4.405 -0.5951  0.0885  1.6884
 4757SOL     OW25903   3.460   3.572   3.990 -0.5516 -0.1576 -0.0681
 4757SOL    HW125904   3.490   3.663   3.991 -0.3298 -0.2125 -1.6313
 4757SOL    HW225905   3.532   3.519   4.024  0.4243  2.0393  1.2778
 4758SOL     OW25906   3.449   0.704   5.462  0.0409 -0.5244 -0.1831
 4758SOL    HW125907   3.393   0.642   5.509  0.9116 -0.3618  1.0661
 4758SOL    HW225908   3.457   0.665   5.375 -2.6477  1.3348 -1.2450
 4759SOL     OW25909   1.359   0.359   3.030 -0.7046 -0.2336 -0.5414
 4759SOL    HW125910   1.357   0.428   3.096  3.7726 -0.2494 -0.4241
 4759SOL    HW225911   1.333   0.278   3.075  2.4602 -0.1567  1.3978
 4760SOL     OW25912   2.307   4.388   0.489 -0.6476 -0.0177  0.3556
 4760SOL    HW125913   2.385   4.434   0.523  0.6855 -1.3148 -0.9380
 4760SOL    HW225914   2.291   4.444   0.412  1.4073  0.6755  0.4141
 4761SOL     OW25915   0.227   2.988   7.265  0.2728 -0.7064 -0.1359
 4761SOL    HW125916   0.277   3.063   7.298  0.0821 -0.7401  0.2371
 4761SOL    HW225917   0.211   2.938   7.345  1.0065 -0.0029  0.4557
 4762SOL     OW25918   3.323   4.215   4.066 -0.1804 -0.3679 -0.6871
 4762SOL    HW125919   3.418   4.211   4.071 -0.2519 -1.7978 -0.3679
 4762SOL    HW225920   3.299   4.170   3.985 -0.4716 -1.3236 -0.0737
 4763SOL     OW25921   4.276   3.591  13.350 -0.3010 -0.1493 -0.1355
 4763SOL    HW125922   4.286   3.666  13.408 -0.4280 -0.4881  0.3273
 4763SOL    HW225923   4.187   3.566  13.375 -0.1652 -0.5389 -0.0387
 4764SOL     OW25924   2.216   1.579   7.816 -0.1683  0.3785  0.0181
 4764SOL    HW125925   2.212   1.675   7.822 -0.0399  0.4595 -1.1265
 4764SOL    HW225926   2.257   1.562   7.731  3.1027 -0.9030  1.8967
 4765SOL     OW25927   0.806   0.903   4.031 -0.1887 -0.6930 -0.0158
 4765SOL    HW125928   0.827   0.810   4.044 -1.3883 -0.6995  2.0819
 4765SOL    HW225929   0.738   0.896   3.964  0.0788 -2.3657 -0.1312
 4766SOL     OW25930   2.144   1.680   1.113 -0.2042 -0.1778  0.0645
 4766SOL    HW125931   2.238   1.689   1.129 -0.0208 -0.7408 -0.6673
 4766SOL    HW225932   2.134   1.759   1.059 -3.8861 -0.7618 -0.0553
 4767SOL     OW25933   0.044   3.538   8.619 -0.1255 -0.0433 -0.1827
 4767SOL    HW125934   0.139   3.551   8.622  0.0764 -1.6719  0.1111
 4767SOL    HW225935   0.007   3.627   8.626  0.0230 -0.0151  0.2689
 4768SOL     OW25936   1.982   3.812   8.807 -0.0716 -0.0476 -0.8713
 4768SOL    HW125937   1.973   3.760   8.888  1.8411 -0.5899 -1.0014
 4768SOL    HW225938   1.940   3.894   8.834 -0.9675 -0.8129  0.0999
 4769SOL     OW25939   1.281   2.592  15.414 -0.1159 -0.3208  0.8985
 4769SOL    HW125940   1.339   2.618  15.486 -2.2221  3.5945  1.1449
 4769SOL    HW225941   1.224   2.529  15.456 -0.4797  0.1912  1.1646
 4770SOL     OW25942   1.575   3.007  11.919 -0.1349 -0.5288  0.0003
 4770SOL    HW125943   1.525   2.929  11.897  1.1686 -1.3313 -0.1046
 4770SOL    HW225944   1.498   3.057  11.945  0.9698  0.2897  1.7283
 4771SOL     OW25945   1.854   2.945   3.622  0.1525 -0.1356 -0.9949
 4771SOL    HW125946   1.782   2.927   3.561  0.1752 -1.4783 -0.6214
 4771SOL    HW225947   1.820   2.992   3.698  1.8251  0.3223 -0.5474
 4772SOL     OW25948   0.719   4.573   8.780 -0.2071 -0.2149  0.2590
 4772SOL    HW125949   0.697   4.540   8.866 -1.2382  0.2117  0.1569
 4772SOL    HW225950   0.731   4.667   8.792 -3.0642  0.0582  0.9684
 4773SOL     OW25951   2.892   4.553   5.385 -0.3232  0.2317  0.7293
 4773SOL    HW125952   2.980   4.552   5.346  0.1923 -0.5571  1.9252
 4773SOL    HW225953   2.903   4.627   5.445  0.3434  0.4590  0.3326
 4774SOL     OW25954   1.585   2.918   1.507  0.4468 -0.4308 -0.4798
 4774SOL    HW125955   1.592   2.832   1.549 -3.7571 -0.8950 -0.7729
 4774SOL    HW225956   1.554   2.897   1.419 -4.5583 -2.6820  1.8403
 4775SOL     OW25957   2.846   0.975   2.541 -0.0171 -0.4278 -0.0004
 4775SOL    HW125958   2.795   0.954   2.462 -0.0838  0.9561 -0.3240
 4775SOL    HW225959   2.788   0.972   2.617 -0.7822 -1.1560 -0.6094
 4776SOL     OW25960   2.221   4.332   9.127  0.7979 -0.6912  0.4401
 4776SOL    HW125961   2.211   4.289   9.042 -1.6795 -0.9413  0.8429
 4776SOL    HW225962   2.244   4.257   9.182 -0.2704 -2.3837 -1.3902
 4777SOL     OW25963   1.722   2.395   9.766 -0.0368  0.3488  0.7130
 4777SOL    HW125964   1.801   2.446   9.749 -0.2658  0.3241 -0.4586
 4777SOL    HW225965   1.735   2.352   9.851 -0.3654 -1.1953 -0.0096
 4778SOL     OW25966   1.074   1.295   6.926 -0.5611  0.7130 -0.3527
 4778SOL    HW125967   1.010   1.228   6.951  1.1785 -0.8553 -0.1621
 4778SOL    HW225968   1.016   1.371   6.933  0.3933  1.3937  0.2144
 4779SOL     OW25969   3.424   4.228   2.888  0.1227 -0.0717 -0.0047
 4779SOL    HW125970   3.366   4.198   2.818  0.4135  0.1712 -0.3561
 4779SOL    HW225971   3.421   4.321   2.866  1.9695 -0.6923 -2.9782
 4780SOL     OW25972   4.166   1.885   4.616  0.4311 -0.2644  0.1251
 4780SOL    HW125973   4.104   1.891   4.688  0.5583 -2.2464  0.3766
 4780SOL    HW225974   4.188   1.792   4.617 -0.5234 -0.4979 -0.3822
 4781SOL     OW25975   4.283   1.159   6.518 -0.2056 -0.0050  0.5989
 4781SOL    HW125976   4.202   1.116   6.546 -0.6325  0.0184 -0.5856
 4781SOL    HW225977   4.302   1.209   6.597 -0.0975 -2.0849  1.8572
 4782SOL     OW25978   1.585   3.043   5.270 -0.1471  0.6919  0.3635
 4782SOL    HW125979   1.579   2.952   5.238  0.8766  0.9017 -0.4474
 4782SOL    HW225980   1.544   3.089   5.197 -2.6481 -0.3517  1.1364
 4783SOL     OW25981   3.323   3.339  11.926  0.0101  0.0415 -0.2913
 4783SOL    HW125982   3.252   3.368  11.868 -1.9116  0.1205  2.1216
 4783SOL    HW225983   3.385   3.411  11.911  1.4610 -1.5144 -1.7333
 4784SOL     OW25984   3.681   1.620   3.294  0.0642  0.5313  0.2342
 4784SOL    HW125985   3.743   1.623   3.221 -0.5835  0.4571 -0.3168
 4784SOL    HW225986   3.594   1.635   3.257  0.0944  0.3244  0.0830
 4785SOL     OW25987   1.064   4.581   8.464 -0.0702  0.6794  0.1734
 4785SOL    HW125988   1.079   4.671   8.433  4.5726 -0.5606 -1.2083
 4785SOL    HW225989   1.122   4.591   8.540  0.1668 -2.7392  0.4265
 4786SOL     OW25990   0.217   3.660  12.725 -0.2629 -0.7270 -0.2730
 4786SOL    HW125991   0.312   3.674  12.730 -0.8410  2.4316  1.6599
 4786SOL    HW225992   0.188   3.735  12.776  0.3852 -1.3760  1.0488
 4787SOL     OW25993   1.669   1.722  10.324 -0.1211 -0.0747  0.4703
 4787SOL    HW125994   1.730   1.673  10.269  0.3390  1.8499 -0.7209
 4787SOL    HW225995   1.725   1.795  10.351  0.0134 -0.0887  0.2302
 4788SOL     OW25996   0.840   2.301   2.557 -0.2102  0.2233 -0.2862
 4788SOL    HW125997   0.884   2.374   2.600  0.7230  0.0295 -0.9161
 4788SOL    HW225998   0.837   2.242   2.632  0.5969  1.5534  0.7891
 4789SOL     OW25999   1.624   2.598   8.941  0.1538 -0.4317  0.2337
 4789SOL    HW126000   1.642   2.691   8.957 -1.8471  0.3301 -1.8389
 4789SOL    HW226001   1.695   2.547   8.980 -1.4555 -1.9341  1.2372
 4790SOL     OW26002   0.624   1.289   2.805  0.5339 -0.1056 -0.1404
 4790SOL    HW126003   0.632   1.254   2.895  2.2726 -0.3076 -0.3673
 4790SOL    HW226004   0.612   1.383   2.815  1.8969  0.1800 -1.1471
 4791SOL     OW26005   0.811   0.253   6.130 -0.7620  0.1743  0.2080
 4791SOL    HW126006   0.813   0.172   6.181  2.4418 -0.6887 -1.2832
 4791SOL    HW226007   0.892   0.299   6.152 -2.3294  2.6964  0.7525
 4792SOL     OW26008   3.163   3.639  12.545  0.3699  0.3237 -0.2032
 4792SOL    HW126009   3.141   3.731  12.535  0.7310  0.4282 -0.0290
 4792SOL    HW226010   3.083   3.591  12.523 -0.0454  0.5190  0.9014
 4793SOL     OW26011   2.702   4.033   2.380 -0.2344  0.3672  0.8201
 4793SOL    HW126012   2.737   3.989   2.457 -0.8107  1.0419  1.4633
 4793SOL    HW226013   2.612   4.003   2.368  0.7447 -2.0366 -0.5529
 4794SOL     OW26014   0.336   1.921   7.562  0.0198 -0.2003  0.1560
 4794SOL    HW126015   0.420   1.899   7.603  0.7145 -0.0022 -1.1715
 4794SOL    HW226016   0.335   2.006   7.605 -0.3941 -0.7759  1.3081
 4795SOL     OW26017   1.460   0.640  17.070  0.4115 -0.3972  0.0951
 4795SOL    HW126018   1.471   0.732  17.092  0.2584 -0.5230  0.6951
 4795SOL    HW226019   1.385   0.614  17.124  0.0968  0.8083  0.2254
 4796SOL     OW26020   3.308   0.509   4.093 -0.1164  0.3780 -0.0253
 4796SOL    HW126021   3.239   0.505   4.159  0.4986  0.2163  0.6079
 4796SOL    HW226022   3.260   0.497   4.011 -1.0432  3.0397  0.1011
 4797SOL     OW26023   4.653   2.781   7.668 -0.2235 -0.2584  0.1583
 4797SOL    HW126024   4.582   2.718   7.653 -0.2274 -0.7735  2.4123
 4797SOL    HW226025   4.603   2.853   7.706 -1.7678 -0.7494 -0.9162
 4798SOL     OW26026   3.271   2.985   2.725  0.5806  0.4898  0.3780
 4798SOL    HW126027   3.261   2.889   2.729 -0.0598  0.4531 -1.8554
 4798SOL    HW226028   3.240   3.011   2.811  1.0333  1.8079  0.1380
 4799SOL     OW26029   1.047   1.434   6.174  0.0074 -0.1275  0.0130
 4799SOL    HW126030   1.053   1.495   6.100 -1.5274 -1.2762 -1.0752
 4799SOL    HW226031   1.134   1.446   6.212 -0.1968  2.2185 -0.2951
 4800SOL     OW26032   0.676   2.420   3.030  0.3719 -0.3259  0.5344
 4800SOL    HW126033   0.631   2.370   2.962  2.3034  0.2824 -1.2094
 4800SOL    HW226034   0.753   2.459   2.988 -0.1407  0.3354  0.1993
 4801SOL     OW26035   4.532   2.525  14.931 -0.2614  0.1641  0.2913
 4801SOL    HW126036   4.589   2.600  14.939 -0.4206 -0.0254  3.1681
 4801SOL    HW226037   4.524   2.488  15.019  2.1198 -0.6258  0.1808
 4802SOL     OW26038   1.224   3.397  13.776  0.3969  0.4706  0.1991
 4802SOL    HW126039   1.143   3.400  13.726  0.7502 -0.1653 -0.4074
 4802SOL    HW226040   1.259   3.484  13.755 -1.8930  1.0219 -1.3644
 4803SOL     OW26041   2.689   3.780  13.403  0.1059 -0.0735 -0.0826
 4803SOL    HW126042   2.752   3.798  13.472 -0.2773  0.6329  0.0794
 4803SOL    HW226043   2.610   3.811  13.447 -1.1858  0.5553 -2.8267
 4804SOL     OW26044   0.912   3.723   6.578 -0.4318  0.3924 -0.3946
 4804SOL    HW126045   0.954   3.802   6.544  1.5882 -0.5047  0.0531
 4804SOL    HW226046   0.842   3.726   6.513 -0.9592  0.3645  0.1655
 4805SOL     OW26047   2.263   2.305   4.075  0.3592  0.1669  0.4358
 4805SOL    HW126048   2.190   2.283   4.132  1.0816  0.2726  1.4114
 4805SOL    HW226049   2.247   2.395   4.049  1.6484  0.2881  0.0449
 4806SOL     OW26050   2.082   0.229   7.104 -0.1954 -0.1355  0.0489
 4806SOL    HW126051   2.162   0.237   7.155 -1.2889 -0.5731  1.8322
 4806SOL    HW226052   2.103   0.149   7.057  1.6107 -0.8077  1.9970
 4807SOL     OW26053   3.197   1.628  17.054  0.4471  0.0645 -0.2347
 4807SOL    HW126054   3.144   1.615  17.133 -0.7811 -0.9985 -1.2369
 4807SOL    HW226055   3.212   1.537  17.028  0.0123  0.5187 -2.0785
 4808SOL     OW26056   3.748   0.149   7.376 -0.4819 -0.1119 -0.2334
 4808SOL    HW126057   3.723   0.085   7.443  0.1618 -0.2089 -0.0815
 4808SOL    HW226058   3.842   0.128   7.373 -0.9646 -1.8659 -2.2652
 4809SOL     OW26059   4.242   2.208  11.653 -0.0441  0.5836 -0.3189
 4809SOL    HW126060   4.202   2.188  11.569 -1.9289 -1.6801  1.1095
 4809SOL    HW226061   4.309   2.269  11.623  1.0980  1.1333  3.3038
 4810SOL     OW26062   3.939   2.331   7.022  0.1487 -0.0738 -0.2400
 4810SOL    HW126063   3.998   2.403   7.000 -1.0096  1.3810  1.4275
 4810SOL    HW226064   3.867   2.381   7.062  0.6095 -0.3935  0.9768
 4811SOL     OW26065   0.136   4.442  10.394  0.1118 -0.2011 -0.6463
 4811SOL    HW126066   0.127   4.376  10.463  0.5658  0.8524  0.4244
 4811SOL    HW226067   0.139   4.388  10.315 -1.6256 -0.1518 -0.7423
 4812SOL     OW26068   2.151   0.014  13.958  0.3110 -0.1359  0.4041
 4812SOL    HW126069   2.122   0.036  14.047 -0.3340 -3.6172  1.0541
 4812SOL    HW226070   2.137   4.657  13.955 -0.2499 -0.0528  0.3947
 4813SOL     OW26071   0.224   2.356  17.315  0.2750  0.1959  0.3748
 4813SOL    HW126072   0.239   2.349  17.221 -1.0569 -0.7023  0.2212
 4813SOL    HW226073   0.280   2.284  17.345 -1.0169 -0.2592  1.6999
 4814SOL     OW26074   4.491   4.149   8.818  0.1379 -0.1194 -0.2639
 4814SOL    HW126075   4.423   4.199   8.862  0.2139  0.6004 -0.9582
 4814SOL    HW226076   4.437   4.088   8.768  0.7900  0.7414 -2.0213
 4815SOL     OW26077   0.187   0.202   5.456 -0.3350  0.1725 -0.2863
 4815SOL    HW126078   0.265   0.254   5.476  2.4420 -3.3866 -1.8319
 4815SOL    HW226079   0.198   0.116   5.497 -1.8734 -0.5621 -1.4315
 4816SOL     OW26080   4.391   4.460   9.726 -0.1230 -0.0576  0.4001
 4816SOL    HW126081   4.383   4.504   9.642  1.6278 -0.7063 -0.1134
 4816SOL    HW226082   4.376   4.533   9.786  0.2349 -0.2090  0.6751
 4817SOL     OW26083   3.141   1.287   1.237 -0.1122  0.2749  1.0619
 4817SOL    HW126084   3.224   1.240   1.239 -0.5962 -0.5576  2.2110
 4817SOL    HW226085   3.163   1.375   1.270 -1.8350  0.7037  1.0542
 4818SOL     OW26086   2.360   2.010   5.047 -0.0919 -0.3501  0.1285
 4818SOL    HW126087   2.380   2.090   4.999 -2.4967 -0.2298 -0.7074
 4818SOL    HW226088   2.277   2.035   5.088 -0.3680 -1.4158  0.2184
 4819SOL     OW26089   2.086   4.730   2.065 -0.6436 -0.2156  0.0811
 4819SOL    HW126090   2.169   0.031   2.093 -0.8895  1.6341 -1.7283
 4819SOL    HW226091   2.067   0.048   1.990 -1.4023  0.0045  0.4360
 4820SOL     OW26092   2.756   3.009   7.849 -0.5633 -0.3499 -0.1483
 4820SOL    HW126093   2.762   2.921   7.814  0.4526 -0.1799 -0.4099
 4820SOL    HW226094   2.661   3.017   7.846 -0.6962 -1.9778 -0.2463
 4821SOL     OW26095   1.433   1.978  12.700  0.4833  0.1185 -0.0291
 4821SOL    HW126096   1.500   1.991  12.767  0.0449 -0.0830  0.4420
 4821SOL    HW226097   1.480   1.940  12.626  0.1873 -1.0079  0.3581
 4822SOL     OW26098   0.349   0.294   2.750  0.5523 -0.1132  0.8303
 4822SOL    HW126099   0.279   0.351   2.780  0.3370  0.6468 -1.1610
 4822SOL    HW226100   0.371   0.334   2.666 -0.2936 -1.7078 -0.1669
 4823SOL     OW26101   2.536   1.578   2.793  0.8503 -0.4961 -0.2136
 4823SOL    HW126102   2.453   1.554   2.754  0.1805  3.0651 -1.0112
 4823SOL    HW226103   2.555   1.511   2.859 -0.8551 -0.0651  0.7110
 4824SOL     OW26104   4.479   1.765   3.150 -0.0356 -0.3944 -0.1569
 4824SOL    HW126105   4.518   1.814   3.077  1.4374 -0.2621  0.7315
 4824SOL    HW226106   4.530   1.685   3.147 -0.0904 -0.5376  2.9670
 4825SOL     OW26107   0.812   1.464   5.942 -0.0409  0.0069  0.0693
 4825SOL    HW126108   0.806   1.552   5.981 -0.6566 -0.0013 -0.0048
 4825SOL    HW226109   0.902   1.475   5.911 -1.0605 -0.5717 -3.1101
 4826SOL     OW26110   1.853   0.795  16.116  0.3651  0.1389  0.1581
 4826SOL    HW126111   1.824   0.719  16.165  3.4963 -2.0848 -1.3919
 4826SOL    HW226112   1.940   0.814  16.152 -0.3124  0.1603  1.7652
 4827SOL     OW26113   0.679   4.509   4.985  0.2818  0.3281  0.1214
 4827SOL    HW126114   0.743   4.574   5.014  1.3505 -1.0305  0.7961
 4827SOL    HW226115   0.735   4.442   4.947  1.6013  0.5739  1.6341
 4828SOL     OW26116   2.544   1.975   2.117 -0.0321 -0.0196 -0.1913
 4828SOL    HW126117   2.571   1.910   2.181  0.7357 -0.8718 -1.3839
 4828SOL    HW226118   2.534   1.928   2.034  1.3579 -0.0483 -0.3380
 4829SOL     OW26119   2.198   1.342   2.315  0.1671  0.1817  0.2157
 4829SOL    HW126120   2.209   1.252   2.345 -0.7323 -0.2619 -0.7558
 4829SOL    HW226121   2.103   1.353   2.303  0.3980  0.6218 -1.1691
 4830SOL     OW26122   1.135   3.550   6.573  0.0515  0.2069  0.2540
 4830SOL    HW126123   1.064   3.613   6.584  0.2903  0.4590  0.3529
 4830SOL    HW226124   1.123   3.499   6.653 -0.4947 -0.8111 -0.4829
 4831SOL     OW26125   3.094   3.663  11.274 -0.3913 -0.8830  0.1385
 4831SOL    HW126126   3.008   3.649  11.315 -0.9079  2.4553  0.1935
 4831SOL    HW226127   3.133   3.580  11.301 -0.0737 -0.5443  0.7259
 4832SOL     OW26128   2.736   4.086   8.554  0.1223  1.0729  0.0302
 4832SOL    HW126129   2.765   4.034   8.628 -2.0101 -0.9251 -0.5429
 4832SOL    HW226130   2.785   4.166   8.573 -0.2224  1.7973 -2.0487
 4833SOL     OW26131   2.925   1.100   8.270  0.2663 -0.4360  0.2767
 4833SOL    HW126132   2.849   1.092   8.212  0.4377 -2.4969  0.3380
 4833SOL    HW226133   2.956   1.190   8.260 -0.9546  0.1849  2.0388
 4834SOL     OW26134   1.235   4.575   3.426 -0.2842  0.0209  0.1409
 4834SOL    HW126135   1.312   4.553   3.480 -0.3731 -3.8748 -1.3368
 4834SOL    HW226136   1.201   4.488   3.409  1.5878 -1.0086  1.5848
 4835SOL     OW26137   3.559   3.377  16.240  0.0284 -0.0696 -0.1389
 4835SOL    HW126138   3.560   3.395  16.146  3.2162  0.4952  0.0126
 4835SOL    HW226139   3.482   3.320  16.241 -2.6509  3.5589 -0.1889
 4836SOL     OW26140   0.101   0.412   3.569  0.3082 -0.0924 -0.8140
 4836SOL    HW126141   0.179   0.405   3.624  0.0427 -0.2094 -0.4467
 4836SOL    HW226142   0.065   0.494   3.603 -0.0371 -0.7237  0.3702
 4837SOL     OW26143   2.859   2.595   1.957  0.1912 -0.2643 -0.3186
 4837SOL    HW126144   2.886   2.674   1.909 -0.7795 -0.3853 -1.0708
 4837SOL    HW226145   2.791   2.641   2.005  0.7790 -0.4767  0.7053
 4838SOL     OW26146   1.365   0.941  10.559  0.1270  0.6307 -0.3880
 4838SOL    HW126147   1.345   1.005  10.491 -1.0232  0.4126 -0.2562
 4838SOL    HW226148   1.457   0.917  10.546  0.7841  2.4871  0.7807
 4839SOL     OW26149   3.254   2.583   3.174  0.0501 -0.1020 -0.0404
 4839SOL    HW126150   3.300   2.646   3.119  1.3595 -0.3144  0.8246
 4839SOL    HW226151   3.265   2.502   3.124 -2.2895 -0.3369 -0.2029
 4840SOL     OW26152   3.763   3.068   7.057 -0.3850 -0.3518  0.0731
 4840SOL    HW126153   3.726   2.982   7.037 -0.6149 -0.1370 -0.4207
 4840SOL    HW226154   3.732   3.078   7.147  1.1683 -1.1885  0.7033
 4841SOL     OW26155   2.611   3.310   8.609 -0.0408  0.0820  0.2628
 4841SOL    HW126156   2.690   3.348   8.646  0.8358 -0.1139 -1.4045
 4841SOL    HW226157   2.636   3.218   8.617 -0.6505 -0.0613  0.5274
 4842SOL     OW26158   3.878   2.575   7.292  0.0403 -0.4566  0.0564
 4842SOL    HW126159   3.847   2.659   7.326  1.8776  0.6431 -1.0272
 4842SOL    HW226160   3.807   2.554   7.232 -1.5558  0.0042  1.7702
 4843SOL     OW26161   0.177   1.470   6.955 -0.6092 -0.3806  0.1186
 4843SOL    HW126162   0.107   1.496   7.015  0.1006  0.9487  0.3663
 4843SOL    HW226163   0.149   1.382   6.932 -3.2163 -0.0650  2.1021
 4844SOL     OW26164   2.558   0.297   3.423  0.2446  0.3187  0.2055
 4844SOL    HW126165   2.618   0.223   3.416  0.4971  0.5653 -0.2626
 4844SOL    HW226166   2.581   0.353   3.348  1.6390 -1.2814 -0.5450
 4845SOL     OW26167   2.881   4.434   8.478 -0.0685  0.3239  0.0272
 4845SOL    HW126168   2.822   4.421   8.553  0.2488  2.5454  0.6814
 4845SOL    HW226169   2.952   4.374   8.500 -0.4693 -0.5501 -1.1081
 4846SOL     OW26170   3.506   0.313   9.467  0.2701  0.6631 -0.0872
 4846SOL    HW126171   3.514   0.239   9.527 -0.5494 -0.3649 -1.2777
 4846SOL    HW226172   3.472   0.266   9.392 -1.2771  0.5113  0.7190
 4847SOL     OW26173   0.646   1.459   7.592 -0.3598 -0.2469 -0.8532
 4847SOL    HW126174   0.728   1.506   7.576 -0.0886  0.6044  3.0458
 4847SOL    HW226175   0.619   1.500   7.675 -0.5070 -1.8027 -0.1315
 4848SOL     OW26176   1.862   1.914   8.714 -0.0403 -0.0696 -0.3176
 4848SOL    HW126177   1.769   1.923   8.734  0.1518 -0.0045  0.5355
 4848SOL    HW226178   1.883   1.849   8.782  0.7852  2.8987  2.2563
 4849SOL     OW26179   4.393   1.979   3.833  0.1097 -0.0354  0.3714
 4849SOL    HW126180   4.488   1.979   3.850 -0.1969 -1.5885  2.1030
 4849SOL    HW226181   4.369   2.044   3.900  3.6723  0.6620  0.9764
 4850SOL     OW26182   0.372   0.860   9.492 -0.1563 -0.1595 -0.4677
 4850SOL    HW126183   0.327   0.778   9.511  0.2160 -0.3525 -0.4270
 4850SOL    HW226184   0.309   0.896   9.430 -0.8180  2.2308  1.5564
 4851SOL     OW26185   1.269   2.661   2.817 -0.5236 -0.3964 -0.3134
 4851SOL    HW126186   1.279   2.585   2.873 -2.7605  0.8648  1.8014
 4851SOL    HW226187   1.325   2.622   2.750 -0.7360 -0.9706 -0.1612
 4852SOL     OW26188   4.250   2.488  13.178  0.1626  0.4363  0.2445
 4852SOL    HW126189   4.218   2.402  13.203  0.7583  0.6856  1.8436
 4852SOL    HW226190   4.193   2.539  13.236 -2.7947 -0.9122 -1.4932
 4853SOL     OW26191   0.873   3.309   9.233 -0.0378  1.3988 -0.1953
 4853SOL    HW126192   0.841   3.246   9.298 -1.6111  2.6270  0.2299
 4853SOL    HW226193   0.871   3.248   9.159 -2.8441  0.2788  0.7987
 4854SOL     OW26194   3.385   2.033   0.092  0.2857 -0.2607  0.8041
 4854SOL    HW126195   3.378   2.095   0.019 -0.3619 -1.5696 -0.2366
 4854SOL    HW226196   3.468   1.987   0.076  0.0989 -0.6884  1.0699
 4855SOL     OW26197   4.321   0.250   6.859 -0.7620 -0.4519  0.1517
 4855SOL    HW126198   4.328   0.175   6.919  1.3608 -0.9926 -0.7725
 4855SOL    HW226199   4.391   0.299   6.903 -1.2351  1.0286 -0.7445
 4856SOL     OW26200   3.129   3.774   1.438  0.1436  0.4084 -0.2725
 4856SOL    HW126201   3.178   3.721   1.375  0.8788 -0.7641  1.3060
 4856SOL    HW226202   3.198   3.839   1.446 -1.9702  2.6356  0.0455
 4857SOL     OW26203   3.051   1.515   4.462 -0.5120  0.1319 -0.2430
 4857SOL    HW126204   3.015   1.520   4.374 -3.8141 -0.9861  1.0571
 4857SOL    HW226205   3.061   1.422   4.481  0.8153  0.2255 -0.4668
 4858SOL     OW26206   0.409   3.980   7.130 -0.1270 -0.1292  0.5881
 4858SOL    HW126207   0.416   4.076   7.130  0.6111 -0.1892  0.9304
 4858SOL    HW226208   0.415   3.950   7.039  0.0221 -0.4849  0.7152
 4859SOL     OW26209   1.371   0.322   7.284  0.3805  0.1829 -0.2924
 4859SOL    HW126210   1.349   0.297   7.374 -0.3296 -1.5183 -0.9250
 4859SOL    HW226211   1.333   0.248   7.235  2.4593 -0.5111 -0.8614
 4860SOL     OW26212   1.801   1.630   3.698  0.1715  0.5977  0.1021
 4860SOL    HW126213   1.773   1.554   3.649 -1.1776  0.9615  0.3176
 4860SOL    HW226214   1.797   1.588   3.784 -2.0588  0.3932 -0.1063
 4861SOL     OW26215   1.594   0.840  12.257 -0.6319 -0.0332  0.2003
 4861SOL    HW126216   1.580   0.931  12.232 -0.9681 -0.2544 -0.4239
 4861SOL    HW226217   1.547   0.790  12.190 -0.7802 -1.8646  1.6569
 4862SOL     OW26218   0.711   2.298   8.370  0.0921  0.0269  0.6101
 4862SOL    HW126219   0.623   2.336   8.365 -0.8341 -2.1097  0.8887
 4862SOL    HW226220   0.773   2.370   8.358  0.8921 -0.4464  1.9765
 4863SOL     OW26221   2.198   3.078   6.345  0.5337  0.1166  0.1384
 4863SOL    HW126222   2.199   2.989   6.310  0.0350  0.0347  0.3226
 4863SOL    HW226223   2.288   3.105   6.326  1.2795 -1.2776  1.6876
 4864SOL     OW26224   2.159   0.374   5.882 -0.0581  0.3018  0.4100
 4864SOL    HW126225   2.094   0.303   5.885 -0.0464  0.2206 -1.3858
 4864SOL    HW226226   2.126   0.445   5.936  0.7751 -0.4569  1.9156
 4865SOL     OW26227   0.545   1.443   3.725  0.1955 -0.0774  0.9053
 4865SOL    HW126228   0.594   1.397   3.793  0.5774 -1.8405 -0.5552
 4865SOL    HW226229   0.615   1.455   3.661 -2.1785 -0.9365 -1.8530
 4866SOL     OW26230   1.166   4.190   7.235 -0.6246 -0.0706 -0.3287
 4866SOL    HW126231   1.078   4.178   7.200 -0.0680 -0.1551 -1.6890
 4866SOL    HW226232   1.201   4.224   7.153  0.5053 -2.6095 -0.8968
 4867SOL     OW26233   1.527   3.282  11.768 -0.4037 -0.1291  0.0835
 4867SOL    HW126234   1.514   3.203  11.716 -0.3617 -0.2704  0.2880
 4867SOL    HW226235   1.494   3.355  11.715 -1.1355  0.7252  1.7215
 4868SOL     OW26236   4.513   1.303  16.507  0.0914  0.3523  0.2990
 4868SOL    HW126237   4.424   1.323  16.537  1.1741 -0.3715  4.0072
 4868SOL    HW226238   4.501   1.208  16.503  1.0070  0.2074  1.0640
 4869SOL     OW26239   4.084   1.395   7.817 -0.1066  0.0482 -0.1181
 4869SOL    HW126240   3.990   1.378   7.803  0.0848 -0.3822 -0.9238
 4869SOL    HW226241   4.093   1.342   7.895  0.2781 -1.6322 -1.3085
 4870SOL     OW26242   2.409   2.585   1.810 -0.2516 -0.1256  0.1990
 4870SOL    HW126243   2.475   2.593   1.742 -0.3807 -0.0042  0.0892
 4870SOL    HW226244   2.417   2.671   1.851  0.1206 -0.7450  1.4437
 4871SOL     OW26245   3.858   2.142   2.606  0.1366 -0.0851  0.2066
 4871SOL    HW126246   3.807   2.072   2.566  0.5915  0.2654 -0.9777
 4871SOL    HW226247   3.849   2.207   2.537 -1.7200  1.6857  2.1228
 4872SOL     OW26248   3.097   4.591   1.269  0.3185  0.0886  0.6827
 4872SOL    HW126249   3.010   4.631   1.265  0.8407  1.0199 -1.5134
 4872SOL    HW226250   3.139   4.645   1.202 -0.4774 -1.1044 -0.7865
 4873SOL     OW26251   1.534   0.701  12.482  0.1240 -0.0361  0.6149
 4873SOL    HW126252   1.567   0.758  12.413  0.1661  0.9030  1.4083
 4873SOL    HW226253   1.505   0.771  12.542 -1.5201  0.2028 -0.4468
 4874SOL     OW26254   1.601   2.598   1.221 -0.0224 -0.5119 -0.4004
 4874SOL    HW126255   1.663   2.543   1.173  0.4010  0.4520 -0.9547
 4874SOL    HW226256   1.547   2.533   1.266  0.2318 -0.9080 -0.6581
 4875SOL     OW26257   4.035   3.885  17.478 -0.0084  0.6560  0.1756
 4875SOL    HW126258   3.977   3.956  17.504  0.4580  0.7215  1.0497
 4875SOL    HW226259   3.996   3.814  17.529 -0.0538  0.0530 -0.6993
 4876SOL     OW26260   4.087   2.446  14.335 -0.7118  0.5828  0.0809
 4876SOL    HW126261   4.019   2.486  14.282  0.6217  1.4240 -0.9821
 4876SOL    HW226262   4.152   2.415  14.272 -2.1530 -1.1314 -0.5188
 4877SOL     OW26263   4.389   0.628   3.396  0.0768  0.0159 -0.2081
 4877SOL    HW126264   4.445   0.686   3.447 -0.4585  1.9216 -1.7829
 4877SOL    HW226265   4.441   0.555   3.363 -0.0396  0.1477 -0.6780
 4878SOL     OW26266   4.459   4.322   2.847 -0.6585  0.4523  0.2069
 4878SOL    HW126267   4.413   4.321   2.931 -2.0072  0.8741 -0.5220
 4878SOL    HW226268   4.509   4.241   2.857 -0.3127  0.3224 -2.4715
 4879SOL     OW26269   4.654   2.216   4.122 -0.0295  0.4476 -0.9027
 4879SOL    HW126270   4.586   2.217   4.190  0.0776  0.3489 -0.7930
 4879SOL    HW226271   4.654   2.303   4.082 -0.5312  0.4926 -0.7972
 4880SOL     OW26272   4.525   4.537   0.723  0.0688  0.5569  0.6585
 4880SOL    HW126273   4.496   4.533   0.632  1.3118  1.6111  0.2235
 4880SOL    HW226274   4.546   4.630   0.731  0.1080  0.3482  3.1386
 4881SOL     OW26275   2.942   0.408   7.628 -0.1301  0.3797 -0.1593
 4881SOL    HW126276   2.910   0.483   7.677  1.8747  1.2365 -0.1968
 4881SOL    HW226277   3.031   0.386   7.654 -0.1553  0.6332  0.1415
 4882SOL     OW26278   0.425   4.215   9.475 -0.2841 -0.7672 -0.0309
 4882SOL    HW126279   0.369   4.220   9.553 -0.5349  1.9126 -0.4106
 4882SOL    HW226280   0.449   4.123   9.462 -0.1916 -0.5705 -1.2545
 4883SOL     OW26281   0.812   2.116  14.425 -0.2575 -0.5281  0.2143
 4883SOL    HW126282   0.725   2.152  14.437  0.8283  2.4868 -0.8077
 4883SOL    HW226283   0.803   2.028  14.460  1.4110 -0.1150  1.6962
 4884SOL     OW26284   2.935   4.037   5.850  0.5723 -0.5633 -0.9346
 4884SOL    HW126285   2.914   4.123   5.887  1.1135 -0.5751 -0.5933
 4884SOL    HW226286   2.957   4.077   5.766 -1.2217  2.6712  0.0930
 4885SOL     OW26287   0.273   2.245   3.885 -0.0561  0.1674 -0.4466
 4885SOL    HW126288   0.229   2.323   3.918 -0.3395 -0.2091  0.0564
 4885SOL    HW226289   0.203   2.199   3.839  0.4127 -0.3373 -0.6460
 4886SOL     OW26290   0.571   3.714   4.641 -0.1023 -0.0331  0.2222
 4886SOL    HW126291   0.477   3.694   4.649 -0.5163  1.4394 -0.8113
 4886SOL    HW226292   0.581   3.775   4.714  0.8346 -0.3106  0.3126
 4887SOL     OW26293   0.173   0.768  12.957  0.2331  0.4654 -0.0526
 4887SOL    HW126294   0.203   0.677  12.954 -0.8319  0.1587 -1.9915
 4887SOL    HW226295   0.227   0.802  12.885  0.4749  2.1639  0.9289
 4888SOL     OW26296   1.554   3.483  12.969  0.2085  0.1103 -0.3923
 4888SOL    HW126297   1.579   3.508  13.058  2.5807  0.5208 -1.1859
 4888SOL    HW226298   1.486   3.418  12.988  2.5648 -0.9030  4.7288
 4889SOL     OW26299   0.691   4.614   1.952 -0.5493  0.0701 -0.4649
 4889SOL    HW126300   0.767   4.568   1.986 -1.4846 -0.4403  0.9570
 4889SOL    HW226301   0.647   4.532   1.930 -0.4055  0.2877 -1.5627
 4890SOL     OW26302   4.537   3.068  10.985 -0.2025 -0.3284 -0.4632
 4890SOL    HW126303   4.606   3.014  10.946 -0.0405 -0.6955  0.3337
 4890SOL    HW226304   4.473   3.033  10.923  0.3336 -1.1376 -0.5727
 4891SOL     OW26305   2.440   2.246   4.851 -0.0717  0.2320 -0.4764
 4891SOL    HW126306   2.468   2.177   4.792  0.8647 -0.1555  0.4268
 4891SOL    HW226307   2.484   2.321   4.811 -0.1562 -0.3535 -1.6665
 4892SOL     OW26308   1.722   1.340  10.465  0.7822  0.0383  0.0918
 4892SOL    HW126309   1.709   1.432  10.485 -0.4959 -0.2322  0.4832
 4892SOL    HW226310   1.789   1.321  10.530  0.9955 -1.3190 -0.5115
 4893SOL     OW26311   4.003   3.911   8.009  0.0454 -0.4480 -0.2146
 4893SOL    HW126312   4.017   4.003   7.986  1.5735 -0.1329  1.9337
 4893SOL    HW226313   3.908   3.916   8.017 -0.0780 -0.1004 -1.8122
 4894SOL     OW26314   3.304   3.552  15.094 -0.2497 -0.6057  0.1579
 4894SOL    HW126315   3.289   3.645  15.076  1.9661 -0.1814  0.5448
 4894SOL    HW226316   3.385   3.539  15.045 -0.3984  0.2501 -0.3138
 4895SOL     OW26317   2.067   1.867  11.563 -0.0108  0.1772  0.3379
 4895SOL    HW126318   2.078   1.962  11.557 -0.2685  0.2409  0.9125
 4895SOL    HW226319   2.018   1.852  11.483 -1.3933  1.5666  0.9351
 4896SOL     OW26320   3.261   0.870   8.331 -0.5361 -0.2728 -0.1712
 4896SOL    HW126321   3.334   0.829   8.378  0.3583  1.4464 -0.0386
 4896SOL    HW226322   3.309   0.939   8.284 -0.3754 -0.6847 -0.6043
 4897SOL     OW26323   0.269   2.648  10.029 -0.7824  0.7675 -0.3427
 4897SOL    HW126324   0.213   2.588  10.079 -0.1741 -0.3858 -1.0408
 4897SOL    HW226325   0.212   2.719  10.000  1.5792  2.6895 -0.3618
 4898SOL     OW26326   0.572   4.711   6.909 -0.3762  0.4005 -0.1036
 4898SOL    HW126327   0.572   4.656   6.987 -1.0725  1.2219  0.4787
 4898SOL    HW226328   0.495   0.027   6.929 -1.5924 -1.0413 -1.0054
 4899SOL     OW26329   2.425   2.976   9.836 -0.4715 -0.0105 -0.6837
 4899SOL    HW126330   2.414   3.032   9.760  0.8239  1.5014  0.2456
 4899SOL    HW226331   2.441   3.041   9.903 -2.6965 -0.2885  0.1069
 4900SOL     OW26332   3.156   1.686   3.661  0.1495  0.0556 -0.1094
 4900SOL    HW126333   3.183   1.616   3.602  0.0307  2.0123 -2.5138
 4900SOL    HW226334   3.220   1.677   3.732  0.1600 -0.8815 -0.2428
 4901SOL     OW26335   1.875   2.393   4.763 -0.1359 -0.5280 -0.1335
 4901SOL    HW126336   1.948   2.453   4.749 -0.5726 -0.0961 -0.5579
 4901SOL    HW226337   1.810   2.459   4.789  0.1836 -0.6638  1.0004
 4902SOL     OW26338   2.163   3.910   2.275 -0.4554  0.3748  0.1826
 4902SOL    HW126339   2.090   3.967   2.255 -0.3503 -0.1481 -1.6833
 4902SOL    HW226340   2.232   3.939   2.215 -1.0946  0.2416 -0.6107
 4903SOL     OW26341   1.887   2.038   1.834  0.1571 -0.3426  0.8833
 4903SOL    HW126342   1.979   2.033   1.861  0.0574  2.2904  1.7116
 4903SOL    HW226343   1.848   1.995   1.910 -0.2225 -0.4434  0.6279
 4904SOL     OW26344   1.323   1.176   7.933 -0.1739  0.1150  0.8522
 4904SOL    HW126345   1.375   1.096   7.925 -1.4146 -0.6800  0.7489
 4904SOL    HW226346   1.396   1.231   7.905 -0.3445 -0.6015 -0.9340
 4905SOL     OW26347   1.979   2.048   3.810 -0.6703  0.2279 -0.0236
 4905SOL    HW126348   1.927   2.001   3.745  0.4235  1.0702 -1.5042
 4905SOL    HW226349   1.913   2.060   3.878 -0.0394 -2.1310  0.9826
 4906SOL     OW26350   0.410   2.752  12.826 -0.7892 -0.3024  0.6589
 4906SOL    HW126351   0.382   2.768  12.736  0.9224  2.0180  0.5368
 4906SOL    HW226352   0.504   2.747  12.811 -0.7699  0.5798  0.4403
 4907SOL     OW26353   2.598   3.770   5.222 -0.3141  0.2843 -0.0632
 4907SOL    HW126354   2.615   3.798   5.132 -1.9029  1.0140 -0.1342
 4907SOL    HW226355   2.574   3.850   5.268 -1.0797 -0.3931  0.7092
 4908SOL     OW26356   4.154   0.418   8.751 -0.2239  0.1791 -0.5081
 4908SOL    HW126357   4.073   0.448   8.792  1.3768  1.6871  1.6009
 4908SOL    HW226358   4.141   0.323   8.757 -2.5875  0.5422  0.0640
 4909SOL     OW26359   0.593   4.653   3.145 -0.1393  0.0752 -0.2702
 4909SOL    HW126360   0.591   4.557   3.154 -2.9406  0.1237 -0.3968
 4909SOL    HW226361   0.583   4.657   3.050 -0.2686 -0.1825 -0.2691
 4910SOL     OW26362   1.069   0.158   8.455  0.1338  0.3521  0.3254
 4910SOL    HW126363   1.018   0.217   8.400  0.6879 -0.5536 -1.1581
 4910SOL    HW226364   1.161   0.177   8.436  0.0781 -0.6264 -0.8775
 4911SOL     OW26365   3.503   2.884  16.322  0.0230  0.1294  0.1929
 4911SOL    HW126366   3.505   2.795  16.288  4.1151 -0.6560  2.4849
 4911SOL    HW226367   3.445   2.932  16.264  0.6546  0.2009 -0.3871
 4912SOL     OW26368   0.119   2.072   3.741  0.0784 -0.5241 -0.3837
 4912SOL    HW126369   0.080   2.112   3.664  0.8118 -1.1154 -1.0646
 4912SOL    HW226370   0.158   1.992   3.706  0.9967  0.6706 -2.1232
 4913SOL     OW26371   2.510   1.526  15.103  0.0794 -0.0166  0.1292
 4913SOL    HW126372   2.474   1.480  15.179  1.8721 -2.4952 -0.5582
 4913SOL    HW226373   2.461   1.480  15.035  0.3142  0.1692 -0.1649
 4914SOL     OW26374   0.593   1.475   5.592  0.2263  0.0003  0.0936
 4914SOL    HW126375   0.649   1.543   5.555  0.3027 -0.4294 -0.5733
 4914SOL    HW226376   0.580   1.498   5.684 -0.2018 -0.7718  0.2251
 4915SOL     OW26377   4.212   2.902   3.654 -0.5151 -0.2892 -0.4946
 4915SOL    HW126378   4.147   2.968   3.628 -1.4467 -1.0180  0.0089
 4915SOL    HW226379   4.216   2.851   3.573 -0.9531 -1.5696  0.2921
 4916SOL     OW26380   0.788   1.258   9.439  0.1863 -0.7061 -0.1311
 4916SOL    HW126381   0.713   1.220   9.485  0.8602 -3.0596 -0.9977
 4916SOL    HW226382   0.862   1.221   9.486 -0.3086 -0.7152  0.6471
 4917SOL     OW26383   0.218   2.280   3.103  0.1000 -0.0593  0.0994
 4917SOL    HW126384   0.270   2.340   3.156  0.6723 -1.3184  0.9469
 4917SOL    HW226385   0.289   2.234   3.057 -1.0699  0.2242 -2.0038
 4918SOL     OW26386   4.140   3.229   7.045 -0.0774  0.0334 -0.1792
 4918SOL    HW126387   4.074   3.284   7.003 -2.5650 -3.3698 -0.7032
 4918SOL    HW226388   4.106   3.153   6.997  1.2215 -1.2272  0.8975
 4919SOL     OW26389   0.529   3.346   4.811  0.4778  0.1160  0.4690
 4919SOL    HW126390   0.441   3.312   4.794  0.7332  0.7054 -2.0842
 4919SOL    HW226391   0.521   3.408   4.883  2.2136  0.3490  0.4521
 4920SOL     OW26392   4.147   4.623  14.017  0.2852  0.3050  0.3315
 4920SOL    HW126393   4.075   4.657  13.965  1.4366  1.1458 -0.6940
 4920SOL    HW226394   4.122   4.648  14.106 -0.2677 -0.5583  0.4212
 4921SOL     OW26395   1.621   4.336  14.525 -0.4862  0.2963  0.0391
 4921SOL    HW126396   1.606   4.329  14.619 -0.5612 -0.9814 -0.0640
 4921SOL    HW226397   1.540   4.299  14.490  0.1197 -2.5555  1.5818
 4922SOL     OW26398   2.495   2.716   5.669  0.6982 -0.3014  0.0036
 4922SOL    HW126399   2.468   2.697   5.580  0.7305 -3.7199  0.7352
 4922SOL    HW226400   2.584   2.683   5.678  0.5255 -0.6674  0.3710
 4923SOL     OW26401   1.317   4.519   3.139  0.3908  0.0131 -0.0723
 4923SOL    HW126402   1.362   4.451   3.088  0.2279 -0.1431 -0.0092
 4923SOL    HW226403   1.394   4.574   3.153 -1.5060  2.2604  1.4335
 4924SOL     OW26404   0.597   2.694  10.046  0.6136 -0.0904  0.8530
 4924SOL    HW126405   0.623   2.749   9.972 -1.7093  2.5354  1.9949
 4924SOL    HW226406   0.503   2.710  10.049  0.2453 -2.7181  3.2872
 4925SOL     OW26407   1.401   1.305   2.604  0.0455  0.5456  0.0508
 4925SOL    HW126408   1.309   1.297   2.579 -0.4882  2.3643  1.3930
 4925SOL    HW226409   1.446   1.270   2.528  0.2603  2.2531 -0.6173
 4926SOL     OW26410   0.477   0.008  12.455 -1.0589  0.5141  0.6077
 4926SOL    HW126411   0.482   4.693  12.375  2.1137 -0.5347  1.4814
 4926SOL    HW226412   0.515   0.089  12.421 -0.7914  0.3442  0.4993
 4927SOL     OW26413   1.819   0.508   9.943 -0.2590 -0.5913  0.4469
 4927SOL    HW126414   1.876   0.431   9.943  0.2559 -0.2221  2.5272
 4927SOL    HW226415   1.791   0.497   9.853  0.6922  0.2630  0.0551
 4928SOL     OW26416   4.165   2.106   4.198 -0.1255  0.1080  0.0413
 4928SOL    HW126417   4.098   2.098   4.266 -1.0888 -1.8240 -1.1296
 4928SOL    HW226418   4.117   2.071   4.123  0.8646 -2.2879  0.5013
 4929SOL     OW26419   1.228   4.004   0.991 -0.3826 -0.8179  0.4707
 4929SOL    HW126420   1.300   4.053   0.950 -0.8234 -0.0560  0.6043
 4929SOL    HW226421   1.248   3.915   0.964 -1.4644 -0.3520 -1.7987
 4930SOL     OW26422   3.076   1.600   0.845 -0.1270 -0.1472  0.0958
 4930SOL    HW126423   3.155   1.654   0.836 -1.5560  2.2055  1.8035
 4930SOL    HW226424   3.024   1.646   0.780 -0.9975 -0.6169  0.4666
 4931SOL     OW26425   0.250   3.638  13.548  0.1302  0.2714 -0.5242
 4931SOL    HW126426   0.214   3.712  13.597 -1.2093 -0.0271 -1.0538
 4931SOL    HW226427   0.193   3.564  13.571  2.6544 -0.6621  2.6481
 4932SOL     OW26428   4.421   0.670   8.073  0.6059  0.6786  0.3220
 4932SOL    HW126429   4.423   0.753   8.120 -0.1972  0.9755 -0.1748
 4932SOL    HW226430   4.372   0.702   7.998 -0.7366  2.2844  1.8915
 4933SOL     OW26431   1.246   1.300   6.718  0.0833  0.2725  0.1608
 4933SOL    HW126432   1.198   1.310   6.801  0.6892  1.2447  0.3869
 4933SOL    HW226433   1.217   1.386   6.686  1.7908 -0.0703 -2.2417
 4934SOL     OW26434   1.289   3.467   7.327 -0.1329 -0.0129 -0.0210
 4934SOL    HW126435   1.315   3.502   7.412  0.0244  2.7187 -1.2232
 4934SOL    HW226436   1.315   3.532   7.262  1.0578 -0.9098 -0.4528
 4935SOL     OW26437   4.187   1.412   3.467 -0.0433  0.2918  0.3632
 4935SOL    HW126438   4.254   1.360   3.422 -0.9401 -0.3344 -0.2425
 4935SOL    HW226439   4.101   1.374   3.451  1.1752 -2.4058  0.3213
 4936SOL     OW26440   3.426   2.234   7.977 -0.0742 -0.3013 -1.1523
 4936SOL    HW126441   3.445   2.148   7.940  2.6611 -0.3342  0.3254
 4936SOL    HW226442   3.391   2.212   8.063  1.4423  2.6280  0.2180
 4937SOL     OW26443   4.202   4.006   3.172 -0.4928 -0.6400  0.3334
 4937SOL    HW126444   4.238   4.067   3.108  0.3631 -0.3807  1.0593
 4937SOL    HW226445   4.183   3.936   3.110  1.4097 -0.7432 -0.1236
 4938SOL     OW26446   1.475   2.160   5.300  0.0414 -0.3564 -0.1902
 4938SOL    HW126447   1.565   2.163   5.267 -0.0321  1.1721 -0.2662
 4938SOL    HW226448   1.472   2.070   5.332  0.4011 -0.2474  0.1557
 4939SOL     OW26449   0.441   0.949  13.514 -0.1039 -0.1612 -0.2961
 4939SOL    HW126450   0.464   0.860  13.538  1.5916  0.4809  0.4832
 4939SOL    HW226451   0.431   0.983  13.603  1.3438 -0.8288  0.1161
 4940SOL     OW26452   2.042   1.102   3.431  0.1052 -0.0605 -0.3761
 4940SOL    HW126453   2.063   1.166   3.364 -2.9806  1.0842 -0.2517
 4940SOL    HW226454   1.947   1.109   3.420  0.3101 -0.2242 -2.2005
 4941SOL     OW26455   0.233   3.998   5.718 -0.0713 -0.0592  0.1527
 4941SOL    HW126456   0.162   4.040   5.767 -0.8641 -0.0274 -1.0320
 4941SOL    HW226457   0.252   3.914   5.761  0.5929 -0.3042 -0.6289
 4942SOL     OW26458   2.259   0.721   2.121  0.0657  0.2532 -0.0079
 4942SOL    HW126459   2.189   0.780   2.094 -0.0038 -0.2486 -0.9303
 4942SOL    HW226460   2.332   0.782   2.129 -1.0076  1.5486 -0.0209
 4943SOL     OW26461   0.038   3.048  17.590  0.3642  0.0361 -0.1869
 4943SOL    HW126462   0.068   2.968  17.634  0.1047  1.0440  1.7823
 4943SOL    HW226463   0.106   3.062  17.524  0.4947  2.5293  0.5054
 4944SOL     OW26464   0.500   0.045   8.893 -0.3100  0.0397 -0.3176
 4944SOL    HW126465   0.438   4.731   8.945  0.0713  0.4515  0.5600
 4944SOL    HW226466   0.470   0.023   8.805  0.1731  0.4467 -0.5864
 4945SOL     OW26467   4.487   1.734   0.943  0.0129  0.4450  0.1072
 4945SOL    HW126468   4.560   1.792   0.923  0.2088 -0.3770 -1.5616
 4945SOL    HW226469   4.443   1.736   0.858 -0.0260  1.4329  0.1549
 4946SOL     OW26470   4.349   1.405   0.714 -0.2887  0.1245 -0.2535
 4946SOL    HW126471   4.354   1.471   0.783  0.3014 -0.7760  0.5623
 4946SOL    HW226472   4.421   1.419   0.653 -0.4065  1.3695 -0.1091
 4947SOL     OW26473   3.468   4.314  15.271 -0.6138  0.3466  0.0005
 4947SOL    HW126474   3.473   4.369  15.350 -0.2627  1.3377 -0.7071
 4947SOL    HW226475   3.389   4.265  15.291 -2.0798  3.0387  0.8524
 4948SOL     OW26476   3.980   4.157  10.306  0.1990 -0.3938  0.4065
 4948SOL    HW126477   3.892   4.156  10.345  0.4826 -0.4674  1.0401
 4948SOL    HW226478   4.020   4.200  10.382 -0.1187 -0.4678  0.6172
 4949SOL     OW26479   0.347   3.279   6.240 -0.4592 -0.6834 -0.4064
 4949SOL    HW126480   0.351   3.363   6.194  2.9505 -1.9258 -2.4032
 4949SOL    HW226481   0.439   3.262   6.262  0.4279  2.2801 -1.8789
 4950SOL     OW26482   0.295   4.091  16.335  0.2321 -0.4755 -0.2766
 4950SOL    HW126483   0.257   4.073  16.250 -0.0666  0.2773 -0.3043
 4950SOL    HW226484   0.334   4.176  16.313  0.5007 -0.3226  0.7535
 4951SOL     OW26485   2.846   0.454  16.542  0.9195 -0.1551  0.0003
 4951SOL    HW126486   2.797   0.459  16.461 -1.4288  1.6184  1.5437
 4951SOL    HW226487   2.899   0.376  16.522  0.3511 -0.3183 -0.8674
 4952SOL     OW26488   0.969   3.076   0.938  0.2758  0.1466 -0.4873
 4952SOL    HW126489   0.997   3.082   1.029  1.9782  0.9576 -1.0584
 4952SOL    HW226490   0.976   2.980   0.931  3.8160  0.2354  1.9366
 4953SOL     OW26491   1.479   3.780   6.827  0.1324  0.8646  0.0341
 4953SOL    HW126492   1.547   3.836   6.789 -0.4099  0.0830 -2.1166
 4953SOL    HW226493   1.466   3.713   6.760  0.5415 -0.7307  1.5722
 4954SOL     OW26494   1.213   3.624   0.623  0.2907 -0.2365  0.6696
 4954SOL    HW126495   1.180   3.539   0.652  0.7164 -0.6431 -0.0367
 4954SOL    HW226496   1.308   3.611   0.625  0.2955 -0.2003  0.6731
 4955SOL     OW26497   0.478   0.020  17.696 -0.0399  0.3684 -0.0441
 4955SOL    HW126498   0.494   0.114  17.701 -0.1680  0.3141  1.4723
 4955SOL    HW226499   0.462   4.716   0.035  3.5859 -1.5987 -0.3196
 4956SOL     OW26500   0.983   0.142   7.599 -0.2666 -0.0329 -0.2466
 4956SOL    HW126501   0.972   0.114   7.690 -0.0202 -0.8590 -0.4730
 4956SOL    HW226502   0.913   0.096   7.554 -1.0356 -0.8175  1.7653
 4957SOL     OW26503   2.423   2.917   3.422  0.2192 -0.3712 -0.1134
 4957SOL    HW126504   2.383   2.987   3.370  0.9282  1.2875  1.5880
 4957SOL    HW226505   2.514   2.944   3.434  0.1312 -0.0923 -0.0595
 4958SOL     OW26506   2.709   3.440   2.743  0.2190 -1.0115 -0.5436
 4958SOL    HW126507   2.629   3.390   2.756 -0.3660  0.6179  2.0872
 4958SOL    HW226508   2.771   3.387   2.792 -0.4683 -1.2237  0.0820
 4959SOL     OW26509   3.568   1.961   8.594 -0.1437 -0.0787 -0.5908
 4959SOL    HW126510   3.651   1.957   8.545 -0.0181 -0.2482 -0.3649
 4959SOL    HW226511   3.580   1.892   8.659 -1.4127 -0.3541 -0.6628
 4960SOL     OW26512   0.218   1.574  13.803 -0.0282 -0.5749 -0.4559
 4960SOL    HW126513   0.265   1.494  13.778  2.7385  0.3080  1.8936
 4960SOL    HW226514   0.238   1.589  13.896 -0.6343  0.3832 -0.4876
 4961SOL     OW26515   2.432   0.160   7.494 -0.1213  0.0340  0.1002
 4961SOL    HW126516   2.511   0.205   7.522  1.9954 -3.3694 -0.3986
 4961SOL    HW226517   2.400   0.144   7.582 -0.0355  1.4592  0.3895
 4962SOL     OW26518   3.498   4.638  12.369 -0.0648 -0.2533  0.3521
 4962SOL    HW126519   3.413   4.654  12.328  0.8768 -0.8833 -1.8591
 4962SOL    HW226520   3.481   4.596  12.453 -1.6343  1.7358  1.0350
 4963SOL     OW26521   4.731   1.933   2.400 -0.9628  0.3712  0.7235
 4963SOL    HW126522   0.038   1.920   2.316  1.6806 -1.5405  2.4172
 4963SOL    HW226523   4.637   1.922   2.387 -0.9642  0.3754  0.7301
 4964SOL     OW26524   4.387   2.035  11.178 -0.0278 -0.7360  0.4656
 4964SOL    HW126525   4.314   2.066  11.230 -1.6013 -0.1151 -2.1048
 4964SOL    HW226526   4.350   1.984  11.106 -1.1107  2.1081 -1.0053
 4965SOL     OW26527   3.992   2.682   4.823  0.1874  1.0357 -0.2307
 4965SOL    HW126528   4.066   2.684   4.884  1.2449  2.0788 -1.5522
 4965SOL    HW226529   3.921   2.693   4.886  0.0657 -0.5495 -0.1001
 4966SOL     OW26530   1.340   0.151  13.976 -0.7924  0.3354  0.6404
 4966SOL    HW126531   1.411   0.120  13.919 -0.7355  1.6779  0.0027
 4966SOL    HW226532   1.279   0.180  13.908 -1.1611  0.4008  1.0016
 4967SOL     OW26533   2.325   2.839   6.170 -0.4547  0.4272  0.0299
 4967SOL    HW126534   2.249   2.781   6.158 -0.9431  0.5923  2.3312
 4967SOL    HW226535   2.318   2.896   6.093  0.2717  2.1690  1.2477
 4968SOL     OW26536   2.627   0.967   6.210  0.2930  1.0071  0.6879
 4968SOL    HW126537   2.595   0.951   6.122  1.4232  1.0226  0.2783
 4968SOL    HW226538   2.546   0.997   6.253  0.7560  2.3533  0.6230
 4969SOL     OW26539   3.710   1.943   3.185 -0.3582 -0.2006  0.4058
 4969SOL    HW126540   3.680   1.974   3.100  1.1278  1.0393  0.3197
 4969SOL    HW226541   3.716   1.848   3.176 -0.5366 -0.3201  1.5033
 4970SOL     OW26542   3.011   0.803   8.379  0.1442 -0.2812 -0.0313
 4970SOL    HW126543   2.992   0.736   8.313 -0.1819  0.8421 -1.0913
 4970SOL    HW226544   3.100   0.830   8.355  0.6208 -0.3190  1.7282
 4971SOL     OW26545   2.946   1.017   7.504  0.2894  0.3967  0.2432
 4971SOL    HW126546   2.926   1.100   7.547  2.2587  0.4742  1.0033
 4971SOL    HW226547   2.930   1.048   7.415  0.6961 -1.0327 -0.3195
 4972SOL     OW26548   1.657   0.653   2.209 -0.4476  0.7441  0.3728
 4972SOL    HW126549   1.668   0.567   2.250 -1.0506 -0.1990 -1.4616
 4972SOL    HW226550   1.591   0.631   2.143  1.7895 -1.7860 -1.0453
 4973SOL     OW26551   4.305   3.471   4.676  0.2921  0.1741 -0.4452
 4973SOL    HW126552   4.296   3.384   4.716 -0.3842 -0.1794 -1.3616
 4973SOL    HW226553   4.398   3.490   4.670  0.3509  0.0563  0.0656
 4974SOL     OW26554   1.332   2.277   6.247 -0.3900  0.2928 -0.5031
 4974SOL    HW126555   1.407   2.307   6.196  1.4883 -2.1145  0.7948
 4974SOL    HW226556   1.330   2.327   6.329 -1.2267  0.2560 -0.5036
 4975SOL     OW26557   1.062   3.145  16.792  0.0870  0.0246 -0.1291
 4975SOL    HW126558   1.097   3.117  16.708  1.0832 -0.6164  0.4982
 4975SOL    HW226559   1.126   3.113  16.856 -0.7042 -0.2708  0.5230
 4976SOL     OW26560   0.289   3.015  17.465  0.2521 -0.4634 -0.5312
 4976SOL    HW126561   0.335   2.963  17.398  1.8558 -0.4448  0.5512
 4976SOL    HW226562   0.355   3.028  17.533 -0.2458  1.3078 -0.3985
 4977SOL     OW26563   0.016   2.260   8.411  0.2927  0.0418  0.1870
 4977SOL    HW126564   0.037   2.253   8.319 -1.0067 -1.3970 -0.0042
 4977SOL    HW226565   0.097   2.250   8.461  0.0884 -2.4245  0.0223
 4978SOL     OW26566   2.447   3.449   6.933  0.6389 -0.0504  0.0729
 4978SOL    HW126567   2.461   3.362   6.971  1.1954 -0.0368 -0.0931
 4978SOL    HW226568   2.509   3.504   6.981  2.7886 -0.2892 -2.4510
 4979SOL     OW26569   3.010   3.173   5.380 -0.3657  0.7836  0.0399
 4979SOL    HW126570   3.069   3.142   5.311  1.2298 -1.7387  2.5303
 4979SOL    HW226571   3.047   3.261   5.376 -0.7743  0.9320 -0.5112
 4980SOL     OW26572   1.242   1.431   5.618 -0.2068 -0.2391  0.2094
 4980SOL    HW126573   1.238   1.458   5.527 -2.6552  1.7521  0.9356
 4980SOL    HW226574   1.225   1.337   5.622 -4.2519  0.4098 -1.4082
 4981SOL     OW26575   0.928   3.526   9.061 -0.0193 -0.1271 -0.3921
 4981SOL    HW126576   0.941   3.471   9.138 -0.0769  0.6065  0.1384
 4981SOL    HW226577   0.832   3.527   9.065 -0.0995 -2.4214 -1.6320
 4982SOL     OW26578   0.923   3.101   3.242 -0.0124 -0.0420 -0.1608
 4982SOL    HW126579   0.969   3.108   3.159 -0.8135 -0.4117 -0.6412
 4982SOL    HW226580   0.982   3.154   3.295 -0.8639  0.6545  0.0909
 4983SOL     OW26581   1.376   1.017  11.620  0.5199  0.9080 -0.2509
 4983SOL    HW126582   1.469   1.038  11.610  0.5623 -0.3875 -2.5642
 4983SOL    HW226583   1.350   1.080  11.687 -1.1460  0.2151 -0.2509
 4984SOL     OW26584   0.859   0.256   6.585 -0.3235  0.1097  0.6237
 4984SOL    HW126585   0.867   0.176   6.637 -1.0576 -1.5835 -1.8498
 4984SOL    HW226586   0.787   0.225   6.530  1.3479  0.9887 -2.0628
 4985SOL     OW26587   1.728   2.404   4.264 -0.2633  0.0016 -0.0873
 4985SOL    HW126588   1.682   2.335   4.311  0.6960  0.1940  1.1396
 4985SOL    HW226589   1.660   2.426   4.201 -0.5334  1.5142  0.7053
 4986SOL     OW26590   3.326   3.368   8.001  0.4236 -0.7222 -0.6043
 4986SOL    HW126591   3.339   3.318   7.921 -1.7291  0.8326 -1.9292
 4986SOL    HW226592   3.273   3.440   7.966 -0.4687 -1.9318 -1.7335
 4987SOL     OW26593   0.482   0.522  11.854 -0.3513  0.4880 -0.1680
 4987SOL    HW126594   0.402   0.573  11.847 -0.2483  0.6532 -0.1255
 4987SOL    HW226595   0.547   0.583  11.888 -0.4899 -0.0538  1.0610
 4988SOL     OW26596   0.066   2.582  11.528 -0.4754 -0.1874  0.6476
 4988SOL    HW126597   0.046   2.676  11.529 -2.2002 -0.5538  0.7790
 4988SOL    HW226598   0.103   2.572  11.616  2.5820 -2.2982 -0.8818
 4989SOL     OW26599   3.305   1.577   2.909 -0.4286  0.0383  0.1183
 4989SOL    HW126600   3.219   1.590   2.868 -0.8482  0.1271  1.0448
 4989SOL    HW226601   3.363   1.576   2.832 -0.3495  3.5900  0.1502
 4990SOL     OW26602   3.687   2.752   1.745  0.6504 -0.0941  0.0411
 4990SOL    HW126603   3.728   2.791   1.668  0.4848 -1.0609 -0.5468
 4990SOL    HW226604   3.597   2.732   1.719  0.6529  0.9193 -0.7520
 4991SOL     OW26605   4.219   4.476   2.392  0.3442 -0.8436  0.6977
 4991SOL    HW126606   4.260   4.399   2.354  1.5081  0.0516  0.1372
 4991SOL    HW226607   4.240   4.537   2.322 -0.7149 -1.5854 -0.2718
 4992SOL     OW26608   0.216   3.028   4.825 -0.0923 -0.6802  1.1964
 4992SOL    HW126609   0.156   2.974   4.774 -0.2168  1.9121 -1.4335
 4992SOL    HW226610   0.304   3.007   4.792  0.0200 -0.7286  1.5242
 4993SOL     OW26611   3.823   0.402   0.595 -0.0501 -0.6250  0.2461
 4993SOL    HW126612   3.731   0.404   0.568  0.2032  0.3683 -0.5166
 4993SOL    HW226613   3.822   0.312   0.628 -0.1351 -0.2841  1.1731
 4994SOL     OW26614   0.921   4.060   2.139  0.4431  0.0882  0.2372
 4994SOL    HW126615   0.894   3.971   2.162 -2.4454  0.7219 -0.7221
 4994SOL    HW226616   0.992   4.042   2.078  0.3597  0.6928 -0.0443
 4995SOL     OW26617   2.324   4.104   9.534 -0.0496  0.2008 -0.1375
 4995SOL    HW126618   2.370   4.023   9.511 -0.5466 -0.0930 -0.1053
 4995SOL    HW226619   2.285   4.082   9.618 -0.8582  1.2463 -0.2309
 4996SOL     OW26620   3.114   2.507   8.694 -0.0334  0.3305  0.3848
 4996SOL    HW126621   3.057   2.559   8.637  0.9267  2.1317  1.0802
 4996SOL    HW226622   3.088   2.416   8.682 -0.0438  0.7564 -3.0551
 4997SOL     OW26623   1.372   3.575   7.552 -0.1087  0.8709  0.3045
 4997SOL    HW126624   1.463   3.597   7.571  0.2430 -0.7538  0.5571
 4997SOL    HW226625   1.328   3.659   7.560  0.2095  1.2887 -2.5759
 4998SOL     OW26626   2.317   2.678   9.175 -0.5523  0.5115  0.1731
 4998SOL    HW126627   2.262   2.641   9.244  0.6575  0.1558  0.9585
 4998SOL    HW226628   2.405   2.657   9.208 -1.3944 -2.3688  0.5586
 4999SOL     OW26629   4.136   1.886   7.261  0.1378  0.9688  1.1435
 4999SOL    HW126630   4.125   1.960   7.201  2.1333  0.3116 -0.0473
 4999SOL    HW226631   4.043   1.865   7.264  1.0281 -3.0941  0.0475
 5000SOL     OW26632   3.925   0.298   5.852  1.3880 -0.0404  0.1959
 5000SOL    HW126633   3.905   0.374   5.908 -0.8341 -1.3204  1.1341
 5000SOL    HW226634   4.013   0.326   5.826  0.1504 -0.8668 -4.8105
 5001SOL     OW26635   2.479   4.033   8.059  0.7176 -0.2880 -0.4465
 5001SOL    HW126636   2.529   4.038   8.140 -1.0656 -1.2705  0.7316
 5001SOL    HW226637   2.501   3.944   8.031  0.9725 -0.3237 -0.1237
 5002SOL     OW26638   2.834   1.711   7.030 -0.1007  0.2089  0.2890
 5002SOL    HW126639   2.871   1.728   6.943 -1.3179 -4.0367 -1.0714
 5002SOL    HW226640   2.742   1.737   7.019 -0.1597 -0.1574 -0.1038
 5003SOL     OW26641   1.435   0.918   8.463  0.4825 -0.0578  0.2595
 5003SOL    HW126642   1.519   0.952   8.495  0.2630  0.7983 -0.0725
 5003SOL    HW226643   1.433   0.834   8.509  1.0643 -0.2304 -0.0260
 5004SOL     OW26644   4.451   0.371  17.093  0.1805 -0.6258  0.7808
 5004SOL    HW126645   4.517   0.301  17.097  1.1715  0.2846  0.5843
 5004SOL    HW226646   4.372   0.319  17.098  0.1657 -0.3862  3.2881
 5005SOL     OW26647   2.459   2.032  14.802 -0.6028  0.0742  0.2153
 5005SOL    HW126648   2.541   1.985  14.811 -1.9318 -2.5727 -1.2898
 5005SOL    HW226649   2.400   1.987  14.862 -0.7930  3.2051  2.3382
 5006SOL     OW26650   2.733   3.399  12.332 -0.4561 -0.5819 -0.5111
 5006SOL    HW126651   2.692   3.479  12.364 -1.6777 -1.2567 -0.4011
 5006SOL    HW226652   2.826   3.425  12.335 -0.6318 -0.2096  1.5879
 5007SOL     OW26653   3.772   2.588   2.597  0.0617  0.1636 -0.3799
 5007SOL    HW126654   3.825   2.573   2.676  0.4402 -0.1439 -0.6929
 5007SOL    HW226655   3.779   2.505   2.551 -2.9101 -0.1364 -0.2684
 5008SOL     OW26656   4.600   2.465   7.235 -0.1757  0.1800  0.1522
 5008SOL    HW126657   4.547   2.386   7.246 -0.5324  0.7220  2.3465
 5008SOL    HW226658   4.666   2.425   7.178  1.1657 -2.1705  3.2983
 5009SOL     OW26659   0.126   4.043   0.961 -0.4761  0.5347 -0.1418
 5009SOL    HW126660   0.219   4.043   0.938 -0.1273  3.7339  1.2651
 5009SOL    HW226661   0.131   3.980   1.033 -1.4564  0.0716 -0.4784
 5010SOL     OW26662   0.513   2.521   8.739  0.1735 -0.0336 -0.2871
 5010SOL    HW126663   0.453   2.454   8.772  1.4295 -1.3004 -0.6020
 5010SOL    HW226664   0.456   2.598   8.730 -0.3282 -0.3148  0.4716
 5011SOL     OW26665   2.129   2.311   9.144  0.1847  0.1242 -0.6130
 5011SOL    HW126666   2.050   2.327   9.197  0.4366 -0.7961  0.0430
 5011SOL    HW226667   2.168   2.398   9.139 -0.9350  0.6049 -1.1823
 5012SOL     OW26668   1.430   0.168  17.204  0.4626  0.1444  0.3222
 5012SOL    HW126669   1.340   0.199  17.194 -0.6041 -3.1472 -0.3489
 5012SOL    HW226670   1.470   0.242  17.160 -0.0795 -0.1624 -0.6925
 5013SOL     OW26671   4.420   3.997   5.271 -0.0552 -0.4725 -0.5960
 5013SOL    HW126672   4.471   4.053   5.212  2.5155 -0.4725  1.5923
 5013SOL    HW226673   4.391   4.064   5.333  0.2017 -1.4180  0.5498
 5014SOL     OW26674   2.379   4.030   7.715  0.0804 -0.4392  0.4972
 5014SOL    HW126675   2.356   4.044   7.623 -2.0124 -0.2004  1.0434
 5014SOL    HW226676   2.455   4.086   7.727 -0.2039  0.0627 -0.0280
 5015SOL     OW26677   4.566   0.763   7.642  0.2167  0.3424  0.2732
 5015SOL    HW126678   4.575   0.834   7.578 -0.1520 -2.0235 -2.3951
 5015SOL    HW226679   4.605   0.687   7.599  1.1152  0.4532  0.8919
 5016SOL     OW26680   0.720   3.424   4.614  0.1078  0.0817 -0.3304
 5016SOL    HW126681   0.654   3.404   4.680  1.2867  2.5940  1.6197
 5016SOL    HW226682   0.717   3.517   4.634 -0.5892  0.4292 -2.0902
 5017SOL     OW26683   2.259   4.530   9.879  0.2225  0.1622  1.1551
 5017SOL    HW126684   2.312   4.460   9.841 -1.4306 -1.7543  2.3497
 5017SOL    HW226685   2.195   4.541   9.809  2.2109 -0.3892 -0.7530
 5018SOL     OW26686   1.917   2.526   5.105 -0.4587  0.1728  0.0197
 5018SOL    HW126687   1.940   2.525   5.198  0.8784  0.3049 -0.3079
 5018SOL    HW226688   1.884   2.436   5.094  0.7456 -0.5622  2.3074
 5019SOL     OW26689   2.594   0.273   8.443  0.4714 -0.1886  0.5915
 5019SOL    HW126690   2.581   0.187   8.402 -0.5195  0.1210  0.2475
 5019SOL    HW226691   2.501   0.296   8.454  0.7161  0.6732  0.8300
 5020SOL     OW26692   4.639   2.159   8.919  0.1637 -0.1584 -0.8035
 5020SOL    HW126693   4.677   2.096   8.981 -0.4423  1.2384  0.9830
 5020SOL    HW226694   4.628   2.243   8.964 -0.1622  0.3769 -1.8873
 5021SOL     OW26695   2.478   3.335   5.596 -0.1138 -0.4722  0.1661
 5021SOL    HW126696   2.560   3.301   5.559  1.3973  1.5591  1.7292
 5021SOL    HW226697   2.430   3.367   5.519 -0.0545  1.5555  0.9797
 5022SOL     OW26698   3.324   2.533   8.186 -0.2440  0.3915 -0.5112
 5022SOL    HW126699   3.393   2.553   8.123  1.0565  1.4593  1.2381
 5022SOL    HW226700   3.381   2.496   8.254 -0.5930 -0.4797 -0.6903
 5023SOL     OW26701   3.952   2.934  16.496 -0.8242 -0.2742  0.1986
 5023SOL    HW126702   4.046   2.950  16.500 -1.1713  0.9588  3.0973
 5023SOL    HW226703   3.945   2.869  16.425 -1.5205  1.2208 -1.1041
 5024SOL     OW26704   3.389   4.432   5.999  0.1365  0.0045  0.2454
 5024SOL    HW126705   3.365   4.515   5.958  1.9015 -0.4103 -1.6408
 5024SOL    HW226706   3.478   4.408   5.971 -0.1063 -1.4749  0.6982
 5025SOL     OW26707   0.812   1.183  15.825 -0.1629 -0.5018 -0.6312
 5025SOL    HW126708   0.788   1.226  15.743 -0.5947  1.0348  0.3154
 5025SOL    HW226709   0.901   1.159  15.797 -0.2400  0.6557 -1.8929
 5026SOL     OW26710   4.200   2.633   8.404 -0.2244 -0.1567  0.3938
 5026SOL    HW126711   4.289   2.597   8.397 -0.1627 -0.1213  0.9357
 5026SOL    HW226712   4.210   2.724   8.378  1.4263 -1.4992 -3.6559
 5027SOL     OW26713   1.742   1.958   4.250  0.8394  0.2465 -0.6479
 5027SOL    HW126714   1.790   1.958   4.167 -0.0358 -0.2915 -1.1542
 5027SOL    HW226715   1.685   2.034   4.236  2.2808  1.4170 -0.0292
 5028SOL     OW26716   0.862   1.146   5.242  0.0183 -0.3905 -0.4437
 5028SOL    HW126717   0.849   1.195   5.161  0.0070 -2.0875 -1.4693
 5028SOL    HW226718   0.903   1.211   5.298 -1.3003  1.2986 -1.4535
 5029SOL     OW26719   3.735   0.395   7.254  0.2529 -0.4606  0.0864
 5029SOL    HW126720   3.730   0.302   7.276 -1.5450 -0.8823 -2.0275
 5029SOL    HW226721   3.823   0.417   7.283  1.1618 -2.8721 -0.8762
 5030SOL     OW26722   3.748   1.561   8.529  0.5137  0.1009  0.1375
 5030SOL    HW126723   3.750   1.468   8.508 -0.6777 -0.3239  1.8902
 5030SOL    HW226724   3.832   1.589   8.492  1.3125 -0.6336  1.3769
 5031SOL     OW26725   1.931   4.722   3.798 -0.1361 -0.3932  0.0474
 5031SOL    HW126726   1.900   0.040   3.869  1.1728  1.4087 -0.8012
 5031SOL    HW226727   2.021   4.713   3.831 -0.0784 -2.1354 -0.5824
 5032SOL     OW26728   0.855   4.656   7.496 -0.5015  0.1728  0.1430
 5032SOL    HW126729   0.775   4.654   7.442 -0.5744  1.1440  0.2048
 5032SOL    HW226730   0.857   4.566   7.528  0.8631 -1.1492 -3.6369
 5033SOL     OW26731   0.842   0.744   7.009  0.6425  0.2136 -0.2894
 5033SOL    HW126732   0.845   0.745   6.913 -1.0033 -1.5810 -0.3527
 5033SOL    HW226733   0.889   0.663   7.028  0.3258  0.1588  0.2528
 5034SOL     OW26734   0.691   0.506  13.443  0.2059  0.2671 -0.0317
 5034SOL    HW126735   0.712   0.590  13.485  0.9803  0.2321 -0.3620
 5034SOL    HW226736   0.620   0.542  13.389 -0.1578  1.3075  1.1339
 5035SOL     OW26737   1.916   2.655   4.131 -0.3761  0.1013  0.0412
 5035SOL    HW126738   1.830   2.626   4.162 -0.4183  0.3914  0.1925
 5035SOL    HW226739   1.916   2.747   4.156 -0.4001  0.3590 -0.9279
 5036SOL     OW26740   1.671   4.678   9.686 -0.2407 -0.5061  0.6114
 5036SOL    HW126741   1.659   4.680   9.781  1.3605  0.8048  0.7962
 5036SOL    HW226742   1.691   0.032   9.665 -1.2477 -0.5477 -0.5814
 5037SOL     OW26743   3.087   0.500   7.962 -0.2757  0.1883 -0.3616
 5037SOL    HW126744   3.165   0.504   8.016 -0.1757  0.1826 -0.5066
 5037SOL    HW226745   3.023   0.519   8.031 -1.9074  0.2526 -1.8941
 5038SOL     OW26746   0.168   2.501   3.890 -0.4351  0.0721  0.6224
 5038SOL    HW126747   0.179   2.512   3.795 -1.9543  2.2515  0.7095
 5038SOL    HW226748   0.226   2.567   3.926 -0.3269  0.4766 -0.3066
 5039SOL     OW26749   0.260   0.093  14.180  0.0363 -0.5994  0.4373
 5039SOL    HW126750   0.330   0.046  14.227 -2.2468 -1.8193  2.5825
 5039SOL    HW226751   0.204   0.120  14.253  1.2534 -0.0079  1.1603
 5040SOL     OW26752   3.347   2.284  14.431 -0.1754 -0.0491  0.2145
 5040SOL    HW126753   3.431   2.296  14.477  0.1975 -1.1819 -0.1781
 5040SOL    HW226754   3.364   2.315  14.342  0.0099 -0.3850  0.1327
 5041SOL     OW26755   4.530   0.815   3.576 -0.0250  0.1112 -0.3696
 5041SOL    HW126756   4.519   0.908   3.559  2.0692  0.6091  0.9848
 5041SOL    HW226757   4.506   0.802   3.668 -1.0646  0.9019 -0.5362
 5042SOL     OW26758   0.187   3.780   9.297 -0.1647  0.2546  0.5229
 5042SOL    HW126759   0.171   3.866   9.337 -0.9194  1.0076 -1.3701
 5042SOL    HW226760   0.101   3.758   9.261  0.7612 -1.0356 -0.8749
 5043SOL     OW26761   3.725   0.583  13.571 -0.0354 -0.2775  0.0871
 5043SOL    HW126762   3.788   0.534  13.518  0.2492  0.1461  0.0307
 5043SOL    HW226763   3.748   0.662  13.522 -0.4730 -0.9380 -1.1992
 5044SOL     OW26764   1.085   3.105   6.110  0.0594  0.2480 -0.0197
 5044SOL    HW126765   1.158   3.158   6.143 -2.5360  2.4982  2.1247
 5044SOL    HW226766   1.120   3.017   6.103 -1.4725 -0.3419 -0.1570
 5045SOL     OW26767   0.132   3.338   3.417 -0.6603  0.3209  0.0105
 5045SOL    HW126768   0.066   3.320   3.349  0.8792 -1.6494 -0.9568
 5045SOL    HW226769   0.179   3.392   3.353  2.7783  0.1441  2.4480
 5046SOL     OW26770   0.198   2.873  13.959  0.1119  0.6810 -0.1627
 5046SOL    HW126771   0.173   2.884  14.051 -2.0445 -0.9827 -0.5514
 5046SOL    HW226772   0.130   2.817  13.922  0.2673 -0.7206  1.6496
 5047SOL     OW26773   0.262   3.296   8.421 -0.2268 -0.0050 -0.5554
 5047SOL    HW126774   0.312   3.350   8.482 -0.3482 -0.0355 -0.4277
 5047SOL    HW226775   0.270   3.346   8.340  3.9072 -1.1465 -0.8449
 5048SOL     OW26776   3.552   1.534   9.355 -0.6468 -0.3442 -0.1321
 5048SOL    HW126777   3.578   1.613   9.307 -0.0587  1.7993  3.7839
 5048SOL    HW226778   3.621   1.479   9.317 -0.4417  0.3586 -0.7899
 5049SOL     OW26779   0.339   1.424   5.453  0.2258 -0.1371  0.5256
 5049SOL    HW126780   0.393   1.372   5.393 -3.1521 -1.0679 -1.7244
 5049SOL    HW226781   0.406   1.474   5.499  1.1568  0.4377 -1.4620
 5050SOL     OW26782   4.394   2.968   6.224 -0.1578  0.2340  0.0873
 5050SOL    HW126783   4.455   3.021   6.173  1.7332 -2.8130 -0.7905
 5050SOL    HW226784   4.436   2.950   6.308  1.2725  1.3729 -0.3982
 5051SOL     OW26785   2.072   3.554   3.634 -0.4258 -0.0572 -0.1003
 5051SOL    HW126786   2.066   3.462   3.661  0.0194 -1.0086 -3.2081
 5051SOL    HW226787   2.129   3.588   3.703  2.6427 -1.9576 -1.6423
 5052SOL     OW26788   2.905   3.734   3.179 -0.3272 -0.4748 -0.0230
 5052SOL    HW126789   2.905   3.656   3.124  0.2937 -1.1003  0.8703
 5052SOL    HW226790   2.850   3.698   3.248 -0.9336 -1.6631 -1.1208
 5053SOL     OW26791   0.278   2.507   3.223 -0.2617  0.6861  0.1516
 5053SOL    HW126792   0.353   2.554   3.260 -0.8179  2.4679 -0.9961
 5053SOL    HW226793   0.200   2.550   3.258 -1.7015 -1.1903 -0.7482
 5054SOL     OW26794   1.280   3.572   4.493  0.0684 -0.4306  0.4890
 5054SOL    HW126795   1.246   3.661   4.501  0.6569 -0.0509 -1.2987
 5054SOL    HW226796   1.360   3.564   4.545  0.0987 -0.6043  0.4168
 5055SOL     OW26797   3.144   4.170   3.732  0.0625  0.4881  0.1334
 5055SOL    HW126798   3.178   4.242   3.784  0.5255  1.1763 -1.1088
 5055SOL    HW226799   3.157   4.093   3.787 -1.9524 -0.5160 -0.7666
 5056SOL     OW26800   1.307   2.991  11.530  0.0370  0.2714 -0.3241
 5056SOL    HW126801   1.383   3.048  11.516  0.2910  0.1166  0.4046
 5056SOL    HW226802   1.320   2.925  11.462 -2.4839  0.3934 -0.9079
 5057SOL     OW26803   0.083   0.580   5.815  0.1297 -0.9249  0.2120
 5057SOL    HW126804   4.730   0.575   5.847  1.7019 -0.8687  4.5767
 5057SOL    HW226805   0.123   0.610   5.897 -0.2759 -0.0814  0.0978
 5058SOL     OW26806   0.396   0.352   1.168  0.3374  0.0465 -0.1551
 5058SOL    HW126807   0.473   0.399   1.139  1.1815 -0.8308  0.6329
 5058SOL    HW226808   0.431   0.265   1.188 -0.0111  0.1035  0.7015
 5059SOL     OW26809   4.275   3.183  13.099  0.2780 -0.0361 -0.1300
 5059SOL    HW126810   4.192   3.226  13.078 -0.5171 -2.1076 -1.1777
 5059SOL    HW226811   4.294   3.223  13.184  0.0634 -0.3797  0.0804
 5060SOL     OW26812   3.641   2.816   2.680  0.3485  0.2646  0.0892
 5060SOL    HW126813   3.643   2.819   2.585 -1.1336  2.1810  0.1381
 5060SOL    HW226814   3.690   2.734   2.686 -1.7000 -0.9748 -0.0908
 5061SOL     OW26815   1.334   3.265   7.847 -0.1568  0.4773 -0.5091
 5061SOL    HW126816   1.388   3.246   7.924 -1.6342  2.6463  1.0648
 5061SOL    HW226817   1.395   3.324   7.803  0.6251  0.5864  0.7107
 5062SOL     OW26818   2.833   0.365   9.940  0.4072 -0.0616  0.1393
 5062SOL    HW126819   2.748   0.322   9.931  0.0306  0.7966 -0.3950
 5062SOL    HW226820   2.895   0.300   9.908  2.3198  1.4901  0.6627
 5063SOL     OW26821   4.138   4.048   2.833  0.3721  0.8329 -0.0489
 5063SOL    HW126822   4.219   4.038   2.882 -1.8612 -2.1173  3.0331
 5063SOL    HW226823   4.163   4.079   2.746  2.9780  0.2601  0.5063
 5064SOL     OW26824   3.102   3.629   3.612  0.2774 -0.1996  0.0148
 5064SOL    HW126825   3.170   3.687   3.645  0.1434 -0.6111  0.9982
 5064SOL    HW226826   3.080   3.662   3.524  1.7904 -0.6308 -0.5285
 5065SOL     OW26827   2.452   0.871   9.148  0.3147 -0.1212 -0.3486
 5065SOL    HW126828   2.464   0.792   9.202  0.3349 -1.2301 -1.9798
 5065SOL    HW226829   2.511   0.928   9.197  0.2141 -0.2451 -0.0813
 5066SOL     OW26830   2.780   0.352   4.862 -0.1123  0.2084  0.4375
 5066SOL    HW126831   2.713   0.330   4.797 -0.4366  0.5181  0.6697
 5066SOL    HW226832   2.741   0.433   4.894 -0.1964  1.1430 -1.9714
 5067SOL     OW26833   3.508   1.837   3.701  0.4273 -0.2159  0.4405
 5067SOL    HW126834   3.551   1.830   3.616 -0.1985  0.4411  0.0659
 5067SOL    HW226835   3.560   1.781   3.758  1.4671  0.1023 -0.2102
 5068SOL     OW26836   4.027   1.112  16.673 -0.4810  0.1274  0.5638
 5068SOL    HW126837   3.935   1.102  16.699 -0.8639  0.6348 -0.5598
 5068SOL    HW226838   4.009   1.158  16.590  1.6676  2.4167  1.3673
 5069SOL     OW26839   3.728   2.382  17.369  0.5207  0.4834 -0.0542
 5069SOL    HW126840   3.755   2.460  17.320 -0.6770  1.5457  0.9772
 5069SOL    HW226841   3.661   2.419  17.427  0.3789  0.6191 -0.3017
 5070SOL     OW26842   3.218   2.978  14.301  0.0594 -0.3127 -0.4027
 5070SOL    HW126843   3.272   3.050  14.332  1.4833 -0.5269 -2.3890
 5070SOL    HW226844   3.291   2.917  14.291  1.2858  0.9580  0.8056
 5071SOL     OW26845   1.261   2.266   1.468  0.3176  0.2965 -0.0120
 5071SOL    HW126846   1.257   2.331   1.538 -0.7109 -0.4525  0.6254
 5071SOL    HW226847   1.273   2.185   1.519 -0.2363  0.8515  0.9926
 5072SOL     OW26848   1.013   1.701   3.742  0.0680 -0.4318 -0.0120
 5072SOL    HW126849   0.968   1.784   3.728  3.2408  1.2668 -0.2551
 5072SOL    HW226850   1.071   1.703   3.666  1.3167 -1.8327  0.8925
 5073SOL     OW26851   1.409   4.729   6.058  0.4548  0.0340 -0.4330
 5073SOL    HW126852   1.368   0.020   6.139  0.0871  0.1935 -0.6719
 5073SOL    HW226853   1.499   0.020   6.077 -0.6942  3.0931  0.4674
 5074SOL     OW26854   3.823   3.571  16.013 -0.2445 -0.1172  0.2026
 5074SOL    HW126855   3.736   3.543  16.039 -0.5524 -0.1687 -0.8688
 5074SOL    HW226856   3.814   3.575  15.918  0.7979 -0.4629  0.0831
 5075SOL     OW26857   1.035   3.277   2.598 -0.3280 -0.3448 -0.9337
 5075SOL    HW126858   1.052   3.301   2.507  0.7920  1.8645 -0.1372
 5075SOL    HW226859   0.942   3.256   2.602 -0.0413 -1.4697 -0.1035
 5076SOL     OW26860   3.330   1.835  17.156  0.4698 -0.0276  0.3340
 5076SOL    HW126861   3.422   1.810  17.142  0.5701 -0.7012  2.1876
 5076SOL    HW226862   3.281   1.766  17.110 -0.8677  0.1848  1.4588
 5077SOL     OW26863   2.584   4.698   3.969  0.2784 -0.1525 -0.2829
 5077SOL    HW126864   2.514   4.736   3.915  0.6816 -1.5845 -1.8355
 5077SOL    HW226865   2.654   0.024   3.949 -0.8757  1.3562  0.4568
 5078SOL     OW26866   0.390   4.150   2.781  0.0139  0.2986 -0.1577
 5078SOL    HW126867   0.445   4.218   2.742 -0.4821  0.0770 -1.2338
 5078SOL    HW226868   0.438   4.111   2.855  0.6814  1.0473 -0.2014
 5079SOL     OW26869   1.106   3.768   1.187 -0.2990  0.7524 -0.1057
 5079SOL    HW126870   1.050   3.800   1.116  1.5327  0.0189 -1.8741
 5079SOL    HW226871   1.181   3.732   1.140 -1.4151 -1.9857  0.2108
 5080SOL     OW26872   2.485   0.188  16.486  0.2286  0.0218  0.0220
 5080SOL    HW126873   2.508   0.276  16.514 -1.3780  0.8849 -1.3752
 5080SOL    HW226874   2.543   0.133  16.538 -0.0064 -1.2867 -1.0952
 5081SOL     OW26875   4.413   2.881   4.845 -0.1524 -0.2387 -0.1616
 5081SOL    HW126876   4.503   2.893   4.875 -1.0917  3.1841  1.2852
 5081SOL    HW226877   4.427   2.896   4.752  0.4654 -1.4295 -0.2649
 5082SOL     OW26878   3.548   3.993   9.972 -0.2853  0.0739  0.3103
 5082SOL    HW126879   3.491   4.070   9.972 -0.9036 -0.3817  0.7735
 5082SOL    HW226880   3.519   3.955   9.889  0.5329 -0.2934  0.1953
 5083SOL     OW26881   3.018   3.087  17.691  0.7841 -0.8540  0.2115
 5083SOL    HW126882   2.928   3.113  17.708  1.0697  1.4729 -1.8974
 5083SOL    HW226883   3.007   2.994  17.675  0.1208 -1.0548  1.8493
 5084SOL     OW26884   3.688   2.822  17.629 -0.2341 -0.1092  0.0087
 5084SOL    HW126885   3.772   2.864  17.607 -0.3002  0.6610  1.2432
 5084SOL    HW226886   3.640   2.891  17.673 -0.4425  0.0366 -0.4479
 5085SOL     OW26887   0.561   3.292   0.832  0.2961  0.4308 -0.1061
 5085SOL    HW126888   0.628   3.229   0.858 -0.5840 -0.8040 -0.7950
 5085SOL    HW226889   0.498   3.236   0.786  1.1699 -0.4130 -0.2849
 5086SOL     OW26890   3.808   4.439  16.434  0.1490 -0.0336  0.5014
 5086SOL    HW126891   3.761   4.415  16.514 -0.5236  2.0613  0.7343
 5086SOL    HW226892   3.897   4.409  16.449  0.5695 -0.1206 -2.1748
 5087SOL     OW26893   1.245   1.288  11.759 -0.1954  0.1520 -0.2177
 5087SOL    HW126894   1.197   1.367  11.734 -1.0419 -0.3791 -0.2646
 5087SOL    HW226895   1.337   1.316  11.755 -0.2061  0.2905  0.6034
 5088SOL     OW26896   3.903   2.260   9.556 -0.1429  0.5163  0.3025
 5088SOL    HW126897   3.970   2.238   9.491  1.7593  0.3003  2.3259
 5088SOL    HW226898   3.834   2.285   9.494 -0.6230  1.7244  1.3439
 5089SOL     OW26899   2.535   3.821   8.964  0.8167 -0.1528  0.1063
 5089SOL    HW126900   2.474   3.820   9.038 -1.7181  1.3201 -1.9989
 5089SOL    HW226901   2.544   3.914   8.944  0.1001 -0.1273 -0.0817
 5090SOL     OW26902   1.457   0.769   6.049  0.3946 -0.6087 -0.2857
 5090SOL    HW126903   1.363   0.757   6.062 -0.0133 -0.5152 -3.0220
 5090SOL    HW226904   1.502   0.687   6.069  1.5456 -0.0835 -0.6645
 5091SOL     OW26905   1.688   4.109   8.361 -0.3095 -0.4248 -0.0218
 5091SOL    HW126906   1.599   4.142   8.375  0.1901 -0.2137  2.6253
 5091SOL    HW226907   1.686   4.090   8.268  1.1051  0.7071 -0.2812
 5092SOL     OW26908   3.691   0.350   6.955  0.0093 -0.6191  0.7837
 5092SOL    HW126909   3.721   0.406   7.027  1.8514 -2.9562  1.8221
 5092SOL    HW226910   3.737   0.268   6.973  0.3439 -0.5657  0.1656
 5093SOL     OW26911   1.255   4.342   9.647 -0.0778 -0.2401  0.1927
 5093SOL    HW126912   1.246   4.284   9.572  0.5162  1.6150 -1.2994
 5093SOL    HW226913   1.311   4.406   9.604 -0.9372 -0.6733 -1.5432
 5094SOL     OW26914   2.227   2.329   6.315 -0.0508 -0.2949 -0.0241
 5094SOL    HW126915   2.293   2.264   6.291  0.2136  0.2159 -0.6571
 5094SOL    HW226916   2.258   2.345   6.405 -0.9984  1.4536 -0.0183
 5095SOL     OW26917   0.774   4.209   5.161  0.0344  0.1577  0.3230
 5095SOL    HW126918   0.744   4.121   5.184  1.4230 -0.5030 -0.4086
 5095SOL    HW226919   0.702   4.269   5.181 -0.0003 -0.8463  3.1754
 5096SOL     OW26920   2.825   0.700  15.634 -0.1218 -0.4373  0.1625
 5096SOL    HW126921   2.867   0.616  15.615  1.7278  0.6079 -0.3620
 5096SOL    HW226922   2.891   0.762  15.603  0.2759 -1.1492 -0.3964
 5097SOL     OW26923   2.191   0.419   7.795  0.0128 -0.4572  0.0501
 5097SOL    HW126924   2.175   0.513   7.783  0.8727 -0.6376 -2.6053
 5097SOL    HW226925   2.203   0.381   7.708 -2.0175  2.0320 -1.3250
 5098SOL     OW26926   1.353   1.476   7.676  0.4771 -1.2522 -0.2884
 5098SOL    HW126927   1.413   1.421   7.726 -0.6173 -2.1136  0.0519
 5098SOL    HW226928   1.293   1.412   7.638  0.2167 -0.5058 -1.1615
 5099SOL     OW26929   1.808   2.392   3.567 -0.2512 -0.0837  0.2225
 5099SOL    HW126930   1.781   2.452   3.498  1.0431 -0.2726 -0.4379
 5099SOL    HW226931   1.898   2.418   3.586 -0.3883  0.1869  0.5024
 5100SOL     OW26932   3.096   2.748  14.327 -0.3126  0.3973  0.0548
 5100SOL    HW126933   3.124   2.839  14.324 -0.0728  0.2721 -1.7054
 5100SOL    HW226934   3.005   2.751  14.358  0.5538  1.5700  2.4253
 5101SOL     OW26935   3.872   1.735   3.082 -0.4248 -0.1335 -0.2433
 5101SOL    HW126936   3.855   1.709   2.991 -3.9255  2.2520 -0.2818
 5101SOL    HW226937   3.935   1.666   3.103  1.2282  0.4198 -3.3658
 5102SOL     OW26938   0.904   2.707   3.641  0.0322 -0.0402  0.0639
 5102SOL    HW126939   0.963   2.741   3.574 -1.1515 -0.4028 -1.1404
 5102SOL    HW226940   0.836   2.773   3.656  2.8053  2.2713  2.6032
 5103SOL     OW26941   2.204   4.570   5.940 -0.0182 -0.2417 -0.3131
 5103SOL    HW126942   2.121   4.609   5.913 -0.4536  0.3664  1.8967
 5103SOL    HW226943   2.202   4.560   6.035 -1.5248 -0.5079 -0.3669
 5104SOL     OW26944   0.642   3.841  14.660 -0.1577 -0.0090 -0.3677
 5104SOL    HW126945   0.548   3.828  14.645 -0.4855  1.7109  0.1491
 5104SOL    HW226946   0.639   3.796  14.745  1.5867  1.7394  0.6154
 5105SOL     OW26947   3.957   0.860   8.411  0.7100  0.3281  0.2272
 5105SOL    HW126948   3.981   0.869   8.319 -0.1401  0.1278 -0.0164
 5105SOL    HW226949   3.976   0.767   8.426  2.9838  0.8519  0.5773
 5106SOL     OW26950   3.334   3.479  12.182  0.7130  0.1837  0.1925
 5106SOL    HW126951   3.301   3.404  12.132 -0.8646 -0.0362  1.5612
 5106SOL    HW226952   3.390   3.527  12.120 -1.2539  2.8518  0.4606
 5107SOL     OW26953   2.664   0.424   6.959  0.0665 -0.1792 -0.0549
 5107SOL    HW126954   2.703   0.487   6.898 -1.4381  0.3610 -0.4777
 5107SOL    HW226955   2.740   0.422   7.017  0.2827  0.6650 -0.3098
 5108SOL     OW26956   0.420   3.010   2.829 -0.2368  0.2204  0.4463
 5108SOL    HW126957   0.489   3.008   2.896 -0.3963 -1.8873  0.5632
 5108SOL    HW226958   0.459   2.950   2.765 -0.9269  1.1857 -0.8668
 5109SOL     OW26959   4.616   3.428   2.242  0.5245  0.0523  0.6291
 5109SOL    HW126960   4.634   3.335   2.228  0.9006  0.1252  0.6038
 5109SOL    HW226961   4.546   3.417   2.306 -0.2932  1.5477 -0.0043
 5110SOL     OW26962   2.968   3.907   3.592  0.1072 -0.1216 -0.4761
 5110SOL    HW126963   3.005   3.990   3.623  2.5646 -0.9866 -1.0599
 5110SOL    HW226964   3.034   3.886   3.526 -0.8473 -1.9163 -0.8661
 5111SOL     OW26965   4.287   2.078  13.147  0.1010  0.5001  0.6153
 5111SOL    HW126966   4.254   2.154  13.196  0.9607  1.7877 -0.8203
 5111SOL    HW226967   4.381   2.078  13.166 -0.2330  2.3641  2.3371
 5112SOL     OW26968   3.443   0.574   9.492  0.0301 -0.1570 -0.0726
 5112SOL    HW126969   3.470   0.482   9.502  1.1779  0.2251  0.3192
 5112SOL    HW226970   3.412   0.568   9.401 -1.2238  1.7942  0.2375
 5113SOL     OW26971   3.602   1.676   1.417 -0.1624  0.5578 -0.1803
 5113SOL    HW126972   3.615   1.727   1.338  0.7697  0.6474  0.0308
 5113SOL    HW226973   3.692   1.648   1.435 -0.8388  0.1745  2.6342
 5114SOL     OW26974   3.209   4.712   7.249 -0.5989 -0.3341  0.5690
 5114SOL    HW126975   3.303   4.724   7.254 -0.5841  1.0103 -2.9992
 5114SOL    HW226976   3.183   0.067   7.246 -1.5642 -0.5832  1.1282
 5115SOL     OW26977   4.310   0.967   2.839  0.5265 -0.1212  0.0442
 5115SOL    HW126978   4.248   1.017   2.893  3.0950  0.7046  2.1840
 5115SOL    HW226979   4.397   0.998   2.862  1.3988 -1.9198 -0.8913
 5116SOL     OW26980   3.389   0.829   3.690  0.0239 -0.6472 -0.2229
 5116SOL    HW126981   3.360   0.816   3.780  0.4418  1.5904  0.2448
 5116SOL    HW226982   3.317   0.787   3.642  0.7951 -1.7025 -0.4634
 5117SOL     OW26983   4.551   1.382   9.079  0.0166  0.0423 -0.4976
 5117SOL    HW126984   4.561   1.380   9.174  2.4214  1.2259 -0.7336
 5117SOL    HW226985   4.536   1.288   9.065  1.3751 -0.4505  1.2891
 5118SOL     OW26986   4.461   0.715  15.902  0.4604 -0.0859 -0.1419
 5118SOL    HW126987   4.460   0.634  15.850 -1.5118 -0.2845  0.2280
 5118SOL    HW226988   4.382   0.691  15.950 -0.3522 -0.7917 -1.8153
 5119SOL     OW26989   0.240   2.206  17.072  0.1589 -0.0563 -0.0054
 5119SOL    HW126990   0.182   2.180  17.001 -1.8799  1.2442  1.1664
 5119SOL    HW226991   0.325   2.195  17.031  0.6660  0.3357  0.9297
 5120SOL     OW26992   1.278   4.539   2.487  0.6652 -0.0105 -0.3310
 5120SOL    HW126993   1.251   4.498   2.570  0.8726  2.5671  1.0223
 5120SOL    HW226994   1.199   4.590   2.470  2.6914  3.5152  0.5793
 5121SOL     OW26995   0.033   1.070   6.668  0.1106  0.7982  0.3783
 5121SOL    HW126996   0.099   1.071   6.599  0.1150  0.0765  0.3638
 5121SOL    HW226997   4.715   0.994   6.649  0.9069  0.5168 -0.8667
 5122SOL     OW26998   3.974   3.250   7.306 -0.5084  0.2312  0.1969
 5122SOL    HW126999   4.027   3.177   7.276  0.9428  1.3650  0.0221
 5122SOL    HW227000   3.969   3.300   7.225  3.0483  0.5079  0.1771
 5123SOL     OW27001   3.997   1.545   3.661  0.7314  0.0919  0.1725
 5123SOL    HW127002   4.070   1.512   3.608  1.1456 -1.0173  1.4526
 5123SOL    HW227003   4.009   1.638   3.641 -1.4490  0.5612  1.0365
 5124SOL     OW27004   4.623   2.797   2.277  0.5174  0.3109  0.1338
 5124SOL    HW127005   4.630   2.740   2.353 -0.7697  0.7338  0.5623
 5124SOL    HW227006   4.560   2.859   2.314 -0.6385 -0.6648 -0.2102
 5125SOL     OW27007   1.971   3.568   1.546 -0.4144 -0.0677  0.5101
 5125SOL    HW127008   1.999   3.600   1.460 -2.0862 -0.5013 -0.1960
 5125SOL    HW227009   1.939   3.480   1.527 -0.9554  0.5627 -1.5708
 5126SOL     OW27010   3.602   4.641   8.811  0.0420 -0.1726 -0.7274
 5126SOL    HW127011   3.518   4.595   8.812  1.0138 -1.9435 -0.9146
 5126SOL    HW227012   3.579   4.734   8.803 -0.0021 -0.1541 -0.3631
 5127SOL     OW27013   4.608   2.745  14.145 -0.6858  0.3531  0.2667
 5127SOL    HW127014   4.686   2.691  14.157 -0.8211  0.1908  0.4104
 5127SOL    HW227015   4.538   2.681  14.147  2.1687 -2.7428  0.7747
 5128SOL     OW27016   1.587   0.613   9.527  0.1499 -0.5722  0.2076
 5128SOL    HW127017   1.584   0.683   9.593 -0.8019  0.6743 -1.1702
 5128SOL    HW227018   1.554   0.664   9.453  2.1984  0.1102 -0.2372
 5129SOL     OW27019   0.481   0.399  12.477  0.0495 -0.2333 -0.4020
 5129SOL    HW127020   0.469   0.345  12.399  0.2543 -1.7428  0.6168
 5129SOL    HW227021   0.406   0.457  12.481 -0.7030 -1.0635 -2.8411
 5130SOL     OW27022   1.457   3.534  16.756 -0.2173 -0.2367  0.1341
 5130SOL    HW127023   1.512   3.609  16.734 -1.3749  0.9881  1.4056
 5130SOL    HW227024   1.430   3.505  16.669  0.6168 -1.0357  0.1433
 5131SOL     OW27025   3.610   4.251   5.093  0.5904  0.3175  0.3319
 5131SOL    HW127026   3.672   4.311   5.052  0.7893  0.9537  1.5415
 5131SOL    HW227027   3.661   4.232   5.172  2.6087 -0.8887 -1.2728
 5132SOL     OW27028   3.466   4.309   5.747  0.2874 -0.6901 -0.2233
 5132SOL    HW127029   3.396   4.244   5.747 -0.9533  0.6286 -0.5636
 5132SOL    HW227030   3.413   4.388   5.732 -2.3121 -2.1313  1.4360
 5133SOL     OW27031   2.095   2.824   3.281  0.0335  0.0410 -0.1508
 5133SOL    HW127032   2.184   2.856   3.268 -0.7004  1.0234 -2.8076
 5133SOL    HW227033   2.119   2.733   3.295  1.4152  0.4819  0.3510
 5134SOL     OW27034   2.639   1.003   3.077  0.2264 -0.1563  0.3167
 5134SOL    HW127035   2.692   1.036   3.149 -1.7713 -0.8682  2.1165
 5134SOL    HW227036   2.548   1.008   3.107 -0.1043  2.8383 -1.1020
 5135SOL     OW27037   3.580   3.349   4.445  0.6737  0.1503  0.3975
 5135SOL    HW127038   3.645   3.407   4.486  0.3580  1.0422 -0.3704
 5135SOL    HW227039   3.530   3.415   4.397 -0.6434 -1.0036  0.1886
 5136SOL     OW27040   4.581   1.145   7.866 -0.0497  0.8583 -0.3924
 5136SOL    HW127041   4.652   1.177   7.921  0.4993 -1.2397  0.1008
 5136SOL    HW227042   4.504   1.191   7.900 -0.9561 -0.6083 -0.4627
 5137SOL     OW27043   2.109   1.109   9.966 -0.1936  0.1573 -0.0732
 5137SOL    HW127044   2.125   1.030  10.018  0.5236 -0.4163 -1.1662
 5137SOL    HW227045   2.196   1.149   9.969 -0.1040 -0.0764  0.3698
 5138SOL     OW27046   0.733   2.463   6.951  0.2017  0.4478  0.2688
 5138SOL    HW127047   0.663   2.399   6.946 -0.4136  1.0184  1.4178
 5138SOL    HW227048   0.710   2.495   7.039 -0.0051  0.6250  0.1505
 5139SOL     OW27049   3.568   2.380   6.899 -0.6047 -0.6221 -0.1901
 5139SOL    HW127050   3.547   2.344   6.813  0.7203  0.9076 -1.1556
 5139SOL    HW227051   3.495   2.443   6.899  0.9246  1.1714 -0.2087
 5140SOL     OW27052   2.818   1.009  10.300  0.2029 -0.0468  0.4049
 5140SOL    HW127053   2.875   0.989  10.374 -0.6889  0.2228  1.1617
 5140SOL    HW227054   2.760   1.073  10.343 -1.1087 -0.5260 -0.6273
 5141SOL     OW27055   2.685   3.934   6.311 -0.4876  1.0909 -0.2791
 5141SOL    HW127056   2.689   3.878   6.234 -2.9182  1.7075 -0.8587
 5141SOL    HW227057   2.763   3.989   6.298 -0.0114  0.0542 -1.7542
 5142SOL     OW27058   2.217   3.816   3.523 -0.4507  0.3389 -0.2165
 5142SOL    HW127059   2.151   3.868   3.568  0.6358  2.1339 -0.6954
 5142SOL    HW227060   2.168   3.759   3.464  0.7943  0.7733 -1.6835
 5143SOL     OW27061   1.656   0.531   0.072  0.1503  0.2887  0.0916
 5143SOL    HW127062   1.638   0.442   0.041 -1.1831 -0.1073  1.9669
 5143SOL    HW227063   1.669   0.573  17.734 -1.8482 -1.5270 -1.1210
 5144SOL     OW27064   1.003   0.549   8.052  0.4208 -0.1203  0.3388
 5144SOL    HW127065   0.920   0.563   8.007 -0.3580  0.6944  2.0399
 5144SOL    HW227066   1.027   0.637   8.080  0.3275  0.7312 -2.2083
 5145SOL     OW27067   0.414   2.584  10.750 -0.0091  0.4370 -0.0211
 5145SOL    HW127068   0.478   2.555  10.685  0.1504 -0.0673  0.3652
 5145SOL    HW227069   0.471   2.643  10.800 -0.6341  0.0562  1.1335
 5146SOL     OW27070   0.178   4.018   5.458  0.0220 -0.1191  0.4332
 5146SOL    HW127071   0.134   3.934   5.449  0.1035 -0.1347  0.1736
 5146SOL    HW227072   0.199   4.021   5.551 -0.8592  0.7197  0.6047
 5147SOL     OW27073   2.725   4.425   7.740  0.1339  0.0879  0.1057
 5147SOL    HW127074   2.669   4.435   7.663 -0.4370  1.4408  0.7040
 5147SOL    HW227075   2.655   4.417   7.805  0.3033 -0.0040  0.2736
 5148SOL     OW27076   2.166   1.953  10.490  0.3690 -0.2569 -0.2016
 5148SOL    HW127077   2.102   1.882  10.497  1.1335 -0.7268  2.1560
 5148SOL    HW227078   2.213   1.949  10.573 -2.1652 -2.1522  1.1305
 5149SOL     OW27079   2.392   2.666   5.420  0.3833  0.0618 -0.1554
 5149SOL    HW127080   2.387   2.583   5.374 -2.0074  1.4361 -2.3351
 5149SOL    HW227081   2.428   2.721   5.351  1.8420 -3.1933 -2.0045
 5150SOL     OW27082   1.194   4.308  11.991  0.4237  0.3723 -0.2396
 5150SOL    HW127083   1.270   4.293  11.934  1.7242 -0.3752  1.6841
 5150SOL    HW227084   1.174   4.399  11.967  0.8003 -0.1135 -2.4173
 5151SOL     OW27085   1.252   3.132  17.015  0.4221 -0.4029 -0.0404
 5151SOL    HW127086   1.294   3.165  17.094  1.0353 -0.0253 -0.5318
 5151SOL    HW227087   1.300   3.051  16.999  2.9997  1.0231  0.5834
 5152SOL     OW27088   0.999   3.592  17.267  0.2032  0.0561  0.2526
 5152SOL    HW127089   1.030   3.592  17.358 -2.3079 -0.0324  1.1290
 5152SOL    HW227090   1.014   3.505  17.229 -3.4497  0.7450 -2.7436
 5153SOL     OW27091   0.761   0.013  15.329  0.6116 -0.3204 -0.1006
 5153SOL    HW127092   0.819   0.077  15.370  1.4445  0.2431 -2.1740
 5153SOL    HW227093   0.677   0.049  15.358  1.2751 -0.2020  1.6764
 5154SOL     OW27094   0.601   1.536   2.958  0.0630 -0.0219  0.8634
 5154SOL    HW127095   0.608   1.544   3.053  0.5077 -2.9247  1.0570
 5154SOL    HW227096   0.511   1.561   2.939  0.0756 -0.0749  0.7343
 5155SOL     OW27097   4.068   1.737   3.316 -0.7130  0.4147  0.3795
 5155SOL    HW127098   4.019   1.657   3.333  0.8171 -0.2569  1.6127
 5155SOL    HW227099   4.001   1.805   3.317 -0.3532  0.7799  0.0462
 5156SOL     OW27100   3.078   1.357   1.722 -0.1135 -0.0749  0.0386
 5156SOL    HW127101   3.104   1.450   1.723 -1.3536  0.2673  1.5856
 5156SOL    HW227102   3.141   1.313   1.665  0.2013  1.1622 -0.5657
 5157SOL     OW27103   1.588   0.046  10.806 -0.0626  0.4375  0.0848
 5157SOL    HW127104   1.662   0.055  10.746  0.2200 -1.6065  0.1315
 5157SOL    HW227105   1.603   4.694  10.837  0.5702  1.0812  1.6233
 5158SOL     OW27106   4.676   0.233  10.622 -0.0014 -0.3196 -0.1359
 5158SOL    HW127107   4.601   0.293  10.626  0.9316  0.8359 -0.0934
 5158SOL    HW227108   4.631   0.152  10.598  1.6738 -0.8431 -1.5151
 5159SOL     OW27109   0.312   4.018  11.702  0.4108  0.3099 -0.1801
 5159SOL    HW127110   0.392   4.062  11.674  1.2495 -2.2815 -1.8539
 5159SOL    HW227111   0.310   4.040  11.795 -0.4081  1.8283 -0.5694
 5160SOL     OW27112   2.283   4.471   8.151 -0.8459  0.0424  0.4198
 5160SOL    HW127113   2.276   4.376   8.157  2.3804 -0.2992 -1.3459
 5160SOL    HW227114   2.352   4.481   8.217  0.0532 -1.6111 -0.3050
 5161SOL     OW27115   3.864   3.911   3.584  0.1056  0.3622 -0.3302
 5161SOL    HW127116   3.824   3.831   3.551  0.2051  0.0026  0.4209
 5161SOL    HW227117   3.883   3.952   3.499  0.1257 -0.4120 -0.6954
 5162SOL     OW27118   3.350   3.223   5.656  0.0201  0.3828  0.1390
 5162SOL    HW127119   3.365   3.129   5.655  0.0307  0.3847  0.1225
 5162SOL    HW227120   3.374   3.244   5.566 -0.9310  0.1441 -0.1751
 5163SOL     OW27121   1.580   4.629   1.995  0.4541 -0.4627  0.2401
 5163SOL    HW127122   1.673   4.647   1.979 -0.2691  2.9397 -0.1911
 5163SOL    HW227123   1.552   4.718   2.020  1.8797  0.1990 -0.5435
 5164SOL     OW27124   3.360   4.371   2.108  0.0448  0.0773  0.1954
 5164SOL    HW127125   3.336   4.432   2.038  1.7641  1.1125  0.5227
 5164SOL    HW227126   3.275   4.357   2.150  1.1287 -0.9164  2.0511
 5165SOL     OW27127   1.351   3.276  12.678  0.8103  0.7034 -0.4994
 5165SOL    HW127128   1.306   3.241  12.755  1.8652  2.3972  0.8972
 5165SOL    HW227129   1.389   3.357  12.713 -2.0112  2.0348 -0.5535
 5166SOL     OW27130   1.216   0.963  17.495 -0.3121  0.3120 -0.5495
 5166SOL    HW127131   1.301   1.003  17.476 -0.0469  0.4539  0.9796
 5166SOL    HW227132   1.180   1.036  17.545 -2.2813  0.3608 -2.0374
 5167SOL     OW27133   4.706   4.166   3.571 -0.4678  0.0924  0.3425
 5167SOL    HW127134   0.025   4.112   3.516 -1.6994 -1.7810  0.9070
 5167SOL    HW227135   4.677   4.234   3.509 -0.5953  1.2553  1.6830
 5168SOL     OW27136   0.375   1.413   1.248  0.3077 -0.0743 -0.0297
 5168SOL    HW127137   0.415   1.463   1.177  2.2662  0.3713  1.3619
 5168SOL    HW227138   0.342   1.334   1.205 -2.1039  1.0673 -0.3105
 5169SOL     OW27139   0.181   4.295   1.228 -0.1290  0.3037 -0.0421
 5169SOL    HW127140   0.139   4.241   1.295  0.3732 -0.5035 -0.3618
 5169SOL    HW227141   0.254   4.232   1.218  0.1600  0.3914  1.5437
 5170SOL     OW27142   0.748   2.905   9.113  0.3004 -0.2914  0.1616
 5170SOL    HW127143   0.792   2.924   9.196 -1.5209  0.5284  0.9277
 5170SOL    HW227144   0.763   2.811   9.100 -2.1881 -0.3681 -2.2360
 5171SOL     OW27145   2.010   2.279  10.247 -0.1220  0.5352  0.1839
 5171SOL    HW127146   1.960   2.241  10.174 -0.5712  1.2340  0.1173
 5171SOL    HW227147   1.956   2.268  10.325 -0.8121  1.7575 -0.1212
 5172SOL     OW27148   1.791   2.917   2.620 -0.6574 -0.1660  0.1561
 5172SOL    HW127149   1.713   2.874   2.586 -2.1658  2.0121  0.9048
 5172SOL    HW227150   1.757   2.937   2.707  2.0001  2.1168  0.6732
 5173SOL     OW27151   2.652   3.164  12.248  0.1468  0.4767 -0.0164
 5173SOL    HW127152   2.689   3.252  12.251 -0.7033  0.7657  2.6249
 5173SOL    HW227153   2.599   3.158  12.328  1.5949 -0.3280  0.8773
 5174SOL     OW27154   1.689   4.618  11.584  0.8964 -0.4027 -0.6912
 5174SOL    HW127155   1.745   4.690  11.614  2.0954 -1.9321  0.6822
 5174SOL    HW227156   1.613   4.664  11.548  0.8803 -0.9694 -1.3884
 5175SOL     OW27157   2.084   3.860   1.064 -0.1038  0.1305 -0.3195
 5175SOL    HW127158   2.133   3.910   1.128  0.4801  1.2654 -1.6559
 5175SOL    HW227159   2.065   3.926   0.997  0.0587 -0.9767 -1.4589
 5176SOL     OW27160   1.962   1.317   5.384 -0.3010 -0.8493  0.2865
 5176SOL    HW127161   2.000   1.250   5.441  0.5115 -0.1658  0.5486
 5176SOL    HW227162   2.033   1.382   5.387  0.7685 -1.8996 -2.0163
 5177SOL     OW27163   0.769   3.079   5.686 -0.2866  0.2523 -0.0284
 5177SOL    HW127164   0.861   3.108   5.686 -0.2887  0.2605 -0.1578
 5177SOL    HW227165   0.723   3.156   5.720 -0.2447  0.4691 -0.4528
 5178SOL     OW27166   3.449   2.471  13.854  0.3125  0.1852 -0.1293
 5178SOL    HW127167   3.441   2.548  13.798  1.2073  0.2424 -0.1768
 5178SOL    HW227168   3.362   2.431  13.861  0.4758 -0.1189  0.1389
 5179SOL     OW27169   3.280   1.185  10.403  0.1532  0.4375 -0.0810
 5179SOL    HW127170   3.343   1.208  10.334 -0.9953  0.1310 -1.2485
 5179SOL    HW227171   3.278   1.267  10.451 -0.7328  1.5327 -2.0067
 5180SOL     OW27172   4.108   0.189   5.572  0.2322 -0.4133  0.4475
 5180SOL    HW127173   4.042   0.249   5.536 -0.6054 -0.5563  1.7066
 5180SOL    HW227174   4.066   0.154   5.651 -3.1026 -1.7608 -1.9491
 5181SOL     OW27175   4.242   4.329  15.222 -0.9450  0.2796  0.6100
 5181SOL    HW127176   4.280   4.415  15.238  1.0464 -0.4184 -0.2410
 5181SOL    HW227177   4.297   4.288  15.155  0.2130  2.8625 -0.0370
 5182SOL     OW27178   2.573   3.036   2.072 -0.1921 -0.0699  0.1148
 5182SOL    HW127179   2.662   3.012   2.099 -0.0040 -0.5356 -0.9093
 5182SOL    HW227180   2.533   3.068   2.152  1.1793 -0.6092  1.0087
 5183SOL     OW27181   1.478   2.987   8.641  0.3936 -0.2854  0.5768
 5183SOL    HW127182   1.431   2.978   8.558 -0.7816  0.2266  1.1896
 5183SOL    HW227183   1.403   2.966   8.697  0.1204 -0.8752 -0.0214
 5184SOL     OW27184   0.120   4.639  14.060 -0.0638 -0.4805  0.1311
 5184SOL    HW127185   0.035   4.656  14.101  0.1102 -1.1057  0.7557
 5184SOL    HW227186   0.177   4.707  14.095  0.4753 -0.0534 -1.5966
 5185SOL     OW27187   2.707   1.618   8.443  0.0383  0.0356 -0.3321
 5185SOL    HW127188   2.648   1.665   8.384 -0.0330 -0.1879 -0.4382
 5185SOL    HW227189   2.657   1.539   8.463 -1.6852  1.1570 -0.2277
 5186SOL     OW27190   3.594   2.617   5.401  0.4503  0.3326  0.0103
 5186SOL    HW127191   3.530   2.600   5.332  2.9355 -1.8907 -1.7400
 5186SOL    HW227192   3.549   2.583   5.478  0.3701  1.1583  0.3246
 5187SOL     OW27193   1.120   4.595   9.858  0.1151  0.1943  0.1635
 5187SOL    HW127194   1.056   4.536   9.821  0.7533 -0.8401  0.7122
 5187SOL    HW227195   1.088   4.682   9.833 -1.3717 -0.6719 -0.8884
 5188SOL     OW27196   2.172   0.226   8.825 -0.4091 -0.7677 -0.3108
 5188SOL    HW127197   2.135   0.314   8.826  0.1834 -0.5265  0.3831
 5188SOL    HW227198   2.166   0.192   8.914  1.1784  0.4468  0.2517
 5189SOL     OW27199   3.555   3.736  16.820 -0.1099 -0.2713 -0.3483
 5189SOL    HW127200   3.569   3.684  16.899 -5.1220  0.2949  0.9465
 5189SOL    HW227201   3.527   3.820  16.857 -0.7653 -1.2277  1.3310
 5190SOL     OW27202   3.876   2.494   6.272  0.6662 -0.1053 -0.5252
 5190SOL    HW127203   3.912   2.425   6.328  0.7886  1.5531  1.4205
 5190SOL    HW227204   3.954   2.549   6.274  1.1044 -0.6394 -3.2681
 5191SOL     OW27205   2.045   3.127   2.970 -0.6092 -0.1879  0.1070
 5191SOL    HW127206   1.994   3.205   2.948 -0.9836 -0.3566  0.3732
 5191SOL    HW227207   2.057   3.089   2.883  2.3549 -3.9552  2.1600
 5192SOL     OW27208   4.387   1.331   0.014 -0.4261  0.0166 -0.2370
 5192SOL    HW127209   4.324   1.266  17.730 -0.5360 -0.3239  0.7075
 5192SOL    HW227210   4.403   1.377  17.679 -1.5878  0.1872 -0.3712
 5193SOL     OW27211   2.097   0.128   5.659  0.1513 -0.1084  0.6142
 5193SOL    HW127212   2.015   0.083   5.638  1.6096 -1.0408 -2.9866
 5193SOL    HW227213   2.099   0.140   5.754 -0.3473 -2.1138  0.8760
 5194SOL     OW27214   0.626   4.695  14.552  0.3209 -0.0556  0.3960
 5194SOL    HW127215   0.638   4.610  14.511  0.5815 -1.4527  3.4230
 5194SOL    HW227216   0.679   0.007  14.489  0.8265  1.1319  1.7543
 5195SOL     OW27217   2.087   3.645   8.005 -0.4954  0.0242 -0.8130
 5195SOL    HW127218   2.052   3.641   7.915  1.6607 -0.9135 -1.6090
 5195SOL    HW227219   2.055   3.563   8.043 -1.6844 -0.3697 -2.6173
 5196SOL     OW27220   0.437   0.208  12.267  0.0119  0.8481  0.0968
 5196SOL    HW127221   0.457   0.228  12.175 -0.4145  0.3062 -0.1091
 5196SOL    HW227222   0.351   0.166  12.267 -1.2801  3.4916  0.6266
 5197SOL     OW27223   1.108   1.794   0.922 -0.1071  0.2249 -0.3527
 5197SOL    HW127224   1.050   1.867   0.940 -2.9503 -2.3544  1.0004
 5197SOL    HW227225   1.082   1.729   0.987  2.2265  0.1976  0.5664
 5198SOL     OW27226   3.666   2.540   1.476  0.6538 -0.0828 -0.0020
 5198SOL    HW127227   3.589   2.588   1.445  0.9624 -0.4419 -1.3467
 5198SOL    HW227228   3.725   2.550   1.400  1.0245  2.8405  0.6578
 5199SOL     OW27229   1.310   2.131   8.521  0.4974 -0.4622  0.3654
 5199SOL    HW127230   1.325   2.218   8.559  1.5331 -0.2667 -0.4807
 5199SOL    HW227231   1.394   2.085   8.517  1.4510  1.3054 -0.2294
 5200SOL     OW27232   4.149   0.052  17.277 -0.0122 -0.0283 -0.3529
 5200SOL    HW127233   4.168   0.119  17.211 -0.3686 -0.6894 -1.1149
 5200SOL    HW227234   4.238   0.017  17.287  1.0019  2.1228 -1.6445
 5201SOL     OW27235   4.656   1.782  14.832 -0.4059 -0.0760 -0.5274
 5201SOL    HW127236   4.576   1.809  14.876  0.8096  0.8454  1.1122
 5201SOL    HW227237   4.714   1.780  14.909 -1.8328 -0.0126  0.5522
 5202SOL     OW27238   2.990   3.088   3.665 -0.9374  0.0943  0.5828
 5202SOL    HW127239   3.009   3.150   3.735 -0.1984 -0.3727  0.8049
 5202SOL    HW227240   2.940   3.135   3.599 -0.6013 -1.1031 -0.5166
 5203SOL     OW27241   4.434   1.509  15.742 -0.5894  0.1771  0.1501
 5203SOL    HW127242   4.502   1.442  15.755 -0.4902 -0.0504 -1.4657
 5203SOL    HW227243   4.469   1.587  15.785  0.1593 -0.4383  0.6583
 5204SOL     OW27244   3.624   0.662   6.124  0.1470  0.0524 -0.3004
 5204SOL    HW127245   3.615   0.752   6.093  1.2527  0.4245  0.4998
 5204SOL    HW227246   3.609   0.664   6.218  0.2753  0.0052 -0.2791
 5205SOL     OW27247   4.324   4.538   7.041 -0.1582  0.2718 -0.2739
 5205SOL    HW127248   4.260   4.510   6.976 -1.0146 -0.1205  0.7347
 5205SOL    HW227249   4.292   4.523   7.130  0.8132  3.2116  0.5856
 5206SOL     OW27250   1.458   4.646  16.036 -0.1513  0.2429  0.3288
 5206SOL    HW127251   1.376   4.648  16.086 -0.3288 -2.2343  0.1656
 5206SOL    HW227252   1.475   0.003  16.038  3.1426 -0.3396 -1.1201
 5207SOL     OW27253   2.672   2.504  11.523 -1.0364  0.3027  0.0751
 5207SOL    HW127254   2.698   2.570  11.587  0.0601  1.4616 -1.5675
 5207SOL    HW227255   2.711   2.531  11.440 -0.7175 -3.1821 -0.8859
 5208SOL     OW27256   3.706   3.066   0.461  0.6444 -0.0978 -0.1852
 5208SOL    HW127257   3.783   3.057   0.404  0.2062  2.4631 -1.1865
 5208SOL    HW227258   3.753   3.070   0.544  0.6574 -2.2389 -0.0848
 5209SOL     OW27259   4.548   1.781   4.719 -0.0138 -0.1136 -0.2003
 5209SOL    HW127260   4.625   1.824   4.756  0.1136 -0.8953  0.4443
 5209SOL    HW227261   4.495   1.778   4.798 -0.1565  0.0329 -0.2886
 5210SOL     OW27262   2.227   2.997   5.956 -0.2300  0.1464 -0.8274
 5210SOL    HW127263   2.224   3.003   5.860 -0.8597  3.2357 -0.5939
 5210SOL    HW227264   2.265   3.083   5.969  0.3342 -0.1842 -0.2967
 5211SOL     OW27265   1.051   1.138   9.837 -0.5865 -0.1803 -0.1239
 5211SOL    HW127266   1.064   1.071   9.904  1.3579 -0.7622 -1.0868
 5211SOL    HW227267   1.020   1.213   9.887  0.4476 -0.0190  0.2752
 5212SOL     OW27268   2.129   2.260   5.374 -0.3166  0.2150 -0.4278
 5212SOL    HW127269   2.075   2.238   5.450  0.1757  0.4097 -0.0259
 5212SOL    HW227270   2.086   2.344   5.356  0.2025  0.7914  1.1026
 5213SOL     OW27271   3.195   3.707   6.245 -1.1123  0.8502  0.5652
 5213SOL    HW127272   3.282   3.667   6.250 -0.7829  1.2011 -2.2252
 5213SOL    HW227273   3.156   3.646   6.308 -1.2073  0.5858  0.2543
 5214SOL     OW27274   3.882   0.493   4.509 -0.5230  0.4002 -0.0439
 5214SOL    HW127275   3.967   0.449   4.517  0.8304  2.7160 -1.6835
 5214SOL    HW227276   3.836   0.441   4.444 -1.0926  0.1262  0.5778
 5215SOL     OW27277   1.074   4.699   6.757 -0.3253  0.2356  0.6230
 5215SOL    HW127278   1.002   4.663   6.809  1.5588 -2.0669  1.6556
 5215SOL    HW227279   1.136   4.626   6.746 -1.3779 -0.0845 -3.1401
 5216SOL     OW27280   2.881   3.700   4.403 -0.4199 -0.1097 -0.1255
 5216SOL    HW127281   2.884   3.791   4.376 -1.9398  0.3593  1.3171
 5216SOL    HW227282   2.821   3.656   4.343 -0.2575  1.7832 -1.6667
 5217SOL     OW27283   2.968   4.180   4.458 -0.0030 -0.3366  0.3822
 5217SOL    HW127284   2.892   4.130   4.430  1.1327 -0.8549 -1.7820
 5217SOL    HW227285   3.006   4.208   4.375  0.9794 -3.1354 -0.1041
 5218SOL     OW27286   3.861   0.288  16.234 -0.2775 -0.2551 -0.2345
 5218SOL    HW127287   3.877   0.270  16.326  4.5423 -1.7686 -1.3769
 5218SOL    HW227288   3.951   0.307  16.205 -0.4057  0.7320  0.0098
 5219SOL     OW27289   0.254   0.026   1.566 -0.2413 -0.2740  0.5294
 5219SOL    HW127290   0.281   4.674   1.544  0.0219 -0.1705  0.4384
 5219SOL    HW227291   0.193   4.736   1.635 -0.6032  0.6138  0.5590
 5220SOL     OW27292   0.738   1.575  13.748  0.4567 -0.0002  0.1856
 5220SOL    HW127293   0.819   1.530  13.770  0.2432 -1.0502 -1.1952
 5220SOL    HW227294   0.682   1.500  13.728  1.8583 -0.9814 -0.0600
 5221SOL     OW27295   1.456   2.057   2.618 -0.1531 -0.0902  0.1584
 5221SOL    HW127296   1.462   2.118   2.691  0.9331  1.7507 -1.4555
 5221SOL    HW227297   1.378   2.005   2.640 -2.0049  1.8434 -1.7343
 5222SOL     OW27298   1.870   0.602   7.861 -0.7641 -0.0469 -0.3780
 5222SOL    HW127299   1.918   0.519   7.863 -0.7698 -0.0355  0.3524
 5222SOL    HW227300   1.811   0.591   7.936 -1.0028 -0.3736 -0.6167
 5223SOL     OW27301   3.220   3.290  17.366  0.1149 -0.0569 -0.5015
 5223SOL    HW127302   3.303   3.254  17.398 -0.2169  2.0155  2.7066
 5223SOL    HW227303   3.253   3.358  17.308  0.7538 -0.0230 -0.0935
 5224SOL     OW27304   1.910   0.806   8.820 -0.0261 -0.0215 -0.0238
 5224SOL    HW127305   1.924   0.811   8.726  0.3867 -1.7121 -0.0634
 5224SOL    HW227306   2.001   0.803   8.849 -0.1250 -1.8161  0.1147
 5225SOL     OW27307   0.994   3.400   4.859 -0.0684 -0.3318  0.0947
 5225SOL    HW127308   0.999   3.333   4.927 -1.1464 -1.1072 -0.5702
 5225SOL    HW227309   0.973   3.354   4.777  0.1101 -3.6295  1.8759
 5226SOL     OW27310   4.352   4.340   7.941  0.3425  0.0765 -0.1836
 5226SOL    HW127311   4.392   4.337   7.854  0.4396 -1.1815 -0.1026
 5226SOL    HW227312   4.434   4.344   7.990  1.0652 -1.0491 -1.2867
 5227SOL     OW27313   0.976   0.625   9.377 -0.4368  0.1256  0.0739
 5227SOL    HW127314   0.914   0.626   9.303 -0.6052  0.4065  0.2205
 5227SOL    HW227315   0.945   0.702   9.424 -0.8074 -0.1917  0.3572
 5228SOL     OW27316   0.245   2.136   0.576  0.2829  0.0895 -0.1803
 5228SOL    HW127317   0.151   2.122   0.566  0.3187  1.1431 -1.9353
 5228SOL    HW227318   0.252   2.230   0.557 -1.4640  0.3795  0.5928
 5229SOL     OW27319   3.000   1.638   6.087 -0.1576 -0.1038  0.6385
 5229SOL    HW127320   3.013   1.585   6.165  1.4799 -0.5805  0.0381
 5229SOL    HW227321   3.072   1.700   6.098  0.6639 -1.2263  1.5918
 5230SOL     OW27322   0.567   1.727  16.354  0.6480  0.5635 -0.3095
 5230SOL    HW127323   0.527   1.653  16.400 -3.7540  2.4037 -1.2366
 5230SOL    HW227324   0.658   1.698  16.352  0.2345 -0.8442  1.0840
 5231SOL     OW27325   3.971   2.830   2.793 -0.0957  0.2303  0.3385
 5231SOL    HW127326   3.950   2.737   2.801  1.3842 -0.0328  1.1478
 5231SOL    HW227327   4.066   2.820   2.788 -0.1504 -0.3693  0.5773
 5232SOL     OW27328   1.326   4.009   1.256  0.5849  0.5396  0.2350
 5232SOL    HW127329   1.292   4.086   1.302  1.6418  1.8710 -1.2316
 5232SOL    HW227330   1.266   4.004   1.182 -0.1270  0.7678  0.7922
 5233SOL     OW27331   3.094   0.236  14.966 -0.5892 -0.0981  0.1512
 5233SOL    HW127332   3.070   0.269  14.880 -1.1834 -3.2386 -0.9050
 5233SOL    HW227333   3.172   0.291  14.975 -1.3389  0.8393  0.7903
 5234SOL     OW27334   0.655   0.447   0.792  0.0964  0.3440 -0.4653
 5234SOL    HW127335   0.647   0.353   0.812  5.4783  0.2167  1.3170
 5234SOL    HW227336   0.734   0.457   0.738 -0.2396  0.7746 -0.8764
 5235SOL     OW27337   3.387   3.196   6.127  0.3041  0.0516 -0.3850
 5235SOL    HW127338   3.472   3.191   6.084  2.3215  2.0418  3.3530
 5235SOL    HW227339   3.327   3.190   6.052 -0.3273  0.5043  0.0845
 5236SOL     OW27340   2.006   0.065   7.881 -0.2725 -0.2922 -0.7367
 5236SOL    HW127341   1.949   4.725   7.890 -0.0513 -0.5242 -1.3067
 5236SOL    HW227342   2.064   0.053   7.956 -2.3982  1.4416  1.1573
 5237SOL     OW27343   2.624   1.958   4.972  0.2397  0.0182 -0.1209
 5237SOL    HW127344   2.587   1.939   4.886 -0.8764 -0.2303  0.4149
 5237SOL    HW227345   2.539   1.950   5.014 -0.3479 -2.6331 -1.8640
 5238SOL     OW27346   0.685   0.669   7.528  0.5942  0.1736 -0.1741
 5238SOL    HW127347   0.648   0.681   7.441 -0.7494  1.3785  0.5682
 5238SOL    HW227348   0.774   0.647   7.503  0.3168 -0.7933 -0.3256
 5239SOL     OW27349   0.423   1.787   5.435 -0.5307  0.4657  0.6269
 5239SOL    HW127350   0.413   1.820   5.525 -0.0717 -0.9784  1.1982
 5239SOL    HW227351   0.341   1.814   5.393  0.7262 -1.3185 -2.9126
 5240SOL     OW27352   2.889   1.942   6.183  0.3895 -0.4146 -0.5343
 5240SOL    HW127353   2.800   1.908   6.170  1.8164 -3.3182 -2.6849
 5240SOL    HW227354   2.900   1.965   6.276  0.2413 -1.8578 -0.1669
 5241SOL     OW27355   2.507   3.271   4.359 -0.1846  0.2874 -0.0644
 5241SOL    HW127356   2.483   3.362   4.340 -1.2389  0.0494  0.1533
 5241SOL    HW227357   2.444   3.247   4.427  0.4521 -2.2086 -0.3774
 5242SOL     OW27358   3.415   0.618  15.037  0.3165 -0.0914 -0.2592
 5242SOL    HW127359   3.372   0.607  15.122 -2.0533  2.1517 -1.1837
 5242SOL    HW227360   3.347   0.576  14.984  0.3165  0.3329 -0.5957
 5243SOL     OW27361   1.506   1.992   3.013  0.6383 -0.7049  0.1792
 5243SOL    HW127362   1.590   1.950   3.031  0.9054 -0.0340  0.4870
 5243SOL    HW227363   1.460   1.979   3.095  1.7793  0.7967  1.0516
 5244SOL     OW27364   1.881   1.847   4.452 -0.8912  0.1241 -0.3640
 5244SOL    HW127365   1.829   1.878   4.378 -1.8579  1.6863  0.9798
 5244SOL    HW227366   1.947   1.793   4.410  1.3634  1.3407  1.6492
 5245SOL     OW27367   0.405   4.354   8.985 -0.1934 -0.0668  0.4570
 5245SOL    HW127368   0.443   4.333   8.899 -1.8908 -0.9557 -0.0784
 5245SOL    HW227369   0.489   4.350   9.031 -1.0894  1.7293  2.2669
 5246SOL     OW27370   4.252   3.678   8.205 -0.4165 -0.7177  1.0121
 5246SOL    HW127371   4.259   3.671   8.110  1.5634 -0.2656  1.1188
 5246SOL    HW227372   4.227   3.768   8.223 -0.0900 -0.2948 -0.7154
 5247SOL     OW27373   1.424   1.281   9.561  0.0667 -0.5666  0.3233
 5247SOL    HW127374   1.363   1.279   9.635 -1.3091  1.4225 -0.7609
 5247SOL    HW227375   1.360   1.256   9.494  1.1706  1.0557 -1.3514
 5248SOL     OW27376   1.768   0.480   9.680  0.0221  0.1979  0.2990
 5248SOL    HW127377   1.849   0.528   9.661  0.6345  0.2327  2.8866
 5248SOL    HW227378   1.709   0.536   9.630 -0.2145  0.3750  0.7737
 5249SOL     OW27379   0.343   0.840   6.082  0.1633  0.7815  0.0245
 5249SOL    HW127380   0.291   0.763   6.061  1.3337 -0.7838  2.9348
 5249SOL    HW227381   0.388   0.855   5.998 -1.2564 -2.1908 -1.2736
 5250SOL     OW27382   2.493   0.598   7.985 -0.1227 -0.1821  0.0448
 5250SOL    HW127383   2.568   0.655   7.969 -1.3207  0.9496 -1.5185
 5250SOL    HW227384   2.475   0.572   7.895 -1.2548 -1.2019  0.5578
 5251SOL     OW27385   2.291   0.280   7.261 -0.5779  0.4673  0.4056
 5251SOL    HW127386   2.285   0.227   7.340  1.2882 -1.1446 -0.5465
 5251SOL    HW227387   2.381   0.312   7.269 -1.4183  3.0928 -0.5506
 5252SOL     OW27388   1.405   1.005  10.850  0.4104  0.6804  0.3931
 5252SOL    HW127389   1.398   1.092  10.888 -0.1757  0.3958  0.9243
 5252SOL    HW227390   1.396   1.014  10.755 -0.4912 -0.0679  0.4048
 5253SOL     OW27391   3.442   2.739  10.164 -0.6881 -0.0636 -0.0206
 5253SOL    HW127392   3.465   2.819  10.117 -0.6135  0.2751  0.5847
 5253SOL    HW227393   3.513   2.680  10.136  1.3584  1.4116  2.0583
 5254SOL     OW27394   1.489   4.116   2.098  0.0685  0.2022 -0.0005
 5254SOL    HW127395   1.514   4.131   2.007  0.1516 -2.8558 -0.4750
 5254SOL    HW227396   1.532   4.186   2.148 -0.7941  0.5308  0.2679
 5255SOL     OW27397   4.383   3.721   2.521 -0.2825 -0.2666 -0.2769
 5255SOL    HW127398   4.395   3.796   2.579 -1.3537  0.1181 -0.5530
 5255SOL    HW227399   4.458   3.727   2.461  0.9821  0.3652  1.3872
 5256SOL     OW27400   0.328   0.592   9.811  0.2389 -0.4455  0.2790
 5256SOL    HW127401   0.414   0.635   9.821  1.0673 -1.5922 -1.7946
 5256SOL    HW227402   0.340   0.501   9.837  1.2367 -0.2275  0.6036
 5257SOL     OW27403   0.497   2.458   4.203  0.1277 -0.0192 -0.6197
 5257SOL    HW127404   0.551   2.401   4.257  2.8351 -0.0087 -3.3559
 5257SOL    HW227405   0.419   2.403   4.214 -1.1217  1.7408 -0.6095
 5258SOL     OW27406   0.497   3.155  10.426  0.2352  0.6021 -0.2474
 5258SOL    HW127407   0.511   3.067  10.391 -1.0474 -0.6918  2.4743
 5258SOL    HW227408   0.536   3.154  10.513 -0.0358 -0.9230 -0.1468
 5259SOL     OW27409   3.955   0.826  16.272 -0.1736  0.5951  0.3083
 5259SOL    HW127410   3.938   0.739  16.235 -0.6744  0.8723 -0.1092
 5259SOL    HW227411   4.041   0.815  16.311 -1.2588 -1.7591  2.0936
 5260SOL     OW27412   4.080   2.619  13.335  0.1866  0.5068 -0.7627
 5260SOL    HW127413   4.041   2.615  13.422  0.2715 -0.7703 -0.7811
 5260SOL    HW227414   4.008   2.625  13.271 -2.7943 -2.8493  2.2328
 5261SOL     OW27415   0.604   0.655   9.826 -0.0335  0.2803  0.5724
 5261SOL    HW127416   0.655   0.699   9.894  0.1345  0.2548  0.4634
 5261SOL    HW227417   0.673   0.646   9.760 -1.1178  0.8096 -0.6229
 5262SOL     OW27418   3.157   1.984  12.158 -0.5336 -0.5410 -0.7149
 5262SOL    HW127419   3.072   1.940  12.153 -0.4202 -0.9640  0.7994
 5262SOL    HW227420   3.194   1.919  12.218 -2.3115  1.1758  2.2939
 5263SOL     OW27421   2.461   1.649   8.289 -0.2589  0.0219  0.1207
 5263SOL    HW127422   2.462   1.669   8.383  1.5323  0.7528 -0.0437
 5263SOL    HW227423   2.386   1.694   8.251  0.4626  2.0153  1.0901
 5264SOL     OW27424   4.076   4.250  15.416  0.0495  0.0690  0.3516
 5264SOL    HW127425   4.143   4.276  15.352  0.7233  0.5178  1.2433
 5264SOL    HW227426   4.008   4.204  15.367  1.9291 -0.9951 -1.2384
 5265SOL     OW27427   0.041   0.468   5.555  0.5704 -0.5585  0.4042
 5265SOL    HW127428   4.689   0.436   5.569 -0.7203  2.1285 -1.4794
 5265SOL    HW227429   0.045   0.524   5.632 -3.7900 -1.4796  1.3217
 5266SOL     OW27430   0.350   3.431   4.230 -0.6326 -0.2273 -0.4653
 5266SOL    HW127431   0.285   3.479   4.281  1.1130  1.4183  0.2038
 5266SOL    HW227432   0.430   3.460   4.272 -0.3501 -1.7036  0.0323
 5267SOL     OW27433   0.776   4.357   7.297  0.2003  0.2701  0.1470
 5267SOL    HW127434   0.681   4.342   7.302  0.5582 -1.9049  0.5115
 5267SOL    HW227435   0.809   4.360   7.387 -0.5471 -0.7728  0.4547
 5268SOL     OW27436   3.176   1.508   8.446 -0.3228  0.5734  0.1202
 5268SOL    HW127437   3.167   1.420   8.409 -0.0940  0.3669  0.5546
 5268SOL    HW227438   3.095   1.513   8.496  0.1229  2.7557  0.6079
 5269SOL     OW27439   3.682   1.982   4.739  0.1938  0.8204  0.0582
 5269SOL    HW127440   3.640   1.954   4.821  0.4073  0.9250  0.2014
 5269SOL    HW227441   3.682   2.077   4.746 -1.5443  0.7802  0.6100
 5270SOL     OW27442   4.180   1.764   7.699  0.4969 -0.4216 -0.5311
 5270SOL    HW127443   4.237   1.822   7.749  0.0890  0.9703 -1.6904
 5270SOL    HW227444   4.115   1.741   7.766  1.9343 -1.3564  0.5355
 5271SOL     OW27445   2.847   0.205  14.434  0.3482  0.3795  0.3072
 5271SOL    HW127446   2.864   0.165  14.519 -2.4386  1.2454  1.2661
 5271SOL    HW227447   2.784   0.140  14.403  1.6104 -0.1729 -1.1387
 5272SOL     OW27448   0.227   3.797   6.872 -0.0490  0.3059  0.1780
 5272SOL    HW127449   0.300   3.737   6.857 -3.1257 -2.4903 -3.3237
 5272SOL    HW227450   0.178   3.798   6.790  0.7577  0.5918 -0.3087
 5273SOL     OW27451   4.447   3.249   3.398  0.1996 -0.3463  0.3042
 5273SOL    HW127452   4.366   3.208   3.428 -1.3695  1.1816 -1.8200
 5273SOL    HW227453   4.454   3.327   3.453 -2.4698  0.1902 -0.1167
 5274SOL     OW27454   2.853   1.593   8.083  0.2874 -0.4827  0.0266
 5274SOL    HW127455   2.928   1.589   8.023 -0.1640 -0.2188 -0.5506
 5274SOL    HW227456   2.779   1.571   8.027  1.6001 -1.9571 -1.1084
 5275SOL     OW27457   3.450   0.130   6.792 -0.8130 -0.0728  0.3191
 5275SOL    HW127458   3.447   0.155   6.700 -0.9939 -1.9434 -0.1722
 5275SOL    HW227459   3.410   0.045   6.774  0.2554 -0.3522 -0.7054
 5276SOL     OW27460   1.769   1.898   3.635  0.2702 -0.5831 -0.2023
 5276SOL    HW127461   1.768   1.806   3.664  0.1247 -0.2442  0.8601
 5276SOL    HW227462   1.730   1.888   3.548  1.1915  1.2476 -0.8103
 5277SOL     OW27463   3.215   1.954   4.815 -0.3428 -0.1187 -0.2414
 5277SOL    HW127464   3.158   1.940   4.891 -0.0412  0.8716  0.1618
 5277SOL    HW227465   3.160   2.001   4.752 -1.5842  0.1617  1.0325
 5278SOL     OW27466   2.657   0.553  16.344  0.6345 -0.0598  0.0086
 5278SOL    HW127467   2.612   0.606  16.278 -1.0325  0.1851  1.3155
 5278SOL    HW227468   2.657   0.472  16.294  1.8796 -0.3887  0.5332
 5279SOL     OW27469   1.724   0.575  16.589 -0.0996  0.2372 -0.0176
 5279SOL    HW127470   1.793   0.633  16.621  1.0710  0.3124 -2.6920
 5279SOL    HW227471   1.763   0.523  16.519  2.6194  0.0604  1.6600
 5280SOL     OW27472   2.629   4.614  15.245 -0.7835 -0.1933 -0.2773
 5280SOL    HW127473   2.673   4.544  15.292 -4.2540 -2.6424 -0.6164
 5280SOL    HW227474   2.537   4.597  15.266 -1.2132 -0.5584 -2.4092
 5281SOL     OW27475   2.526   0.578  17.320  0.4337 -0.1886 -0.1394
 5281SOL    HW127476   2.495   0.624  17.243 -2.3572  1.9976  2.3009
 5281SOL    HW227477   2.593   0.635  17.357  1.8537  0.4181 -3.6144
 5282SOL     OW27478   3.006   4.253   6.869 -0.2425 -0.1052  0.7146
 5282SOL    HW127479   2.983   4.251   6.961  0.9982 -0.1089  1.0177
 5282SOL    HW227480   2.923   4.230   6.826  1.9921 -3.2165 -1.9775
 5283SOL     OW27481   4.556   1.203  11.961  0.5823  0.0257  0.3017
 5283SOL    HW127482   4.518   1.282  11.999  0.5144  0.8376 -1.4363
 5283SOL    HW227483   4.609   1.238  11.890 -0.9054  0.9099 -0.3794
 5284SOL     OW27484   2.212   0.263  13.142  0.5469 -0.3131  0.2019
 5284SOL    HW127485   2.154   0.188  13.126  0.7182 -0.3566 -0.2321
 5284SOL    HW227486   2.296   0.238  13.103 -0.0374  0.7570 -1.7447
 5285SOL     OW27487   4.408   0.317   2.866  1.0753  0.2749 -0.2422
 5285SOL    HW127488   4.440   0.247   2.810  0.9401  0.1562 -0.1701
 5285SOL    HW227489   4.489   0.352   2.903  0.3333  1.5521  0.1921
 5286SOL     OW27490   1.981   3.975   9.175  0.1299 -0.0668  0.3423
 5286SOL    HW127491   1.986   4.025   9.256  1.7113 -3.3111  2.2697
 5286SOL    HW227492   2.073   3.949   9.171  0.0601 -0.5450  1.6795
 5287SOL     OW27493   2.515   3.386  15.922  0.5340 -0.0619 -0.2688
 5287SOL    HW127494   2.495   3.304  15.968  0.3391  0.0678 -0.1222
 5287SOL    HW227495   2.436   3.399  15.869 -1.4945  1.4666  3.0764
 5288SOL     OW27496   1.229   0.113   7.157 -0.1829  0.2984 -0.0390
 5288SOL    HW127497   1.147   0.160   7.139 -0.1097  0.8489  1.1295
 5288SOL    HW227498   1.203   0.025   7.185  0.8929 -0.0559 -0.1482
 5289SOL     OW27499   2.451   3.858   4.055  0.6603  0.0297 -0.4313
 5289SOL    HW127500   2.463   3.764   4.070  0.1724  0.1538  0.7749
 5289SOL    HW227501   2.384   3.854   3.987  0.9436 -2.2687 -0.5600
 5290SOL     OW27502   1.284   1.078  16.103 -0.0917 -0.0369  0.0685
 5290SOL    HW127503   1.315   1.138  16.171  2.2383 -0.0330 -0.9982
 5290SOL    HW227504   1.326   1.116  16.027 -0.1694  1.4042  0.7459
 5291SOL     OW27505   1.421   2.503   6.020 -0.1788 -0.0054 -0.6887
 5291SOL    HW127506   1.353   2.557   6.060  1.2775  2.8797 -2.0975
 5291SOL    HW227507   1.478   2.490   6.096 -1.7154 -3.0261 -0.0706
 5292SOL     OW27508   4.364   4.215   3.875  0.2535 -0.1983  0.2151
 5292SOL    HW127509   4.335   4.245   3.789 -0.9113  1.9548  1.3477
 5292SOL    HW227510   4.310   4.264   3.937  1.7456  1.8585 -0.1211
 5293SOL     OW27511   1.739   3.924  10.579 -0.3493 -0.1138  0.5237
 5293SOL    HW127512   1.814   3.963  10.625 -2.7459  3.6733  1.1914
 5293SOL    HW227513   1.699   3.867  10.645 -0.4534 -1.4903 -0.7277
 5294SOL     OW27514   4.079   3.533  11.044  1.3885 -0.2649  0.3492
 5294SOL    HW127515   4.115   3.498  10.963 -0.2922 -2.7338  0.6853
 5294SOL    HW227516   4.139   3.602  11.072 -0.1107  0.4913  1.6678
 5295SOL     OW27517   1.791   3.132   8.843 -0.5530 -0.1931  0.5812
 5295SOL    HW127518   1.811   3.069   8.912  2.0132  0.5966  0.5715
 5295SOL    HW227519   1.759   3.084   8.766 -1.6236 -0.2738  1.0806
 5296SOL     OW27520   3.475   0.504   2.693  0.0454  0.2634 -0.1752
 5296SOL    HW127521   3.549   0.521   2.634 -0.5335  0.0172 -0.9766
 5296SOL    HW227522   3.450   0.593   2.719  0.5189  0.7347 -1.3209
 5297SOL     OW27523   0.292   0.543   6.450 -0.2773 -0.7843 -0.2002
 5297SOL    HW127524   0.232   0.534   6.376 -2.8687 -1.3021  1.9635
 5297SOL    HW227525   0.373   0.571   6.408 -0.1465  0.9820  1.2177
 5298SOL     OW27526   1.226   4.240  10.681 -0.0807 -0.1660 -0.2464
 5298SOL    HW127527   1.225   4.230  10.777  0.5736 -3.0065 -0.5371
 5298SOL    HW227528   1.300   4.299  10.668 -0.6864  0.1269 -2.3445
 5299SOL     OW27529   0.456   2.699   4.305 -0.4656 -0.3276  0.2478
 5299SOL    HW127530   0.473   2.613   4.268 -1.9384 -0.6318  0.2991
 5299SOL    HW227531   0.542   2.742   4.311 -0.2868 -0.9343  2.0296
 5300SOL     OW27532   3.353   1.447   7.149 -0.2714 -0.0191 -0.0450
 5300SOL    HW127533   3.327   1.519   7.091  0.6923  0.5701  0.2456
 5300SOL    HW227534   3.447   1.439   7.133 -0.4257 -1.7787 -0.0638
 5301SOL     OW27535   2.912   3.663   5.124  0.0437 -0.1566  0.4066
 5301SOL    HW127536   2.845   3.729   5.107  0.2029  0.4545  2.2231
 5301SOL    HW227537   2.975   3.675   5.052 -1.4646 -1.5706 -1.1495
 5302SOL     OW27538   2.597   0.799  15.753 -0.0789 -0.4251 -0.2890
 5302SOL    HW127539   2.584   0.718  15.803  3.2372 -1.4216 -1.0655
 5302SOL    HW227540   2.670   0.766  15.701 -1.7486 -2.4428 -1.3328
 5303SOL     OW27541   3.123   3.578  11.841 -0.1296  0.1263 -0.6125
 5303SOL    HW127542   3.038   3.564  11.883  0.4003  2.6642  1.2198
 5303SOL    HW227543   3.169   3.651  11.882 -0.2488 -0.5146  0.6602
 5304SOL     OW27544   2.036   3.732   8.550 -0.0489 -0.2271  0.6668
 5304SOL    HW127545   2.023   3.817   8.507 -2.1324 -1.6868 -1.5518
 5304SOL    HW227546   1.966   3.735   8.615 -0.0780  1.8620  0.5431
 5305SOL     OW27547   2.985   2.016   1.152 -0.2455  0.0224 -0.0538
 5305SOL    HW127548   2.938   1.957   1.093 -1.8063 -0.5680  1.7643
 5305SOL    HW227549   3.074   2.011   1.118  0.4003  1.2322  1.4904
 5306SOL     OW27550   0.268   3.059  16.448 -0.3497  0.2507  0.1194
 5306SOL    HW127551   0.306   2.985  16.496  0.5352  2.0040  2.1253
 5306SOL    HW227552   0.178   3.027  16.444 -0.4437  0.1463  2.7646
 5307SOL     OW27553   2.809   0.734   4.560  0.0957  0.5264 -0.4125
 5307SOL    HW127554   2.904   0.724   4.567  0.1858 -1.6137 -4.3776
 5307SOL    HW227555   2.796   0.815   4.609  2.7028  1.1046 -0.6906
 5308SOL     OW27556   2.168   0.030   2.843 -0.0486 -0.4392 -0.3811
 5308SOL    HW127557   2.229   4.697   2.820  1.6801  1.4747 -1.6471
 5308SOL    HW227558   2.176   0.032   2.939 -2.1202 -1.5441 -0.1907
 5309SOL     OW27559   1.363   3.407   6.888 -0.1377  0.3569 -0.1805
 5309SOL    HW127560   1.414   3.327   6.899 -0.8393 -0.0042  0.4176
 5309SOL    HW227561   1.422   3.443   6.821 -1.6987 -0.0138 -1.7594
 5310SOL     OW27562   3.693   1.799   2.785  0.1045 -0.4201  0.6494
 5310SOL    HW127563   3.632   1.745   2.834 -1.1958  0.9741  0.5676
 5310SOL    HW227564   3.721   1.744   2.712 -0.4989 -1.1087  0.9353
 5311SOL     OW27565   3.164   0.983  16.943  0.1150  0.1794 -0.5043
 5311SOL    HW127566   3.200   1.067  16.972 -0.3606  0.1815  0.0930
 5311SOL    HW227567   3.074   0.992  16.975  1.0951  1.0474  2.0747
 5312SOL     OW27568   2.414   3.510   8.895 -0.4602 -0.0909  0.7184
 5312SOL    HW127569   2.454   3.543   8.814  3.7741  1.5174  3.4277
 5312SOL    HW227570   2.432   3.416   8.899  0.6664  0.1142  0.5619
 5313SOL     OW27571   4.620   1.213   6.101  0.1405 -0.2599 -0.2451
 5313SOL    HW127572   4.699   1.203   6.049  0.7716 -0.7531  0.7985
 5313SOL    HW227573   4.559   1.161   6.050 -0.6788 -0.6985  1.1705
 5314SOL     OW27574   2.503   1.805   0.887  0.0967  0.1987  0.4131
 5314SOL    HW127575   2.596   1.786   0.890  0.1406  0.5417  1.2813
 5314SOL    HW227576   2.477   1.772   0.974  0.9412 -1.0439  0.1838
 5315SOL     OW27577   3.710   1.924   2.461 -0.3534 -0.4134  0.4988
 5315SOL    HW127578   3.710   1.927   2.365 -3.6013 -1.3968  0.4585
 5315SOL    HW227579   3.675   1.838   2.484  2.1266 -0.7532  3.0011
 5316SOL     OW27580   1.723   0.092   9.065  0.5242  0.1917 -0.1685
 5316SOL    HW127581   1.797   0.032   9.055  1.0547  0.4261  2.5606
 5316SOL    HW227582   1.755   0.139   9.141 -1.3600  2.7732 -0.9815
 5317SOL     OW27583   3.702   2.757  14.373  0.2023  0.1557 -0.2092
 5317SOL    HW127584   3.630   2.731  14.430  0.0630 -4.3965 -2.4461
 5317SOL    HW227585   3.729   2.668  14.353  1.5551  0.9137 -1.7813
 5318SOL     OW27586   0.635   0.878   8.514 -0.2228 -0.3229  0.1881
 5318SOL    HW127587   0.578   0.813   8.554  0.5617 -0.6002  0.8655
 5318SOL    HW227588   0.711   0.854   8.568  0.5899  2.4692  0.2653
 5319SOL     OW27589   0.929   3.681   7.431 -0.6150  0.7464  0.2864
 5319SOL    HW127590   0.864   3.655   7.366  0.9039 -1.0924 -0.4729
 5319SOL    HW227591   0.931   3.602   7.485  1.4884  0.5130 -0.1222
 5320SOL     OW27592   1.284   1.569   2.338 -0.4131  0.2142  0.1522
 5320SOL    HW127593   1.298   1.498   2.401 -0.8425 -0.2557 -0.2857
 5320SOL    HW227594   1.192   1.585   2.359 -0.1496 -0.2866  1.6900
 5321SOL     OW27595   2.838   3.950   4.628 -0.4897 -0.0852 -0.0499
 5321SOL    HW127596   2.833   3.975   4.536  1.7506  1.4300  0.2283
 5321SOL    HW227597   2.861   4.038   4.659  0.1198 -0.0054 -0.7369
 5322SOL     OW27598   4.077   2.920   4.675  0.4653 -0.1543 -0.2485
 5322SOL    HW127599   4.044   2.857   4.738  0.1841  1.5106  1.2872
 5322SOL    HW227600   4.002   2.925   4.617  0.4361 -3.1525 -0.4206
 5323SOL     OW27601   1.813   0.115  16.588 -0.5863  0.0523 -0.2474
 5323SOL    HW127602   1.725   0.092  16.557 -0.0057 -2.1372 -0.2858
 5323SOL    HW227603   1.832   0.207  16.567  2.0471 -0.0642  1.5899
 5324SOL     OW27604   1.803   3.962   3.689  0.0660  0.0942 -0.1960
 5324SOL    HW127605   1.812   3.868   3.673  1.1202  0.2881 -0.7579
 5324SOL    HW227606   1.834   3.968   3.779 -0.8989 -0.6056  0.1848
 5325SOL     OW27607   1.815   4.479   3.105 -0.2670  0.0879  0.0047
 5325SOL    HW127608   1.903   4.463   3.138  0.9414  3.4897 -1.5800
 5325SOL    HW227609   1.824   4.545   3.036 -1.7340  0.0227 -0.2447
 5326SOL     OW27610   0.595   4.349   2.763 -0.2599  0.8048  0.5273
 5326SOL    HW127611   0.537   4.424   2.746 -0.0370  0.2343 -2.8331
 5326SOL    HW227612   0.684   4.384   2.765  0.2624 -0.4818 -0.2238
 5327SOL     OW27613   0.110   3.814   9.955  0.0077  0.4329  0.3855
 5327SOL    HW127614   0.196   3.780   9.931 -0.8025 -1.9194  0.8311
 5327SOL    HW227615   0.134   3.865  10.032  1.4164  0.2294  0.0770
 5328SOL     OW27616   3.245   0.249   7.219 -0.2283  0.1048  0.5561
 5328SOL    HW127617   3.254   0.335   7.259  0.2274 -0.2458  1.2105
 5328SOL    HW227618   3.323   0.254   7.163 -1.3179 -1.2375 -1.1109
 5329SOL     OW27619   4.195   3.303   8.862 -0.2570  0.2789 -0.2116
 5329SOL    HW127620   4.112   3.295   8.816 -0.8955  1.0563  0.8215
 5329SOL    HW227621   4.213   3.209   8.864  0.3060  0.3981  0.3861
 5330SOL     OW27622   1.416   0.896  13.644  0.2184  0.6076  0.4204
 5330SOL    HW127623   1.438   0.988  13.657  1.7468  0.6154 -2.2819
 5330SOL    HW227624   1.439   0.853  13.726 -1.1368  0.4798  0.7387
 5331SOL     OW27625   4.523   3.148   3.743  0.2382  0.0740  0.6805
 5331SOL    HW127626   4.553   3.199   3.668  0.1144 -0.9201 -0.0380
 5331SOL    HW227627   4.586   3.162   3.814  1.8257  0.7480 -0.8553
 5332SOL     OW27628   3.337   0.593  12.995  0.3913 -0.5739  0.0279
 5332SOL    HW127629   3.432   0.604  13.001  0.2932  0.8930 -1.1005
 5332SOL    HW227630   3.330   0.536  12.918  0.6048 -0.0039 -0.4125
 5333SOL     OW27631   3.952   3.156   5.263  0.0128  0.1927  0.3078
 5333SOL    HW127632   3.857   3.147   5.254  0.6438 -3.8186 -2.1559
 5333SOL    HW227633   3.982   3.068   5.284 -0.5143 -0.3417 -1.2101
 5334SOL     OW27634   4.238   1.221  13.406  0.4164  0.7519  0.7826
 5334SOL    HW127635   4.294   1.164  13.459 -0.1790 -0.9118 -0.4123
 5334SOL    HW227636   4.291   1.225  13.327  1.6183 -0.0198  1.5554
 5335SOL     OW27637   3.845   4.574   6.498  0.5239 -0.0415  0.3966
 5335SOL    HW127638   3.886   4.658   6.479  0.5589  0.1155  1.1818
 5335SOL    HW227639   3.878   4.550   6.585 -0.4279  0.3757  0.8704
 5336SOL     OW27640   1.814   1.883   5.654 -0.0792  0.2428  0.3223
 5336SOL    HW127641   1.871   1.861   5.580 -0.1693 -0.6531  0.5178
 5336SOL    HW227642   1.762   1.802   5.656  0.9660 -0.4231  0.5245
 5337SOL     OW27643   3.906   2.154  10.889 -0.1508 -0.3413 -0.0118
 5337SOL    HW127644   3.970   2.218  10.860  1.6875 -1.4853  1.4961
 5337SOL    HW227645   3.831   2.173  10.833  0.0741 -0.7236 -0.4405
 5338SOL     OW27646   1.917   2.104   2.497 -0.0581 -0.3155  0.1944
 5338SOL    HW127647   1.846   2.094   2.560 -2.0013  0.8759 -1.8283
 5338SOL    HW227648   1.882   2.076   2.413  1.7369  0.3602 -0.7901
 5339SOL     OW27649   4.213   4.169  17.500 -0.2548  0.2439 -0.1856
 5339SOL    HW127650   4.173   4.090  17.464 -1.4130  0.9970 -0.5626
 5339SOL    HW227651   4.304   4.156  17.475 -0.9981 -0.7594 -2.3387
 5340SOL     OW27652   3.609   3.415   9.252  0.6750  0.4989  0.5306
 5340SOL    HW127653   3.670   3.419   9.178  0.1039 -1.4793 -0.0624
 5340SOL    HW227654   3.576   3.325   9.245 -0.3334  0.7611  1.9619
 5341SOL     OW27655   4.723   1.161   4.537  0.1108  0.1319  0.5604
 5341SOL    HW127656   0.002   1.242   4.586  0.5723  0.6011 -0.3642
 5341SOL    HW227657   4.724   1.103   4.613 -0.7027 -0.4575  0.1222
 5342SOL     OW27658   4.349   3.475   5.799 -0.4228  0.4911 -0.2205
 5342SOL    HW127659   4.377   3.531   5.871 -0.4709 -1.0301  0.9862
 5342SOL    HW227660   4.280   3.525   5.756 -0.4559  1.0761  0.5151
 5343SOL     OW27661   3.893   0.747  11.628  0.3402  0.2749 -0.0708
 5343SOL    HW127662   3.900   0.722  11.536 -0.1466  0.4248 -0.1510
 5343SOL    HW227663   3.923   0.669  11.674 -0.9591 -0.1545  0.0482
 5344SOL     OW27664   3.993   0.535   5.075 -0.5237 -0.6452 -0.2305
 5344SOL    HW127665   4.007   0.524   4.981  2.0491  1.7855 -0.1152
 5344SOL    HW227666   4.021   0.626   5.087  1.2567 -1.2229 -0.0256
 5345SOL     OW27667   1.033   2.644   8.085 -0.2153 -0.6342  0.0300
 5345SOL    HW127668   1.036   2.647   7.989 -3.1083 -0.1401 -0.0571
 5345SOL    HW227669   1.013   2.736   8.106 -0.2730 -0.7424  0.4468
 5346SOL     OW27670   2.672   4.665  11.990  0.3879  0.5181  0.3833
 5346SOL    HW127671   2.740   4.728  11.967 -0.0520  0.3218 -1.4534
 5346SOL    HW227672   2.631   4.646  11.906  0.8768 -0.2557  0.3239
 5347SOL     OW27673   2.909   1.457   2.421  0.1062  0.8526 -0.0053
 5347SOL    HW127674   2.855   1.378   2.419  1.3587  0.0057 -0.5072
 5347SOL    HW227675   2.843   1.519   2.453  1.0159  1.2574  1.1156
 5348SOL     OW27676   4.428   0.162   8.070  0.2657 -0.2316  0.2775
 5348SOL    HW127677   4.421   0.156   8.165  2.1684  0.1246  0.4350
 5348SOL    HW227678   4.350   0.209   8.040  0.1655  0.6207  1.9071
 5349SOL     OW27679   2.990   2.182   3.137 -0.3459  0.2758  0.3741
 5349SOL    HW127680   2.924   2.168   3.205 -0.6085 -1.3549 -0.2123
 5349SOL    HW227681   2.970   2.117   3.070  3.7403  1.0699 -1.5857
 5350SOL     OW27682   1.038   4.671  15.941 -0.4435 -0.2419  0.1293
 5350SOL    HW127683   1.095   4.710  16.008 -0.5704 -2.0734  1.3187
 5350SOL    HW227684   1.026   0.003  15.876  0.7631 -0.6261 -0.4999
 5351SOL     OW27685   3.684   0.085  10.749  0.1286 -0.6479 -0.3801
 5351SOL    HW127686   3.672   0.148  10.821 -2.3315  0.3661 -1.6835
 5351SOL    HW227687   3.610   0.106  10.692  0.9128  2.2857 -0.3309
 5352SOL     OW27688   1.661   2.706   8.501 -0.2988  0.0216  0.0386
 5352SOL    HW127689   1.666   2.611   8.509  1.2157  0.3099  2.5929
 5352SOL    HW227690   1.573   2.713   8.465  0.1020  0.2227 -0.9152
 5353SOL     OW27691   3.198   1.763  13.652 -0.1831 -0.4491 -0.2517
 5353SOL    HW127692   3.223   1.810  13.573 -1.6161 -2.0605 -1.6604
 5353SOL    HW227693   3.270   1.700  13.660  1.3453  1.4062  0.3823
 5354SOL     OW27694   0.282   4.584   4.397 -0.1989  0.1144  0.2311
 5354SOL    HW127695   0.259   4.519   4.331 -0.9401  0.8559 -0.2325
 5354SOL    HW227696   0.294   4.527   4.474  0.3457  0.8580  0.6958
 5355SOL     OW27697   3.422   1.215   4.475  0.1556  0.0678  0.0656
 5355SOL    HW127698   3.504   1.265   4.477  0.7132 -0.8571  0.4788
 5355SOL    HW227699   3.450   1.158   4.547 -2.1814 -3.9833 -2.2733
 5356SOL     OW27700   2.328   4.710   8.557 -0.0908 -0.3796  0.4563
 5356SOL    HW127701   2.362   0.050   8.603 -2.6253  1.3692 -0.6284
 5356SOL    HW227702   2.276   0.007   8.484  1.0577 -0.6349 -0.4855
 5357SOL     OW27703   2.243   2.941   7.987 -0.3040 -0.3372  0.2495
 5357SOL    HW127704   2.249   2.849   7.960 -2.0480 -0.7204  1.1993
 5357SOL    HW227705   2.333   2.961   7.962 -0.1347  0.3102  1.3794
 5358SOL     OW27706   3.402   2.635  17.495 -0.4717  0.8700  0.2428
 5358SOL    HW127707   3.431   2.725  17.508 -3.3387  1.9657 -1.1212
 5358SOL    HW227708   3.308   2.645  17.485 -0.9062 -0.6415  2.6965
 5359SOL     OW27709   3.515   3.334   3.767 -0.2511  0.0436  0.4009
 5359SOL    HW127710   3.455   3.360   3.696 -1.7429 -0.4560  1.4725
 5359SOL    HW227711   3.540   3.419   3.802  0.4970 -0.4118  0.9781
 5360SOL     OW27712   0.744   0.904   8.964 -0.0437 -0.2403 -0.3666
 5360SOL    HW127713   0.738   0.979   9.024 -1.5892 -0.1916 -0.5993
 5360SOL    HW227714   0.838   0.908   8.947  0.3060 -0.8124  1.3684
 5361SOL     OW27715   0.536   0.324  11.002 -0.1214  0.5830  0.5056
 5361SOL    HW127716   0.579   0.284  11.078  0.1534 -3.5820 -1.8698
 5361SOL    HW227717   0.467   0.262  10.980  0.2074  0.3420  0.1470
 5362SOL     OW27718   0.138   0.888   7.879 -0.6382  0.6019  0.1019
 5362SOL    HW127719   0.066   0.824   7.884  0.3452 -0.2437  3.7823
 5362SOL    HW227720   0.220   0.844   7.902 -1.9125 -1.3100  0.9880
 5363SOL     OW27721   0.117   3.889   4.275 -0.6894 -0.0577  0.7173
 5363SOL    HW127722   0.104   3.984   4.280 -0.2058  0.0174  0.5680
 5363SOL    HW227723   0.025   3.866   4.284 -0.9880  0.4062 -1.1965
 5364SOL     OW27724   1.630   3.730  16.094 -0.6295  1.0348 -0.8015
 5364SOL    HW127725   1.634   3.707  16.187 -0.3919  2.4253 -0.4742
 5364SOL    HW227726   1.568   3.802  16.097 -0.6461  1.1006 -2.8813
 5365SOL     OW27727   3.421   1.492   6.132  0.6880 -0.2228 -0.5761
 5365SOL    HW127728   3.494   1.533   6.087  1.3378  0.4599  1.0756
 5365SOL    HW227729   3.362   1.467   6.061  1.3391 -0.2849 -1.0922
 5366SOL     OW27730   0.525   1.179   8.628 -0.0180  0.2542  0.2088
 5366SOL    HW127731   0.572   1.149   8.550 -3.4131  2.3338 -2.5841
 5366SOL    HW227732   0.588   1.238   8.670  0.9673 -0.8106  0.2362
 5367SOL     OW27733   2.512   1.477  11.414 -0.3127  0.0010 -0.0299
 5367SOL    HW127734   2.477   1.438  11.334  1.5044  1.9642 -1.7932
 5367SOL    HW227735   2.483   1.410  11.475  0.4333 -0.9298 -0.7015
 5368SOL     OW27736   3.562   2.368   7.313  0.0695  0.0145 -0.3528
 5368SOL    HW127737   3.573   2.314   7.391 -2.5056  1.4308  0.9870
 5368SOL    HW227738   3.478   2.331   7.284  0.7279 -0.7439 -1.3250
 5369SOL     OW27739   0.501   2.576   3.521  0.3232 -0.3263 -0.2869
 5369SOL    HW127740   0.585   2.532   3.511  0.8213  1.1426 -2.3931
 5369SOL    HW227741   0.469   2.590   3.432  0.2678  1.0379 -0.0430
 5370SOL     OW27742   1.799   1.720  12.072  0.3326  0.5877  0.2389
 5370SOL    HW127743   1.834   1.632  12.087  0.1456  0.4946  0.1279
 5370SOL    HW227744   1.862   1.755  12.009  3.4843 -1.7862  2.0614
 5371SOL     OW27745   1.301   0.770   4.910  0.2553  0.2164 -0.2425
 5371SOL    HW127746   1.285   0.734   4.823  0.6342 -0.8871  0.1479
 5371SOL    HW227747   1.209   0.775   4.938  0.1087  1.0818 -0.8577
 5372SOL     OW27748   1.231   0.396   9.992  0.2210  0.3593  0.4098
 5372SOL    HW127749   1.292   0.395   9.918 -1.1237 -2.1189 -0.6795
 5372SOL    HW227750   1.289   0.354  10.057 -0.3911 -0.8052  0.2096
 5373SOL     OW27751   1.759   0.597  14.362 -0.2432 -0.2037  0.1515
 5373SOL    HW127752   1.825   0.665  14.378 -2.2783  1.5366  1.2420
 5373SOL    HW227753   1.725   0.580  14.450 -0.0531  2.0902  0.6794
 5374SOL     OW27754   4.266   4.695   5.454  0.2436  0.0575  0.3939
 5374SOL    HW127755   4.340   0.008   5.488  1.5475 -1.4820 -0.1228
 5374SOL    HW227756   4.199   0.022   5.475  0.1762  0.5934 -1.4287
 5375SOL     OW27757   1.556   3.896   4.464 -0.0671  0.3207 -0.1362
 5375SOL    HW127758   1.597   3.869   4.546  0.6827  0.7570 -0.3656
 5375SOL    HW227759   1.584   3.823   4.409 -0.2221  1.7009 -2.0819
 5376SOL     OW27760   0.879   4.733   3.139 -0.2852 -0.8906  0.1101
 5376SOL    HW127761   0.803   4.687   3.174  0.5919 -1.9619  0.6142
 5376SOL    HW227762   0.948   4.669   3.121 -1.1659 -1.6319 -0.6472
 5377SOL     OW27763   0.971   3.056   2.445 -0.2446 -0.0066 -0.3010
 5377SOL    HW127764   0.907   3.006   2.395 -1.3439  0.5351  0.5727
 5377SOL    HW227765   1.014   3.098   2.370 -0.1941 -0.9926 -0.8163
 5378SOL     OW27766   2.372   4.596   2.793 -0.5946  0.1410  0.4552
 5378SOL    HW127767   2.455   4.635   2.820 -0.6527  2.6182 -2.9657
 5378SOL    HW227768   2.360   4.533   2.864 -1.7483  0.0219  0.1681
 5379SOL     OW27769   3.496   3.272   8.349 -0.0163 -0.2124  0.1930
 5379SOL    HW127770   3.538   3.302   8.430  1.1421 -0.1225 -0.4342
 5379SOL    HW227771   3.532   3.343   8.297  0.6681 -0.7862 -0.1205
 5380SOL     OW27772   3.198   3.658  15.517 -0.2681  0.6736 -0.3169
 5380SOL    HW127773   3.177   3.706  15.437  1.7459 -1.9563 -2.4296
 5380SOL    HW227774   3.143   3.709  15.577  1.7178  1.2080  1.0561
 5381SOL     OW27775   4.452   1.847   1.187 -0.2442  0.2230  0.3134
 5381SOL    HW127776   4.457   1.795   1.107  2.3480  1.2367 -0.1980
 5381SOL    HW227777   4.538   1.823   1.222  0.0049 -0.9776 -1.1212
 5382SOL     OW27778   0.058   3.707   6.651  0.3803 -0.2432 -0.3628
 5382SOL    HW127779   0.068   3.622   6.693 -0.2051 -1.5329 -2.8224
 5382SOL    HW227780   0.096   3.699   6.563  4.6344 -0.8798  1.5441
 5383SOL     OW27781   1.513   0.724   3.765  0.4712 -0.6268 -0.2311
 5383SOL    HW127782   1.554   0.796   3.814  0.1525 -2.1041  2.1927
 5383SOL    HW227783   1.427   0.765   3.752  0.2516 -1.5305 -1.6126
 5384SOL     OW27784   3.524   3.711   1.191 -0.1238 -0.5763  0.2914
 5384SOL    HW127785   3.431   3.697   1.172 -0.2890 -0.1101  0.7473
 5384SOL    HW227786   3.557   3.623   1.175 -1.8131 -1.3274  1.0540
 5385SOL     OW27787   4.459   3.879  16.940 -0.7111  0.4691 -0.0721
 5385SOL    HW127788   4.498   3.949  16.991  1.8093 -0.3478 -0.8785
 5385SOL    HW227789   4.389   3.931  16.901 -3.3094 -2.9754 -0.0314
 5386SOL     OW27790   0.454   1.711   3.984 -0.0736 -0.5317  0.2298
 5386SOL    HW127791   0.425   1.802   3.981 -2.0204 -1.1787 -0.4534
 5386SOL    HW227792   0.540   1.725   3.943 -1.2808 -1.2096 -2.5561
 5387SOL     OW27793   0.697   3.583   2.667  0.3724 -0.2926 -0.1182
 5387SOL    HW127794   0.721   3.675   2.680 -1.8285  0.2369  0.1963
 5387SOL    HW227795   0.620   3.581   2.724 -0.8088 -2.2715 -1.7739
 5388SOL     OW27796   3.577   3.049   5.412 -0.1949 -0.0811 -0.3372
 5388SOL    HW127797   3.577   3.053   5.317 -0.8282 -0.7094 -0.3613
 5388SOL    HW227798   3.536   3.134   5.424 -1.7322 -0.9603  0.6970
 5389SOL     OW27799   0.297   1.701   7.085 -0.1126  0.5236  0.2081
 5389SOL    HW127800   0.217   1.649   7.087 -0.7837  1.4795 -1.5366
 5389SOL    HW227801   0.303   1.710   7.180  1.8818 -0.4477  0.1814
 5390SOL     OW27802   0.772   4.454   6.292 -0.4634  0.5781 -0.4082
 5390SOL    HW127803   0.861   4.453   6.257 -0.3352  1.9079 -0.1245
 5390SOL    HW227804   0.718   4.452   6.212  0.2517 -0.6830 -0.8626
 5391SOL     OW27805   2.810   1.456   3.709  0.9584  0.2820  0.4120
 5391SOL    HW127806   2.861   1.441   3.789  0.8750 -1.0054  0.2328
 5391SOL    HW227807   2.805   1.550   3.694 -1.3632 -0.2030 -1.8469
 5392SOL     OW27808   1.001   1.181   7.510  0.1088 -0.1877  0.0565
 5392SOL    HW127809   1.050   1.117   7.459  0.1429 -0.6028  0.6095
 5392SOL    HW227810   1.036   1.189   7.599 -0.9278  1.4602  0.3239
 5393SOL     OW27811   0.170   3.736   2.014 -0.0605 -0.1467  0.2560
 5393SOL    HW127812   0.075   3.744   2.000  0.0641 -0.5217 -0.8293
 5393SOL    HW227813   0.201   3.778   1.934 -1.5544 -0.8426 -0.7066
 5394SOL     OW27814   3.326   2.101   4.410  0.8604  0.3700 -0.4719
 5394SOL    HW127815   3.353   2.123   4.499 -2.3905  0.3013  0.5333
 5394SOL    HW227816   3.290   2.185   4.381 -0.8341 -0.2467 -0.1861
 5395SOL     OW27817   2.952   1.385   8.261 -0.1641 -0.0432  0.5921
 5395SOL    HW127818   3.011   1.382   8.186  1.2542  0.4216  1.6993
 5395SOL    HW227819   2.896   1.462   8.249  1.3191  1.1513  1.3522
 5396SOL     OW27820   3.529   0.157  11.813  0.1702  1.4931 -0.4784
 5396SOL    HW127821   3.571   0.094  11.755 -2.0298 -0.6422  0.2192
 5396SOL    HW227822   3.441   0.167  11.777  0.6060 -1.9307 -2.4626
 5397SOL     OW27823   4.496   2.346   2.489 -0.6359  0.2729  0.4543
 5397SOL    HW127824   4.439   2.270   2.497 -1.6100  0.7787 -1.4989
 5397SOL    HW227825   4.493   2.375   2.580  1.6799  0.3996  0.4856
 5398SOL     OW27826   2.561   2.744   0.119  0.4177  0.1309 -0.2176
 5398SOL    HW127827   2.496   2.806   0.153 -0.6046 -1.3834  0.6113
 5398SOL    HW227828   2.576   2.678   0.187 -2.1094  1.0282  1.2073
 5399SOL     OW27829   4.201   2.720   4.979  0.4696 -0.0216  0.3696
 5399SOL    HW127830   4.274   2.760   4.932 -0.7357 -2.6537 -3.7104
 5399SOL    HW227831   4.241   2.700   5.063 -0.9936  0.4018  1.1719
 5400SOL     OW27832   0.440   0.312   6.383 -0.1761  0.5897  0.5074
 5400SOL    HW127833   0.349   0.300   6.411  0.2681  2.1792  2.6779
 5400SOL    HW227834   0.432   0.399   6.343  0.0013  0.3598 -0.0210
 5401SOL     OW27835   1.079   2.187   6.180 -0.0637  0.8176 -0.2741
 5401SOL    HW127836   1.100   2.214   6.269  1.8044  0.1517 -0.5282
 5401SOL    HW227837   1.167   2.193   6.144  0.1169 -0.2653 -0.0113
 5402SOL     OW27838   3.385   3.439   3.327  0.5566  0.4183  0.2393
 5402SOL    HW127839   3.369   3.516   3.273  3.3633 -1.1070 -2.7501
 5402SOL    HW227840   3.379   3.374   3.257  0.9859  0.6299  0.0037
 5403SOL     OW27841   0.039   0.087  14.427  0.3421  0.0577 -0.3455
 5403SOL    HW127842   4.732   0.117  14.507  0.4363  0.6819 -0.5240
 5403SOL    HW227843   4.709   0.031  14.390  0.8248 -0.3806 -0.5583
 5404SOL     OW27844   1.866   1.159   3.723 -0.0701 -0.5601 -0.2486
 5404SOL    HW127845   1.940   1.203   3.765 -1.8990  0.3679  1.9777
 5404SOL    HW227846   1.854   1.072   3.762 -0.0340 -0.3570  0.2160
 5405SOL     OW27847   2.213   3.939   7.002  0.2436  0.0282  0.1176
 5405SOL    HW127848   2.214   3.918   6.909  1.4852  2.5221 -0.4085
 5405SOL    HW227849   2.293   3.898   7.036  0.5156 -1.8776 -2.8429
 5406SOL     OW27850   3.191   4.720   1.783  0.2209  0.1811 -0.4373
 5406SOL    HW127851   3.108   4.733   1.738 -0.6659 -2.0604  0.5674
 5406SOL    HW227852   3.234   0.061   1.747 -0.9235  0.1348 -1.9215
 5407SOL     OW27853   2.595   0.045   6.692  0.5644  0.0308  0.0496
 5407SOL    HW127854   2.517   4.729   6.675  0.7867  0.0886 -1.1140
 5407SOL    HW227855   2.545   0.121   6.721  1.1698 -0.4201  2.3026
 5408SOL     OW27856   0.062   2.868   5.243  0.0178  0.0352 -0.1689
 5408SOL    HW127857   0.003   2.836   5.311  0.7327  0.4080  0.6334
 5408SOL    HW227858   0.143   2.832   5.278 -0.1544  2.0250  2.2952
 5409SOL     OW27859   1.477   1.650   4.677  0.2088  0.2800  0.3481
 5409SOL    HW127860   1.413   1.642   4.607 -0.0193  0.2254  0.5650
 5409SOL    HW227861   1.503   1.741   4.666  2.2624 -0.4814 -1.1151
 5410SOL     OW27862   2.638   0.979   3.363 -0.9885 -0.0615 -0.2053
 5410SOL    HW127863   2.689   1.057   3.341 -0.6018  0.6839  3.4789
 5410SOL    HW227864   2.590   1.018   3.436 -0.3000 -0.0964  0.2611
 5411SOL     OW27865   4.642   1.934   0.853  0.1488 -0.1445 -0.0318
 5411SOL    HW127866   4.718   1.924   0.910 -0.0723 -3.4415 -0.3491
 5411SOL    HW227867   4.680   1.986   0.782  1.1965 -3.4106 -1.8513
 5412SOL     OW27868   3.922   3.467  11.246 -0.3476 -0.4656  0.2232
 5412SOL    HW127869   4.004   3.428  11.276 -0.4522  0.6989  2.0426
 5412SOL    HW227870   3.930   3.462  11.151  2.4834  0.9822  0.3883
 5413SOL     OW27871   3.604   0.233   2.719 -0.5821  0.3635 -0.5186
 5413SOL    HW127872   3.678   0.243   2.658  0.7957 -0.4597  1.0025
 5413SOL    HW227873   3.540   0.300   2.693 -2.0220 -0.9854 -0.4078
 5414SOL     OW27874   4.303   1.128   3.328 -0.2996  0.5999 -0.1186
 5414SOL    HW127875   4.251   1.048   3.334  1.2883 -0.3678  0.8574
 5414SOL    HW227876   4.345   1.141   3.413 -0.0964  2.1605 -0.4588
 5415SOL     OW27877   0.071   0.768   9.478 -0.2485 -0.2006 -0.6550
 5415SOL    HW127878   0.050   0.746   9.569  1.1771  0.3789 -0.1819
 5415SOL    HW227879   0.124   0.694   9.448  0.2375  0.5907 -1.7298
 5416SOL     OW27880   1.188   4.193   0.434  0.1319  0.1362  0.4764
 5416SOL    HW127881   1.132   4.265   0.464  0.0083  0.1558  0.2013
 5416SOL    HW227882   1.278   4.209   0.462  0.1860 -0.1367  0.4536
 5417SOL     OW27883   2.735   3.106   0.129 -0.1992  0.1160  0.0797
 5417SOL    HW127884   2.665   3.123   0.192  0.1556 -1.8828  1.0102
 5417SOL    HW227885   2.773   3.193   0.120  1.5290 -0.8611 -1.9080
 5418SOL     OW27886   3.684   2.079   9.690 -0.0917  0.0388  0.7593
 5418SOL    HW127887   3.775   2.107   9.687 -0.9754  2.4141 -3.6512
 5418SOL    HW227888   3.674   2.059   9.596  0.0816  1.1702  0.5012
 5419SOL     OW27889   2.307   2.269   3.070 -0.5662 -0.4124 -0.0755
 5419SOL    HW127890   2.371   2.313   3.126 -1.1495  0.6527 -0.2467
 5419SOL    HW227891   2.262   2.342   3.028  1.2015 -0.6932 -2.4936
 5420SOL     OW27892   0.535   3.182   4.017 -0.2116  0.1088 -0.4036
 5420SOL    HW127893   0.611   3.229   3.982 -1.1196  0.9105 -1.2665
 5420SOL    HW227894   0.527   3.096   3.976 -1.0126 -0.9189  1.9253
 5421SOL     OW27895   1.451   2.652   7.637  0.6236 -0.2794  0.2931
 5421SOL    HW127896   1.418   2.676   7.724  2.1750 -0.6788  0.9767
 5421SOL    HW227897   1.432   2.559   7.646 -1.5119  0.0302 -0.9210
 5422SOL     OW27898   1.113   1.497   4.465  0.0090 -0.2046  0.2667
 5422SOL    HW127899   1.116   1.403   4.446  2.1343 -0.3432  1.2631
 5422SOL    HW227900   1.069   1.526   4.385 -1.5355  0.9519  1.5383
 5423SOL     OW27901   0.590   2.538   5.072 -0.4503 -0.1994  0.2546
 5423SOL    HW127902   0.642   2.509   5.148  0.6459  1.4589  0.1542
 5423SOL    HW227903   0.647   2.552   4.996  1.3487 -2.7965  1.1385
 5424SOL     OW27904   3.610   1.028   1.928 -0.2438 -0.2620 -0.1075
 5424SOL    HW127905   3.610   1.111   1.881 -0.5491 -1.5890 -2.4453
 5424SOL    HW227906   3.703   1.008   1.935  0.4701  2.6167 -1.3573
 5425SOL     OW27907   4.018   0.581   8.406 -0.0710 -0.2848 -0.4763
 5425SOL    HW127908   3.952   0.540   8.462 -1.0487  0.7604 -0.8597
 5425SOL    HW227909   4.101   0.556   8.445  0.8889  1.2720 -1.5321
 5426SOL     OW27910   3.734   4.669   2.488  0.3891  0.5458  0.7946
 5426SOL    HW127911   3.804   4.711   2.537 -0.3108 -0.8674  3.0211
 5426SOL    HW227912   3.771   4.588   2.453  1.1979  0.5319  1.7099
 5427SOL     OW27913   3.198   4.045   3.476  0.2835 -0.3485  0.2516
 5427SOL    HW127914   3.282   4.009   3.505  0.8889  0.7356 -0.1624
 5427SOL    HW227915   3.185   4.115   3.540  0.5197 -0.2104  0.1487
 5428SOL     OW27916   0.389   1.228   5.797  0.5199 -0.0012  0.0610
 5428SOL    HW127917   0.451   1.160   5.822  0.6207 -1.3195 -3.8361
 5428SOL    HW227918   0.402   1.274   5.880 -0.1087 -3.1905  1.9207
 5429SOL     OW27919   0.527   0.648   8.608  0.0399  0.5895 -0.1218
 5429SOL    HW127920   0.585   0.656   8.683  0.8772 -0.0935 -0.6884
 5429SOL    HW227921   0.446   0.614   8.646 -0.2010  0.8820 -0.3683
 5430SOL     OW27922   4.460   4.149   8.159 -0.0582 -0.1684 -0.2719
 5430SOL    HW127923   4.384   4.164   8.215 -0.6553  2.7281 -1.8264
 5430SOL    HW227924   4.419   4.111   8.082 -0.1526 -0.1278 -0.2417
 5431SOL     OW27925   1.805   2.447  10.033  0.2193 -0.2299 -0.5997
 5431SOL    HW127926   1.783   2.480  10.120 -1.0723 -1.0007 -0.6401
 5431SOL    HW227927   1.797   2.354  10.053 -1.9379 -0.2644 -1.7179
 5432SOL     OW27928   1.174   0.023  12.554 -0.3419  0.5704 -0.1526
 5432SOL    HW127929   1.084   0.044  12.530 -0.3083  0.2022 -0.6063
 5432SOL    HW227930   1.175   0.034  12.649  1.6282 -2.5919  0.1902
 5433SOL     OW27931   3.713   2.054  16.974 -0.2670 -0.4130  0.7051
 5433SOL    HW127932   3.659   2.103  17.037 -1.5686 -0.9415 -0.0040
 5433SOL    HW227933   3.645   2.005  16.928  0.4039 -1.2435  0.6173
 5434SOL     OW27934   2.699   1.591   2.560 -0.0439 -0.2822 -0.5713
 5434SOL    HW127935   2.660   1.553   2.638  1.0715 -1.4424 -0.5790
 5434SOL    HW227936   2.641   1.568   2.487  0.7882 -1.8410 -0.7274
 5435SOL     OW27937   1.291   0.948   6.809 -0.3573  0.2785 -0.5711
 5435SOL    HW127938   1.307   0.861   6.846 -0.3948  0.4848 -0.0680
 5435SOL    HW227939   1.198   0.950   6.785 -0.4355 -1.0601 -0.3569
 5436SOL     OW27940   0.654   1.206   7.455 -0.2706  0.2963 -0.2164
 5436SOL    HW127941   0.594   1.217   7.529  0.3736 -2.3476  0.6796
 5436SOL    HW227942   0.707   1.283   7.477  0.5946 -0.3703  0.0094
 5437SOL     OW27943   3.044   2.251   2.684 -0.3833  0.7659 -0.5318
 5437SOL    HW127944   3.024   2.252   2.590  1.3529 -0.0418 -0.9057
 5437SOL    HW227945   3.102   2.175   2.683  0.0980  1.1060  2.4839
 5438SOL     OW27946   0.138   4.534   7.851  0.7121  0.4470 -0.0845
 5438SOL    HW127947   0.175   4.453   7.816 -0.2163  0.5956 -1.4131
 5438SOL    HW227948   0.145   4.523   7.946  1.9441  1.5901 -0.0472
 5439SOL     OW27949   1.742   2.488  12.528 -0.1553 -0.6158  0.1252
 5439SOL    HW127950   1.801   2.548  12.573 -2.0902  2.8265 -1.9245
 5439SOL    HW227951   1.742   2.407  12.579  2.2068 -0.5892  0.1756
 5440SOL     OW27952   4.377   1.662   8.052  0.5405  0.4728 -0.3026
 5440SOL    HW127953   4.301   1.709   8.020  0.3582  0.5050  0.1771
 5440SOL    HW227954   4.449   1.722   8.033  0.2728  0.9128  0.0872
 5441SOL     OW27955   3.540   4.576  13.424 -0.7805  0.3688 -0.2986
 5441SOL    HW127956   3.519   4.508  13.489  0.7500 -0.8503 -1.0920
 5441SOL    HW227957   3.534   4.649  13.485 -1.8570  0.5953 -0.6638
 5442SOL     OW27958   3.496   3.190   4.025  0.5495 -0.1705  0.4934
 5442SOL    HW127959   3.519   3.238   3.945  0.5066  1.0635  1.2105
 5442SOL    HW227960   3.501   3.099   3.997 -2.1769  0.1191 -1.0373
 5443SOL     OW27961   4.433   0.710   7.380 -0.3179  0.1304 -0.3767
 5443SOL    HW127962   4.405   0.729   7.290  2.3701  0.8570 -1.0623
 5443SOL    HW227963   4.489   0.637   7.354  0.6840  0.4384  0.9029
 5444SOL     OW27964   3.742   1.853   6.578  0.1971  0.8402 -0.1618
 5444SOL    HW127965   3.674   1.821   6.519  0.0531 -0.7196  0.8440
 5444SOL    HW227966   3.811   1.798   6.542 -1.2840 -0.1372 -1.5076
 5445SOL     OW27967   3.734   4.115   8.398  0.0864 -0.2022 -0.2750
 5445SOL    HW127968   3.729   4.052   8.327 -1.6051 -1.4847  0.9727
 5445SOL    HW227969   3.698   4.196   8.361 -1.8188 -0.9392 -0.0525
 5446SOL     OW27970   4.124   0.609   4.260  0.0833 -0.0017  0.0123
 5446SOL    HW127971   4.211   0.615   4.300  0.1438  2.1758 -0.4413
 5446SOL    HW227972   4.072   0.603   4.340 -0.1269 -0.6098 -0.1699
 5447SOL     OW27973   2.375   3.478   3.831 -0.0109 -0.6480 -0.4024
 5447SOL    HW127974   2.302   3.426   3.797 -0.3881  0.0716 -0.6985
 5447SOL    HW227975   2.333   3.517   3.909  1.2297 -3.0724  1.4764
 5448SOL     OW27976   2.498   2.018   7.829  0.0019 -0.4078 -0.3055
 5448SOL    HW127977   2.567   1.971   7.877 -0.4709 -2.8854 -2.0516
 5448SOL    HW227978   2.529   2.016   7.739  0.3465  0.4163 -0.2113
 5449SOL     OW27979   2.727   2.040  16.125 -0.0517  0.5103  0.0407
 5449SOL    HW127980   2.690   2.058  16.039 -3.8680 -3.9955  0.7168
 5449SOL    HW227981   2.821   2.030  16.118 -0.2159 -0.4705 -0.8030
 5450SOL     OW27982   0.240   2.533   6.839  0.3276  0.4168 -0.3526
 5450SOL    HW127983   0.281   2.492   6.763 -0.6346  0.5842 -0.9627
 5450SOL    HW227984   0.292   2.613   6.840  1.5326 -0.3558 -1.2348
 5451SOL     OW27985   3.176   0.673   2.600 -0.6457 -0.5125  0.2789
 5451SOL    HW127986   3.172   0.674   2.504 -0.5118  0.0802  0.2780
 5451SOL    HW227987   3.099   0.621   2.624  0.5496 -3.0985 -1.5683
 5452SOL     OW27988   0.420   2.916  11.207  0.2179 -0.6467  0.2622
 5452SOL    HW127989   0.435   2.859  11.283 -1.0442 -1.0902  0.1875
 5452SOL    HW227990   0.507   2.920  11.166 -0.3932  0.7029 -0.8998
 5453SOL     OW27991   3.902   3.565  13.783 -0.4659 -0.6056  0.0618
 5453SOL    HW127992   3.984   3.593  13.742 -1.0127  1.7218  0.5431
 5453SOL    HW227993   3.847   3.588  13.708 -0.6273 -1.3067 -0.0329
 5454SOL     OW27994   3.636   3.191  10.078 -0.1385 -0.7595 -0.3939
 5454SOL    HW127995   3.626   3.281  10.047  1.9186 -0.7462 -0.9946
 5454SOL    HW227996   3.550   3.164  10.046 -0.5860 -1.8334  1.7066
 5455SOL     OW27997   3.265   1.903   5.540  0.4555  0.3830 -0.4685
 5455SOL    HW127998   3.308   1.854   5.610 -0.9115 -0.5015 -0.2306
 5455SOL    HW227999   3.172   1.893   5.563  0.2870 -0.4262 -1.4915
 5456SOL     OW28000   3.668   1.412   3.455 -0.1171 -0.2000  0.2220
 5456SOL    HW128001   3.684   1.494   3.407  1.5973 -0.8638 -0.3165
 5456SOL    HW228002   3.593   1.439   3.509  1.4576  1.5090  1.5502
 5457SOL     OW28003   2.742   0.146   7.861 -0.3158 -0.4241 -0.1439
 5457SOL    HW128004   2.748   0.184   7.948  0.2252  1.0071 -0.8089
 5457SOL    HW228005   2.779   0.058   7.874 -1.7181 -1.3717 -2.5664
 5458SOL     OW28006   4.283   1.214   4.208 -0.0599 -0.6206 -0.4099
 5458SOL    HW128007   4.362   1.210   4.263 -0.0023 -0.3348 -0.4737
 5458SOL    HW228008   4.214   1.238   4.269 -0.2329  1.2704 -1.3820
 5459SOL     OW28009   0.668   0.969   9.723  0.1011  0.2044  0.7594
 5459SOL    HW128010   0.666   1.055   9.765  0.8705  0.6502 -0.1303
 5459SOL    HW228011   0.595   0.929   9.771  0.3413 -0.0625  0.9002
 5460SOL     OW28012   2.421   4.119   7.246 -0.1038  0.4742 -0.1593
 5460SOL    HW128013   2.389   4.088   7.331  0.3979  1.2216  0.2941
 5460SOL    HW228014   2.398   4.211   7.256 -1.2861 -0.0558  2.0131
 5461SOL     OW28015   3.593   2.101  15.306  0.4967 -0.0928  0.2333
 5461SOL    HW128016   3.583   2.031  15.241 -0.1382  2.1582 -2.1104
 5461SOL    HW228017   3.687   2.106  15.323  0.7540  1.2322 -1.5137
 5462SOL     OW28018   3.982   0.633  12.568 -0.1658 -0.1041  0.6186
 5462SOL    HW128019   4.012   0.622  12.658 -2.8883 -1.1205  1.4001
 5462SOL    HW228020   3.998   0.551  12.521  0.4106 -1.1824  2.7055
 5463SOL     OW28021   4.043   2.919   5.284 -0.0494  0.4465 -0.1428
 5463SOL    HW128022   4.015   2.891   5.197  0.0887  2.5202 -0.8620
 5463SOL    HW228023   4.139   2.916   5.286 -0.0419  1.2543  0.7166
 5464SOL     OW28024   3.514   0.351   1.371  0.5289 -0.4263 -0.2261
 5464SOL    HW128025   3.534   0.282   1.308  1.5497  0.4045 -0.8172
 5464SOL    HW228026   3.603   0.372   1.399  0.6977 -1.1432 -0.2241
 5465SOL     OW28027   4.442   3.658   9.396  0.0281 -0.5694 -0.5870
 5465SOL    HW128028   4.491   3.623   9.470  1.4406 -3.5025 -2.9050
 5465SOL    HW228029   4.476   3.747   9.392 -1.1829 -0.1196 -0.8416
 5466SOL     OW28030   3.851   1.235  11.612  0.3643 -0.1668  0.3589
 5466SOL    HW128031   3.766   1.224  11.654  1.0121  0.1155  1.7326
 5466SOL    HW228032   3.868   1.156  11.561  2.2579  1.8297 -2.0969
 5467SOL     OW28033   0.515   4.384   3.376  0.6834 -0.0754 -0.2231
 5467SOL    HW128034   0.526   4.462   3.430 -1.9568 -1.7941  2.7430
 5467SOL    HW228035   0.423   4.365   3.391  0.0215 -1.0541 -5.4919
 5468SOL     OW28036   0.124   4.155   9.678 -0.2782  0.1304 -0.8974
 5468SOL    HW128037   0.071   4.154   9.758 -2.2645  0.2284 -2.2316
 5468SOL    HW228038   0.212   4.130   9.705 -0.9446 -1.1714  0.0717
 5469SOL     OW28039   4.426   2.412   3.351  0.2064  0.2279 -0.1931
 5469SOL    HW128040   4.347   2.362   3.371  0.7413 -1.2228 -1.7522
 5469SOL    HW228041   4.466   2.423   3.437 -1.3314  1.1032  0.3977
 5470SOL     OW28042   3.690   2.359   3.226 -0.2451  0.0512 -0.1739
 5470SOL    HW128043   3.755   2.417   3.186  2.7835 -4.1969 -1.3156
 5470SOL    HW228044   3.747   2.283   3.236  0.2384  0.4978  0.4793
 5471SOL     OW28045   3.248   2.529  13.504  0.7696 -0.2735  0.0359
 5471SOL    HW128046   3.332   2.552  13.463  0.8308 -1.2382 -0.3893
 5471SOL    HW228047   3.184   2.557  13.438  0.0981 -2.8240 -0.3895
 5472SOL     OW28048   2.570   0.105   4.931 -0.4808 -0.3386  0.0462
 5472SOL    HW128049   2.489   0.121   4.883  0.3903  3.7845  0.0102
 5472SOL    HW228050   2.632   0.107   4.858 -0.3789 -0.6579  0.1228
 5473SOL     OW28051   3.385   0.139   5.057  0.0959 -0.4851 -0.3735
 5473SOL    HW128052   3.315   0.129   4.994  0.4778 -0.6513 -0.7697
 5473SOL    HW228053   3.400   0.233   5.045 -1.0704 -0.7017 -3.4494
 5474SOL     OW28054   1.073   3.477  10.254 -0.5070 -0.0659 -0.0971
 5474SOL    HW128055   1.136   3.535  10.295 -0.3359 -0.9946  0.9532
 5474SOL    HW228056   1.019   3.528  10.193  1.8278  0.8998 -1.3284
 5475SOL     OW28057   3.502   2.308   9.301  0.2219  0.2424 -0.5530
 5475SOL    HW128058   3.439   2.274   9.237 -0.7687  1.1682 -0.0709
 5475SOL    HW228059   3.431   2.307   9.366 -0.5952  0.1467 -1.4441
 5476SOL     OW28060   1.577   3.985   3.498 -0.0347 -0.0457  0.4102
 5476SOL    HW128061   1.536   4.052   3.554  0.1609  1.1598 -0.8998
 5476SOL    HW228062   1.620   3.934   3.567 -0.7030 -2.2985 -0.8562
 5477SOL     OW28063   2.090   3.812   7.578 -0.1355 -0.4920  0.2469
 5477SOL    HW128064   2.079   3.726   7.618  0.6841 -1.4341 -1.5711
 5477SOL    HW228065   2.074   3.788   7.487  0.2400  0.1352  0.0154
 5478SOL     OW28066   4.130   4.583   9.149 -0.5933  0.4291  0.2083
 5478SOL    HW128067   4.096   4.636   9.221  0.6753 -1.4934  2.2205
 5478SOL    HW228068   4.224   4.600   9.152 -0.1919 -1.4180 -2.4788
 5479SOL     OW28069   3.281   2.052   6.367  0.0664  0.1337  0.2879
 5479SOL    HW128070   3.335   1.972   6.363  0.0592 -0.0509  3.6658
 5479SOL    HW228071   3.336   2.087   6.437  0.0848 -2.0885  1.4115
 5480SOL     OW28072   2.723   2.628   5.483  0.1261  0.0409  0.6786
 5480SOL    HW128073   2.806   2.669   5.508  0.8102  0.2149 -1.8082
 5480SOL    HW228074   2.736   2.585   5.399  1.2507  0.3275  0.7061
 5481SOL     OW28075   1.542   1.305   4.130 -0.6314 -0.2892  0.7079
 5481SOL    HW128076   1.472   1.275   4.189 -1.8412 -1.0805 -1.1435
 5481SOL    HW228077   1.490   1.303   4.050 -0.0965  0.9384  0.3312
 5482SOL     OW28078   2.895   1.796  13.598  0.4932  0.4250  0.7809
 5482SOL    HW128079   2.850   1.790  13.682  0.4884  1.0581  0.8201
 5482SOL    HW228080   2.981   1.761  13.621  0.7395 -0.3875 -1.3243
 5483SOL     OW28081   0.477   2.780   7.524  0.0757  0.1788 -0.1485
 5483SOL    HW128082   0.406   2.825   7.570  1.1218  0.9540  0.6877
 5483SOL    HW228083   0.458   2.688   7.542 -0.3235  0.7062  2.1375
 5484SOL     OW28084   2.830   2.362   3.365  0.1819 -0.0733  0.2222
 5484SOL    HW128085   2.761   2.422   3.395  1.0270  1.9332 -1.9760
 5484SOL    HW228086   2.784   2.342   3.284 -2.0939  0.1390  1.4429
 5485SOL     OW28087   0.834   2.566  14.095 -0.1145  0.0785  0.2374
 5485SOL    HW128088   0.820   2.530  14.182  0.2238  1.0410  0.6828
 5485SOL    HW228089   0.859   2.655  14.120 -0.3117 -0.2958  1.7232
 5486SOL     OW28090   1.665   1.230   1.888 -0.4183 -0.0845 -0.0411
 5486SOL    HW128091   1.740   1.290   1.894  0.9364 -1.7426 -0.3739
 5486SOL    HW228092   1.654   1.232   1.793  0.0202  1.9262 -0.0400
 5487SOL     OW28093   1.938   1.015  12.653  0.2726 -0.4539 -0.2904
 5487SOL    HW128094   2.030   1.042  12.656  0.4020 -1.0828  1.5432
 5487SOL    HW228095   1.942   0.925  12.686 -0.6718 -0.7363 -0.9540
 5488SOL     OW28096   0.241   1.826  12.128 -0.0702  0.7598 -0.3625
 5488SOL    HW128097   0.264   1.864  12.043 -0.9445 -0.4290 -1.1369
 5488SOL    HW228098   0.149   1.849  12.129  0.2053  1.8624 -0.4277
 5489SOL     OW28099   0.460   2.191   9.217 -0.6263  0.6755  0.4630
 5489SOL    HW128100   0.531   2.127   9.212 -1.7256 -0.3999 -1.3833
 5489SOL    HW228101   0.385   2.136   9.240 -0.7568  0.8852  0.5437
 5490SOL     OW28102   2.586   1.573  10.067  0.5330 -0.0322 -0.3497
 5490SOL    HW128103   2.566   1.607  10.154  0.1411  0.5637 -0.6718
 5490SOL    HW228104   2.650   1.638  10.037  0.6284  0.2215  0.4146
 5491SOL     OW28105   0.695   2.807  12.900 -0.1328 -0.3176 -0.1477
 5491SOL    HW128106   0.763   2.796  12.966 -0.5422 -0.2411  0.2837
 5491SOL    HW228107   0.744   2.806  12.818  1.0592  1.2569  0.5338
 5492SOL     OW28108   0.716   3.924  13.422 -0.4901 -0.3492  0.0873
 5492SOL    HW128109   0.637   3.971  13.393 -0.4313 -0.2811  0.0382
 5492SOL    HW228110   0.662   3.846  13.432 -0.2650 -0.4054  0.8710
 5493SOL     OW28111   1.112   2.590   8.527 -0.3963  0.2152  0.4005
 5493SOL    HW128112   1.204   2.573   8.511 -0.7774 -0.8792 -0.6110
 5493SOL    HW228113   1.092   2.525   8.593 -1.0197  0.7450  0.7344
 5494SOL     OW28114   0.642   0.481   1.102  0.0784  0.4444 -0.0326
 5494SOL    HW128115   0.679   0.482   1.013  1.9033 -1.9231  0.6968
 5494SOL    HW228116   0.712   0.504   1.163 -0.2772 -0.5859  0.7592
 5495SOL     OW28117   0.002   3.749   2.771  0.0275  0.7875  0.5730
 5495SOL    HW128118   0.060   3.742   2.847  0.5007 -0.3494  0.1038
 5495SOL    HW228119   0.033   3.835   2.742 -1.2089  1.5698  1.6211
 5496SOL     OW28120   0.952   1.676   8.185 -0.2202 -0.0569  0.1317
 5496SOL    HW128121   1.024   1.617   8.163 -0.3138  0.1169 -0.6601
 5496SOL    HW228122   0.922   1.640   8.268 -4.0173 -1.0686 -1.6624
 5497SOL     OW28123   0.843   1.167   8.931  0.6835 -0.0089 -0.0809
 5497SOL    HW128124   0.927   1.128   8.908  0.7550 -0.4870  0.9815
 5497SOL    HW228125   0.851   1.179   9.026  1.9106  0.2768 -0.2178
 5498SOL     OW28126   4.518   1.855   2.603  0.0057 -0.0752  0.1376
 5498SOL    HW128127   4.572   1.927   2.637 -0.2761  0.2462 -0.0898
 5498SOL    HW228128   4.437   1.871   2.651  0.0697  0.7038 -0.0161
 5499SOL     OW28129   3.431   2.289  13.024 -0.1355  0.3333  0.0097
 5499SOL    HW128130   3.526   2.297  13.035 -0.2590  2.0236 -0.1467
 5499SOL    HW228131   3.413   2.334  12.942  0.8957  1.1122  0.2154
 5500SOL     OW28132   2.413   1.116  10.976 -0.1781 -0.6769 -0.0239
 5500SOL    HW128133   2.425   1.184  11.042 -0.0011  1.2000 -1.9517
 5500SOL    HW228134   2.489   1.066  11.005  1.1738  0.4151 -1.6416
 5501SOL     OW28135   2.901   2.104   4.071 -0.3589 -0.6979  0.0156
 5501SOL    HW128136   2.863   2.072   3.989 -0.7164 -1.2729  0.4067
 5501SOL    HW228137   2.834   2.159   4.111  1.7589 -0.7900  3.6838
 5502SOL     OW28138   4.579   0.738   6.518  0.5165  0.3432  0.0065
 5502SOL    HW128139   4.603   0.664   6.462 -0.6840  0.8360 -1.1751
 5502SOL    HW228140   4.661   0.775   6.551  0.4646 -1.3914  2.0504
 5503SOL     OW28141   1.229   2.047  11.365 -0.3679 -0.2510 -0.2127
 5503SOL    HW128142   1.234   1.955  11.392 -0.0803  0.7288  3.0601
 5503SOL    HW228143   1.161   2.048  11.298 -0.4638  1.0979 -0.0964
 5504SOL     OW28144   3.957   0.572  15.131  0.0801  0.1175 -0.4626
 5504SOL    HW128145   3.863   0.585  15.144  0.1622 -0.6117  0.8265
 5504SOL    HW228146   3.953   0.611  15.043  1.0581  1.6111  0.1616
 5505SOL     OW28147   2.413   0.711  17.135  0.1762 -0.6976  0.5263
 5505SOL    HW128148   2.330   0.674  17.103 -0.1617  0.2734  0.2874
 5505SOL    HW228149   2.443   0.745  17.051  1.3149 -0.5127  1.0170
 5506SOL     OW28150   0.741   0.999   6.377  0.3162 -0.2571  0.3124
 5506SOL    HW128151   0.714   0.929   6.316  2.4336  1.6130 -2.7641
 5506SOL    HW228152   0.719   1.071   6.318 -1.5519 -1.9142 -1.0256
 5507SOL     OW28153   3.933   3.731   3.210  0.1965  0.1232  0.1120
 5507SOL    HW128154   3.884   3.713   3.290 -2.6688  1.7328 -1.2652
 5507SOL    HW228155   4.019   3.736   3.250  0.4611 -0.7297 -0.3471
 5508SOL     OW28156   1.613   3.099   8.280 -0.2321  0.1177  0.4094
 5508SOL    HW128157   1.699   3.058   8.268 -0.2980  0.3970 -1.0427
 5508SOL    HW228158   1.629   3.164   8.348 -0.5384 -0.1208  0.7136
 5509SOL     OW28159   1.949   4.715   4.824  0.0632 -0.1118 -0.0083
 5509SOL    HW128160   1.873   0.033   4.805 -0.5108 -0.7514  0.3784
 5509SOL    HW228161   1.936   4.690   4.915 -1.5747 -3.6599 -1.1998
 5510SOL     OW28162   0.452   3.344   3.627 -0.1027 -0.1879 -0.0242
 5510SOL    HW128163   0.390   3.377   3.692 -1.8707 -0.5279 -1.5368
 5510SOL    HW228164   0.414   3.383   3.548  0.4507  2.1074  0.8232
 5511SOL     OW28165   1.333   0.125  10.751  0.0757 -0.4717 -0.3872
 5511SOL    HW128166   1.425   0.118  10.779  0.6281 -1.4329 -2.4227
 5511SOL    HW228167   1.334   0.049  10.692 -0.9317  0.4495 -1.5712
 5512SOL     OW28168   2.838   0.700   3.344  1.0782 -0.0061  0.5048
 5512SOL    HW128169   2.802   0.687   3.432 -0.2986  1.2807  0.1199
 5512SOL    HW228170   2.912   0.758   3.363 -0.3022  2.3974 -1.5646
 5513SOL     OW28171   4.489   3.970   6.940  0.6857 -0.9049 -0.8167
 5513SOL    HW128172   4.500   3.909   6.867  1.6680 -0.6314 -0.8981
 5513SOL    HW228173   4.502   3.916   7.018 -0.7103 -0.2704 -0.1408
 5514SOL     OW28174   0.504   0.688   5.671  0.4244  0.5480  0.3799
 5514SOL    HW128175   0.553   0.760   5.632 -1.3805  0.0675 -2.7517
 5514SOL    HW228176   0.564   0.614   5.663 -0.0589  0.0073  1.6908
 5515SOL     OW28177   2.321   0.499   7.535 -0.1696 -0.6748 -0.3561
 5515SOL    HW128178   2.286   0.575   7.581  2.0474  0.5307 -0.6500
 5515SOL    HW228179   2.241   0.451   7.516  0.1640 -2.0644  1.8445
 5516SOL     OW28180   1.626   1.726   4.363 -0.3537  0.2998  0.3679
 5516SOL    HW128181   1.659   1.789   4.300  0.6767  0.5219  1.1266
 5516SOL    HW228182   1.613   1.784   4.439 -0.6702  2.2237 -1.1657
 5517SOL     OW28183   1.818   3.739  17.268  0.4079  0.8156 -0.1355
 5517SOL    HW128184   1.863   3.819  17.240  3.3903 -0.9605 -0.4195
 5517SOL    HW228185   1.843   3.729  17.360 -1.8590  2.0465  0.6183
 5518SOL     OW28186   3.589   4.081   5.833 -0.0257 -0.2025 -0.2142
 5518SOL    HW128187   3.659   4.088   5.767  1.9800 -0.7882  1.8651
 5518SOL    HW228188   3.545   4.165   5.816 -0.3645 -0.2292  0.5433
 5519SOL     OW28189   1.466   3.766   8.781 -0.4748  0.0870 -0.6858
 5519SOL    HW128190   1.447   3.800   8.868 -0.9263  0.3317 -0.8787
 5519SOL    HW228191   1.530   3.832   8.754 -1.9236  0.5067 -3.1494
 5520SOL     OW28192   1.413   2.249   6.539 -0.6846 -0.1782  0.1004
 5520SOL    HW128193   1.345   2.204   6.488 -0.2760  0.7284 -1.2534
 5520SOL    HW228194   1.481   2.182   6.530  1.1162  1.5901  0.4606
 5521SOL     OW28195   2.910   1.696  16.897  0.2772  0.5351  0.9119
 5521SOL    HW128196   2.987   1.745  16.869  1.2498 -2.6546 -1.9124
 5521SOL    HW228197   2.894   1.734  16.984  0.2274  0.7959  0.7873
 5522SOL     OW28198   3.169   3.392   6.725  0.2956  0.0325 -0.1387
 5522SOL    HW128199   3.111   3.410   6.798  0.1002  0.3359 -0.3703
 5522SOL    HW228200   3.185   3.298   6.739  3.1039  0.5731  0.3069
 5523SOL     OW28201   3.860   0.123   3.409  0.5903 -0.1402  0.3230
 5523SOL    HW128202   3.808   0.203   3.413 -0.0479 -0.6271  1.6528
 5523SOL    HW228203   3.946   0.167   3.407  0.6272 -0.3155 -2.1168
 5524SOL     OW28204   1.979   1.497   0.898  1.0040 -0.1122 -0.0810
 5524SOL    HW128205   2.007   1.567   0.839  3.3227  0.1733  1.3537
 5524SOL    HW228206   2.020   1.518   0.982 -0.5777 -0.6820  0.8273
 5525SOL     OW28207   4.729   2.852   8.498  0.4154  0.6231  0.7220
 5525SOL    HW128208   0.043   2.929   8.520  1.5690  1.0397 -3.3594
 5525SOL    HW228209   4.674   2.843   8.575 -0.2645  1.4358  0.3223
 5526SOL     OW28210   4.040   0.058   1.312  0.3530  0.2335 -0.2393
 5526SOL    HW128211   4.054   0.023   1.400  3.1656 -2.8359 -1.9366
 5526SOL    HW228212   4.100   0.133   1.311  1.0941 -0.3789 -0.7778
 5527SOL     OW28213   2.404   1.091   6.318  0.0544  0.2140 -0.0041
 5527SOL    HW128214   2.378   1.026   6.384  1.4621 -0.0958  0.2461
 5527SOL    HW228215   2.325   1.086   6.265  1.0814  1.8006 -1.6691
 5528SOL     OW28216   4.373   3.309   2.385 -0.0753 -0.1086 -0.2328
 5528SOL    HW128217   4.328   3.391   2.403  1.5833  0.7518 -0.0035
 5528SOL    HW228218   4.299   3.268   2.341  0.9503 -1.6131 -0.5624
 5529SOL     OW28219   1.577   0.782  14.811 -0.3612  0.3986 -0.4846
 5529SOL    HW128220   1.548   0.745  14.894 -0.4238 -1.2974 -1.2701
 5529SOL    HW228221   1.667   0.802  14.835 -0.5158  0.3211  0.1658
 5530SOL     OW28222   0.200   3.114   7.981 -0.2517 -0.3671  0.0418
 5530SOL    HW128223   0.124   3.064   8.010 -1.4056  0.2706 -1.8256
 5530SOL    HW228224   0.163   3.202   7.993  0.4480 -0.0623 -0.0053
 5531SOL     OW28225   0.617   4.180   6.488  0.0108 -0.2703  0.3041
 5531SOL    HW128226   0.688   4.125   6.456 -0.6275 -2.1095  2.0714
 5531SOL    HW228227   0.659   4.266   6.482 -0.4392 -0.0067  0.8993
 5532SOL     OW28228   2.328   4.370   3.378 -0.4074  0.3452  0.2848
 5532SOL    HW128229   2.325   4.279   3.407  0.2595  1.0729  2.6892
 5532SOL    HW228230   2.241   4.400   3.402 -0.9372 -1.0926  0.1621
 5533SOL     OW28231   3.292   1.468   2.143 -0.0561  0.2532 -0.0558
 5533SOL    HW128232   3.346   1.440   2.069  0.5998  0.0501  0.4898
 5533SOL    HW228233   3.239   1.393   2.170  0.7753  0.1676  1.3694
 5534SOL     OW28234   3.184   2.583   4.728 -1.0238  0.7009  0.2233
 5534SOL    HW128235   3.153   2.657   4.779 -3.0742  1.8562 -2.6960
 5534SOL    HW228236   3.134   2.518   4.778  0.4108 -1.3551 -0.9636
 5535SOL     OW28237   4.291   3.632   8.480 -0.4620 -0.4553 -0.7587
 5535SOL    HW128238   4.316   3.710   8.431 -2.1385 -0.0902 -1.0345
 5535SOL    HW228239   4.199   3.638   8.505 -0.0397 -0.6328  0.7969
 5536SOL     OW28240   0.619   2.226  12.044  0.0989  0.6164  0.0936
 5536SOL    HW128241   0.569   2.305  12.023 -5.3048 -2.3844  1.5508
 5536SOL    HW228242   0.679   2.270  12.103  1.2446  1.3313 -1.5902
 5537SOL     OW28243   3.389   0.856  15.231 -0.2364 -0.2536  0.3066
 5537SOL    HW128244   3.314   0.816  15.186 -0.4025  1.8533 -1.2825
 5537SOL    HW228245   3.446   0.875  15.157 -1.8300  0.2902 -0.7810
 5538SOL     OW28246   3.842   2.771   8.452 -0.0988  0.5404  0.2004
 5538SOL    HW128247   3.895   2.711   8.505  1.0500  0.5746 -0.8857
 5538SOL    HW228248   3.757   2.732   8.468  0.4687 -0.2037  1.4269
 5539SOL     OW28249   0.420   2.990   8.059  0.0564 -0.2935  0.3645
 5539SOL    HW128250   0.345   3.037   8.023  2.4972  1.0745 -2.8992
 5539SOL    HW228251   0.398   2.974   8.151 -0.6762  1.1020  0.4297
 5540SOL     OW28252   2.801   0.889   4.015 -0.5490 -0.3687 -0.3621
 5540SOL    HW128253   2.781   0.920   4.104 -0.1098  0.0667 -0.4178
 5540SOL    HW228254   2.734   0.935   3.965 -1.9502 -1.3583  0.5877
 5541SOL     OW28255   3.030   3.519  15.138 -0.5685  0.2752  0.6113
 5541SOL    HW128256   3.117   3.559  15.148 -0.0442 -0.6866 -0.1503
 5541SOL    HW228257   3.052   3.440  15.089  1.1788  0.2805  1.3858
 5542SOL     OW28258   1.077   0.370  13.588  0.3686  0.0858 -0.2235
 5542SOL    HW128259   1.035   0.325  13.514  1.6293 -0.8444 -0.3622
 5542SOL    HW228260   1.098   0.446  13.535 -0.1520 -1.2298 -2.3294
 5543SOL     OW28261   2.016   0.335   0.884 -0.2230  0.2261 -0.1055
 5543SOL    HW128262   1.986   0.257   0.931  1.2479  0.8956  1.9135
 5543SOL    HW228263   2.108   0.343   0.909  0.1282 -1.4668 -0.8719
 5544SOL     OW28264   1.358   1.688  10.349  0.4723 -0.0308 -0.5746
 5544SOL    HW128265   1.349   1.659  10.259 -0.5656  0.9003 -0.7615
 5544SOL    HW228266   1.445   1.730  10.348  1.2714 -1.6167  1.3771
 5545SOL     OW28267   2.031   1.582  11.355  0.2225  0.2712 -0.1722
 5545SOL    HW128268   1.980   1.565  11.276 -0.4745 -0.6288  0.4685
 5545SOL    HW228269   1.976   1.656  11.382 -0.2637  0.3060 -1.2963
 5546SOL     OW28270   0.356   3.660   6.017  0.4316  0.2409 -0.3846
 5546SOL    HW128271   0.267   3.624   6.017  0.9186 -0.9324  0.2216
 5546SOL    HW228272   0.365   3.696   5.928  0.9437 -1.8678 -1.1846
 5547SOL     OW28273   0.326   4.382   9.698  0.1938 -1.0532  0.6808
 5547SOL    HW128274   0.345   4.310   9.759 -2.7272 -1.0333  1.6074
 5547SOL    HW228275   0.246   4.418   9.736 -0.0694  0.9989 -1.8794
 5548SOL     OW28276   2.104   0.198  14.288 -0.1419  0.7074  0.2533
 5548SOL    HW128277   2.149   0.281  14.268  0.9351  0.0652  0.0331
 5548SOL    HW228278   2.059   0.226  14.368 -2.1207 -1.1876 -0.1956
 5549SOL     OW28279   3.339   1.390   5.066 -0.2839 -0.3978  0.2770
 5549SOL    HW128280   3.250   1.421   5.050 -0.1417 -0.5448 -0.8189
 5549SOL    HW228281   3.356   1.386   5.160  3.5659  0.7488 -0.3279
 5550SOL     OW28282   3.957   1.659   5.911  0.1878 -0.5373 -0.0440
 5550SOL    HW128283   4.028   1.723   5.899 -1.2388  0.6119 -2.3553
 5550SOL    HW228284   4.004   1.596   5.965  0.0578 -0.5660  0.0348
 5551SOL     OW28285   3.438   1.007   8.174  0.1419  0.6030  0.2120
 5551SOL    HW128286   3.388   1.086   8.155 -2.0238 -1.1431 -1.2991
 5551SOL    HW228287   3.522   1.050   8.191  0.5552  0.2613 -0.9639
 5552SOL     OW28288   0.161   4.502  14.424 -0.4764 -0.2537 -0.0078
 5552SOL    HW128289   0.081   4.548  14.448 -1.0559 -0.7441 -0.9890
 5552SOL    HW228290   0.224   4.534  14.489 -2.1136  1.1169  0.8996
 5553SOL     OW28291   3.589   1.377   3.091  0.5640  0.6648  0.1870
 5553SOL    HW128292   3.549   1.317   3.027  0.5816  0.3934  0.4303
 5553SOL    HW228293   3.656   1.327   3.137 -0.6313 -1.6377 -0.5931
 5554SOL     OW28294   3.798   3.140   6.630  0.5175 -0.0932 -0.7615
 5554SOL    HW128295   3.884   3.168   6.599  0.2703  1.1736 -0.2622
 5554SOL    HW228296   3.764   3.100   6.550 -0.9387 -0.6313  0.1394
 5555SOL     OW28297   1.068   2.501   9.253 -0.3494 -0.4617 -0.2434
 5555SOL    HW128298   1.135   2.447   9.211 -0.9228 -2.0427  0.8849
 5555SOL    HW228299   0.992   2.476   9.200 -0.4043  0.8016 -0.7536
 5556SOL     OW28300   2.766   1.217  14.019  0.7286  0.3661 -0.0372
 5556SOL    HW128301   2.710   1.144  14.044  1.6719 -0.4897 -0.4238
 5556SOL    HW228302   2.745   1.279  14.089  1.9730 -1.0895  1.6204
 5557SOL     OW28303   2.626   1.568   8.930 -0.0873 -0.1801  0.3500
 5557SOL    HW128304   2.635   1.473   8.923 -0.5371 -0.1818 -0.2172
 5557SOL    HW228305   2.702   1.588   8.985  0.0869 -2.2236  0.8637
 5558SOL     OW28306   3.582   0.135  13.357  0.0930  0.0580  0.6911
 5558SOL    HW128307   3.516   0.066  13.353 -0.4999  0.6725 -0.3955
 5558SOL    HW228308   3.585   0.173  13.269 -0.1723 -0.8384  0.3007
 5559SOL     OW28309   4.120   2.658   8.905  0.4571 -0.1632 -0.5631
 5559SOL    HW128310   4.178   2.670   8.981 -1.8833 -0.9627  1.3695
 5559SOL    HW228311   4.180   2.615   8.845 -0.5321 -0.5616 -1.2569
 5560SOL     OW28312   2.331   2.137   1.758  0.0362  0.1761  0.2226
 5560SOL    HW128313   2.307   2.228   1.777 -2.0073 -0.7538  2.0057
 5560SOL    HW228314   2.306   2.135   1.665  0.5994 -0.9007  0.0988
 5561SOL     OW28315   0.034   3.619   8.254 -0.0660  0.1846 -0.5549
 5561SOL    HW128316   0.005   3.530   8.274  0.4091  0.0964 -0.2593
 5561SOL    HW228317   4.693   3.664   8.222 -1.8346 -1.2378  1.8091
 5562SOL     OW28318   1.221   3.718  16.376 -0.2046  0.5993  0.2148
 5562SOL    HW128319   1.207   3.721  16.471 -0.9850 -1.2646  0.1745
 5562SOL    HW228320   1.187   3.801  16.345 -0.8963  0.3295  0.2346
 5563SOL     OW28321   4.014   0.441  15.885 -1.0804  0.3742 -0.1947
 5563SOL    HW128322   4.006   0.351  15.852 -0.8505  0.7394 -1.2214
 5563SOL    HW228323   4.105   0.450  15.911 -1.2879 -1.7298  1.2403
 5564SOL     OW28324   0.787   1.232   1.640 -0.0334  0.3009 -0.2159
 5564SOL    HW128325   0.787   1.233   1.545  1.0226  0.3884 -0.2220
 5564SOL    HW228326   0.842   1.154   1.652  2.6238  2.0938 -0.5280
 5565SOL     OW28327   0.784   0.707   2.343  0.1147 -0.6813 -0.2264
 5565SOL    HW128328   0.810   0.626   2.388  0.8093 -1.2688 -1.6988
 5565SOL    HW228329   0.767   0.669   2.257 -0.0043  2.1720 -1.4549
 5566SOL     OW28330   1.105   0.238  10.806  0.0014  0.5552  0.1659
 5566SOL    HW128331   1.187   0.195  10.781 -0.8610 -0.5039 -0.8029
 5566SOL    HW228332   1.117   0.318  10.755  1.0305  0.2709 -0.0328
 5567SOL     OW28333   0.501   3.313   1.110 -0.6082 -0.0434  0.0826
 5567SOL    HW128334   0.549   3.233   1.134 -0.3030  0.0004 -0.3819
 5567SOL    HW228335   0.510   3.311   1.015  0.8047  0.1591  0.2218
 5568SOL     OW28336   1.061   0.817   5.007  0.0226 -0.3314 -0.1223
 5568SOL    HW128337   1.059   0.897   4.954 -1.1805  0.9820  1.9271
 5568SOL    HW228338   1.053   0.853   5.095  2.3419  1.9721 -0.8360
 5569SOL     OW28339   1.006   1.440  14.901 -0.0755  0.4045 -0.3748
 5569SOL    HW128340   0.925   1.480  14.932  0.3660 -0.6981  2.2154
 5569SOL    HW228341   1.067   1.466  14.971  0.2715  1.6814 -1.1525
 5570SOL     OW28342   2.920   2.251  17.389  0.1453  0.9736 -0.0514
 5570SOL    HW128343   2.942   2.169  17.433 -0.1140  0.7312 -0.3746
 5570SOL    HW228344   2.879   2.228  17.306  0.8156  1.7832 -0.6122
 5571SOL     OW28345   3.614   3.566   5.629 -0.2174 -0.3053  0.6892
 5571SOL    HW128346   3.581   3.620   5.557 -1.8585 -0.2509  1.4882
 5571SOL    HW228347   3.533   3.547   5.675 -1.6416  1.6691 -1.0175
 5572SOL     OW28348   2.316   1.079   8.990 -0.0729  0.1565 -0.2869
 5572SOL    HW128349   2.364   1.000   9.015  1.2345  0.7817 -0.8402
 5572SOL    HW228350   2.249   1.071   9.059  1.6579 -0.4153  1.3472
 5573SOL     OW28351   1.113   1.649   2.656 -0.3139 -0.0861  0.0090
 5573SOL    HW128352   1.073   1.590   2.591 -1.0118  1.1364 -0.6612
 5573SOL    HW228353   1.099   1.601   2.738  0.4942  1.2536  0.9202
 5574SOL     OW28354   3.144   3.475   2.872 -0.2247  0.4882 -0.0302
 5574SOL    HW128355   3.076   3.531   2.834 -0.7320 -0.7243 -0.9134
 5574SOL    HW228356   3.184   3.430   2.798 -1.1749  0.9490 -0.8330
 5575SOL     OW28357   2.231   2.468  10.048 -0.0486  0.5603 -0.3152
 5575SOL    HW128358   2.273   2.436  10.128  0.7520  1.7461 -0.2691
 5575SOL    HW228359   2.177   2.393  10.020  0.0383 -0.0624  1.1754
 5576SOL     OW28360   4.418   4.659   8.851  0.3515  0.2307  0.2645
 5576SOL    HW128361   4.461   4.580   8.884 -2.4951 -1.4971 -0.1335
 5576SOL    HW228362   4.330   4.627   8.829 -0.0686  1.1956  0.5171
 5577SOL     OW28363   1.114   3.442   1.587  0.0833 -0.7638 -0.0693
 5577SOL    HW128364   1.059   3.518   1.565  2.6856  0.3779 -2.5404
 5577SOL    HW228365   1.054   3.420   1.659  0.6942 -0.1965  0.6143
 5578SOL     OW28366   2.702   4.206   3.820 -0.3603  0.2768  0.0773
 5578SOL    HW128367   2.666   4.138   3.763  2.8641 -0.3985 -1.1507
 5578SOL    HW228368   2.621   4.226   3.868 -1.0318  0.7261 -1.2232
 5579SOL     OW28369   0.876   0.440  13.261 -0.5974 -0.0361  0.6925
 5579SOL    HW128370   0.829   0.470  13.339  1.0287  0.9058  1.3010
 5579SOL    HW228371   0.899   0.520  13.214 -0.5655 -0.9172 -0.7945
 5580SOL     OW28372   0.053   4.490   9.685  0.3822 -0.0628 -0.3681
 5580SOL    HW128373   4.734   4.561   9.653 -0.2040 -2.7489 -5.2910
 5580SOL    HW228374   4.735   4.441   9.747  0.1519  2.3669  1.3881
 5581SOL     OW28375   1.653   0.522   5.686 -0.6682  0.8800  1.0700
 5581SOL    HW128376   1.594   0.597   5.677 -1.9779  0.0875  3.1136
 5581SOL    HW228377   1.720   0.534   5.619  0.8122 -3.6928  1.7875
 5582SOL     OW28378   3.191   0.280   6.086  0.1726 -0.0174 -0.2298
 5582SOL    HW128379   3.214   0.243   6.171  1.0734 -0.7005 -0.7715
 5582SOL    HW228380   3.259   0.245   6.028  1.1943  1.8675 -0.1750
 5583SOL     OW28381   2.899   0.403   4.603  0.0023  0.0046  0.0321
 5583SOL    HW128382   2.806   0.416   4.583  0.4072  2.1421 -0.4192
 5583SOL    HW228383   2.910   0.385   4.697 -0.8787  0.9363  0.3172
 5584SOL     OW28384   1.722   2.598  10.282 -0.3951 -0.0225 -0.0902
 5584SOL    HW128385   1.627   2.595  10.295 -0.3264 -0.1239  0.3751
 5584SOL    HW228386   1.733   2.693  10.277  1.0930 -0.0994  1.9870
 5585SOL     OW28387   1.797   2.657  13.318  0.2742  0.1956 -0.5387
 5585SOL    HW128388   1.834   2.571  13.339  0.6070  0.0590 -1.6889
 5585SOL    HW228389   1.859   2.715  13.363  0.4151  0.3009 -0.8745
 5586SOL     OW28390   4.396   0.552   5.247  0.0376 -0.0928  0.2181
 5586SOL    HW128391   4.407   0.492   5.173 -0.6004  0.4831 -0.3396
 5586SOL    HW228392   4.382   0.485   5.314 -3.4226  0.0000 -0.4223
 5587SOL     OW28393   2.311   1.441   6.430  0.5327  0.1740  0.5465
 5587SOL    HW128394   2.394   1.428   6.476  0.1644  0.4519  1.2841
 5587SOL    HW228395   2.280   1.352   6.410  0.8723  0.2968 -0.5130
 5588SOL     OW28396   2.938   3.120   6.590 -0.6420 -0.0210 -0.3878
 5588SOL    HW128397   2.884   3.089   6.517  3.4820 -0.9468 -3.0205
 5588SOL    HW228398   3.003   3.169   6.539 -0.3756  0.3753  0.3264
 5589SOL     OW28399   4.220   0.353   3.208  0.6888 -0.0140 -0.2808
 5589SOL    HW128400   4.226   0.433   3.155 -0.5561  1.4843  1.8465
 5589SOL    HW228401   4.293   0.302   3.172 -0.8703 -3.0688  0.8587
 5590SOL     OW28402   0.985   4.027  13.365 -0.1623  0.2973  0.3354
 5590SOL    HW128403   0.953   4.106  13.322  1.7747  1.3133  0.7473
 5590SOL    HW228404   0.906   3.978  13.387  0.6952 -1.4507 -0.4647
 5591SOL     OW28405   2.942   1.969   5.917  0.2035 -0.1973  0.0345
 5591SOL    HW128406   2.938   1.961   6.013  0.1065  0.4058  0.0833
 5591SOL    HW228407   2.853   1.995   5.892 -0.3800 -1.2371  1.0229
 5592SOL     OW28408   3.689   1.071   5.414 -0.5111  0.2300  0.1806
 5592SOL    HW128409   3.746   1.114   5.477  0.5180  0.6980 -1.0530
 5592SOL    HW228410   3.757   1.060   5.348 -0.3082  1.2390  0.2110
 5593SOL     OW28411   4.335   3.695   6.477  0.0325  0.3646 -0.1042
 5593SOL    HW128412   4.371   3.662   6.559  2.0197  3.1078  0.1168
 5593SOL    HW228413   4.393   3.771   6.473  0.3441  0.0991 -0.6702
 5594SOL     OW28414   1.390   3.266   6.454 -0.0325  0.0922 -0.1883
 5594SOL    HW128415   1.426   3.286   6.541 -0.5553  1.8476 -0.3705
 5594SOL    HW228416   1.376   3.171   6.449  0.6547 -0.0388  0.3840
 5595SOL     OW28417   3.702   2.848   8.792  0.3387  0.4710  0.0250
 5595SOL    HW128418   3.725   2.755   8.800  0.1054  0.4101 -0.0056
 5595SOL    HW228419   3.607   2.838   8.792  0.5299 -1.6091  1.5771
 5596SOL     OW28420   4.138   3.601   2.813 -0.1102  0.4179 -0.0385
 5596SOL    HW128421   4.094   3.524   2.850  2.1779 -0.7409  0.2966
 5596SOL    HW228422   4.177   3.550   2.742  0.5532 -0.2878  0.8325
 5597SOL     OW28423   4.522   2.906   9.332 -0.4658  0.0089 -0.2342
 5597SOL    HW128424   4.548   2.985   9.380 -2.0625  0.4447 -0.0837
 5597SOL    HW228425   4.575   2.839   9.376 -0.5712  0.4616  0.5963
 5598SOL     OW28426   1.986   0.877   7.477  0.7450 -0.0573 -0.5566
 5598SOL    HW128427   1.992   0.928   7.557  3.1772  0.3910 -1.0145
 5598SOL    HW228428   1.936   0.926   7.411  2.6074 -0.4849 -2.3061
 5599SOL     OW28429   1.188   1.222   5.098  0.3286  0.1502 -0.2363
 5599SOL    HW128430   1.149   1.163   5.033  1.3039 -0.6305 -0.1061
 5599SOL    HW228431   1.207   1.293   5.036  2.8401 -0.1690  0.1730
 5600SOL     OW28432   1.449   3.918   2.741  0.1326  0.1870  0.3781
 5600SOL    HW128433   1.541   3.896   2.728  0.5766  2.6821 -0.7071
 5600SOL    HW228434   1.408   3.868   2.671 -1.3722 -0.3159  1.6302
 5601SOL     OW28435   4.575   3.057   6.796 -0.0336  0.3908  0.1099
 5601SOL    HW128436   4.576   2.973   6.751  2.9219  0.8001 -0.5895
 5601SOL    HW228437   4.531   3.035   6.879 -3.7824 -1.2546 -2.3264
 5602SOL     OW28438   0.709   4.726  10.055  0.3186 -0.3508 -0.2416
 5602SOL    HW128439   0.700   0.029  10.142  0.6867  0.1513 -0.4323
 5602SOL    HW228440   0.741   0.061  10.000 -1.7466  1.4223  0.8785
 5603SOL     OW28441   2.361   2.167   7.998 -0.2931 -0.3990  0.0633
 5603SOL    HW128442   2.385   2.113   7.923  1.5346 -0.5352  0.7393
 5603SOL    HW228443   2.428   2.234   7.982 -1.1358  0.3031 -0.5119
 5604SOL     OW28444   2.759   4.137   3.180  0.0217 -0.4684 -0.2780
 5604SOL    HW128445   2.834   4.194   3.196 -0.4709 -0.1386  0.8574
 5604SOL    HW228446   2.785   4.084   3.105 -1.4188  1.0154 -1.8297
 5605SOL     OW28447   3.241   2.258  17.522 -0.0488 -0.2898 -0.3236
 5605SOL    HW128448   3.238   2.162  17.522 -1.4859 -0.2486 -1.2592
 5605SOL    HW228449   3.304   2.274  17.452  0.3776 -0.2974  0.0653
 5606SOL     OW28450   3.077   0.713   7.104 -0.2248  0.3858  0.1833
 5606SOL    HW128451   3.171   0.701   7.089 -0.4422 -0.0811 -0.7923
 5606SOL    HW228452   3.087   0.808   7.106 -0.1000  0.4216 -1.9660
 5607SOL     OW28453   2.452   2.385   3.286 -0.4082  0.5621  0.0309
 5607SOL    HW128454   2.488   2.307   3.329 -1.5064 -0.2651 -0.5343
 5607SOL    HW228455   2.417   2.445   3.351  1.0309 -0.2838  1.5694
 5608SOL     OW28456   4.275   2.552   9.359 -0.2992 -0.3269 -0.3519
 5608SOL    HW128457   4.246   2.531   9.448  0.1142  3.0141  0.5789
 5608SOL    HW228458   4.313   2.469   9.330 -1.2949 -1.1248  0.6437
 5609SOL     OW28459   2.474   0.748   2.588 -0.5175 -0.0983 -0.2545
 5609SOL    HW128460   2.424   0.707   2.518  1.6211  0.9767 -2.4145
 5609SOL    HW228461   2.559   0.704   2.587  0.1805  1.2181  0.9487
 5610SOL     OW28462   2.831   0.365  15.170 -0.1265  0.1228 -0.3177
 5610SOL    HW128463   2.758   0.311  15.139 -0.5225  1.6273 -2.0048
 5610SOL    HW228464   2.895   0.294  15.171 -0.5313 -0.2557 -1.7348
 5611SOL     OW28465   3.549   2.742  16.765 -0.4261  0.2023 -0.3501
 5611SOL    HW128466   3.531   2.663  16.714 -0.1018  0.5772 -1.0513
 5611SOL    HW228467   3.548   2.812  16.700 -3.3659  1.1563  0.7200
 5612SOL     OW28468   2.099   3.090   9.556  0.0719 -0.6107  0.6415
 5612SOL    HW128469   2.015   3.129   9.582  0.0999 -0.9066  1.1591
 5612SOL    HW228470   2.074   2.998   9.560  1.6074 -1.0022  1.0463
 5613SOL     OW28471   0.078   4.674   6.153 -0.1748  0.6345 -0.3766
 5613SOL    HW128472   0.161   4.632   6.174  0.3973  0.7237 -2.4363
 5613SOL    HW228473   0.019   4.614   6.198  0.0051  0.2620 -0.6406
 5614SOL     OW28474   1.380   4.225   6.713  0.1824 -0.3755  0.2020
 5614SOL    HW128475   1.377   4.147   6.769 -0.6572  0.4172  1.2558
 5614SOL    HW228476   1.424   4.175   6.644  1.1758 -0.0023  0.5633
 5615SOL     OW28477   1.163   0.763   8.681 -0.0712 -0.3104  0.1801
 5615SOL    HW128478   1.213   0.833   8.722  1.1157 -1.6885  1.0919
 5615SOL    HW228479   1.205   0.684   8.716  3.0644  0.6408 -1.4032
 5616SOL     OW28480   0.259   1.109   7.152 -0.0610  0.2714  0.2783
 5616SOL    HW128481   0.297   1.047   7.215  0.3101  1.6635  1.4333
 5616SOL    HW228482   0.335   1.156   7.118 -0.5924  1.0079  0.1178
 5617SOL     OW28483   0.839   4.447   2.566  0.1207  0.0690  0.0247
 5617SOL    HW128484   0.914   4.390   2.549 -0.3424  0.2900 -2.7672
 5617SOL    HW228485   0.879   4.520   2.612 -0.1752  1.3595 -1.7674
 5618SOL     OW28486   1.954   0.355   7.917  0.1911 -0.1754  0.1171
 5618SOL    HW128487   2.035   0.363   7.867  0.4404 -0.0633  0.5395
 5618SOL    HW228488   1.949   0.262   7.941  2.7757  0.4867  3.2573
 5619SOL     OW28489   3.065   1.640  15.478 -0.3785 -0.2385  0.2953
 5619SOL    HW128490   3.141   1.683  15.439 -1.2057  0.3863 -0.6254
 5619SOL    HW228491   3.096   1.552  15.456  0.3202 -0.2719  1.3982
 5620SOL     OW28492   3.785   0.955  16.054  0.3885 -0.1768  0.0178
 5620SOL    HW128493   3.713   0.897  16.030  0.2408  0.4802 -1.1053
 5620SOL    HW228494   3.805   0.942  16.147  0.6421  1.2393  0.1703
 5621SOL     OW28495   1.001   2.982  17.595  0.0807 -0.6632  0.4460
 5621SOL    HW128496   1.060   2.908  17.584  1.5207  0.4514  0.6857
 5621SOL    HW228497   1.038   3.055  17.546 -1.9230  1.0415  1.4955
 5622SOL     OW28498   0.702   1.187   6.177  0.3359 -0.1693 -0.3521
 5622SOL    HW128499   0.609   1.164   6.185 -0.3212  2.3615 -0.6849
 5622SOL    HW228500   0.722   1.189   6.083  2.0600 -2.8872 -0.0398
 5623SOL     OW28501   0.398   3.580  15.514 -0.0368  0.3319  0.4034
 5623SOL    HW128502   0.454   3.641  15.562  0.3695  0.5446 -0.3382
 5623SOL    HW228503   0.461   3.508  15.510 -0.7643 -0.2558 -0.5321
 5624SOL     OW28504   2.338   3.619   5.278 -0.2521 -0.0638 -0.3028
 5624SOL    HW128505   2.382   3.684   5.333  2.3644 -0.0781 -2.3768
 5624SOL    HW228506   2.306   3.678   5.210 -1.4396 -1.0932 -0.6129
 5625SOL     OW28507   4.335   1.110   2.527 -0.1945 -0.1265  0.4032
 5625SOL    HW128508   4.404   1.061   2.572  2.3402  2.0021 -1.1744
 5625SOL    HW228509   4.303   1.041   2.468  3.2753  0.7854 -2.5677
 5626SOL     OW28510   0.002   1.488   5.848 -0.6900  0.2748 -0.7152
 5626SOL    HW128511   0.078   1.523   5.896  0.5743  0.7151 -3.0535
 5626SOL    HW228512   0.036   1.414   5.797  0.7503 -2.0718  3.6150
 5627SOL     OW28513   3.594   3.863  11.685  0.4419 -0.1392 -0.1183
 5627SOL    HW128514   3.501   3.876  11.667  0.1503 -1.3446  0.5588
 5627SOL    HW228515   3.607   3.931  11.750 -1.4770  0.4954 -0.3877
 5628SOL     OW28516   1.209   0.671   0.327  0.3901  0.1040 -0.6561
 5628SOL    HW128517   1.164   0.680   0.243 -1.3910 -0.5048  0.2369
 5628SOL    HW228518   1.303   0.664   0.310  0.0309  0.2531 -2.7240
 5629SOL     OW28519   1.038   1.468   0.880 -0.0346  0.0625 -0.5807
 5629SOL    HW128520   1.117   1.420   0.858  0.4936 -0.1857  1.7857
 5629SOL    HW228521   1.014   1.530   0.811 -0.1475 -0.8550 -1.3684
 5630SOL     OW28522   1.335   1.848  15.030 -0.1675  0.1014  0.0871
 5630SOL    HW128523   1.358   1.813  15.116 -0.8142 -2.4898 -0.7913
 5630SOL    HW228524   1.377   1.934  15.032 -0.8241  0.4323 -0.8282
 5631SOL     OW28525   1.084   3.508   5.876 -0.6361 -0.0964  0.1792
 5631SOL    HW128526   1.118   3.523   5.788 -0.5668 -1.3825 -0.0079
 5631SOL    HW228527   1.094   3.413   5.873 -0.6240 -0.0672 -0.6279
 5632SOL     OW28528   4.512   4.136  10.731  0.2094  0.2398 -0.7334
 5632SOL    HW128529   4.487   4.048  10.704  0.4915  0.1990 -0.8623
 5632SOL    HW228530   4.478   4.139  10.820 -0.2375  2.5763 -0.9801
 5633SOL     OW28531   0.921   3.739   8.509 -0.8815 -0.0396  0.0285
 5633SOL    HW128532   0.972   3.671   8.553 -2.0131 -1.9750 -1.6634
 5633SOL    HW228533   0.885   3.799   8.575  1.9081  2.7445 -0.9793
 5634SOL     OW28534   0.971   3.659  10.705  0.6226 -0.0688 -0.2217
 5634SOL    HW128535   1.061   3.677  10.679  0.2517  0.7194 -0.9730
 5634SOL    HW228536   0.979   3.564  10.709  0.1088 -0.1351 -0.8272
 5635SOL     OW28537   1.703   1.473   9.433 -0.2055 -0.1378 -0.3059
 5635SOL    HW128538   1.613   1.494   9.409  0.0921  1.6564  0.1904
 5635SOL    HW228539   1.691   1.458   9.527 -2.3453  2.4081 -0.1617
 5636SOL     OW28540   4.356   3.734  12.144 -0.5252 -0.2816  0.7973
 5636SOL    HW128541   4.289   3.695  12.200 -1.1115  1.6820  1.4821
 5636SOL    HW228542   4.389   3.663  12.089 -0.0183 -0.1249  0.8983
 5637SOL     OW28543   2.152   4.024   2.735  0.1122 -0.3504 -0.4914
 5637SOL    HW128544   2.120   4.114   2.730  1.1714  0.1137  1.0393
 5637SOL    HW228545   2.239   4.037   2.773 -0.5366  0.4063  0.7414
 5638SOL     OW28546   0.597   2.674   9.449  0.3382 -0.1738  0.3474
 5638SOL    HW128547   0.538   2.600   9.466 -0.2515  0.8481  2.7845
 5638SOL    HW228548   0.676   2.623   9.433  0.9856  0.3669  1.8253
 5639SOL     OW28549   0.841   0.965   2.309 -0.1152  1.3577 -0.5061
 5639SOL    HW128550   0.801   0.884   2.343  1.8023  0.4895 -0.3402
 5639SOL    HW228551   0.915   0.984   2.366 -1.7833  1.3935  1.6292
 5640SOL     OW28552   2.121   0.651   9.293 -0.2200 -0.0075  0.2237
 5640SOL    HW128553   2.195   0.710   9.274 -0.5295  0.6409  1.0122
 5640SOL    HW228554   2.048   0.713   9.288  0.4478  0.8497  1.0337
 5641SOL     OW28555   3.897   2.974   3.034 -0.0138  0.2614  0.4072
 5641SOL    HW128556   3.928   2.952   2.947 -2.6602 -0.6497 -0.3243
 5641SOL    HW228557   3.803   2.954   3.027  0.2150 -0.8821  0.6547
 5642SOL     OW28558   2.496   3.160   9.633  0.6152  0.6597  0.3829
 5642SOL    HW128559   2.541   3.130   9.554 -2.0447 -1.7499 -0.1905
 5642SOL    HW228560   2.542   3.237   9.666  1.6553  1.4983 -3.0456
 5643SOL     OW28561   0.558   2.918   1.776  0.4306 -0.0468  0.2982
 5643SOL    HW128562   0.647   2.889   1.798  0.4439  1.4612  2.2285
 5643SOL    HW228563   0.502   2.855   1.821  0.1054 -1.3988 -1.9922
 5644SOL     OW28564   3.859   3.548   6.726 -0.3055 -0.0140  0.0886
 5644SOL    HW128565   3.784   3.548   6.785  0.6228  0.8642  1.2697
 5644SOL    HW228566   3.808   3.543   6.645  0.9727 -0.2079 -0.6998
 5645SOL     OW28567   1.643   2.961   9.501  0.1728  0.1090  0.0551
 5645SOL    HW128568   1.660   2.929   9.590  0.0269 -0.1443 -0.0093
 5645SOL    HW228569   1.699   3.038   9.504 -0.4738  0.5348  1.3493
 5646SOL     OW28570   0.603   0.376   9.513  0.2332 -0.3046 -0.0155
 5646SOL    HW128571   0.615   0.470   9.499  2.4754 -0.6430 -0.5282
 5646SOL    HW228572   0.695   0.355   9.533  1.2702  0.6327 -3.7260
 5647SOL     OW28573   0.120   2.139   5.361 -0.3494  0.1959  0.2084
 5647SOL    HW128574   0.121   2.044   5.346  0.2143  0.3491 -0.7138
 5647SOL    HW228575   0.169   2.142   5.444  1.5014 -0.9903 -0.8422
 5648SOL     OW28576   2.518   1.711  13.554 -0.1214  0.0467 -0.1941
 5648SOL    HW128577   2.422   1.716  13.559 -0.2857 -1.4280 -1.8408
 5648SOL    HW228578   2.526   1.616  13.546 -0.1046 -0.1184  1.6998
 5649SOL     OW28579   2.842   3.820  16.935  0.1875 -0.0667 -0.3000
 5649SOL    HW128580   2.875   3.730  16.940 -1.4482 -0.6782 -0.7249
 5649SOL    HW228581   2.853   3.838  16.842  0.8739  0.0960 -0.1899
 5650SOL     OW28582   3.473   1.154   5.534 -0.4741  0.3901  1.0080
 5650SOL    HW128583   3.406   1.086   5.544  0.1913 -0.7798 -2.6140
 5650SOL    HW228584   3.526   1.116   5.464 -3.1074  1.1578 -1.3997
 5651SOL     OW28585   2.004   3.027  10.332  0.1257 -0.7388  0.2055
 5651SOL    HW128586   2.021   3.032  10.426  2.5617  4.6095 -0.4753
 5651SOL    HW228587   2.069   3.087  10.296 -1.4122 -0.1350 -1.5553
 5652SOL     OW28588   1.675   0.184  17.356  0.1299 -0.0053 -0.4604
 5652SOL    HW128589   1.627   0.124  17.413  0.0331  1.7291  1.2715
 5652SOL    HW228590   1.613   0.188  17.283  0.6980 -0.5126 -0.9788
 5653SOL     OW28591   2.204   0.929   4.061 -0.0345  0.2434 -0.4952
 5653SOL    HW128592   2.239   0.979   4.135  1.9064  0.4211 -1.5392
 5653SOL    HW228593   2.181   0.844   4.099 -0.6649  1.1716  1.2035
 5654SOL     OW28594   3.455   0.012   6.287 -0.2996 -0.5841 -0.4702
 5654SOL    HW128595   3.437   4.656   6.298  0.0374 -0.6573 -0.5511
 5654SOL    HW228596   3.532   0.008   6.231 -1.0821  2.7213 -1.7761
 5655SOL     OW28597   4.595   2.107   2.747 -0.2128 -0.6779 -0.1966
 5655SOL    HW128598   4.610   2.166   2.821  0.1040 -2.4211  1.1134
 5655SOL    HW228599   4.659   2.138   2.682  1.0391  0.6201  1.6385
 5656SOL     OW28600   1.217   2.290   9.115  0.0958 -0.0451  0.0896
 5656SOL    HW128601   1.307   2.304   9.087  0.3995  0.2464  1.1946
 5656SOL    HW228602   1.173   2.242   9.045 -0.3625 -2.0655  1.7696
 5657SOL     OW28603   3.301   2.429   4.368 -0.0953  0.1471 -0.3899
 5657SOL    HW128604   3.241   2.503   4.379 -0.2856 -0.0994  0.2341
 5657SOL    HW228605   3.366   2.451   4.435 -1.7589  3.0104  0.2685
 5658SOL     OW28606   4.485   0.235  11.225 -0.0912  0.4381 -0.3299
 5658SOL    HW128607   4.551   0.259  11.289  1.2695  3.6378 -2.9169
 5658SOL    HW228608   4.432   0.172  11.274 -0.6605  1.3807  0.2701
 5659SOL     OW28609   2.807   2.909   1.319 -0.5570  0.1563 -0.4816
 5659SOL    HW128610   2.872   2.962   1.364 -1.4033  0.5511  0.2774
 5659SOL    HW228611   2.749   2.888   1.392 -1.6199 -2.5182 -2.0822
 5660SOL     OW28612   1.684   4.503  12.211 -0.1695 -0.2161 -0.7599
 5660SOL    HW128613   1.694   4.470  12.122 -2.4741  0.9594 -1.4781
 5660SOL    HW228614   1.742   4.579  12.210 -0.4715  0.0328  0.6182
 5661SOL     OW28615   2.528   2.109  12.596 -0.8583 -0.5292 -0.4689
 5661SOL    HW128616   2.536   2.076  12.507  0.1235  0.1673 -0.6319
 5661SOL    HW228617   2.593   2.179  12.604 -2.1905  0.8886 -1.9833
 5662SOL     OW28618   3.810   1.644  15.503 -0.1960 -0.1218 -0.2173
 5662SOL    HW128619   3.862   1.684  15.572  0.8055  0.0434 -1.0622
 5662SOL    HW228620   3.797   1.558  15.543 -2.0088 -0.3908 -1.3720
 5663SOL     OW28621   0.265   1.356   2.067 -0.0254 -0.0733 -0.7781
 5663SOL    HW128622   0.265   1.354   2.163 -2.8788 -1.0052 -0.8293
 5663SOL    HW228623   0.305   1.274   2.040  1.9187  0.7568 -0.4462
 5664SOL     OW28624   4.440   1.498  13.545 -0.3989  0.1362 -0.3351
 5664SOL    HW128625   4.488   1.565  13.496  0.8527 -0.3016  0.3097
 5664SOL    HW228626   4.468   1.418  13.501 -0.1143 -0.1266  0.3272
 5665SOL     OW28627   3.364   4.003  11.006  0.3112  0.2569  0.0922
 5665SOL    HW128628   3.295   3.965  11.061 -0.7350 -0.2986 -1.6177
 5665SOL    HW228629   3.444   3.963  11.039  0.4679 -1.5228 -2.4740
 5666SOL     OW28630   0.487   0.793   1.400 -0.4092 -0.3174 -0.0967
 5666SOL    HW128631   0.470   0.887   1.408 -1.3274 -0.5555  0.7277
 5666SOL    HW228632   0.533   0.791   1.316  0.2118  0.6855  0.2249
 5667SOL     OW28633   1.087   0.017  10.966  0.2864 -0.1581 -0.2577
 5667SOL    HW128634   1.071   0.095  10.914  0.4242  0.6636  0.9207
 5667SOL    HW228635   1.140   0.051  11.038  0.6249  0.8364 -0.9754
 5668SOL     OW28636   0.963   0.249  16.039 -0.0174  0.5823  0.2277
 5668SOL    HW128637   1.046   0.297  16.043 -0.8320  1.9008  1.6089
 5668SOL    HW228638   0.924   0.252  15.952  0.2284  1.7792  0.1527
 5669SOL     OW28639   4.203   2.116  13.961 -0.1027  0.0600 -1.0663
 5669SOL    HW128640   4.161   2.058  13.898 -3.0750 -1.5639  2.4191
 5669SOL    HW228641   4.234   2.051  14.024  0.7572  2.7234  1.2372
 5670SOL     OW28642   1.591   2.453   5.271 -0.6070 -0.2135  0.0410
 5670SOL    HW128643   1.526   2.410   5.327 -0.5295 -0.3334  0.0384
 5670SOL    HW228644   1.665   2.395   5.289 -0.1776  0.5487  0.7726
 5671SOL     OW28645   3.620   0.692   6.399  0.5358  0.2770  0.7015
 5671SOL    HW128646   3.577   0.652   6.474 -1.6089 -0.5747 -0.9764
 5671SOL    HW228647   3.691   0.631   6.378  0.1437  0.6055 -1.6072
 5672SOL     OW28648   3.717   3.626  14.012  0.1260  0.1286  0.1762
 5672SOL    HW128649   3.706   3.719  13.991 -0.9335  0.0553  0.3847
 5672SOL    HW228650   3.788   3.604  13.951  0.1619 -0.8913  0.5906
 5673SOL     OW28651   2.905   3.217  13.888  0.4775 -0.4799  0.0600
 5673SOL    HW128652   2.932   3.239  13.977 -0.9181 -4.7481  1.5440
 5673SOL    HW228653   2.816   3.181  13.895  1.2338 -2.4456 -0.4111
 5674SOL     OW28654   0.335   2.786   6.751 -0.1026  0.0069 -0.1480
 5674SOL    HW128655   0.290   2.852   6.804  0.2260  0.3987 -0.3628
 5674SOL    HW228656   0.425   2.808   6.777 -0.1890  0.4240 -0.2130
 5675SOL     OW28657   2.104   1.618  12.897  0.1971 -0.5015 -0.0652
 5675SOL    HW128658   2.114   1.540  12.843  0.8165  0.5199 -1.4302
 5675SOL    HW228659   2.027   1.645  12.845 -0.9555  1.3380  2.6167
 5676SOL     OW28660   0.888   4.551  11.003 -0.3544 -0.7858  0.3918
 5676SOL    HW128661   0.887   4.519  10.913  1.0834  1.9271 -0.6006
 5676SOL    HW228662   0.947   4.627  11.009 -2.1767  0.6936 -0.5125
 5677SOL     OW28663   4.217   0.187   5.021 -0.0172  0.1996 -0.1909
 5677SOL    HW128664   4.160   0.216   5.093 -1.7539  0.0534 -1.5152
 5677SOL    HW228665   4.299   0.200   5.069 -0.5341  0.6221  0.5774
 5678SOL     OW28666   3.752   1.984   0.948 -0.1430  0.4113  0.2860
 5678SOL    HW128667   3.673   2.035   0.929 -1.1265 -1.5537 -0.8737
 5678SOL    HW228668   3.816   2.013   0.883  1.9484 -0.4217  1.9504
 5679SOL     OW28669   0.536   0.645   5.935 -0.0954  0.3266 -0.6238
 5679SOL    HW128670   0.517   0.672   5.845  1.4088  0.6755 -0.8449
 5679SOL    HW228671   0.592   0.569   5.921  0.7202  0.5958  1.1730
 5680SOL     OW28672   1.866   2.913   8.967  0.4592  0.6274 -0.4450
 5680SOL    HW128673   1.873   2.892   8.874  1.5507  0.4413 -0.3155
 5680SOL    HW228674   1.957   2.914   8.995  0.2408 -1.2040  0.3346
 5681SOL     OW28675   1.356   0.423   5.305  1.1254 -0.2308  0.2052
 5681SOL    HW128676   1.406   0.396   5.382  0.7315 -0.0012  0.5394
 5681SOL    HW228677   1.378   0.516   5.308  1.5194 -0.2442 -2.0559
 5682SOL     OW28678   2.528   2.918   7.367  0.1281  0.1770 -0.1837
 5682SOL    HW128679   2.548   3.009   7.347  2.0279 -0.7568 -2.5148
 5682SOL    HW228680   2.470   2.907   7.443  0.7995 -2.2598 -0.0081
 5683SOL     OW28681   2.246   4.233   2.470 -0.0218 -0.6299 -0.0382
 5683SOL    HW128682   2.280   4.212   2.557  0.3440 -0.6794 -0.1918
 5683SOL    HW228683   2.284   4.318   2.450 -0.6470 -0.3450 -0.0067
 5684SOL     OW28684   4.731   0.482   8.325 -0.2515 -0.2222 -0.8503
 5684SOL    HW128685   4.653   0.463   8.272  0.4076 -1.1534 -1.4884
 5684SOL    HW228686   4.685   0.523   8.399  0.1106 -1.7529  0.2328
 5685SOL     OW28687   2.770   4.570   2.206  0.3282 -0.1711  0.2721
 5685SOL    HW128688   2.761   4.475   2.208 -1.4224 -0.0772 -2.3954
 5685SOL    HW228689   2.695   4.609   2.160  0.4807  1.8311  1.6983
 5686SOL     OW28690   3.705   1.995   1.618  0.3004  0.8179 -0.6361
 5686SOL    HW128691   3.679   1.981   1.526  1.6520  0.0083 -0.8852
 5686SOL    HW228692   3.624   1.986   1.668  2.7036  1.6407  3.3708
 5687SOL     OW28693   3.351   1.613   3.848 -0.6413 -0.0530 -0.2501
 5687SOL    HW128694   3.343   1.688   3.907  0.9141  0.3267 -0.5087
 5687SOL    HW228695   3.392   1.544   3.900  1.1567  0.0733 -1.4984
 5688SOL     OW28696   2.071   2.237   9.828 -0.3461  0.2349 -0.0739
 5688SOL    HW128697   2.110   2.211   9.744 -1.6672  2.8382 -1.4936
 5688SOL    HW228698   2.102   2.167   9.885  0.9548 -0.6196 -1.8209
 5689SOL     OW28699   3.636   2.235  17.716  0.0818 -0.3491 -0.0773
 5689SOL    HW128700   3.649   2.328  17.696 -0.6315 -0.0946  0.6656
 5689SOL    HW228701   3.608   2.207  17.629  0.9449 -1.7609  0.0943
 5690SOL     OW28702   4.484   0.817   4.812  0.3727 -0.1483  0.2153
 5690SOL    HW128703   4.436   0.756   4.755 -0.4676 -1.7397  2.6397
 5690SOL    HW228704   4.545   0.758   4.856 -1.1762 -0.2035  2.2799
 5691SOL     OW28705   2.907   2.692  16.259  0.1919  0.7028 -0.3913
 5691SOL    HW128706   2.845   2.764  16.245  2.3194  2.2291 -1.8450
 5691SOL    HW228707   2.868   2.622  16.206 -0.8961  0.8315  0.2272
 5692SOL     OW28708   3.131   1.811   2.512 -0.1780 -0.1084  0.5570
 5692SOL    HW128709   3.047   1.789   2.553 -1.1346  0.6257 -1.0092
 5692SOL    HW228710   3.108   1.834   2.422  0.0145 -0.4176  0.4289
 5693SOL     OW28711   1.547   1.400   3.823  0.4253  0.1089  0.0416
 5693SOL    HW128712   1.580   1.389   3.734 -0.1781 -1.3824  0.0064
 5693SOL    HW228713   1.634   1.415   3.861  0.1761  1.4038  0.0972
 5694SOL     OW28714   2.200   3.271   3.772  0.1004  0.2010  0.1164
 5694SOL    HW128715   2.252   3.217   3.712 -0.3297 -2.1459  1.8740
 5694SOL    HW228716   2.124   3.217   3.791  0.6575 -0.5908  0.1231
 5695SOL     OW28717   2.204   2.779   1.196 -0.2363 -0.7543  0.5136
 5695SOL    HW128718   2.151   2.823   1.261 -2.4187 -1.1008 -1.0218
 5695SOL    HW228719   2.186   2.686   1.212 -0.9817 -0.6141  0.4632
 5696SOL     OW28720   3.663   1.475   7.372 -0.2669  0.3694  0.6653
 5696SOL    HW128721   3.630   1.565   7.376 -0.3737  0.4285 -1.7406
 5696SOL    HW228722   3.649   1.445   7.462 -0.5318 -1.3400  0.0509
 5697SOL     OW28723   4.685   0.015   6.706  0.0828 -0.0941 -0.0601
 5697SOL    HW128724   4.603   4.735   6.751 -0.1291  0.1651 -0.3468
 5697SOL    HW228725   4.686   4.690   6.633 -1.3424 -0.2614  0.0757
 5698SOL     OW28726   3.048   0.192   0.064  0.2543 -0.6593 -0.7340
 5698SOL    HW128727   3.063   0.166  17.720 -2.0810 -0.2102 -1.2551
 5698SOL    HW228728   3.133   0.189   0.108  0.6688 -1.6970 -1.5961
 5699SOL     OW28729   1.027   1.479   2.011  0.0072  0.0508  0.2766
 5699SOL    HW128730   0.942   1.511   1.983  1.1231  2.2331 -0.6170
 5699SOL    HW228731   0.983   1.400   2.044 -0.7089 -0.4167 -1.8008
 5700SOL     OW28732   0.412   2.493   1.981  0.9061  0.4521  0.0952
 5700SOL    HW128733   0.409   2.582   1.947  1.2136  0.2345 -0.4883
 5700SOL    HW228734   0.484   2.506   2.042  2.0514 -0.7803 -1.0107
 5701SOL     OW28735   2.619   0.569   4.946 -0.3273 -0.7343 -0.1401
 5701SOL    HW128736   2.528   0.583   4.921 -0.7260  0.9354  2.1743
 5701SOL    HW228737   2.634   0.661   4.969 -1.5775 -0.6716  0.4068
 5702SOL     OW28738   0.054   4.734   2.028 -0.2097  0.1437 -0.6518
 5702SOL    HW128739   4.726   4.664   2.015 -0.2814 -0.3367  2.2883
 5702SOL    HW228740   0.102   4.729   1.945 -0.9311 -1.5783 -0.9716
 5703SOL     OW28741   3.292   0.283   8.962  0.4471 -0.2641 -0.2290
 5703SOL    HW128742   3.372   0.336   8.958  0.7172 -0.4821  2.1995
 5703SOL    HW228743   3.241   0.313   8.887  0.1309  0.3013  0.2171
 5704SOL     OW28744   3.892   2.998   8.632 -0.3327  0.0606  0.9654
 5704SOL    HW128745   3.822   2.972   8.691  0.1995  0.4269  1.7571
 5704SOL    HW228746   3.870   2.937   8.561 -1.0313  0.5694  0.7472
 5705SOL     OW28747   2.516   4.381   3.921 -0.4382 -0.0192 -0.6344
 5705SOL    HW128748   2.479   4.450   3.977 -2.5128 -1.2071 -0.5527
 5705SOL    HW228749   2.484   4.402   3.834 -2.0907  1.6412  0.3486
 5706SOL     OW28750   1.462   4.252   2.608  0.0015  0.6053  0.6641
 5706SOL    HW128751   1.542   4.277   2.563  0.3070  0.7258  1.2780
 5706SOL    HW228752   1.434   4.176   2.557 -1.2524  0.9828  0.7681
 5707SOL     OW28753   2.646   4.021   5.789  0.2568 -0.0514  0.1097
 5707SOL    HW128754   2.717   3.962   5.767  2.2011  1.4739  2.2482
 5707SOL    HW228755   2.664   4.093   5.728  1.4567 -0.0134  0.5165
 5708SOL     OW28756   1.427   0.400   9.787 -0.3915 -0.4112 -0.4993
 5708SOL    HW128757   1.466   0.487   9.789 -1.3134 -0.0805  2.5977
 5708SOL    HW228758   1.456   0.371   9.700  1.2313  1.1916 -0.4827
 5709SOL     OW28759   3.385   0.219   8.100 -0.0581 -0.0829 -0.1841
 5709SOL    HW128760   3.439   0.201   8.023 -0.4288  2.6610 -1.0897
 5709SOL    HW228761   3.456   0.207   8.163  0.1618 -0.8036 -0.5655
 5710SOL     OW28762   0.501   1.281   3.190  0.1130  0.3164  0.3848
 5710SOL    HW128763   0.425   1.289   3.132  1.5841 -0.8228 -1.7155
 5710SOL    HW228764   0.527   1.373   3.200  0.8416  0.3683 -1.9273
 5711SOL     OW28765   1.977   1.291   4.443 -0.2819  0.3569 -0.4369
 5711SOL    HW128766   1.917   1.228   4.484  1.9832 -0.7910  1.1186
 5711SOL    HW228767   1.952   1.290   4.351  0.3073 -3.1927 -0.5569
 5712SOL     OW28768   1.573   3.582   2.889  0.2509  0.1368  0.1094
 5712SOL    HW128769   1.607   3.564   2.802  0.5398  1.1198  0.0124
 5712SOL    HW228770   1.484   3.608   2.865  0.3440 -0.8228 -1.2598
 5713SOL     OW28771   1.530   4.655  17.126  0.2242 -0.3857 -0.0394
 5713SOL    HW128772   1.483   4.734  17.153 -2.8789 -1.9167 -0.9264
 5713SOL    HW228773   1.510   4.602  17.202 -1.4613 -0.6920 -0.6981
 5714SOL     OW28774   1.255   0.188   7.496 -0.0024 -0.1808  0.5011
 5714SOL    HW128775   1.312   0.207   7.571  0.2704 -1.1046  0.5313
 5714SOL    HW228776   1.167   0.170   7.530 -0.7815 -0.0221 -1.4485
 5715SOL     OW28777   1.531   0.142   8.513  0.0354 -0.1739  0.2727
 5715SOL    HW128778   1.546   0.116   8.422 -0.9621 -1.2655  0.4237
 5715SOL    HW228779   1.623   0.146   8.540  0.5687 -2.2950 -1.1843
 5716SOL     OW28780   3.319   1.221   6.794  0.6603 -0.1081 -0.5426
 5716SOL    HW128781   3.227   1.235   6.772  0.4304  0.5476  0.7904
 5716SOL    HW228782   3.355   1.193   6.710  1.3940  0.9428 -0.5770
 5717SOL     OW28783   3.808   1.175  12.595  0.5153  0.1313  0.3740
 5717SOL    HW128784   3.868   1.157  12.523  2.1566  1.9156  1.2773
 5717SOL    HW228785   3.810   1.098  12.652 -0.1441  0.1786  0.4584
 5718SOL     OW28786   1.901   3.993   6.082  0.0737  0.2753 -0.1815
 5718SOL    HW128787   1.994   4.017   6.085  0.2164 -0.2763 -0.1995
 5718SOL    HW228788   1.906   3.898   6.086  0.2073  0.1919 -2.1531
 5719SOL     OW28789   1.735   3.516   8.694 -0.1483 -0.2050 -0.2251
 5719SOL    HW128790   1.718   3.555   8.780  0.9800 -2.9289  1.2164
 5719SOL    HW228791   1.806   3.455   8.714 -0.4304  0.1644  1.9588
 5720SOL     OW28792   3.078   2.882   8.276 -0.2331 -0.2952  0.2800
 5720SOL    HW128793   3.036   2.916   8.197  0.4523  0.6360  0.3218
 5720SOL    HW228794   3.072   2.787   8.266  0.4258  0.1366 -4.2877
 5721SOL     OW28795   4.032   4.519   9.965  0.3557  0.1867  0.3792
 5721SOL    HW128796   4.123   4.520   9.938  0.9841 -2.5316  2.3950
 5721SOL    HW228797   4.048   4.547  10.055  0.6198 -1.2395  0.7804
 5722SOL     OW28798   2.232   4.256   8.422  0.5138 -0.0755 -0.4912
 5722SOL    HW128799   2.321   4.251   8.456  0.3759 -0.1720 -0.1541
 5722SOL    HW228800   2.251   4.201   8.346 -2.2535 -0.8947 -0.5650
 5723SOL     OW28801   2.988   4.699   1.577  0.0874  0.0006 -0.2464
 5723SOL    HW128802   3.016   4.673   1.490 -2.2343 -2.6700 -0.1864
 5723SOL    HW228803   2.924   0.031   1.566  0.2752  0.4230  1.2196
 5724SOL     OW28804   0.659   1.529  16.015  0.9220  0.1760 -0.4087
 5724SOL    HW128805   0.727   1.545  15.950  1.9385  1.7336  1.0092
 5724SOL    HW228806   0.682   1.442  16.048  1.2194  1.0200  1.6653
 5725SOL     OW28807   2.337   3.749  16.672  0.1838 -0.0360 -0.1597
 5725SOL    HW128808   2.287   3.667  16.663 -1.7669  1.1028  0.3855
 5725SOL    HW228809   2.421   3.705  16.689  0.6554  1.2263  0.7690
 5726SOL     OW28810   3.333   4.405   4.989 -0.5799  0.1084 -0.1220
 5726SOL    HW128811   3.329   4.498   5.012  0.4001 -0.3757  2.0158
 5726SOL    HW228812   3.408   4.381   5.043 -0.0835  0.5403 -0.6332
 5727SOL     OW28813   1.555   3.719   7.092  0.1348 -0.0883  0.2426
 5727SOL    HW128814   1.465   3.693   7.112 -0.0401  0.0156 -0.3904
 5727SOL    HW228815   1.551   3.733   6.997  0.0911 -1.4945  0.0328
 5728SOL     OW28816   0.968   0.059   7.865 -0.0032 -0.3555 -0.4594
 5728SOL    HW128817   0.942   4.722   7.919 -0.1767 -0.1140 -0.2124
 5728SOL    HW228818   0.900   0.118   7.897  0.2029  0.3445 -1.2940
 5729SOL     OW28819   1.181   1.072   1.737  0.5309 -0.0835 -0.5833
 5729SOL    HW128820   1.174   1.033   1.824 -0.1599  0.3674 -0.4396
 5729SOL    HW228821   1.257   1.128   1.756 -0.1790  0.4419  0.7399
 5730SOL     OW28822   0.697   3.037  14.527  0.4789 -0.3066  0.0533
 5730SOL    HW128823   0.669   2.978  14.457  3.0198  0.7334 -1.8853
 5730SOL    HW228824   0.770   2.983  14.555  1.0165 -0.2637 -1.2365
 5731SOL     OW28825   0.101   3.905   8.885 -0.3355 -0.1855 -0.2170
 5731SOL    HW128826   0.079   3.812   8.894  1.7316 -0.8093 -1.6702
 5731SOL    HW228827   0.059   3.937   8.965 -1.2690 -2.5855  0.2528
 5732SOL     OW28828   2.302   3.307   8.282  0.3467 -0.5336 -0.4115
 5732SOL    HW128829   2.308   3.323   8.376  1.4704 -1.6576 -0.2960
 5732SOL    HW228830   2.304   3.397   8.250 -1.7036  0.9363  3.5062
 5733SOL     OW28831   2.163   4.474   2.236 -0.0593 -0.1704 -0.2785
 5733SOL    HW128832   2.255   4.465   2.263 -0.1318 -0.6522 -0.2076
 5733SOL    HW228833   2.139   4.548   2.292 -0.5225 -2.0631  1.9911
 5734SOL     OW28834   4.278   1.416   9.983  0.2462  0.3670 -0.0217
 5734SOL    HW128835   4.225   1.368  10.047  2.5299 -0.7597  1.0414
 5734SOL    HW228836   4.342   1.452  10.043 -0.2011 -0.4134  0.9320
 5735SOL     OW28837   0.895   2.874   9.636  0.2093  0.1202  0.4703
 5735SOL    HW128838   0.877   2.967   9.622 -3.5460 -0.4421  1.4108
 5735SOL    HW228839   0.925   2.847   9.549 -0.2105 -1.5960  0.8455
 5736SOL     OW28840   2.899   4.198   4.825  0.1990  0.6596  0.6206
 5736SOL    HW128841   2.831   4.164   4.884  2.5327  0.0723  2.9677
 5736SOL    HW228842   2.926   4.263   4.890 -0.9707  1.9900 -0.2217
 5737SOL     OW28843   0.443   3.483   3.363 -0.2914 -0.3552  0.3840
 5737SOL    HW128844   0.492   3.432   3.299  1.1069  1.4524  0.0035
 5737SOL    HW228845   0.360   3.483   3.315  0.0088 -1.0463 -0.1183
 5738SOL     OW28846   1.022   2.580  11.914 -0.3406 -0.5910 -0.1157
 5738SOL    HW128847   0.950   2.572  11.975 -0.4596  1.8621  0.0808
 5738SOL    HW228848   1.093   2.576  11.977 -1.6927 -1.1118  1.3629
 5739SOL     OW28849   0.004   0.822   2.173  0.5467  0.1113  0.0153
 5739SOL    HW128850   4.688   0.742   2.174  1.5258 -0.5410  0.3202
 5739SOL    HW228851   0.083   0.774   2.200  0.0560 -1.4040 -1.2373
 5740SOL     OW28852   2.208   2.560   3.068  0.3288  0.3737 -0.4142
 5740SOL    HW128853   2.265   2.594   3.138 -0.2535 -0.1903  0.3353
 5740SOL    HW228854   2.203   2.639   3.014 -3.1113 -1.1243 -2.2618
 5741SOL     OW28855   0.412   3.590   6.803  0.3401  0.2164  0.0302
 5741SOL    HW128856   0.422   3.495   6.801  1.6691  0.4091 -2.3828
 5741SOL    HW228857   0.483   3.609   6.742  0.7318 -4.0201 -0.8012
 5742SOL     OW28858   3.456   4.130   2.181  0.3424 -0.6214  0.1527
 5742SOL    HW128859   3.449   4.062   2.113 -1.3486 -0.1301 -0.1564
 5742SOL    HW228860   3.430   4.210   2.136 -0.3106 -0.0260  1.6001
 5743SOL     OW28861   3.324   3.426   3.601 -0.2622  0.7176  0.5542
 5743SOL    HW128862   3.258   3.495   3.612 -1.2376 -0.0462 -0.3845
 5743SOL    HW228863   3.314   3.425   3.505 -1.7191 -2.3458  0.7324
 5744SOL     OW28864   0.294   4.476   2.510 -0.1472 -0.1736  0.4276
 5744SOL    HW128865   0.324   4.564   2.531 -0.6374 -0.1536  1.0388
 5744SOL    HW228866   0.375   4.426   2.500  1.3899  2.0112  2.0782
 5745SOL     OW28867   0.819   2.502   0.679  0.1080 -0.3543 -0.2843
 5745SOL    HW128868   0.786   2.509   0.769 -1.8444  0.8925 -1.0869
 5745SOL    HW228869   0.912   2.483   0.685  0.5999  1.7020 -1.3846
 5746SOL     OW28870   1.062   4.260   5.283 -0.2216 -0.3630  0.0221
 5746SOL    HW128871   1.024   4.325   5.342  0.3881  1.1134 -1.2404
 5746SOL    HW228872   1.007   4.264   5.205  0.2095  0.4314 -0.2407
 5747SOL     OW28873   4.565   2.928   4.593  0.1260 -0.2854 -0.4962
 5747SOL    HW128874   4.644   2.877   4.610 -0.5191 -1.5796 -1.3287
 5747SOL    HW228875   4.559   2.892   4.504 -0.4088  0.3812 -0.7291
 5748SOL     OW28876   4.095   4.190   8.021  0.0487  0.0477  0.3841
 5748SOL    HW128877   4.169   4.240   7.986 -0.2544 -0.4991 -1.0227
 5748SOL    HW228878   4.040   4.262   8.052  0.7731  0.5932  0.4117
 5749SOL     OW28879   3.968   2.592  14.078  0.3800 -0.3255  0.2871
 5749SOL    HW128880   3.976   2.619  13.987  1.5843 -0.3079  0.4003
 5749SOL    HW228881   3.910   2.516  14.066  2.3868 -1.7387 -0.3533
 5750SOL     OW28882   2.973   2.441  12.551  0.1301  0.1161  0.5692
 5750SOL    HW128883   2.952   2.534  12.547  1.3401  0.3649  0.0875
 5750SOL    HW228884   3.061   2.442  12.590  0.7854 -1.5015 -0.9078
 5751SOL     OW28885   3.048   2.857   3.109 -0.1864  0.2946 -0.0413
 5751SOL    HW128886   3.013   2.774   3.142  2.5845 -0.9839 -0.2720
 5751SOL    HW228887   3.142   2.850   3.127 -0.4447  0.0840  1.1988
 5752SOL     OW28888   2.468   3.154   6.374 -0.0083  0.5219 -0.1170
 5752SOL    HW128889   2.538   3.098   6.340  0.8682  2.0952 -0.9200
 5752SOL    HW228890   2.520   3.230   6.401 -0.3608  1.4088 -1.9350
 5753SOL     OW28891   4.361   3.013  10.766  0.2944 -0.5820  0.2705
 5753SOL    HW128892   4.276   3.055  10.772 -0.1435 -1.1434 -1.9289
 5753SOL    HW228893   4.338   2.946  10.702 -1.2019  1.6620 -1.5206
 5754SOL     OW28894   3.911   0.323   5.454  0.9925  0.3404  0.3575
 5754SOL    HW128895   3.851   0.336   5.380 -0.5095 -0.5478  1.4060
 5754SOL    HW228896   3.921   0.412   5.487 -1.5391  0.5808  0.4516
 5755SOL     OW28897   3.168   2.881   7.833  0.2926  0.3705  0.7469
 5755SOL    HW128898   3.114   2.892   7.911  0.7347  0.6895  1.0041
 5755SOL    HW228899   3.244   2.909   7.883 -1.0743  2.5562  1.6184
 5756SOL     OW28900   1.308   3.007   7.832 -0.4421  0.2708 -0.1547
 5756SOL    HW128901   1.301   3.102   7.842 -1.5973  0.2792 -1.0755
 5756SOL    HW228902   1.397   3.010   7.797  1.3045 -1.5765  4.0585
 5757SOL     OW28903   2.615   2.642   2.608 -0.4841  0.2835 -0.1634
 5757SOL    HW128904   2.526   2.639   2.573 -1.5113 -2.6978  2.8170
 5757SOL    HW228905   2.638   2.549   2.601  0.4547  0.4123  1.1425
 5758SOL     OW28906   3.710   2.460   7.110 -0.5560  0.2942 -0.4740
 5758SOL    HW128907   3.661   2.401   7.168 -2.6842  1.7149 -0.8472
 5758SOL    HW228908   3.666   2.445   7.026  0.3821  3.2835 -1.4828
 5759SOL     OW28909   1.819   0.093   1.762  0.0275 -0.3665  0.4154
 5759SOL    HW128910   1.795   0.144   1.685  0.1289  0.6425  1.0418
 5759SOL    HW228911   1.822   0.003   1.730 -0.7033 -0.0188 -0.6091
 5760SOL     OW28912   4.343   4.715   2.265 -0.0349 -0.3441  0.0886
 5760SOL    HW128913   4.368   4.691   2.176  1.3146 -0.4808  0.5065
 5760SOL    HW228914   4.427   0.004   2.302 -0.3478 -1.9644  1.9637
 5761SOL     OW28915   0.474   2.749   7.895 -0.3902 -0.3306 -0.2381
 5761SOL    HW128916   0.569   2.750   7.880 -0.3549 -1.8383 -0.1458
 5761SOL    HW228917   0.460   2.837   7.928  1.7887 -0.0117 -0.1323
 5762SOL     OW28918   1.095   1.275   3.340 -0.2641  0.2759 -0.2651
 5762SOL    HW128919   1.092   1.187   3.380  0.8023 -0.1432 -1.0978
 5762SOL    HW228920   1.130   1.334   3.407 -0.8431  0.0964  0.1920
 5763SOL     OW28921   3.269   4.576   3.950  0.5739  0.2904  0.1296
 5763SOL    HW128922   3.357   4.584   3.987  0.5440  2.9133 -0.3825
 5763SOL    HW228923   3.291   4.514   3.881 -3.0939  1.4293 -2.0960
 5764SOL     OW28924   0.505   0.562   2.325  0.0314 -0.0302 -0.1799
 5764SOL    HW128925   0.500   0.623   2.251  1.2908  1.7584  1.2229
 5764SOL    HW228926   0.576   0.502   2.305 -0.5843 -0.8459  0.0629
 5765SOL     OW28927   1.893   3.043   1.693 -0.3336 -0.5587  0.5163
 5765SOL    HW128928   1.925   3.113   1.637 -1.0650 -0.8689 -0.2839
 5765SOL    HW228929   1.798   3.040   1.687 -0.5601  1.5965  3.1227
 5766SOL     OW28930   2.360   0.335   2.411 -0.5917 -0.1836  0.2003
 5766SOL    HW128931   2.396   0.424   2.417 -0.0624 -0.5277  2.0847
 5766SOL    HW228932   2.438   0.299   2.370 -0.3823 -1.6484  1.8963
 5767SOL     OW28933   4.036   1.792  14.707 -0.4249 -0.0620 -0.3225
 5767SOL    HW128934   4.043   1.885  14.685  0.3259 -0.5190 -2.0671
 5767SOL    HW228935   4.128   1.781  14.734 -0.0557  1.9057 -0.7299
 5768SOL     OW28936   3.162   1.295   0.021 -0.1201 -0.3129  0.2278
 5768SOL    HW128937   3.072   1.272  17.745 -1.2963  3.0031  1.5359
 5768SOL    HW228938   3.195   1.332  17.685  2.5335 -0.9319  1.0097
 5769SOL     OW28939   2.606   4.060   6.940  0.0069 -0.0012  0.3884
 5769SOL    HW128940   2.591   3.970   6.970 -0.3464 -0.1458 -0.2093
 5769SOL    HW228941   2.521   4.086   6.905 -0.2845 -1.5436 -0.0809
 5770SOL     OW28942   2.920   4.457  14.623 -0.5375  0.0950  0.7128
 5770SOL    HW128943   3.007   4.468  14.663  0.5770  0.6202 -1.9179
 5770SOL    HW228944   2.882   4.379  14.664 -1.8972  1.2302  1.6205
 5771SOL     OW28945   3.186   0.535  14.892 -0.1479  0.1498  0.4912
 5771SOL    HW128946   3.108   0.566  14.938 -0.3872  0.3533 -0.0621
 5771SOL    HW228947   3.201   0.612  14.838 -2.4059  0.6415  0.5843
 5772SOL     OW28948   2.153   3.785   8.234 -0.5930  0.1985  0.0099
 5772SOL    HW128949   2.142   3.723   8.162 -2.0527 -0.0800  0.4759
 5772SOL    HW228950   2.133   3.867   8.189  0.3638 -0.5803 -1.8672
 5773SOL     OW28951   2.611   0.854  14.745  0.0901 -0.0660 -0.0660
 5773SOL    HW128952   2.572   0.856  14.658 -1.8228  0.3980  0.8000
 5773SOL    HW228953   2.556   0.785  14.783  0.1955 -0.8173 -1.3050
 5774SOL     OW28954   3.806   1.889  10.728  0.1079 -0.1609  0.2017
 5774SOL    HW128955   3.875   1.948  10.756  0.4966 -1.2198  1.4350
 5774SOL    HW228956   3.837   1.862  10.641 -0.8533  0.9766 -0.5034
 5775SOL     OW28957   1.610   0.949  16.106 -0.0745 -0.2812 -0.0395
 5775SOL    HW128958   1.680   0.892  16.139 -0.2703 -0.4014  0.1676
 5775SOL    HW228959   1.651   1.000  16.036  1.3712 -2.3030 -0.6620
 5776SOL     OW28960   3.112   0.261   3.889  0.2601 -0.0977  0.6257
 5776SOL    HW128961   3.196   0.268   3.935  1.0080 -0.1353 -0.7363
 5776SOL    HW228962   3.120   0.171   3.858 -1.5184 -0.6302  1.7102
 5777SOL     OW28963   3.196   1.812   9.972  0.4859 -0.1246 -0.1393
 5777SOL    HW128964   3.263   1.755   9.935  1.9488  1.2127  0.4585
 5777SOL    HW228965   3.243   1.849  10.047 -0.0965 -0.1934  0.2562
 5778SOL     OW28966   3.498   4.241  10.300 -0.0760  0.4166 -0.2160
 5778SOL    HW128967   3.532   4.323  10.336  2.4427  0.0972 -1.8467
 5778SOL    HW228968   3.412   4.236  10.342  0.5402 -0.6259  0.9485
 5779SOL     OW28969   4.220   0.002  15.470 -0.2706  0.0235 -0.0724
 5779SOL    HW128970   4.291   0.055  15.435 -0.7214  0.0564 -0.9146
 5779SOL    HW228971   4.211   0.062  15.544  1.2401 -1.1741  1.0912
 5780SOL     OW28972   3.217   3.057   8.443 -0.4433 -0.0899  0.1648
 5780SOL    HW128973   3.220   3.119   8.370  0.1137 -1.3450 -0.8973
 5780SOL    HW228974   3.178   2.980   8.402 -1.7278 -0.6034  2.3671
 5781SOL     OW28975   4.541   1.361   7.351 -0.3006  0.2495  0.2584
 5781SOL    HW128976   4.448   1.371   7.372  0.2414  1.8692  1.9048
 5781SOL    HW228977   4.582   1.428   7.405  3.0017 -2.0132  0.5641
 5782SOL     OW28978   0.460   1.247   0.034 -0.3691 -0.4741 -0.2790
 5782SOL    HW128979   0.463   1.190   0.110 -2.9003  1.0775  0.9882
 5782SOL    HW228980   0.545   1.289   0.021 -1.5361  2.7776  2.7457
 5783SOL     OW28981   3.227   3.795   2.032 -0.3051  0.3279  0.2787
 5783SOL    HW128982   3.161   3.814   1.965 -1.7302 -2.5794  0.8551
 5783SOL    HW228983   3.175   3.802   2.112 -0.3180  0.3075  0.2724
 5784SOL     OW28984   0.055   2.672  12.671  0.3607 -0.2936  0.0236
 5784SOL    HW128985   4.720   2.731  12.648  0.0738 -0.0093  1.6545
 5784SOL    HW228986   0.055   2.669  12.766  0.6277 -0.0090  0.0334
 5785SOL     OW28987   4.129   4.128  11.407  0.1402 -0.5398  0.0516
 5785SOL    HW128988   4.130   4.079  11.489  1.6674 -0.7645 -0.0999
 5785SOL    HW228989   4.094   4.215  11.423 -0.4363 -0.7590 -0.0056
 5786SOL     OW28990   2.226   3.320  12.069  0.1302 -0.3227 -0.8647
 5786SOL    HW128991   2.257   3.258  12.135 -0.7576  1.8680  1.5921
 5786SOL    HW228992   2.180   3.265  12.006 -3.1306  0.2536  0.9871
 5787SOL     OW28993   0.872   2.431   2.018 -0.1253  0.3136 -0.3426
 5787SOL    HW128994   0.792   2.475   2.047  0.4484  2.9469 -2.7800
 5787SOL    HW228995   0.926   2.509   2.001 -1.3890  1.0828 -0.7689
 5788SOL     OW28996   4.010   0.387   0.185  0.3495 -0.1696 -0.6584
 5788SOL    HW128997   3.977   0.414   0.099  0.6100  0.0622 -0.6855
 5788SOL    HW228998   3.973   0.459   0.235 -0.2261 -1.8026  1.2870
 5789SOL     OW28999   1.924   1.762   6.370  0.3423 -0.0436 -0.1055
 5789SOL    HW129000   1.864   1.822   6.326  0.8867  0.5128 -0.1010
 5789SOL    HW229001   1.968   1.725   6.294  2.1556  2.0147 -0.0719
 5790SOL     OW29002   4.473   2.117   7.852 -0.2897  0.1091  0.2400
 5790SOL    HW129003   4.420   2.192   7.879  1.9285  2.3442 -1.6960
 5790SOL    HW229004   4.475   2.133   7.758 -3.0576 -0.5598  0.0686
 5791SOL     OW29005   0.487   4.052   8.194 -0.2096  0.1702 -0.0488
 5791SOL    HW129006   0.438   3.971   8.203 -1.2724  0.9158  0.9590
 5791SOL    HW229007   0.426   4.118   8.228  0.9004  0.6261  1.0603
 5792SOL     OW29008   3.644   1.309   9.767  0.1997  1.4067  0.0405
 5792SOL    HW129009   3.704   1.267   9.706 -1.6827 -1.3975  0.1080
 5792SOL    HW229010   3.640   1.399   9.736  0.5550  0.7709 -1.8273
 5793SOL     OW29011   2.657   4.542   1.681  0.1112 -0.0408 -0.2036
 5793SOL    HW129012   2.616   4.469   1.727  1.3388 -1.5046 -1.4474
 5793SOL    HW229013   2.579   4.592   1.659  0.4539 -0.8060 -3.1597
 5794SOL     OW29014   2.458   1.801   5.787 -0.3493 -0.7311  0.2112
 5794SOL    HW129015   2.545   1.761   5.785  0.6555  1.3696  1.2878
 5794SOL    HW229016   2.468   1.867   5.718  2.2995 -2.3659 -0.9605
 5795SOL     OW29017   3.435   3.970  16.872 -0.4366 -0.2993 -0.3597
 5795SOL    HW129018   3.494   3.988  16.945  0.1316  0.5017 -1.0140
 5795SOL    HW229019   3.420   4.060  16.842  0.2772 -0.3054 -0.7406
 5796SOL     OW29020   4.684   0.463   9.498 -0.0331  0.3387 -0.1861
 5796SOL    HW129021   4.723   0.513   9.570 -2.8957 -0.5704  1.9950
 5796SOL    HW229022   0.018   0.402   9.481 -0.0562  0.1449  0.3937
 5797SOL     OW29023   3.901   1.881  15.146  0.6730 -0.4822  0.5678
 5797SOL    HW129024   3.860   1.879  15.233  2.8512 -0.9081  1.5821
 5797SOL    HW229025   3.904   1.976  15.140  0.3143 -0.6211 -1.9502
 5798SOL     OW29026   1.372   2.720   7.885  0.2276  0.6534 -0.4195
 5798SOL    HW129027   1.302   2.784   7.901 -1.4995 -1.2969 -0.0575
 5798SOL    HW229028   1.428   2.737   7.960  0.4624 -1.9661  0.0030
 5799SOL     OW29029   2.480   3.019   7.766  0.2121 -0.2695  0.1314
 5799SOL    HW129030   2.445   3.101   7.732  0.9500  0.5154  1.2626
 5799SOL    HW229031   2.440   2.961   7.702  1.2263 -0.0549 -0.6963
 5800SOL     OW29032   2.275   4.140   1.135 -0.2313 -0.0287  0.1785
 5800SOL    HW129033   2.359   4.109   1.171 -0.0094  0.3280 -0.0375
 5800SOL    HW229034   2.238   4.197   1.202 -1.8476  0.4680 -1.1636
 5801SOL     OW29035   3.454   1.133   1.293 -0.0958 -0.2452  0.5804
 5801SOL    HW129036   3.467   1.154   1.386 -0.4619 -2.9424  1.2403
 5801SOL    HW229037   3.537   1.150   1.249  0.4403 -1.5471  1.0885
 5802SOL     OW29038   1.910   2.122   8.176  0.1178  0.2421  0.1691
 5802SOL    HW129039   1.913   2.190   8.242 -2.1199  0.7557 -0.2335
 5802SOL    HW229040   1.892   2.042   8.226 -3.3770  0.5403 -0.5555
 5803SOL     OW29041   1.477   0.453   7.575  0.1506 -0.2679  0.1885
 5803SOL    HW129042   1.440   0.388   7.635  1.2869 -0.1671  1.0201
 5803SOL    HW229043   1.566   0.419   7.563  0.0089 -0.6783  0.3083
 5804SOL     OW29044   3.842   1.183   6.623  0.7494 -0.3860  0.4925
 5804SOL    HW129045   3.903   1.255   6.636  1.0424 -0.3050 -1.2283
 5804SOL    HW229046   3.911   1.118   6.634  2.0954  0.7594 -1.0813
 5805SOL     OW29047   3.874   1.048  14.496 -0.2410  0.1253  0.3832
 5805SOL    HW129048   3.814   1.080  14.429 -0.8830  0.3848  1.0745
 5805SOL    HW229049   3.864   1.120  14.558 -1.5071  2.6354 -2.7798
 5806SOL     OW29050   0.457   1.163   1.963  0.4820  0.3503 -0.1315
 5806SOL    HW129051   0.445   1.119   1.879 -1.7748  0.3960  0.1759
 5806SOL    HW229052   0.520   1.230   1.937  1.2695  0.0777  1.0579
 5807SOL     OW29053   0.748   1.636   5.056 -0.6984  0.4256  0.3429
 5807SOL    HW129054   0.654   1.647   5.070 -0.5579 -0.9964  2.4813
 5807SOL    HW229055   0.746   1.596   4.970  0.9930  0.8460  0.1123
 5808SOL     OW29056   2.712   3.639   9.055 -0.4969  0.0058  0.4126
 5808SOL    HW129057   2.680   3.549   9.060 -2.6449  0.7606  0.0549
 5808SOL    HW229058   2.642   3.699   9.031  0.1155  0.5364 -0.0650
 5809SOL     OW29059   0.226   3.511  16.266 -0.2624 -0.1698  0.6148
 5809SOL    HW129060   0.217   3.607  16.261 -1.6598 -0.2667  1.4084
 5809SOL    HW229061   0.153   3.477  16.214 -0.6624 -0.4874  1.3993
 5810SOL     OW29062   3.132   0.676   6.744  0.7241 -0.1552  0.4077
 5810SOL    HW129063   3.163   0.606   6.687  0.0739 -2.5387  2.9733
 5810SOL    HW229064   3.080   0.619   6.802  1.3737 -1.2735 -0.1069
 5811SOL     OW29065   1.287   2.666   5.659  0.1931 -0.4688 -0.3164
 5811SOL    HW129066   1.272   2.611   5.583  0.8544 -0.0930 -0.7232
 5811SOL    HW229067   1.204   2.677   5.707  1.1422  1.1599  0.9718
 5812SOL     OW29068   1.210   2.400   3.623 -0.1222 -0.5749 -0.0946
 5812SOL    HW129069   1.127   2.440   3.651  0.3663  0.8525 -0.7252
 5812SOL    HW229070   1.266   2.432   3.694 -0.5012  2.3224 -1.1177
 5813SOL     OW29071   4.033   4.330   5.814  0.3299 -0.1218 -0.3274
 5813SOL    HW129072   3.942   4.345   5.837  0.5853 -1.5395  1.6752
 5813SOL    HW229073   4.041   4.249   5.865  2.1224 -0.5593 -1.3145
 5814SOL     OW29074   2.524   3.648  17.060  0.4704 -0.2540  0.1760
 5814SOL    HW129075   2.488   3.682  17.142  1.5423  1.9476 -0.2907
 5814SOL    HW229076   2.615   3.674  17.073  0.8035 -1.9315  1.2708
 5815SOL     OW29077   1.114   0.925  13.847 -1.0484 -0.4179  0.3651
 5815SOL    HW129078   1.029   0.927  13.890 -1.2913  1.2675 -0.2126
 5815SOL    HW229079   1.124   0.830  13.839 -0.4340 -0.3271  0.0090
 5816SOL     OW29080   1.830   1.937   8.394  0.0355  0.3338 -0.0268
 5816SOL    HW129081   1.853   1.920   8.485  0.6162  0.8788 -0.0727
 5816SOL    HW229082   1.813   1.848   8.363 -1.6592  1.3010 -1.8727
 5817SOL     OW29083   1.492   1.823   6.855  0.5678  0.1657 -0.1112
 5817SOL    HW129084   1.410   1.872   6.854 -0.7987 -2.1194  0.8482
 5817SOL    HW229085   1.472   1.736   6.889 -0.2525  0.4327  0.0943
 5818SOL     OW29086   2.285   3.816   8.725  0.4303 -0.1827 -0.1678
 5818SOL    HW129087   2.197   3.778   8.726  0.7376 -0.8825  0.6328
 5818SOL    HW229088   2.304   3.816   8.819  0.2183 -0.0012 -0.1272
 5819SOL     OW29089   3.110   1.315   2.324  0.3831  0.1720  0.7676
 5819SOL    HW129090   3.042   1.292   2.260  1.2256  0.5274 -0.2485
 5819SOL    HW229091   3.058   1.354   2.395 -0.0434 -1.5258  1.4204
 5820SOL     OW29092   4.202   1.747  10.167 -0.0981 -0.0652 -0.1018
 5820SOL    HW129093   4.116   1.712  10.146 -0.2615 -0.4899  1.2462
 5820SOL    HW229094   4.234   1.781  10.083  0.7369  0.1587  0.3055
 5821SOL     OW29095   2.120   1.191   4.687  1.0728  0.0366 -0.0276
 5821SOL    HW129096   2.115   1.286   4.698  1.6452 -0.2418  2.5569
 5821SOL    HW229097   2.034   1.174   4.648  0.2776 -0.1740  1.8031
 5822SOL     OW29098   0.140   2.723   6.545  1.0749 -0.0558 -0.2274
 5822SOL    HW129099   0.202   2.717   6.471  0.6429  0.4403 -0.6257
 5822SOL    HW229100   0.204   2.728   6.616  0.1833  0.9861  0.4935
 5823SOL     OW29101   4.022   2.757   3.169 -0.6815  0.3755  0.3548
 5823SOL    HW129102   3.961   2.683   3.164 -1.1919  0.9474 -1.9175
 5823SOL    HW229103   3.970   2.838   3.163 -0.7155  0.3922  0.9084
 5824SOL     OW29104   0.314   1.727   4.425 -0.0765  0.0670  0.6100
 5824SOL    HW129105   0.349   1.816   4.434 -0.5350  0.2157  0.9286
 5824SOL    HW229106   0.364   1.676   4.361  0.8992 -1.1070  2.3100
 5825SOL     OW29107   1.497   0.184  16.066  0.1850 -0.1537 -0.6724
 5825SOL    HW129108   1.423   0.242  16.085 -1.0178 -2.3792  1.4812
 5825SOL    HW229109   1.581   0.230  16.070 -0.4728  0.8529  1.5387
 5826SOL     OW29110   3.893   2.858  12.915 -0.1321  0.3533  0.6079
 5826SOL    HW129111   3.915   2.777  12.870 -3.0688  1.3981 -2.7467
 5826SOL    HW229112   3.804   2.854  12.879  1.4899 -2.1079 -3.0560
 5827SOL     OW29113   2.219   3.478  16.707 -0.1648 -0.6474  0.2244
 5827SOL    HW129114   2.254   3.466  16.795  0.4407  1.9176  0.3352
 5827SOL    HW229115   2.276   3.425  16.651 -0.9918 -0.6202 -0.6306
 5828SOL     OW29116   3.412   1.548   8.606  0.0766  0.4163  0.0351
 5828SOL    HW129117   3.431   1.462   8.643  0.8620  0.1397 -1.0238
 5828SOL    HW229118   3.327   1.533   8.564  1.4337 -2.3694 -1.6983
 5829SOL     OW29119   1.653   2.342   9.466 -0.2109  0.1520  0.3025
 5829SOL    HW129120   1.575   2.369   9.513 -0.7503 -0.6144 -0.1407
 5829SOL    HW229121   1.701   2.317   9.545  1.2738 -0.4267 -0.7785
 5830SOL     OW29122   3.789   0.736  10.561  0.0410 -0.4300 -0.0600
 5830SOL    HW129123   3.762   0.801  10.495 -1.4399  0.0633  1.0153
 5830SOL    HW229124   3.714   0.740  10.621  1.9541  1.2734  2.2099
 5831SOL     OW29125   1.150   3.679   9.007  0.3677  0.0210 -0.2240
 5831SOL    HW129126   1.085   3.611   9.022  0.2192  0.6704  2.0972
 5831SOL    HW229127   1.227   3.630   8.980  0.6369 -0.3735  1.2539
 5832SOL     OW29128   3.448   2.096   2.452 -0.6979 -0.0213  0.4130
 5832SOL    HW129129   3.479   2.014   2.491  0.1222 -0.4050 -1.0411
 5832SOL    HW229130   3.390   2.124   2.522 -1.5609 -1.0012  0.0807
 5833SOL     OW29131   0.652   1.802   3.813  0.3060  0.1342 -0.1292
 5833SOL    HW129132   0.599   1.824   3.736  1.2497 -0.0477 -0.8344
 5833SOL    HW229133   0.692   1.886   3.837  1.2963 -0.4259  0.1632
 5834SOL     OW29134   0.700   1.833   4.590  0.2487  0.2351 -0.4092
 5834SOL    HW129135   0.664   1.922   4.593 -0.6749 -0.0946 -1.6800
 5834SOL    HW229136   0.785   1.840   4.546  0.5202  0.6260  0.1565
 5835SOL     OW29137   0.729   0.380   2.925 -0.6340 -0.4075  0.4274
 5835SOL    HW129138   0.759   0.441   2.993  1.8206  0.4066 -1.3870
 5835SOL    HW229139   0.705   0.449   2.864  2.4378 -0.1754 -0.5132
 5836SOL     OW29140   1.846   1.231   6.297 -0.6345 -0.7394 -0.2811
 5836SOL    HW129141   1.801   1.315   6.305  0.5868 -0.1003 -0.1623
 5836SOL    HW229142   1.939   1.244   6.315 -0.4298 -2.6562  0.0226
 5837SOL     OW29143   0.808   0.418   5.898 -0.8131  0.1438  0.5966
 5837SOL    HW129144   0.826   0.367   5.976  1.6226  1.1373  0.6739
 5837SOL    HW229145   0.846   0.501   5.924  0.7415 -0.2171 -0.5533
 5838SOL     OW29146   4.266   0.607   3.086 -0.0549  0.5401 -0.4300
 5838SOL    HW129147   4.256   0.670   3.157  0.6016 -0.5449  0.6277
 5838SOL    HW229148   4.190   0.622   3.030  0.8941 -1.1624 -2.2107
 5839SOL     OW29149   0.171   3.074  13.777  0.3848  0.0035 -0.4265
 5839SOL    HW129150   0.179   3.010  13.849  1.7251 -1.3451 -1.7729
 5839SOL    HW229151   0.261   3.077  13.744 -0.5524  1.1562 -2.8293
 5840SOL     OW29152   3.051   2.364  17.670  0.5138  0.4918  0.0457
 5840SOL    HW129153   2.987   2.380  17.600 -0.0560  1.0477  0.7009
 5840SOL    HW229154   3.115   2.329  17.608  1.7598  2.7080  0.0841
 5841SOL     OW29155   1.211   4.464   8.224  0.9394 -0.2886  0.4444
 5841SOL    HW129156   1.158   4.480   8.302 -1.1671 -0.7619 -0.8640
 5841SOL    HW229157   1.221   4.557   8.203 -0.0463 -0.3571 -0.3344
 5842SOL     OW29158   3.912   2.396   5.262  0.4664 -0.4668 -0.2192
 5842SOL    HW129159   3.895   2.490   5.261 -0.1755 -0.5725  0.5047
 5842SOL    HW229160   4.004   2.393   5.290  0.7080  0.2388 -0.9744
 5843SOL     OW29161   3.672   2.011   7.808  0.0037 -0.3845 -0.1797
 5843SOL    HW129162   3.704   2.083   7.754  1.0063 -0.1174  0.7706
 5843SOL    HW229163   3.657   2.062   7.888  3.0670  1.6982 -0.9257
 5844SOL     OW29164   1.492   2.867   4.379  0.1552  0.3112 -0.2836
 5844SOL    HW129165   1.569   2.923   4.369  0.5694 -0.1410  0.3713
 5844SOL    HW229166   1.469   2.861   4.287 -1.2318  2.9124 -0.0994
 5845SOL     OW29167   0.420   3.079   5.885 -0.5019 -0.2716  0.2547
 5845SOL    HW129168   0.352   3.124   5.936 -0.0135  1.6719 -0.7939
 5845SOL    HW229169   0.478   3.041   5.950  1.4081  1.0576 -0.6694
 5846SOL     OW29170   2.348   0.132   9.654  0.0908 -0.1588 -0.5786
 5846SOL    HW129171   2.384   0.185   9.582  2.4730  0.2509  0.9109
 5846SOL    HW229172   2.317   0.052   9.613 -1.8468 -0.9313  2.4819
 5847SOL     OW29173   2.098   2.924   8.486  0.6021 -0.1267 -0.2050
 5847SOL    HW129174   2.141   2.959   8.408 -0.1201  1.1084 -0.0568
 5847SOL    HW229175   2.146   2.980   8.547 -0.2126  2.4779 -1.9247
 5848SOL     OW29176   1.792   1.156   3.339  0.0245 -0.5102  0.2958
 5848SOL    HW129177   1.736   1.084   3.367  1.8677 -2.1283 -0.2003
 5848SOL    HW229178   1.782   1.146   3.245 -0.4108  1.7432  0.0945
 5849SOL     OW29179   3.256   3.366  10.567 -0.0784  0.3043  0.0360
 5849SOL    HW129180   3.200   3.370  10.489  0.9013 -1.9320 -0.7961
 5849SOL    HW229181   3.293   3.454  10.567  0.6632 -0.0082  0.3631
 5850SOL     OW29182   1.144   2.399   3.953 -0.1389 -0.0797  1.1971
 5850SOL    HW129183   1.164   2.484   3.914 -2.1581 -0.4784 -0.6693
 5850SOL    HW229184   1.110   2.431   4.036 -0.5982 -1.3643  1.5097
 5851SOL     OW29185   4.411   1.725  11.741  0.0980 -0.0005 -0.0959
 5851SOL    HW129186   4.390   1.818  11.738 -2.6315 -0.6077 -0.5236
 5851SOL    HW229187   4.387   1.702  11.651  0.9579 -1.9324  0.1533
 5852SOL     OW29188   1.893   0.457   4.542 -0.1807 -0.0088  0.2843
 5852SOL    HW129189   1.903   0.473   4.636  0.0331 -0.1185  0.2799
 5852SOL    HW229190   1.801   0.478   4.526 -0.1856 -0.7973 -0.7365
 5853SOL     OW29191   1.605   1.718   7.771 -0.6885 -0.5727  0.5771
 5853SOL    HW129192   1.588   1.773   7.695  1.1939  0.6903  1.0428
 5853SOL    HW229193   1.580   1.632   7.737 -1.3688  0.9601 -2.7874
 5854SOL     OW29194   1.344   3.538   9.523 -0.0884 -0.2166  0.6864
 5854SOL    HW129195   1.404   3.590   9.470 -2.2177  1.7800  0.1861
 5854SOL    HW229196   1.285   3.498   9.460  0.5529  2.8674 -1.8829
 5855SOL     OW29197   2.232   1.086   2.444  0.4495  0.4043 -0.5677
 5855SOL    HW129198   2.237   1.059   2.536  1.5181 -0.2935 -0.8261
 5855SOL    HW229199   2.174   1.019   2.406 -1.0230  1.7662 -0.7104
 5856SOL     OW29200   0.393   2.624   8.140  0.3949  0.0450 -0.4051
 5856SOL    HW129201   0.302   2.651   8.155 -0.3883 -1.2728 -2.8184
 5856SOL    HW229202   0.411   2.653   8.050  4.1652  0.0157  0.3411
 5857SOL     OW29203   4.233   3.227   9.810  0.1298 -0.5237  0.1499
 5857SOL    HW129204   4.217   3.307   9.859 -3.8014 -1.0409 -0.2007
 5857SOL    HW229205   4.162   3.238   9.746 -0.2239 -1.5037  0.3706
 5858SOL     OW29206   2.910   3.926   7.023 -0.6094 -0.1787  0.1307
 5858SOL    HW129207   2.876   3.987   6.957  1.2105  3.0059  2.1658
 5858SOL    HW229208   2.840   3.913   7.086  1.5184 -3.4245  1.8098
 5859SOL     OW29209   0.157   1.193   1.790  0.0844 -0.2231 -0.0832
 5859SOL    HW129210   0.079   1.187   1.734  0.9457  0.2677 -1.3451
 5859SOL    HW229211   0.196   1.108   1.773 -1.4751 -0.5808 -1.9781
 5860SOL     OW29212   3.997   1.227   8.891  0.1431 -0.6274  0.0499
 5860SOL    HW129213   4.010   1.306   8.838  0.7913 -0.0679  1.0468
 5860SOL    HW229214   4.085   1.196   8.914  0.6553  0.0446 -1.0196
 5861SOL     OW29215   3.819   0.132   1.591  0.4521  0.1555  0.0001
 5861SOL    HW129216   3.910   0.103   1.594  0.4778  0.4730  2.5510
 5861SOL    HW229217   3.786   0.047   1.621 -0.5781  0.1281 -1.1995
 5862SOL     OW29218   0.132   3.804   3.723  0.5248 -0.1852  0.3182
 5862SOL    HW129219   0.111   3.726   3.671  1.3184 -0.1997  0.0179
 5862SOL    HW229220   0.090   3.863   3.661  0.5629 -1.0810 -0.5585
 5863SOL     OW29221   3.720   4.090  10.386  0.2652  0.4613  0.6991
 5863SOL    HW129222   3.637   4.138  10.380  0.1970  0.3505  0.7556
 5863SOL    HW229223   3.733   4.100  10.480  1.6449 -0.7105  0.6249
 5864SOL     OW29224   2.856   2.482   4.566 -0.2576 -0.6006  0.0999
 5864SOL    HW129225   2.940   2.515   4.534 -0.4023 -0.3801 -0.0566
 5864SOL    HW229226   2.801   2.539   4.512  1.8815 -0.6026 -2.0704
 5865SOL     OW29227   4.668   2.804  11.655  0.2124 -0.5299  0.0427
 5865SOL    HW129228   4.673   2.841  11.567 -0.8417 -0.0854  0.1749
 5865SOL    HW229229   4.701   2.876  11.708 -0.5525 -0.0329 -0.1653
 5866SOL     OW29230   1.886   2.366   9.304  0.0289  0.2912 -0.2457
 5866SOL    HW129231   1.926   2.426   9.367 -1.0039  0.6030  0.1136
 5866SOL    HW229232   1.804   2.337   9.345  1.3645 -2.2927  0.6176
 5867SOL     OW29233   3.571   1.852  15.182 -0.0930  0.1909  0.2235
 5867SOL    HW129234   3.619   1.772  15.204 -0.4992  0.2185  1.1757
 5867SOL    HW229235   3.577   1.847  15.086  0.6945 -0.1986  0.2918
 5868SOL     OW29236   1.069   1.449  12.375 -0.3675  0.9284  0.2226
 5868SOL    HW129237   1.071   1.469  12.282 -0.8906 -2.1811 -0.4630
 5868SOL    HW229238   0.974   1.448  12.393  0.0851  0.0195  2.6018
 5869SOL     OW29239   4.720   2.430  13.935  0.0875  0.0678 -0.1967
 5869SOL    HW129240   0.001   2.491  13.863 -2.0206 -0.2484 -0.9903
 5869SOL    HW229241   0.027   2.469  14.010 -2.1460 -0.0009  1.1570
 5870SOL     OW29242   4.019   3.927   4.584 -0.1073  0.0460  0.7075
 5870SOL    HW129243   4.087   3.994   4.580 -0.2264  0.1443  0.2729
 5870SOL    HW229244   3.970   3.975   4.651 -2.2429  0.9350 -1.4732
 5871SOL     OW29245   3.352   1.521   1.103 -0.0040  0.2433  0.2366
 5871SOL    HW129246   3.386   1.596   1.054  0.7786  0.0739  0.5197
 5871SOL    HW229247   3.297   1.562   1.170 -0.4866  0.0633 -0.0491
 5872SOL     OW29248   1.667   0.178   3.757  0.6263 -0.2984  0.3687
 5872SOL    HW129249   1.702   0.142   3.838  0.3968  0.1090  0.6471
 5872SOL    HW229250   1.643   0.262   3.796  0.2769 -0.6048  0.8108
 5873SOL     OW29251   2.662   3.433   9.302  0.5173 -0.1295  0.3666
 5873SOL    HW129252   2.580   3.470   9.335  1.0127  0.5983  0.7655
 5873SOL    HW229253   2.636   3.414   9.212 -0.5279 -0.4357  0.7249
 5874SOL     OW29254   4.127   1.567   5.228 -0.4181  0.2802 -0.7331
 5874SOL    HW129255   4.199   1.629   5.240  0.3954 -1.0141  1.0677
 5874SOL    HW229256   4.185   1.492   5.218  0.8587  1.5499 -2.9952
 5875SOL     OW29257   3.922   4.362   1.797  0.4660 -0.2286  0.4114
 5875SOL    HW129258   3.842   4.357   1.850  0.5177 -1.1948  0.3959
 5875SOL    HW229259   3.986   4.320   1.855  1.7019 -0.6626 -1.2780
 5876SOL     OW29260   3.524   3.639   3.432 -0.0076 -0.2598 -0.1210
 5876SOL    HW129261   3.481   3.702   3.374  2.4129  3.0163  1.6771
 5876SOL    HW229262   3.495   3.556   3.394  0.0431 -0.8851  1.1914
 5877SOL     OW29263   3.864   3.605   3.949 -0.0267  0.6313 -0.2289
 5877SOL    HW129264   3.870   3.658   4.029 -0.2431 -0.2799  0.3925
 5877SOL    HW229265   3.773   3.577   3.949  0.7170 -1.8491 -0.9368
 5878SOL     OW29266   2.543   0.010  10.110  0.0473 -0.6449  0.4405
 5878SOL    HW129267   2.580   0.096  10.095 -0.7203 -0.3345  0.3224
 5878SOL    HW229268   2.452   0.013  10.079 -0.0900 -2.5107  0.6316
 5879SOL     OW29269   2.316   1.144   7.233  0.7080 -0.5098  0.1462
 5879SOL    HW129270   2.362   1.221   7.200 -0.7209  0.6797  0.9408
 5879SOL    HW229271   2.380   1.076   7.214  0.4301  0.4768 -4.2825
 5880SOL     OW29272   1.065   1.410   9.286  0.0869  0.2213  0.0831
 5880SOL    HW129273   1.086   1.401   9.193 -2.5820 -0.1143 -0.4745
 5880SOL    HW229274   1.120   1.342   9.327 -2.2774 -0.4607  2.1450
 5881SOL     OW29275   3.560   2.616  12.924  0.3688  0.1538 -0.1783
 5881SOL    HW129276   3.645   2.577  12.944 -0.5972 -1.1975  1.3782
 5881SOL    HW229277   3.583   2.673  12.851 -3.0381 -1.8202 -2.8066
 5882SOL     OW29278   0.880   1.321  13.828  0.2865  0.1746 -0.5556
 5882SOL    HW129279   0.871   1.252  13.894 -3.2075  0.8092 -0.3683
 5882SOL    HW229280   0.975   1.333  13.828  0.5032 -1.5716  2.0325
 5883SOL     OW29281   1.481   3.843   9.029 -0.0411 -0.2635  0.1289
 5883SOL    HW129282   1.389   3.869   9.037 -0.3929 -1.0251 -1.4248
 5883SOL    HW229283   1.512   3.910   9.090 -0.4456 -2.1980  2.4099
 5884SOL     OW29284   1.510   0.368   1.884 -0.0994  0.3772  0.0313
 5884SOL    HW129285   1.474   0.287   1.847  0.0844 -0.6929  2.2131
 5884SOL    HW229286   1.510   0.417   1.802  1.1127  0.7783  0.2720
 5885SOL     OW29287   3.735   2.772   7.493 -0.3098 -0.6622 -0.0873
 5885SOL    HW129288   3.670   2.707   7.467 -0.0147  0.0774 -2.6705
 5885SOL    HW229289   3.692   2.844   7.446  0.5334 -0.2819 -0.2761
 5886SOL     OW29290   4.132   2.907   8.165 -0.3872  0.3063  0.0669
 5886SOL    HW129291   4.044   2.871   8.152  0.7451 -1.3275 -3.0432
 5886SOL    HW229292   4.122   2.999   8.144 -2.2480 -0.1356 -0.9443
 5887SOL     OW29293   1.342   3.996   6.945 -0.1189  0.4908 -0.1498
 5887SOL    HW129294   1.352   3.907   6.911  1.4790  0.3266  0.7343
 5887SOL    HW229295   1.247   4.000   6.954 -0.1677 -1.1290  0.0474
 5888SOL     OW29296   3.560   2.204  13.293  0.0577  0.5268 -0.1905
 5888SOL    HW129297   3.634   2.176  13.347  1.0229 -1.2333 -2.4439
 5888SOL    HW229298   3.599   2.211  13.206 -0.8677  1.9991 -0.4779
 5889SOL     OW29299   1.159   1.161   2.214  0.3628  0.4203  0.3915
 5889SOL    HW129300   1.106   1.223   2.164 -1.1081 -0.2918  1.0630
 5889SOL    HW229301   1.138   1.077   2.173  3.0410 -0.7039  1.2933
 5890SOL     OW29302   4.249   4.205   2.642  0.4653 -0.1931  0.0948
 5890SOL    HW129303   4.309   4.230   2.712 -2.5420 -0.7692  2.8615
 5890SOL    HW229304   4.187   4.276   2.659 -0.1357 -0.3750 -1.3220
 5891SOL     OW29305   1.513   4.479   5.492 -0.0905  0.0459  0.2252
 5891SOL    HW129306   1.430   4.501   5.450 -0.4869 -0.4605  0.7557
 5891SOL    HW229307   1.483   4.391   5.511 -0.5079  0.8618  3.2770
 5892SOL     OW29308   4.500   1.033   2.055 -0.3524 -0.2037 -0.5808
 5892SOL    HW129309   4.579   0.999   2.098 -1.0364 -1.8477 -0.6320
 5892SOL    HW229310   4.473   0.959   2.001  1.1609 -1.2917  0.1520
 5893SOL     OW29311   4.630   4.049   9.859  0.1758 -0.3283 -0.8680
 5893SOL    HW129312   4.535   4.034   9.861  0.1183  0.2249  0.1167
 5893SOL    HW229313   4.657   4.011   9.942  0.5103 -1.5630 -1.5398
 5894SOL     OW29314   1.065   4.024   6.895  0.0211 -0.1559 -0.3153
 5894SOL    HW129315   1.047   4.097   6.834  0.4858 -0.7280 -1.1407
 5894SOL    HW229316   0.980   4.023   6.938  0.1797 -1.4851 -0.0385
 5895SOL     OW29317   2.525   4.291   6.446 -0.0892  0.0251 -0.1943
 5895SOL    HW129318   2.552   4.300   6.354  1.5285 -0.4166  0.2348
 5895SOL    HW229319   2.527   4.385   6.465 -2.9137 -0.1079  0.7169
 5896SOL     OW29320   2.998   4.627   0.779  0.4288  0.6162  0.2985
 5896SOL    HW129321   3.051   4.698   0.744 -2.5960  2.1763 -1.0776
 5896SOL    HW229322   2.996   4.655   0.871 -0.7564  0.8983  0.1952
 5897SOL     OW29323   0.304   3.313   6.900  0.6066 -0.0020 -0.3623
 5897SOL    HW129324   0.378   3.289   6.956  0.0996  0.4348  0.5032
 5897SOL    HW229325   0.235   3.266   6.947  1.4263  0.0299  0.8665
 5898SOL     OW29326   4.445   0.219   5.173  0.7637 -0.3766  0.2927
 5898SOL    HW129327   4.484   0.294   5.128 -2.4320 -0.6052 -2.8345
 5898SOL    HW229328   4.516   0.213   5.237  2.7472  1.5679 -1.7304
 5899SOL     OW29329   0.887   3.967   5.534  0.0215 -0.4387  0.6626
 5899SOL    HW129330   0.927   3.915   5.464 -1.4714 -0.3457 -0.2599
 5899SOL    HW229331   0.955   3.957   5.601  0.7843 -1.3926 -0.2459
 5900SOL     OW29332   1.804   4.461   9.551  0.3637 -0.5467  0.3899
 5900SOL    HW129333   1.778   4.511   9.474  1.2973 -1.7499 -0.7271
 5900SOL    HW229334   1.790   4.533   9.613  1.2158  3.0415 -3.6217
 5901SOL     OW29335   2.827   1.262   5.781 -0.2470  0.4239  0.1012
 5901SOL    HW129336   2.870   1.320   5.718  1.4949 -1.3862 -0.3783
 5901SOL    HW229337   2.868   1.277   5.866  0.9823  0.1868 -0.4410
 5902SOL     OW29338   0.580   4.506   8.533  0.2753 -0.4578 -0.3228
 5902SOL    HW129339   0.635   4.553   8.596  0.1548 -0.2098 -0.3988
 5902SOL    HW229340   0.652   4.508   8.470  0.3736 -0.7894 -0.2214
 5903SOL     OW29341   2.439   1.611   1.178  0.3712  0.3301  0.2616
 5903SOL    HW129342   2.499   1.634   1.250  0.8039  0.8321 -0.2599
 5903SOL    HW229343   2.454   1.518   1.161 -4.0403 -0.3503  0.0779
 5904SOL     OW29344   1.930   1.113   9.552 -0.2367 -0.3271 -0.7943
 5904SOL    HW129345   1.953   1.187   9.497  1.0564 -1.6662 -2.0691
 5904SOL    HW229346   1.837   1.129   9.568 -0.4611 -1.3729 -1.0408
 5905SOL     OW29347   3.376   0.799   4.362  0.0919 -0.0918 -0.3044
 5905SOL    HW129348   3.464   0.798   4.323  0.3770 -1.0718  0.3687
 5905SOL    HW229349   3.370   0.711   4.399  0.5531  0.1828  0.4271
 5906SOL     OW29350   3.547   0.351   5.617  0.2669 -0.5970  0.0160
 5906SOL    HW129351   3.526   0.352   5.524 -1.0688 -0.4710  0.3186
 5906SOL    HW229352   3.459   0.349   5.655  0.6313  0.1126  0.8810
 5907SOL     OW29353   3.359   2.450  12.806 -0.2801  0.0143  0.7776
 5907SOL    HW129354   3.271   2.489  12.800 -0.1630  0.5653  2.6335
 5907SOL    HW229355   3.397   2.529  12.845 -0.8516 -0.1438  1.6599
 5908SOL     OW29356   0.656   3.833   2.436 -0.0531  0.1484  0.0095
 5908SOL    HW129357   0.564   3.807   2.440  0.2912 -1.3388 -1.5848
 5908SOL    HW229358   0.641   3.925   2.413 -0.9303  0.0256  0.0827
 5909SOL     OW29359   3.399   0.042   1.195 -0.1616  0.3093  0.6001
 5909SOL    HW129360   3.423   0.057   1.286 -0.0628 -0.7713  0.7563
 5909SOL    HW229361   3.436   4.696   1.166 -2.8186 -0.6469 -0.1006
 5910SOL     OW29362   0.984   0.830  17.186 -0.5371  0.2987  0.0403
 5910SOL    HW129363   1.015   0.794  17.269 -4.1078  0.9392  1.6475
 5910SOL    HW229364   1.027   0.915  17.190 -3.5138  1.8535 -0.7360
 5911SOL     OW29365   4.510   3.742   2.932  0.3967 -0.2889  0.2646
 5911SOL    HW129366   4.512   3.660   2.982 -1.2304  0.3108  1.2714
 5911SOL    HW229367   4.600   3.739   2.898  0.4332  2.1689  0.1844
 5912SOL     OW29368   2.890   3.521   3.743 -0.1028 -0.3896 -0.3127
 5912SOL    HW129369   2.984   3.536   3.734  0.0246 -1.5046 -0.8482
 5912SOL    HW229370   2.868   3.606   3.781 -0.5526 -1.1389  1.1007
 5913SOL     OW29371   3.384   1.359   5.333  0.7450 -0.0542  0.2021
 5913SOL    HW129372   3.342   1.277   5.361  0.7188  1.0844  3.4554
 5913SOL    HW229373   3.323   1.423   5.369 -0.9997 -2.1497  1.0134
 5914SOL     OW29374   0.110   1.680   3.590 -0.3680 -0.1110 -0.0419
 5914SOL    HW129375   0.033   1.640   3.631 -2.1742  2.5481 -0.8616
 5914SOL    HW229376   0.183   1.655   3.648 -1.5497 -1.3384  0.9206
 5915SOL     OW29377   3.746   0.808   5.230 -0.2278  0.0861  0.2358
 5915SOL    HW129378   3.784   0.813   5.318  0.4432  0.8204 -0.0987
 5915SOL    HW229379   3.811   0.768   5.172 -1.2691  0.2160 -1.0170
 5916SOL     OW29380   1.917   0.481   3.745  0.4516 -0.2105  0.2321
 5916SOL    HW129381   1.939   0.388   3.735 -2.7041 -0.7190 -1.8529
 5916SOL    HW229382   2.002   0.512   3.776  0.4779 -0.6232  0.5725
 5917SOL     OW29383   1.847   2.357   2.330 -0.2268  0.1598 -1.0454
 5917SOL    HW129384   1.813   2.286   2.276  0.1126 -0.0449 -0.9950
 5917SOL    HW229385   1.929   2.321   2.367 -0.2180  0.8664 -0.3706
 5918SOL     OW29386   3.249   4.508   5.664  0.2037  0.2742  0.1157
 5918SOL    HW129387   3.231   4.602   5.654 -0.8769 -0.0960 -1.6123
 5918SOL    HW229388   3.161   4.479   5.690  1.0724 -1.7988  0.6801
 5919SOL     OW29389   3.879   0.243   8.900  0.5966  0.2308  0.1839
 5919SOL    HW129390   3.862   0.249   8.994 -0.5550 -0.2735  0.0007
 5919SOL    HW229391   3.878   0.337   8.881 -1.9582 -0.3105 -2.3463
 5920SOL     OW29392   4.058   1.958  11.008  0.3976 -0.1861  0.2968
 5920SOL    HW129393   3.976   1.927  11.047 -0.1589  2.5201  1.2422
 5920SOL    HW229394   4.033   2.047  10.982  1.6663 -0.8215 -3.1750
 5921SOL     OW29395   0.657   0.575   2.773  0.2510 -0.6591  0.4267
 5921SOL    HW129396   0.627   0.613   2.855 -1.6433  0.8546 -0.9444
 5921SOL    HW229397   0.604   0.620   2.706  0.5599 -1.4912 -0.3775
 5922SOL     OW29398   3.138   2.164   4.164 -0.0792 -0.3477 -0.2398
 5922SOL    HW129399   3.113   2.256   4.158 -1.0753 -0.7416 -2.3572
 5922SOL    HW229400   3.060   2.115   4.139 -0.7312  0.1617  0.7801
 5923SOL     OW29401   1.795   3.463   6.498  0.2705  0.2280 -0.2549
 5923SOL    HW129402   1.849   3.406   6.443 -0.3243 -0.1832 -0.4109
 5923SOL    HW229403   1.851   3.457   6.576  0.2084  0.4376 -0.1953
 5924SOL     OW29404   3.970   0.255  13.296  0.2556 -0.0290 -0.0671
 5924SOL    HW129405   3.988   0.339  13.340  0.7767 -0.1679 -0.0213
 5924SOL    HW229406   3.923   0.210  13.366  1.5531 -0.7785  0.3117
 5925SOL     OW29407   0.740   3.003   5.236  0.0691  0.1693  0.4545
 5925SOL    HW129408   0.733   3.068   5.166 -0.1034 -0.5693 -0.2095
 5925SOL    HW229409   0.720   2.930   5.178 -0.1296  0.0166  0.7142
 5926SOL     OW29410   2.913   0.013  11.893  0.1144 -0.0631 -0.1542
 5926SOL    HW129411   2.929   0.104  11.865  2.2569  0.6478  3.2728
 5926SOL    HW229412   2.996   4.710  11.868  1.3186  2.4252 -0.1833
 5927SOL     OW29413   2.108   3.046   7.614  0.4489  0.3695 -0.6343
 5927SOL    HW129414   2.184   3.092   7.649 -0.3837  0.0438  1.5654
 5927SOL    HW229415   2.034   3.093   7.652  0.1543 -0.8906  0.3293
 5928SOL     OW29416   1.967   2.740  14.238 -0.6151  0.1067 -0.2717
 5928SOL    HW129417   1.931   2.700  14.159 -1.0997 -2.5561  1.2997
 5928SOL    HW229418   2.051   2.696  14.252 -1.2935 -0.4955  1.9589
 5929SOL     OW29419   1.387   0.118   3.939  0.3512 -0.5128 -0.5881
 5929SOL    HW129420   1.407   0.069   4.019  1.2946  0.0945 -0.4491
 5929SOL    HW229421   1.407   0.204   3.977  1.7023 -1.6240  1.2018
 5930SOL     OW29422   1.386   3.549   3.610 -0.6626 -0.6291 -0.0042
 5930SOL    HW129423   1.353   3.576   3.524  0.5404  1.8964  0.3337
 5930SOL    HW229424   1.441   3.618   3.647  1.4240 -1.9778 -0.6058
 5931SOL     OW29425   1.247   4.242   1.374 -0.1449 -0.1402  0.3809
 5931SOL    HW129426   1.241   4.285   1.460  1.4970 -0.4620  0.6534
 5931SOL    HW229427   1.334   4.264   1.340  0.3172 -3.1545 -0.3181
 5932SOL     OW29428   1.960   0.811   0.581  0.0256  0.0814  0.2581
 5932SOL    HW129429   1.983   0.896   0.618  1.6137 -0.5984  0.8740
 5932SOL    HW229430   1.926   0.768   0.659  0.2035  1.0653  0.8786
 5933SOL     OW29431   2.518   4.455   5.713  0.6869  0.2366  0.4338
 5933SOL    HW129432   2.578   4.386   5.685  0.3572  0.0015  0.3070
 5933SOL    HW229433   2.442   4.438   5.658  3.3802 -1.7245 -2.6964
 5934SOL     OW29434   1.714   1.574   6.675  0.5994 -0.4757 -0.4144
 5934SOL    HW129435   1.638   1.515   6.675 -0.2250  0.5757  0.3275
 5934SOL    HW229436   1.754   1.563   6.761  0.0655  1.7976  0.1230
 5935SOL     OW29437   3.874   2.716   5.830  0.0879  0.0207 -0.2398
 5935SOL    HW129438   3.966   2.737   5.841  0.3810 -0.5180 -1.5780
 5935SOL    HW229439   3.862   2.642   5.890 -1.0671  1.4559  1.2619
 5936SOL     OW29440   1.684   2.842  13.114 -0.0035  0.2986 -0.2807
 5936SOL    HW129441   1.721   2.774  13.171  0.9599 -1.1963 -2.6654
 5936SOL    HW229442   1.742   2.828  13.039 -0.8304  1.1220 -1.0710
 5937SOL     OW29443   3.328   1.173  17.079 -0.1079 -0.4193 -0.3981
 5937SOL    HW129444   3.336   1.267  17.094  0.1469 -0.6610  1.0105
 5937SOL    HW229445   3.373   1.173  16.994  0.5662 -1.7810 -0.0452
 5938SOL     OW29446   1.305   3.944   5.080 -0.3231  0.0570  0.0456
 5938SOL    HW129447   1.391   3.905   5.065  1.0240  2.3294  1.7646
 5938SOL    HW229448   1.322   4.001   5.005  0.2496 -1.0272 -0.6403
 5939SOL     OW29449   2.931   1.134   4.470 -0.1297 -0.0788  0.0139
 5939SOL    HW129450   2.935   1.105   4.379  0.5359  1.2973 -0.3942
 5939SOL    HW229451   3.022   1.156   4.490 -0.1685  0.6662 -0.6607
 5940SOL     OW29452   2.508   3.273   2.861  0.1236 -0.2915  0.2534
 5940SOL    HW129453   2.420   3.274   2.899  0.8956  2.0592  1.9984
 5940SOL    HW229454   2.547   3.204   2.914  0.6547  0.8049  1.3043
 5941SOL     OW29455   1.772   0.258   9.291  0.2862  0.2338  0.3613
 5941SOL    HW129456   1.859   0.295   9.310 -0.1540  1.4009  0.1124
 5941SOL    HW229457   1.766   0.192   9.361 -1.0189  0.2212  0.2372
 5942SOL     OW29458   4.093   3.154  17.726 -0.0010 -0.2314 -0.4918
 5942SOL    HW129459   4.168   3.114  17.683  0.8374  3.7088 -2.6116
 5942SOL    HW229460   4.124   3.142   0.069 -0.8852 -0.3263 -0.1926
 5943SOL     OW29461   0.782   4.713  11.200 -0.7439 -0.0124 -0.3548
 5943SOL    HW129462   0.812   4.664  11.124 -0.0561 -2.3535  1.4141
 5943SOL    HW229463   0.765   0.067  11.180 -3.5409 -0.4230  0.1186
 5944SOL     OW29464   3.807   3.787   5.651 -0.5925  0.2928 -0.3505
 5944SOL    HW129465   3.835   3.778   5.742  0.1314 -1.3057 -0.7221
 5944SOL    HW229466   3.759   3.704   5.649 -0.1570  0.0318  0.1883
 5945SOL     OW29467   2.139   0.687   4.138 -0.4069 -0.0569  0.5666
 5945SOL    HW129468   2.138   0.643   4.223  2.1518  0.8422  1.0783
 5945SOL    HW229469   2.072   0.631   4.099  0.5904  0.1122 -1.4317
 5946SOL     OW29470   4.206   1.515   2.207  0.2692 -0.5487 -0.0777
 5946SOL    HW129471   4.300   1.502   2.195  0.5438  2.7114 -1.7353
 5946SOL    HW229472   4.183   1.431   2.245  0.5509 -0.1768  0.9078
 5947SOL     OW29473   2.181   2.245   4.466  0.5372 -0.5700  0.2187
 5947SOL    HW129474   2.257   2.285   4.509  0.9689  0.0633 -1.1574
 5947SOL    HW229475   2.225   2.176   4.416 -1.6354 -0.3575 -1.9291
 5948SOL     OW29476   2.702   1.485  16.328 -0.6493  0.0625  0.8550
 5948SOL    HW129477   2.628   1.523  16.281  0.0070 -0.1707 -0.3632
 5948SOL    HW229478   2.667   1.481  16.417 -0.0843  0.2022  1.0822
 5949SOL     OW29479   1.530   1.816   3.931  0.5296  0.0120  0.3482
 5949SOL    HW129480   1.466   1.753   3.899  0.2861  0.7892 -0.6860
 5949SOL    HW229481   1.490   1.841   4.015 -0.6705 -0.8542  0.0437
 5950SOL     OW29482   4.113   0.143  13.105  0.4286 -0.5324 -0.5631
 5950SOL    HW129483   4.049   0.186  13.048 -0.6989 -1.6484 -0.1473
 5950SOL    HW229484   4.085   0.183  13.187  3.3882 -1.5412  0.9354
 5951SOL     OW29485   2.603   3.110   3.044 -0.0196  0.8858  0.2707
 5951SOL    HW129486   2.567   3.111   3.133  0.1080 -1.7245  0.3327
 5951SOL    HW229487   2.629   3.018   3.043 -0.3079  0.8446 -2.4210
 5952SOL     OW29488   2.957   0.330   6.195  0.6125 -0.3002  0.6299
 5952SOL    HW129489   3.043   0.306   6.162  1.3072 -1.6629  3.4664
 5952SOL    HW229490   2.916   0.258   6.242 -1.4372  0.1417 -0.4704
 5953SOL     OW29491   4.432   3.213   2.665 -0.5647 -0.0835  0.0176
 5953SOL    HW129492   4.337   3.201   2.660 -0.3202 -1.5698 -0.8911
 5953SOL    HW229493   4.442   3.302   2.630  1.0464  0.3249  1.4771
 5954SOL     OW29494   1.168   0.936   9.192 -0.0939  0.3820 -0.2362
 5954SOL    HW129495   1.141   0.897   9.276  0.3444  0.5546 -0.0142
 5954SOL    HW229496   1.236   0.874   9.166 -1.0036 -0.2805 -1.0170
 5955SOL     OW29497   0.350   2.642   5.182 -0.5826 -0.1154 -0.3529
 5955SOL    HW129498   0.354   2.732   5.149 -1.0331  0.8481  2.2126
 5955SOL    HW229499   0.432   2.610   5.142  0.3784 -0.0667  1.5952
 5956SOL     OW29500   3.373   0.124  17.519 -0.0894 -0.3838  0.1511
 5956SOL    HW129501   3.375   0.064  17.444  2.8618  1.8752 -1.5571
 5956SOL    HW229502   3.305   0.086  17.575  1.4688 -3.6746 -0.2084
 5957SOL     OW29503   1.149   0.414   4.519 -0.2191  0.1747 -0.4384
 5957SOL    HW129504   1.087   0.368   4.576 -0.9367  1.5018 -0.1403
 5957SOL    HW229505   1.156   0.352   4.446 -2.8874 -1.0414  0.3015
 5958SOL     OW29506   1.987   2.543   0.280  0.4720  0.2248 -0.2704
 5958SOL    HW129507   1.951   2.455   0.289  0.6056  0.2106  0.0982
 5958SOL    HW229508   2.007   2.571   0.369 -0.2659  1.8890 -0.6263
 5959SOL     OW29509   3.874   0.547   3.023 -0.8912  0.6202 -0.6844
 5959SOL    HW129510   3.859   0.590   3.107 -0.8258  0.7730 -0.7512
 5959SOL    HW229511   3.789   0.558   2.979 -1.7973 -1.3101  0.6239
 5960SOL     OW29512   1.041   3.830   7.821 -0.2456 -0.0138 -0.5941
 5960SOL    HW129513   1.074   3.917   7.840 -1.8341  0.0247  1.9808
 5960SOL    HW229514   1.094   3.794   7.749 -1.3471  2.4941 -2.6152
 5961SOL     OW29515   4.066   1.761   7.940  0.1309 -0.0761 -0.3377
 5961SOL    HW129516   4.058   1.854   7.923  3.9415 -0.1756 -2.7079
 5961SOL    HW229517   4.085   1.762   8.034  0.6084 -1.5274 -0.4187
 5962SOL     OW29518   3.758   0.366   3.429 -0.4179  0.4856  0.2594
 5962SOL    HW129519   3.800   0.445   3.396 -0.3250 -0.2636 -1.4029
 5962SOL    HW229520   3.685   0.371   3.367  0.3075  1.0794 -0.5404
 5963SOL     OW29521   1.163   0.173   2.527 -0.6140  0.3957  0.5731
 5963SOL    HW129522   1.140   0.167   2.619  2.6861 -0.0229  1.3777
 5963SOL    HW229523   1.132   0.089   2.492  2.2448  0.0080 -1.0455
 5964SOL     OW29524   3.117   2.406   9.311  0.4401 -0.4473 -0.3927
 5964SOL    HW129525   3.067   2.372   9.385  0.6478 -0.5067 -0.2828
 5964SOL    HW229526   3.161   2.329   9.275 -0.3918  0.2279 -2.8487
 5965SOL     OW29527   1.830   3.759   6.468 -0.1154 -0.1668 -0.0069
 5965SOL    HW129528   1.816   3.682   6.413  1.1524 -1.4857  1.5053
 5965SOL    HW229529   1.765   3.759   6.539 -1.0753  0.5303 -0.8822
 5966SOL     OW29530   0.265   2.835   0.856 -0.2634 -0.1113  0.4923
 5966SOL    HW129531   0.224   2.836   0.769  0.5029  0.1372  0.1412
 5966SOL    HW229532   0.195   2.792   0.906 -0.8135 -0.1396 -0.2815
 5967SOL     OW29533   2.146   0.306   9.780 -0.2906 -0.1419 -0.0246
 5967SOL    HW129534   2.160   0.375   9.715 -1.4472 -0.0613 -0.1953
 5967SOL    HW229535   2.217   0.246   9.756  0.9726  1.7802 -1.0893
 5968SOL     OW29536   4.230   3.744   3.721  0.3815 -0.3176  0.3983
 5968SOL    HW129537   4.290   3.746   3.647  0.3420 -1.7395  0.3240
 5968SOL    HW229538   4.179   3.825   3.728 -1.6628 -1.4754 -1.1412
 5969SOL     OW29539   1.033   4.184   8.621  0.0404 -0.1311 -0.1403
 5969SOL    HW129540   1.086   4.104   8.619  3.5940  2.2130  1.4694
 5969SOL    HW229541   0.992   4.165   8.706  0.2026 -0.2895 -0.0964
 5970SOL     OW29542   4.184   1.447  12.049  0.0778  0.1842 -0.1913
 5970SOL    HW129543   4.246   1.513  12.018  0.9717 -0.4684  0.2416
 5970SOL    HW229544   4.239   1.380  12.090 -0.0970  0.3262  0.2838
 5971SOL     OW29545   0.673   3.967   5.254  0.1482 -0.1396 -0.3468
 5971SOL    HW129546   0.714   3.885   5.223 -0.8025  0.3282 -2.8577
 5971SOL    HW229547   0.722   3.984   5.334 -1.2771 -1.4737  0.8069
 5972SOL     OW29548   0.179   3.627   8.008  0.4850  0.2267 -0.1562
 5972SOL    HW129549   0.106   3.648   8.065  0.5929  2.1820 -0.6975
 5972SOL    HW229550   0.157   3.536   7.988 -0.8335  0.4936  0.0804
 5973SOL     OW29551   3.795   2.021   3.575 -0.7064 -0.4671  0.4349
 5973SOL    HW129552   3.785   2.102   3.625  2.3777  0.6225 -0.6866
 5973SOL    HW229553   3.802   2.053   3.485 -0.9299 -1.0157  0.2225
 5974SOL     OW29554   3.591   3.857   7.700  0.0280  0.2986  0.0422
 5974SOL    HW129555   3.627   3.903   7.624 -1.8739  0.5237 -0.7283
 5974SOL    HW229556   3.531   3.791   7.665  0.0581  2.2228 -3.6712
 5975SOL     OW29557   3.793   0.600   1.720  0.0688 -0.5664  0.1887
 5975SOL    HW129558   3.884   0.588   1.692  0.2059  0.9223  0.0223
 5975SOL    HW229559   3.769   0.507   1.727 -1.6504 -0.0548  1.0254
 5976SOL     OW29560   4.059   3.515   6.139 -0.1694  0.0319  0.2907
 5976SOL    HW129561   4.005   3.589   6.168  0.1501  0.0316  0.8725
 5976SOL    HW229562   4.137   3.528   6.192  0.1820  2.0418 -0.7182
 5977SOL     OW29563   0.090   1.266   1.101 -0.4661  0.2665 -0.4362
 5977SOL    HW129564   0.166   1.318   1.075 -0.5422  1.1544  1.1467
 5977SOL    HW229565   0.033   1.273   1.024  0.5940 -0.7101 -1.3204
 5978SOL     OW29566   1.452   0.763   7.722 -0.2010  0.2668  0.1859
 5978SOL    HW129567   1.395   0.687   7.735 -1.8842  1.8174  1.7796
 5978SOL    HW229568   1.450   0.775   7.627  0.3494  1.3184  0.3114
 5979SOL     OW29569   3.250   0.601  15.239 -0.1384 -0.2780 -0.1064
 5979SOL    HW129570   3.157   0.587  15.258 -0.0408 -1.6650 -0.6721
 5979SOL    HW229571   3.290   0.594  15.326  0.7319 -0.7797 -0.5437
 5980SOL     OW29572   3.038   3.431   6.212 -0.3076 -0.0479 -0.4986
 5980SOL    HW129573   3.093   3.392   6.279 -2.1779 -3.1808 -0.7867
 5980SOL    HW229574   2.956   3.388   6.238  0.0663  0.6467  1.7961
 5981SOL     OW29575   3.388   3.241   6.447 -0.1607 -0.9680 -0.2521
 5981SOL    HW129576   3.436   3.250   6.365 -0.7881 -2.1720 -0.7427
 5981SOL    HW229577   3.444   3.278   6.516 -0.1309 -3.9123  1.2940
 5982SOL     OW29578   0.326   2.017   4.446 -0.5618  0.2406  0.0930
 5982SOL    HW129579   0.236   2.005   4.415 -0.0826 -3.2270 -0.0266
 5982SOL    HW229580   0.349   2.093   4.394 -0.8813 -0.3521 -0.9232
 5983SOL     OW29581   0.911   4.691   4.447  0.6024 -0.1228 -0.3001
 5983SOL    HW129582   0.864   4.608   4.434  1.1868 -0.3158 -1.1780
 5983SOL    HW229583   0.952   4.681   4.534  0.3507  1.4619 -0.0021
 5984SOL     OW29584   0.260   2.638   2.982  0.2013 -0.6186  0.1375
 5984SOL    HW129585   0.275   2.593   3.066 -0.4903 -0.0148  0.5875
 5984SOL    HW229586   0.341   2.617   2.935 -1.1102 -1.5958 -1.6621
 5985SOL     OW29587   3.337   0.878   4.648 -0.0265 -0.3177  0.0680
 5985SOL    HW129588   3.264   0.819   4.630  1.4135 -2.2576  0.5868
 5985SOL    HW229589   3.393   0.872   4.571 -0.7275 -0.0111 -0.4700
 5986SOL     OW29590   2.925   0.831   2.199 -0.4013  0.2188 -0.3368
 5986SOL    HW129591   2.988   0.817   2.269  1.9855  2.7176 -1.9820
 5986SOL    HW229592   2.963   0.890   2.134 -0.0906 -0.8893 -1.1696
 5987SOL     OW29593   2.790   2.621   5.019 -0.4955 -0.0492  0.2541
 5987SOL    HW129594   2.805   2.690   4.955  2.7444 -0.5730  0.4422
 5987SOL    HW229595   2.753   2.561   4.954 -1.4402  1.2507 -0.4237
 5988SOL     OW29596   1.471   0.896  10.182  0.0833  0.7231  0.5040
 5988SOL    HW129597   1.566   0.902  10.178  0.0851 -0.4635 -1.1239
 5988SOL    HW229598   1.447   0.959  10.251  0.0408  0.4698  0.7190
 5989SOL     OW29599   0.059   0.852  11.935 -0.5836 -0.2439 -0.6262
 5989SOL    HW129600   4.702   0.841  11.946 -0.2265  0.0907  2.7093
 5989SOL    HW229601   0.051   0.909  11.858 -0.2872 -0.2907 -0.6913
 5990SOL     OW29602   2.605   0.884   7.392  0.0614  0.3938  0.1502
 5990SOL    HW129603   2.631   0.792   7.389  0.9789  0.6731 -0.3737
 5990SOL    HW229604   2.579   0.887   7.485 -1.1186 -0.2727 -0.1564
 5991SOL     OW29605   3.356   1.269   4.215 -0.0972  0.3258 -0.5317
 5991SOL    HW129606   3.356   1.175   4.197  1.7861  0.3758 -0.8435
 5991SOL    HW229607   3.377   1.262   4.309  0.5054 -0.2995 -0.7143
 5992SOL     OW29608   0.884   1.109   6.591  0.0689  0.1537  0.3989
 5992SOL    HW129609   0.877   1.181   6.528  1.4038  0.1127  0.2108
 5992SOL    HW229610   0.815   1.060   6.546  1.7823  1.2689 -3.4418
 5993SOL     OW29611   3.989   3.481  12.889  0.3205 -0.3357 -0.6056
 5993SOL    HW129612   4.053   3.515  12.951 -1.3649  0.6893  0.5693
 5993SOL    HW229613   4.043   3.417  12.842  1.4787  0.9945 -1.0868
 5994SOL     OW29614   0.072   3.917   3.455  0.6445  0.2597  0.7820
 5994SOL    HW129615   0.058   3.847   3.391 -3.8914 -0.9257  3.0620
 5994SOL    HW229616   0.166   3.931   3.443  0.4053  1.4887  0.3249
 5995SOL     OW29617   3.254   1.750   8.366  0.0292 -0.1849 -0.1080
 5995SOL    HW129618   3.225   1.679   8.422 -0.5475 -2.1211 -2.8703
 5995SOL    HW229619   3.238   1.705   8.283 -1.9379  1.1751 -0.4661
 5996SOL     OW29620   1.478   0.082  11.513 -0.0077  0.0136  0.5285
 5996SOL    HW129621   1.406   0.034  11.474 -0.6110  1.3734 -0.0284
 5996SOL    HW229622   1.451   0.078  11.605  0.0245 -1.2992  0.4790
 5997SOL     OW29623   1.847   2.171   3.088  0.3376  0.1670 -0.5274
 5997SOL    HW129624   1.925   2.210   3.048  0.0847 -2.4237 -3.4891
 5997SOL    HW229625   1.806   2.244   3.135  1.1516 -0.4094  1.1010
 5998SOL     OW29626   4.531   1.481  13.793  0.0070  0.6479 -0.1424
 5998SOL    HW129627   4.602   1.533  13.755 -0.9439  1.3804 -0.9150
 5998SOL    HW229628   4.469   1.485  13.720  0.9348  0.8191 -0.9140
 5999SOL     OW29629   0.968   0.645  13.764 -0.9358  0.3771 -0.6271
 5999SOL    HW129630   0.932   0.700  13.835  1.4348  0.7050  0.3178
 5999SOL    HW229631   0.881   0.617  13.737 -2.1701  0.2736  3.3551
 6000SOL     OW29632   0.541   0.179   0.799 -0.2291 -0.2221  0.2167
 6000SOL    HW129633   0.568   0.097   0.758  1.1805  0.0972  0.5136
 6000SOL    HW229634   0.462   0.203   0.750  0.2587 -0.7326 -0.8125
 6001SOL     OW29635   0.161   1.647  16.578 -0.1918  0.1401 -0.1191
 6001SOL    HW129636   0.110   1.725  16.556 -0.1213  0.4654  0.8882
 6001SOL    HW229637   0.119   1.631  16.662 -0.3111 -0.4069 -0.2822
 6002SOL     OW29638   2.677   2.342   3.127 -0.6591 -0.0708  0.6908
 6002SOL    HW129639   2.650   2.268   3.074  1.8290 -2.0987  2.2506
 6002SOL    HW229640   2.598   2.370   3.173 -1.4103 -1.4185  0.2084
 6003SOL     OW29641   0.666   0.601  12.428 -0.1386  0.4922  0.0039
 6003SOL    HW129642   0.714   0.599  12.346 -1.7318  0.6001 -0.9440
 6003SOL    HW229643   0.615   0.520  12.429  0.5713  0.0230 -3.5491
 6004SOL     OW29644   3.068   2.938   6.015  0.4476 -0.4987 -0.9904
 6004SOL    HW129645   3.081   3.027   5.982  2.0414  0.1895  1.5157
 6004SOL    HW229646   3.014   2.901   5.945 -0.9593 -0.5859  0.1363
 6005SOL     OW29647   1.488   3.678  11.332  0.1971  0.0082  0.1369
 6005SOL    HW129648   1.524   3.624  11.262 -2.2036  0.7388 -1.6651
 6005SOL    HW229649   1.567   3.725  11.357  0.5503 -0.6032  0.1811
 6006SOL     OW29650   0.193   4.344   9.428 -0.3457 -0.3433 -0.6326
 6006SOL    HW129651   0.274   4.297   9.408 -0.4285  1.0715 -4.2442
 6006SOL    HW229652   0.191   4.352   9.524  0.3594 -2.9098 -0.3848
 6007SOL     OW29653   0.639   1.945   5.353  0.0767 -0.1900  0.2232
 6007SOL    HW129654   0.603   2.018   5.402 -1.1592 -1.3095  0.9874
 6007SOL    HW229655   0.562   1.889   5.363 -1.3266  1.7917  0.4706
 6008SOL     OW29656   2.924   3.633   7.090  0.3725  0.5270  0.5004
 6008SOL    HW129657   2.905   3.722   7.060  2.2707  0.5753 -0.5410
 6008SOL    HW229658   3.015   3.638   7.118  0.2282  0.5265  0.9785
 6009SOL     OW29659   1.628   4.613   8.090 -0.6424 -0.1678  0.6299
 6009SOL    HW129660   1.612   4.684   8.027  1.4606  0.0106  0.2885
 6009SOL    HW229661   1.712   4.574   8.066  0.4902  1.0985  2.4409
 6010SOL     OW29662   0.514   3.927   0.694  0.1010 -0.5113  0.2881
 6010SOL    HW129663   0.592   3.978   0.674 -0.2350  0.5748  1.7793
 6010SOL    HW229664   0.553   3.840   0.679 -0.7583 -0.9995  0.8452
 6011SOL     OW29665   2.525   2.422   5.505  0.3053  0.0377  0.3153
 6011SOL    HW129666   2.577   2.358   5.456 -1.3325 -1.8154  1.0386
 6011SOL    HW229667   2.576   2.502   5.491 -0.7307  0.4347 -1.2075
 6012SOL     OW29668   0.341   1.488   7.571 -0.2215  0.5737  0.0793
 6012SOL    HW129669   0.419   1.439   7.597 -0.0916 -0.5669 -2.3872
 6012SOL    HW229670   0.304   1.496   7.659  0.4357  1.3555  0.2848
 6013SOL     OW29671   3.656   1.675   3.917  0.4022 -0.2488  0.4162
 6013SOL    HW129672   3.719   1.612   3.883  0.5840  0.0156  0.2615
 6013SOL    HW229673   3.579   1.619   3.908 -0.5159  1.2172 -0.8563
 6014SOL     OW29674   2.066   1.104  12.368 -0.1399  0.2645  0.4462
 6014SOL    HW129675   2.152   1.146  12.365 -0.0669  0.0042 -1.2140
 6014SOL    HW229676   2.079   1.053  12.448  2.1735 -2.1610 -1.4857
 6015SOL     OW29677   2.006   4.611  10.317  0.3128 -0.2893 -0.6985
 6015SOL    HW129678   1.950   4.534  10.302 -0.2082 -0.0272 -0.1320
 6015SOL    HW229679   1.951   4.676  10.361 -0.7866 -1.8580  0.2627
 6016SOL     OW29680   0.506   1.602   1.884  0.5075  0.0704 -0.6620
 6016SOL    HW129681   0.441   1.541   1.849  0.3196 -1.3778  2.1989
 6016SOL    HW229682   0.509   1.674   1.821  1.7879  0.4196 -0.2034
 6017SOL     OW29683   2.146   0.536   7.234 -0.3932 -0.2591 -0.7952
 6017SOL    HW129684   2.059   0.512   7.201 -1.1277 -1.4249  2.0606
 6017SOL    HW229685   2.177   0.445   7.234 -3.2013 -1.2075  0.5553
 6018SOL     OW29686   1.235   4.563  16.781  0.2282  0.1607  0.0496
 6018SOL    HW129687   1.222   4.528  16.869  0.2953  1.0856  0.4283
 6018SOL    HW229688   1.330   4.562  16.788  0.2176 -0.5993  0.1124
 6019SOL     OW29689   1.524   2.457   4.060 -0.0304  0.1298  0.1538
 6019SOL    HW129690   1.539   2.539   4.013 -0.0489 -1.4126 -2.5387
 6019SOL    HW229691   1.446   2.480   4.111  1.5491 -1.1790  3.1270
 6020SOL     OW29692   0.976   3.069  13.165 -0.0728  0.6245 -0.6312
 6020SOL    HW129693   0.893   3.115  13.178 -0.7975 -0.1456 -2.5146
 6020SOL    HW229694   1.032   3.130  13.214 -0.7064  0.0618  0.7869
 6021SOL     OW29695   2.732   2.843   3.323  0.3775 -0.4864 -0.2130
 6021SOL    HW129696   2.801   2.777   3.325  1.3666  0.5954  0.9375
 6021SOL    HW229697   2.681   2.829   3.243 -0.2527 -2.8675  0.6150
 6022SOL     OW29698   4.204   1.502  16.484  0.1059  0.2095  0.1746
 6022SOL    HW129699   4.230   1.467  16.398  0.3510 -0.4848  0.5288
 6022SOL    HW229700   4.233   1.434  16.544 -0.5258 -0.1693  0.0496
 6023SOL     OW29701   3.486   1.226   7.252  0.2268 -0.3107 -0.1340
 6023SOL    HW129702   3.414   1.283   7.222  0.0959 -0.6397 -0.4539
 6023SOL    HW229703   3.522   1.272   7.327 -0.6335  0.4869 -0.2063
 6024SOL     OW29704   2.195   4.214   0.668  0.3495  0.5457  0.0452
 6024SOL    HW129705   2.242   4.270   0.606 -0.9637  0.6845 -0.8303
 6024SOL    HW229706   2.217   4.271   0.742  1.5235  0.7108 -0.4262
 6025SOL     OW29707   0.776   0.560  10.999 -0.0297  0.4827  0.3982
 6025SOL    HW129708   0.851   0.508  11.028 -0.6215 -0.9648 -0.6371
 6025SOL    HW229709   0.748   0.521  10.916  0.1210 -1.5647  1.3056
 6026SOL     OW29710   0.112   2.104   6.214  0.1863 -0.6684  0.2865
 6026SOL    HW129711   0.027   2.101   6.169  1.0425 -0.1052 -1.3683
 6026SOL    HW229712   0.075   2.122   6.300  0.6588  0.3598  0.2784
 6027SOL     OW29713   2.341   2.357   6.901  0.3318  0.0104  0.2466
 6027SOL    HW129714   2.369   2.414   6.829  2.8215 -2.1681 -0.4722
 6027SOL    HW229715   2.246   2.371   6.898  0.3836  0.2239 -0.4483
 6028SOL     OW29716   4.371   4.267   5.682  0.6279  0.0115 -0.1737
 6028SOL    HW129717   4.465   4.256   5.694  0.7016 -0.0297 -0.7661
 6028SOL    HW229718   4.346   4.183   5.720  1.5392  0.5701  1.6249
 6029SOL     OW29719   1.166   4.707  17.084 -0.6524 -0.4808 -0.3594
 6029SOL    HW129720   1.089   0.006  17.038 -1.1551 -0.5613  0.4216
 6029SOL    HW229721   1.178   0.019  17.165  0.5433 -0.7880 -0.3621
 6030SOL     OW29722   2.786   3.136  12.515  1.0594 -0.5089 -0.5240
 6030SOL    HW129723   2.861   3.168  12.565 -0.2094  0.0890  1.0175
 6030SOL    HW229724   2.722   3.208  12.514  0.9628 -0.5502  2.4017
 6031SOL     OW29725   0.644   0.540  10.301 -0.0787  0.0528  0.3216
 6031SOL    HW129726   0.621   0.618  10.250 -0.0970  0.1571  0.4905
 6031SOL    HW229727   0.613   0.474  10.238  1.7287 -0.3022 -0.1750
 6032SOL     OW29728   1.584   3.473  13.255  0.2746  0.6969 -0.6745
 6032SOL    HW129729   1.542   3.390  13.279  1.8176  0.5510  1.6117
 6032SOL    HW229730   1.566   3.519  13.337 -0.6331 -0.8820  0.0121
 6033SOL     OW29731   2.583   0.294   4.667 -0.1030 -0.1316  0.5638
 6033SOL    HW129732   2.555   0.222   4.609  2.2950 -0.5357 -0.0740
 6033SOL    HW229733   2.497   0.330   4.690  1.3354  3.0022  0.9752
 6034SOL     OW29734   0.213   1.186   0.087  0.0949 -0.4937 -0.6277
 6034SOL    HW129735   0.298   1.193   0.044  0.1523 -1.3766 -0.6486
 6034SOL    HW229736   0.232   1.177   0.181 -0.3269  0.4322 -0.4468
 6035SOL     OW29737   2.994   2.427  13.675 -0.1725  0.1676 -0.1687
 6035SOL    HW129738   3.083   2.452  13.649 -0.6194  0.4431 -1.4557
 6035SOL    HW229739   2.987   2.344  13.627 -1.2355 -0.2470  0.7245
 6036SOL     OW29740   2.689   3.692   6.675  0.1401 -0.2841  0.7092
 6036SOL    HW129741   2.778   3.725   6.662 -0.5540  0.6175 -1.5321
 6036SOL    HW229742   2.718   3.620   6.732  1.2802 -0.8090 -0.5449
 6037SOL     OW29743   2.760   1.519   6.042  0.3500 -0.0778  0.4918
 6037SOL    HW129744   2.850   1.550   6.034 -1.0615  3.7878 -0.2477
 6037SOL    HW229745   2.783   1.428   6.061  0.8742  0.5431  2.7846
 6038SOL     OW29746   2.123   1.178   6.400 -0.2789  0.6840  0.5021
 6038SOL    HW129747   2.174   1.123   6.459 -1.4216  0.9240  1.7167
 6038SOL    HW229748   2.131   1.134   6.316  0.2967 -1.0065  1.4442
 6039SOL     OW29749   3.515   1.872   0.453  0.3787 -0.3849  0.3200
 6039SOL    HW129750   3.489   1.796   0.506  0.7105  0.7118  2.0400
 6039SOL    HW229751   3.494   1.838   0.366 -0.9465  1.8254 -0.2194
 6040SOL     OW29752   0.025   4.387   7.373  0.3146 -0.3561  0.4145
 6040SOL    HW129753   0.088   4.316   7.359 -0.7729 -1.2212 -0.0589
 6040SOL    HW229754   4.712   4.381   7.292  1.9186 -1.5074 -0.4802
 6041SOL     OW29755   1.585   3.519   5.980  0.0980 -0.3290 -0.2873
 6041SOL    HW129756   1.600   3.554   6.068 -0.2061 -1.3110  0.1506
 6041SOL    HW229757   1.601   3.603   5.937 -0.6065 -0.0911 -0.0892
 6042SOL     OW29758   1.883   0.050   8.230 -0.1035 -0.6797 -0.5473
 6042SOL    HW129759   1.928   0.127   8.195 -0.0448 -0.5481 -0.1820
 6042SOL    HW229760   1.930   4.708   8.202  1.0917 -0.3259  0.4764
 6043SOL     OW29761   3.819   3.388   3.152  0.3631 -0.2372  0.1403
 6043SOL    HW129762   3.779   3.417   3.234 -3.7379 -0.8074 -1.6486
 6043SOL    HW229763   3.779   3.443   3.084  1.7087 -1.5104 -1.6694
 6044SOL     OW29764   0.107   2.157   1.524  0.6213 -0.1509 -0.8019
 6044SOL    HW129765   0.081   2.242   1.559  2.5752  0.0702  0.1087
 6044SOL    HW229766   0.025   2.108   1.530  1.5260 -1.2397  2.8162
 6045SOL     OW29767   1.264   1.739   9.107  0.0795  0.4975 -0.8630
 6045SOL    HW129768   1.354   1.763   9.082 -0.0953  1.0907 -0.9195
 6045SOL    HW229769   1.251   1.647   9.084  2.7020 -0.3267  0.9486
 6046SOL     OW29770   2.252   0.084  15.043 -0.1142 -0.8290 -0.0649
 6046SOL    HW129771   2.157   0.089  15.050 -0.1310 -0.2417 -0.7907
 6046SOL    HW229772   2.268   4.727  15.052  1.5769 -0.6439 -0.9369
 6047SOL     OW29773   3.267   4.672  12.207 -0.5068 -0.3731  0.6840
 6047SOL    HW129774   3.307   4.723  12.138 -2.0002  2.4809  1.9433
 6047SOL    HW229775   3.203   4.609  12.171  1.0273 -1.5914  0.0958
 6048SOL     OW29776   0.045   1.580  16.802 -0.1719 -0.6495  0.0697
 6048SOL    HW129777   0.096   1.581  16.883  0.7209 -1.0612 -0.4739
 6048SOL    HW229778   4.705   1.526  16.820 -0.5152  0.6530  2.4415
 6049SOL     OW29779   4.368   2.072   2.913  0.5884  0.1953 -0.4067
 6049SOL    HW129780   4.424   2.090   2.837  0.2762  0.5787 -0.5446
 6049SOL    HW229781   4.328   2.158   2.925  1.3375  1.2001 -5.1541
 6050SOL     OW29782   3.641   2.376   0.262 -0.4210  0.7301  0.3917
 6050SOL    HW129783   3.588   2.405   0.187  0.2016  2.8621  0.7919
 6050SOL    HW229784   3.599   2.293   0.284  0.3832  1.2512  3.8773
 6051SOL     OW29785   0.088   2.746   1.865  0.7297  0.1806  0.8174
 6051SOL    HW129786   0.036   2.682   1.914 -1.7192 -0.5639 -2.7185
 6051SOL    HW229787   0.035   2.826   1.861 -1.5980 -1.4628 -1.2905
 6052SOL     OW29788   2.972   2.088   7.397  0.0174  0.0347  0.1065
 6052SOL    HW129789   2.980   2.020   7.330  0.3882  0.7253 -0.5496
 6052SOL    HW229790   2.930   2.160   7.350 -0.6100 -0.0628  0.5157
 6053SOL     OW29791   1.056   1.282   3.929  0.3333 -0.3309  0.3357
 6053SOL    HW129792   1.151   1.282   3.918  0.2671 -1.9554 -0.1929
 6053SOL    HW229793   1.047   1.377   3.938  0.9114 -0.1553 -0.8898
 6054SOL     OW29794   3.760   0.365   1.479  0.1310 -0.0433  0.2591
 6054SOL    HW129795   3.814   0.325   1.411  0.2951  0.3663  0.1455
 6054SOL    HW229796   3.770   0.287   1.534 -0.0262  0.6331  1.2473
 6055SOL     OW29797   1.297   1.763   8.710 -0.4025 -0.2278  0.2181
 6055SOL    HW129798   1.222   1.822   8.721  2.4160  3.5819 -0.8255
 6055SOL    HW229799   1.316   1.730   8.798  1.6792  4.5227  1.5878
 6056SOL     OW29800   3.256   4.137  15.345  0.5249  0.1841  0.2382
 6056SOL    HW129801   3.232   4.061  15.293 -2.8672  1.7507 -0.4873
 6056SOL    HW229802   3.198   4.138  15.421  0.0709 -0.1884 -0.1068
 6057SOL     OW29803   0.915   0.808  13.990 -0.5945 -0.2325  0.5524
 6057SOL    HW129804   0.872   0.890  14.013 -1.0155  0.0915 -1.4142
 6057SOL    HW229805   0.928   0.768  14.076  2.3487 -1.1878 -0.3312
 6058SOL     OW29806   4.384   0.199   0.637  0.0757 -0.1291 -0.2932
 6058SOL    HW129807   4.403   0.292   0.635 -0.1147 -0.0613  1.1073
 6058SOL    HW229808   4.468   0.157   0.620  0.1174  0.1839 -0.8614
 6059SOL     OW29809   0.892   0.258  10.557 -0.4720  0.5210  0.5741
 6059SOL    HW129810   0.901   0.166  10.582  0.0591  0.2599 -0.6032
 6059SOL    HW229811   0.983   0.266  10.527 -0.5714  0.1374  0.1697
 6060SOL     OW29812   1.378   0.471   5.911  0.5185 -0.4318 -0.2305
 6060SOL    HW129813   1.317   0.397   5.916 -0.7752  0.7888  1.5590
 6060SOL    HW229814   1.325   0.515   5.845  0.8374 -0.6995 -0.6737
 6061SOL     OW29815   2.245   0.352  15.086  0.3904 -0.4601 -0.0792
 6061SOL    HW129816   2.274   0.260  15.086  1.8361 -0.0025  0.6222
 6061SOL    HW229817   2.320   0.383  15.036  1.9648  1.0105  3.2093
 6062SOL     OW29818   4.097   1.748   2.417  0.5088 -0.8193 -0.0473
 6062SOL    HW129819   4.010   1.720   2.387  0.3368  0.1312 -0.4362
 6062SOL    HW229820   4.160   1.709   2.357  0.1232  0.5110 -1.2876
 6063SOL     OW29821   2.393   1.099   1.170 -0.0528 -0.4211  0.2017
 6063SOL    HW129822   2.391   1.007   1.141  1.5384 -0.6818  0.8954
 6063SOL    HW229823   2.375   1.146   1.089 -0.6274 -1.1802 -0.1086
 6064SOL     OW29824   2.754   4.521   8.266 -0.5571 -0.6242 -0.1020
 6064SOL    HW129825   2.824   4.567   8.220  1.2979 -3.0016  0.3322
 6064SOL    HW229826   2.797   4.505   8.350 -1.1363  0.5605  0.4173
 6065SOL     OW29827   1.225   3.228   8.564 -0.1516 -0.4042 -0.4340
 6065SOL    HW129828   1.197   3.316   8.538 -1.6104 -0.8916 -0.5180
 6065SOL    HW229829   1.299   3.245   8.623 -0.6125  1.5847 -0.4238
 6066SOL     OW29830   0.989   0.810   7.573 -0.3848  0.2281 -0.2008
 6066SOL    HW129831   1.054   0.832   7.640 -1.0979  0.3465  0.4493
 6066SOL    HW229832   0.903   0.838   7.603 -0.1372 -0.4269  1.0915
 6067SOL     OW29833   2.730   2.566   0.273  0.3428  0.6284  0.4649
 6067SOL    HW129834   2.704   2.482   0.310  0.8530 -0.0783 -0.7720
 6067SOL    HW229835   2.822   2.569   0.298  0.3715  0.9269  0.3248
 6068SOL     OW29836   3.547   3.526  14.939  0.1335  0.1129  0.3486
 6068SOL    HW129837   3.509   3.503  14.853  0.4667  1.2716 -0.1026
 6068SOL    HW229838   3.634   3.555  14.913 -0.2336  0.5990 -0.3303
 6069SOL     OW29839   0.135   3.607   3.511 -0.3346  0.0253  0.3195
 6069SOL    HW129840   0.118   3.521   3.473 -0.0635 -0.6579  1.7504
 6069SOL    HW229841   0.167   3.576   3.596 -2.3768 -1.6508  0.4749
 6070SOL     OW29842   0.268   4.037  13.769  0.6362 -0.1395  0.1391
 6070SOL    HW129843   0.339   4.102  13.774 -1.0002  1.5581  1.4353
 6070SOL    HW229844   0.206   4.092  13.721  0.0997 -1.5826 -0.7833
 6071SOL     OW29845   4.122   0.350  16.206  0.6248  0.5140  0.3304
 6071SOL    HW129846   4.165   0.299  16.138  1.6309  0.8970  0.6678
 6071SOL    HW229847   4.195   0.332  16.266  0.5911  2.2453  0.9027
 6072SOL     OW29848   4.601   2.219   2.251  0.0148 -0.0813 -0.1734
 6072SOL    HW129849   4.584   2.239   2.344 -0.0785  1.4378 -0.5113
 6072SOL    HW229850   4.537   2.149   2.243 -2.7071  2.2059  1.2514
 6073SOL     OW29851   1.503   3.442  11.480 -0.1895 -0.2687 -0.2033
 6073SOL    HW129852   1.509   3.528  11.438  1.0373 -0.3364 -0.1692
 6073SOL    HW229853   1.426   3.401  11.441  1.1628 -1.6185 -1.4622
 6074SOL     OW29854   4.028   1.061   2.857  0.6394  0.6112 -0.2534
 6074SOL    HW129855   4.030   0.965   2.865 -0.3088  0.4755 -1.7225
 6074SOL    HW229856   4.055   1.070   2.766 -0.1450 -1.4832 -0.6991
 6075SOL     OW29857   4.186   2.720   2.951  0.1707  0.3026  0.3155
 6075SOL    HW129858   4.174   2.709   3.045 -0.3897 -2.1223 -0.0478
 6075SOL    HW229859   4.262   2.664   2.936  1.5654  1.4995  2.8337
 6076SOL     OW29860   1.411   4.444   3.620 -0.5701  0.0728 -0.0724
 6076SOL    HW129861   1.440   4.533   3.639 -1.5497  0.0602  1.5111
 6076SOL    HW229862   1.415   4.407   3.708 -1.2730  0.9948  0.3496
 6077SOL     OW29863   3.902   2.640   8.727  0.0139 -0.1620  0.6865
 6077SOL    HW129864   3.938   2.584   8.659  0.2176 -0.3250  0.9274
 6077SOL    HW229865   3.973   2.690   8.769 -0.4368  0.7717  0.3481
 6078SOL     OW29866   0.415   1.365   8.045  0.1988  0.4405 -0.3934
 6078SOL    HW129867   0.503   1.338   8.019  0.7191 -0.5047  2.3300
 6078SOL    HW229868   0.432   1.362   8.139 -1.1668 -1.8194 -0.2174
 6079SOL     OW29869   0.635   4.519   6.047  0.2262 -0.2313  0.1345
 6079SOL    HW129870   0.680   4.600   6.022  0.6313  0.5716  3.3701
 6079SOL    HW229871   0.556   4.521   5.994  1.3812  0.5513 -1.5543
 6080SOL     OW29872   2.309   1.977   3.125  0.0564 -0.1059  0.1936
 6080SOL    HW129873   2.239   1.912   3.119 -1.9449  1.9865  0.7278
 6080SOL    HW229874   2.262   2.060   3.130  0.1252 -0.0421 -0.1725
 6081SOL     OW29875   0.336   4.011   5.241 -0.4047  0.1380 -0.1792
 6081SOL    HW129876   0.426   4.019   5.273  0.5610 -2.2552 -2.3197
 6081SOL    HW229877   0.292   4.011   5.327 -1.1523  0.4043 -0.5680
 6082SOL     OW29878   3.061   2.245  15.025  0.2392 -0.4008  0.0938
 6082SOL    HW129879   3.059   2.189  14.947 -0.8924 -1.6336  0.9977
 6082SOL    HW229880   3.021   2.182  15.085  0.1432 -0.3528  0.0795
 6083SOL     OW29881   1.925   1.956   7.737 -0.6181  0.3487 -0.9768
 6083SOL    HW129882   1.973   1.906   7.670  0.3071  2.9901 -2.2617
 6083SOL    HW229883   1.907   1.891   7.805  0.0117  1.0524 -0.1465
 6084SOL     OW29884   1.813   4.676   2.622  0.2645 -1.0814 -0.0613
 6084SOL    HW129885   1.728   4.654   2.584  0.5441 -0.4469 -1.0584
 6084SOL    HW229886   1.816   0.031   2.595 -0.9544 -1.3946 -1.2746
 6085SOL     OW29887   2.528   0.684   9.327 -0.0515  0.5831 -0.3191
 6085SOL    HW129888   2.624   0.686   9.323  0.0620  0.3574  2.1428
 6085SOL    HW229889   2.516   0.749   9.396  2.0649  0.3671  0.2778
 6086SOL     OW29890   1.488   2.550  12.449  0.0515  0.0404 -0.3035
 6086SOL    HW129891   1.578   2.525  12.467  0.4300  0.8130 -1.2122
 6086SOL    HW229892   1.432   2.479  12.482  2.3486 -1.5150  0.2261
 6087SOL     OW29893   3.993   0.214   9.465  0.2696 -1.0352 -0.2757
 6087SOL    HW129894   3.913   0.202   9.414  0.5073 -0.2184 -0.8330
 6087SOL    HW229895   3.951   0.208   9.551 -0.0588  1.5049 -0.2710
 6088SOL     OW29896   0.275   0.577   4.771 -0.1963 -0.1918  0.1689
 6088SOL    HW129897   0.313   0.594   4.685  0.7397  1.0258  0.8257
 6088SOL    HW229898   0.353   0.541   4.814  0.9512  2.7537  0.5541
 6089SOL     OW29899   4.725   3.192   6.488 -0.0845  1.3047 -0.0318
 6089SOL    HW129900   0.069   3.148   6.512 -0.8877  0.0112  0.3158
 6089SOL    HW229901   4.708   3.233   6.573  0.9457  1.2795  0.1800
 6090SOL     OW29902   2.853   2.760  14.475  0.8666 -0.0807 -0.0820
 6090SOL    HW129903   2.762   2.762  14.445  1.0730  0.0714 -0.6920
 6090SOL    HW229904   2.855   2.733  14.567 -1.6783 -1.2434 -0.3567
 6091SOL     OW29905   1.414   3.329  10.272  0.0930  0.5105 -0.0282
 6091SOL    HW129906   1.329   3.286  10.274 -0.7658  2.2391  0.3719
 6091SOL    HW229907   1.482   3.265  10.293  1.1760  1.9451  0.8903
 6092SOL     OW29908   2.492   3.977  11.754  0.3740  0.2619 -0.3937
 6092SOL    HW129909   2.517   3.913  11.821 -1.4817  2.1468  2.0478
 6092SOL    HW229910   2.406   3.939  11.737  0.4973 -0.4806  0.6060
 6093SOL     OW29911   1.143   0.979   7.382  0.0474 -0.5927  0.1060
 6093SOL    HW129912   1.085   0.947   7.450  1.4353 -0.7165  1.2227
 6093SOL    HW229913   1.100   0.962   7.298  0.9985 -1.8373 -0.1227
 6094SOL     OW29914   0.861   4.608   6.900 -1.3516 -0.5808  0.3456
 6094SOL    HW129915   0.873   4.628   6.993 -1.3943  0.3262  0.1581
 6094SOL    HW229916   0.773   4.643   6.887 -1.3135 -0.6710 -0.1325
 6095SOL     OW29917   0.605   1.730   8.898 -0.3486  0.4719 -0.7918
 6095SOL    HW129918   0.626   1.637   8.888 -0.4189  0.2613  1.1364
 6095SOL    HW229919   0.509   1.737   8.894 -0.3691  0.7300  0.2216
 6096SOL     OW29920   0.554   2.511  14.020  0.0999  0.2174 -0.2868
 6096SOL    HW129921   0.646   2.514  14.046  1.3825  1.4187 -4.9923
 6096SOL    HW229922   0.541   2.594  13.975  0.8811  0.5124  0.0236
 6097SOL     OW29923   3.614   4.336   8.257 -0.0783  0.5663  0.1720
 6097SOL    HW129924   3.552   4.364   8.325  0.7390  0.9512  0.7551
 6097SOL    HW229925   3.559   4.342   8.180 -1.4512 -0.3652  1.0733
 6098SOL     OW29926   1.649   3.307   8.991 -0.4029 -0.3056  0.2345
 6098SOL    HW129927   1.704   3.264   8.926 -0.5652 -0.4025  0.1636
 6098SOL    HW229928   1.654   3.399   8.965 -2.2573 -0.7409 -1.6212
 6099SOL     OW29929   3.323   2.552   6.576  0.2411 -0.3888 -0.0779
 6099SOL    HW129930   3.271   2.540   6.496 -0.7123  2.0377  0.1974
 6099SOL    HW229931   3.291   2.473   6.620 -0.2840 -0.2066 -0.1330
 6100SOL     OW29932   2.994   0.961   1.100  0.4679  0.1867 -0.1584
 6100SOL    HW129933   2.953   1.046   1.111  0.0493  0.0537 -0.6526
 6100SOL    HW229934   3.080   0.969   1.058  0.7213  1.1059  0.5553
 6101SOL     OW29935   4.526   4.161   5.101 -0.0478  0.6378  1.0429
 6101SOL    HW129936   4.539   4.256   5.106 -0.5661  0.9690 -3.0848
 6101SOL    HW229937   4.533   4.151   5.006 -0.8306  3.8439  0.6458
 6102SOL     OW29938   2.611   0.945  11.033 -0.1135 -0.7901 -0.1801
 6102SOL    HW129939   2.690   0.996  11.011 -0.6157 -0.6322 -1.6510
 6102SOL    HW229940   2.651   0.897  11.105 -1.1148 -1.0946  0.1681
 6103SOL     OW29941   2.737   3.836   4.968 -0.2396  0.2500  0.5922
 6103SOL    HW129942   2.761   3.831   4.876 -1.9043  0.5710  0.1556
 6103SOL    HW229943   2.727   3.931   4.974 -1.4642  0.2287 -1.2742
 6104SOL     OW29944   1.637   3.310   9.914 -0.7677 -0.2860  0.1315
 6104SOL    HW129945   1.708   3.373   9.928 -1.5378  0.5625  0.2113
 6104SOL    HW229946   1.589   3.350   9.841  1.1610  1.2570 -0.2882
 6105SOL     OW29947   2.378   2.091   9.820  0.0319  0.2648 -0.0458
 6105SOL    HW129948   2.302   2.052   9.862  0.4166 -1.2156 -0.7219
 6105SOL    HW229949   2.347   2.178   9.797  0.0511  0.6520  1.4068
 6106SOL     OW29950   1.362   0.373   0.317  0.1308  0.1756  0.7543
 6106SOL    HW129951   1.406   0.454   0.290 -0.6337  0.1879 -0.4564
 6106SOL    HW229952   1.436   0.325   0.355 -0.5510  0.3670  2.3317
 6107SOL     OW29953   0.756   1.533  16.488  0.0068  0.2771 -0.2833
 6107SOL    HW129954   0.776   1.456  16.434  0.3820  0.1421  0.0433
 6107SOL    HW229955   0.701   1.501  16.559 -0.0237  1.4847  0.2424
 6108SOL     OW29956   0.856   0.362  14.239  0.2262  0.6114  0.1333
 6108SOL    HW129957   0.900   0.333  14.319  1.0923  2.3857  0.2993
 6108SOL    HW229958   0.934   0.356  14.182  0.0693  1.1132 -0.1320
 6109SOL     OW29959   4.304   1.389   6.088  0.1348  0.1596 -0.2634
 6109SOL    HW129960   4.269   1.333   6.157  0.4917 -0.5166 -0.6267
 6109SOL    HW229961   4.229   1.448   6.082 -0.6260 -0.5071  2.8239
 6110SOL     OW29962   0.130   0.750   6.569  0.4081  0.2900  0.0685
 6110SOL    HW129963   0.191   0.680   6.546 -0.1831 -0.0663 -0.4260
 6110SOL    HW229964   0.188   0.803   6.623  1.3713  0.9850 -1.6570
 6111SOL     OW29965   0.025   1.299   8.043 -0.5638  0.3385 -0.2680
 6111SOL    HW129966   4.733   1.377   8.091 -1.2202  0.4029 -0.7660
 6111SOL    HW229967   0.084   1.263   8.109 -0.1645 -1.5522 -1.6620
 6112SOL     OW29968   3.813   4.579   4.769  0.1323 -0.3870  0.0211
 6112SOL    HW129969   3.869   4.655   4.784 -1.6881  0.7438  1.0219
 6112SOL    HW229970   3.734   4.625   4.740 -0.4457 -0.2958  1.7474
 6113SOL     OW29971   3.748   2.371   4.283 -0.0511 -0.1504  0.3095
 6113SOL    HW129972   3.662   2.336   4.307 -0.4726 -0.1850 -1.2779
 6113SOL    HW229973   3.803   2.327   4.348  0.6068 -0.2023 -0.2890
 6114SOL     OW29974   3.310   4.616   6.775 -0.0937  0.8368  0.1208
 6114SOL    HW129975   3.305   4.568   6.693 -1.5676  1.0318  0.1049
 6114SOL    HW229976   3.222   4.615   6.812  0.4362  0.7062  1.4106
 6115SOL     OW29977   3.023   4.215   1.908  0.0220 -0.1752  0.5490
 6115SOL    HW129978   2.931   4.211   1.931 -0.2860 -1.1427 -0.8560
 6115SOL    HW229979   3.056   4.263   1.984 -0.4620  0.8192  0.1240
 6116SOL     OW29980   4.687   0.570  13.032 -0.1849 -0.0682  0.2883
 6116SOL    HW129981   4.687   0.665  13.044 -0.5863 -0.1469  0.8505
 6116SOL    HW229982   0.043   0.547  13.027  0.4001  2.2420  0.5067
 6117SOL     OW29983   3.328   2.671   6.159  0.3084 -0.2075  0.0307
 6117SOL    HW129984   3.309   2.609   6.230 -0.8010  0.1427  0.0343
 6117SOL    HW229985   3.381   2.622   6.096 -0.0671 -0.5085 -0.0528
 6118SOL     OW29986   1.992   2.769   5.011 -0.1978  0.0697 -0.1761
 6118SOL    HW129987   1.982   2.689   5.062 -0.2759  0.7219  0.8235
 6118SOL    HW229988   1.920   2.813   5.056  1.7604  0.3229  2.7556
 6119SOL     OW29989   3.083   2.802   4.867  0.0633 -0.0975  0.0973
 6119SOL    HW129990   2.993   2.832   4.854  0.5129  1.0044 -0.4663
 6119SOL    HW229991   3.133   2.884   4.862 -2.4278  1.4766  0.9496
 6120SOL     OW29992   0.678   1.576   4.627  0.1949  0.0218  0.1636
 6120SOL    HW129993   0.690   1.669   4.609 -4.6154  0.2671 -1.5407
 6120SOL    HW229994   0.717   1.532   4.552  1.9801 -0.7471  1.5283
 6121SOL     OW29995   3.025   3.172   1.149  0.0775  0.0869  0.2540
 6121SOL    HW129996   2.937   3.189   1.115 -0.6080 -1.7017  1.1510
 6121SOL    HW229997   3.080   3.170   1.071 -0.5720 -1.8758 -0.1513
 6122SOL     OW29998   2.092   4.030   5.692 -0.0223  0.2420 -0.3263
 6122SOL    HW129999   2.115   4.120   5.718  0.9972  0.6875 -2.7085
 6122SOL    HW230000   2.178   3.991   5.679 -0.2178 -0.7326  1.3982
 6123SOL     OW30001   3.995   3.483  14.584 -0.7185  0.5366 -0.5746
 6123SOL    HW130002   3.900   3.484  14.577 -0.8393  0.7472  1.1652
 6123SOL    HW230003   4.005   3.445  14.671  0.6579  0.6555 -0.6739
 6124SOL     OW30004   0.012   0.072   4.728  0.6790  0.2764 -0.1629
 6124SOL    HW130005   0.082   0.073   4.663 -0.1290  0.4294 -1.0268
 6124SOL    HW230006   0.019   0.164   4.754 -0.2665  0.7068 -1.4041
 6125SOL     OW30007   2.895   1.168   0.284  0.0390 -0.1276 -0.1686
 6125SOL    HW130008   2.977   1.139   0.244 -0.2152 -1.6310  0.3881
 6125SOL    HW230009   2.856   1.084   0.308 -0.7303  0.7514  1.6368
 6126SOL     OW30010   4.126   3.157  11.108  0.1671  0.1859 -0.4669
 6126SOL    HW130011   4.130   3.248  11.137 -3.1075  0.9613 -2.4046
 6126SOL    HW230012   4.133   3.114  11.193  1.4539 -0.1468 -0.7397
 6127SOL     OW30013   3.443   0.351   6.197  0.1217  0.0235  0.4169
 6127SOL    HW130014   3.434   0.403   6.117 -1.0725 -0.3290  0.3312
 6127SOL    HW230015   3.360   0.367   6.241 -0.5556 -1.6058 -0.3074
 6128SOL     OW30016   1.922   0.406   9.029  0.3354 -0.1724  0.0007
 6128SOL    HW130017   1.981   0.459   8.975 -1.1864  1.0218 -0.5123
 6128SOL    HW230018   1.970   0.323   9.034  1.7403  0.7079  0.7646
 6129SOL     OW30019   3.166   1.267   4.556 -0.5604  0.1024  0.2308
 6129SOL    HW130020   3.196   1.274   4.647  2.6137 -0.0040 -0.8205
 6129SOL    HW230021   3.245   1.233   4.515 -0.9245  1.0090 -1.2335
 6130SOL     OW30022   4.213   3.413   3.199 -0.4092  0.2170  0.3313
 6130SOL    HW130023   4.259   3.332   3.216 -0.5858  0.2379  0.8881
 6130SOL    HW230024   4.144   3.372   3.146 -0.8847  1.2303  0.1561
 6131SOL     OW30025   3.547   0.939   7.214  0.2174 -0.0947  0.2061
 6131SOL    HW130026   3.532   1.030   7.242  1.2550  0.2585 -0.3569
 6131SOL    HW230027   3.514   0.937   7.124  0.1172  0.5070  0.2293
 6132SOL     OW30028   1.579   1.528   2.529 -0.3537  0.0358  0.1080
 6132SOL    HW130029   1.556   1.599   2.589  1.9521  0.4454  0.4875
 6132SOL    HW230030   1.523   1.458   2.564 -2.2175  1.3794 -0.1459
 6133SOL     OW30031   0.337   3.992  11.962 -0.3504  0.4199  0.1379
 6133SOL    HW130032   0.247   3.988  11.997 -0.9204 -0.5311 -1.4286
 6133SOL    HW230033   0.364   3.911  12.006 -1.4539 -0.2147 -0.3339
 6134SOL     OW30034   2.173   2.278   2.215 -0.6691  0.5130 -0.2496
 6134SOL    HW130035   2.253   2.243   2.176 -3.4826 -1.4750 -4.3621
 6134SOL    HW230036   2.209   2.366   2.215  0.6778 -0.0494  0.4947
 6135SOL     OW30037   2.151   0.037   1.449 -0.0600  0.9339  0.0739
 6135SOL    HW130038   2.197   4.691   1.435 -0.4587  0.4268  1.7373
 6135SOL    HW230039   2.231   0.086   1.468  0.4779  0.0124  0.1854
 6136SOL     OW30040   0.755   3.014   7.712  0.6673 -0.5659 -0.6954
 6136SOL    HW130041   0.849   3.008   7.726  1.1465  3.6653 -2.0422
 6136SOL    HW230042   0.727   3.045   7.799  1.6682  0.1693 -0.6400
 6137SOL     OW30043   1.058   0.942  14.581 -0.0097  0.0776 -0.1813
 6137SOL    HW130044   1.024   0.886  14.511  2.4247 -0.0223 -1.3063
 6137SOL    HW230045   1.123   0.986  14.527  1.3446  0.0741  1.4504
 6138SOL     OW30046   1.069   3.682   2.603 -0.4079 -0.7093 -0.0652
 6138SOL    HW130047   0.996   3.741   2.621 -0.1349 -1.1741  2.4982
 6138SOL    HW230048   1.027   3.623   2.540  1.1091 -2.6815  0.7856
 6139SOL     OW30049   1.491   4.477   2.307  0.4891 -0.6287 -0.3717
 6139SOL    HW130050   1.484   4.536   2.233 -0.7005 -0.4193 -0.0936
 6139SOL    HW230051   1.426   4.516   2.366 -0.5255 -0.3605 -1.6653
 6140SOL     OW30052   3.383   4.398  13.897 -0.1910  0.4136 -0.0785
 6140SOL    HW130053   3.449   4.346  13.850  0.0091  1.9911 -1.5312
 6140SOL    HW230054   3.321   4.331  13.925 -0.8612  1.6097  1.2914
 6141SOL     OW30055   1.499   3.499  12.698 -0.7807 -0.2973  0.0626
 6141SOL    HW130056   1.489   3.581  12.649  3.4081  0.3676  0.3320
 6141SOL    HW230057   1.525   3.529  12.785 -1.3400  1.4685 -0.3623
 6142SOL     OW30058   1.294   0.564   8.834 -0.9127  0.1703  0.1823
 6142SOL    HW130059   1.236   0.493   8.859  1.0931 -0.7806  2.0408
 6142SOL    HW230060   1.366   0.528   8.782 -0.7339 -2.3726  2.1861
 6143SOL     OW30061   2.184   3.302   6.865  0.7370 -0.2345 -0.3234
 6143SOL    HW130062   2.175   3.398   6.867 -1.7220 -0.4484 -0.9524
 6143SOL    HW230063   2.262   3.292   6.919  0.7609 -0.6833 -0.4489
 6144SOL     OW30064   0.609   1.563   9.567 -0.5082 -0.4624 -0.0461
 6144SOL    HW130065   0.690   1.555   9.617 -0.9772  2.1655  1.0936
 6144SOL    HW230066   0.592   1.471   9.547 -1.2087 -0.7377  1.8949
 6145SOL     OW30067   3.393   2.771   3.961 -0.2981 -0.0287  0.4440
 6145SOL    HW130068   3.467   2.804   4.012  0.6082 -1.2240 -0.1160
 6145SOL    HW230069   3.385   2.845   3.901  0.0478 -0.2876  0.0753
 6146SOL     OW30070   4.206   4.094   4.463 -0.6167  0.4887  0.1723
 6146SOL    HW130071   4.218   4.169   4.404 -0.6369  0.3998  0.0562
 6146SOL    HW230072   4.188   4.017   4.410  0.5316  0.0723  0.3871
 6147SOL     OW30073   2.415   2.988   4.242  0.4598 -0.2056  0.6183
 6147SOL    HW130074   2.483   3.022   4.183 -0.7849 -0.3930 -0.9306
 6147SOL    HW230075   2.462   3.002   4.324  0.0503 -1.4190  1.0506
 6148SOL     OW30076   1.064   0.125   6.256  0.4020  0.3424 -0.4929
 6148SOL    HW130077   1.030   0.160   6.339 -1.1188  0.4882 -1.1744
 6148SOL    HW230078   0.992   0.063   6.247  0.5995  0.2684 -1.5122
 6149SOL     OW30079   0.698   1.959   5.670  0.4770  0.4674 -0.5259
 6149SOL    HW130080   0.647   1.993   5.745  4.6404 -0.2253  2.6179
 6149SOL    HW230081   0.640   1.984   5.598  0.0928  0.9857 -0.0495
 6150SOL     OW30082   1.557   1.022   6.192  0.2472  0.0749  0.0598
 6150SOL    HW130083   1.487   1.049   6.252  1.2640 -0.4750  1.4958
 6150SOL    HW230084   1.518   0.958   6.132  1.4832 -0.3503 -0.2896
 6151SOL     OW30085   4.619   4.354   9.842  0.3223  0.2703 -0.2569
 6151SOL    HW130086   4.528   4.383   9.837  0.0944 -0.8878 -2.8174
 6151SOL    HW230087   4.617   4.259   9.850  4.0010  0.2363  0.5069
 6152SOL     OW30088   3.928   2.073   0.205  0.6505 -0.1167  0.5937
 6152SOL    HW130089   3.921   2.152   0.151 -1.0885 -0.1092  0.8418
 6152SOL    HW230090   3.936   2.000   0.144  2.0104 -0.4559  1.1698
 6153SOL     OW30091   0.498   0.837   9.103  0.1175 -0.4463  0.9329
 6153SOL    HW130092   0.556   0.845   9.028 -0.9710 -0.4875  0.0792
 6153SOL    HW230093   0.497   0.927   9.135  1.0752 -0.4299  0.9149
 6154SOL     OW30094   3.558   3.181   1.022  0.5440 -0.5986 -0.1011
 6154SOL    HW130095   3.547   3.122   0.948 -3.7203  1.4575 -1.1194
 6154SOL    HW230096   3.644   3.151   1.051  0.8374  0.8930  0.5919
 6155SOL     OW30097   4.677   2.713   2.544  0.3788 -0.3905  0.3498
 6155SOL    HW130098   4.700   2.801   2.576  0.3414 -0.8090  1.5472
 6155SOL    HW230099   0.029   2.680   2.532  0.4989  0.3238 -0.7341
 6156SOL     OW30100   3.385   1.027   4.079  0.0968 -0.3713 -0.0135
 6156SOL    HW130101   3.320   0.964   4.047  0.6460 -0.0607 -1.7611
 6156SOL    HW230102   3.454   1.004   4.017  1.4546  1.9442  0.6794
 6157SOL     OW30103   3.456   2.159   6.526 -0.1321 -0.1162 -0.1383
 6157SOL    HW130104   3.436   2.237   6.578  0.3418 -0.2797  0.2877
 6157SOL    HW230105   3.509   2.108   6.587 -1.5820 -1.2934  0.1224
 6158SOL     OW30106   3.822   3.371   6.136  0.1213  0.6468 -0.3420
 6158SOL    HW130107   3.907   3.415   6.143  1.0518 -0.7184 -2.9415
 6158SOL    HW230108   3.834   3.320   6.056 -2.1271 -2.1432  1.1151
 6159SOL     OW30109   3.817   0.958   7.523  1.0733  0.5108  0.7514
 6159SOL    HW130110   3.899   0.913   7.545  0.0714 -0.5983  2.2008
 6159SOL    HW230111   3.816   0.955   7.428 -1.2705  1.2924  0.7574
 6160SOL     OW30112   3.319   0.731   8.045 -0.3916  0.0486 -0.5862
 6160SOL    HW130113   3.303   0.740   8.139  1.3266  1.1432 -0.3880
 6160SOL    HW230114   3.341   0.823   8.029 -0.0838 -0.4549 -3.0032
 6161SOL     OW30115   0.080   2.986  12.594 -0.0273 -0.0598  0.4664
 6161SOL    HW130116   0.000   2.958  12.639  1.3914 -1.1468  2.2905
 6161SOL    HW230117   0.116   3.011  12.678  1.4370  0.1078 -0.2184
 6162SOL     OW30118   3.363   4.557  12.625  0.0886 -0.0828  0.3921
 6162SOL    HW130119   3.396   4.469  12.640  2.1324  0.3706 -1.3562
 6162SOL    HW230120   3.294   4.570  12.690  0.9886 -0.0404  1.3294
 6163SOL     OW30121   0.864   2.335   9.162 -0.2082  0.1458  0.0255
 6163SOL    HW130122   0.923   2.279   9.212 -0.0022  0.0049 -0.3778
 6163SOL    HW230123   0.844   2.290   9.081  1.4957 -1.5579  0.5560
 6164SOL     OW30124   1.596   2.061   6.239 -0.1235 -0.0812 -0.1508
 6164SOL    HW130125   1.604   2.049   6.334  1.4933 -1.3530 -0.4352
 6164SOL    HW230126   1.506   2.030   6.233 -0.5759  1.4545 -1.0223
 6165SOL     OW30127   1.465   0.763   9.337 -0.1417 -0.0915  0.6399
 6165SOL    HW130128   1.436   0.721   9.256 -1.5450  0.3668  0.9109
 6165SOL    HW230129   1.391   0.795   9.388  2.1468 -0.0947  3.9665
 6166SOL     OW30130   3.823   1.454   4.616 -0.1312 -0.3515  0.2365
 6166SOL    HW130131   3.778   1.468   4.699 -0.7479  1.0282 -0.3187
 6166SOL    HW230132   3.906   1.413   4.639 -0.1567  0.4662  1.7737
 6167SOL     OW30133   0.224   4.295   6.866  0.0010  0.4297 -0.2264
 6167SOL    HW130134   0.194   4.205   6.876  2.6793 -0.0202  3.6571
 6167SOL    HW230135   0.202   4.301   6.773 -0.6127  1.1428 -0.0393
 6168SOL     OW30136   0.364   2.168   7.675 -0.4510 -0.1652  0.4619
 6168SOL    HW130137   0.294   2.227   7.703  0.3148  1.2465 -0.5803
 6168SOL    HW230138   0.423   2.175   7.750 -0.0131 -2.3687  0.3336
 6169SOL     OW30139   4.566   3.398   5.612 -0.2178  0.0936 -0.7712
 6169SOL    HW130140   4.596   3.475   5.659 -0.4411  0.8954 -1.9589
 6169SOL    HW230141   4.471   3.405   5.621 -0.4813 -2.1215 -1.8028
 6170SOL     OW30142   4.512   2.605   5.849  0.1294 -0.4361  0.5162
 6170SOL    HW130143   4.504   2.631   5.758 -1.4590  0.8887  1.0377
 6170SOL    HW230144   4.538   2.689   5.888  0.1002  0.4481 -1.3945
 6171SOL     OW30145   3.660   1.395   8.938  0.6817  0.2195  0.1419
 6171SOL    HW130146   3.725   1.455   8.902 -0.3171 -0.3992 -2.7062
 6171SOL    HW230147   3.600   1.448   8.990  0.2671  2.6250 -2.7884
 6172SOL     OW30148   3.219   2.469   6.319 -0.1429  0.2552 -0.5658
 6172SOL    HW130149   3.182   2.399   6.372  0.1120 -0.7618 -1.7249
 6172SOL    HW230150   3.137   2.507   6.286  0.2389  0.0296 -1.7939
 6173SOL     OW30151   3.194   0.504   3.764 -0.0155 -0.0549 -0.1000
 6173SOL    HW130152   3.131   0.576   3.760  2.5187  2.2030  1.2061
 6173SOL    HW230153   3.129   0.439   3.793 -0.8533  0.5865 -0.5250
 6174SOL     OW30154   1.659   0.954  16.562  0.3380  0.5283  0.8512
 6174SOL    HW130155   1.583   0.976  16.615 -0.4963 -0.0795 -0.0861
 6174SOL    HW230156   1.619   0.971  16.477  0.2833 -1.2717  0.5093
 6175SOL     OW30157   1.494   2.392   1.686  0.2802  0.0580 -0.2984
 6175SOL    HW130158   1.517   2.398   1.779  1.1391 -0.5714 -0.4736
 6175SOL    HW230159   1.475   2.298   1.686 -0.6499  0.2480 -1.9414
 6176SOL     OW30160   4.317   2.237   6.078  0.0936  0.2277  0.0799
 6176SOL    HW130161   4.289   2.295   6.149 -0.9352  0.4488 -0.4971
 6176SOL    HW230162   4.355   2.303   6.020  0.2184  0.0567 -0.0306
 6177SOL     OW30163   3.279   0.423   6.439  0.2359  0.1039  0.2260
 6177SOL    HW130164   3.317   0.355   6.495 -0.3111 -0.4523 -0.0831
 6177SOL    HW230165   3.189   0.436   6.470  0.1151 -1.6170  0.6044
 6178SOL     OW30166   0.827   1.704   5.487 -0.0318  0.4269  0.6391
 6178SOL    HW130167   0.768   1.660   5.426  0.7047  2.1064 -1.3013
 6178SOL    HW230168   0.795   1.794   5.480  1.4952  1.0931  1.9138
 6179SOL     OW30169   0.961   2.549   8.901 -0.3117 -0.0069  0.3140
 6179SOL    HW130170   0.898   2.491   8.859  0.3402  0.2561 -1.0401
 6179SOL    HW230171   0.916   2.570   8.983 -0.3578 -0.7581  0.4757
 6180SOL     OW30172   2.682   0.973   4.286 -0.5280  0.1295 -0.0051
 6180SOL    HW130173   2.762   0.935   4.322 -1.2062  0.0917  1.4682
 6180SOL    HW230174   2.623   0.898   4.277  0.6156 -0.7938  0.1963
 6181SOL     OW30175   0.941   0.843   9.584  0.3487 -0.9232 -0.5834
 6181SOL    HW130176   1.028   0.827   9.618  0.9716 -1.1661 -2.2846
 6181SOL    HW230177   0.890   0.853   9.664 -0.0075 -0.4304 -0.8679
 6182SOL     OW30178   1.998   1.133   2.848  0.3689  0.2759  0.2814
 6182SOL    HW130179   1.987   1.042   2.876 -1.8812  0.3408 -0.3810
 6182SOL    HW230180   2.090   1.135   2.823  0.5852 -0.2113  1.0436
 6183SOL     OW30181   4.116   2.815   7.569  0.2177 -0.0453  0.4760
 6183SOL    HW130182   4.087   2.800   7.479 -1.4628 -0.4769  1.0878
 6183SOL    HW230183   4.035   2.851   7.606  0.2909  0.8795 -0.2445
 6184SOL     OW30184   0.388   2.073   4.787 -0.4688 -0.4046 -0.1475
 6184SOL    HW130185   0.296   2.091   4.807 -0.7110 -0.0321 -1.5726
 6184SOL    HW230186   0.425   2.161   4.780  0.5351 -0.8932 -1.0548
 6185SOL     OW30187   1.586   1.789   6.569  0.0632  0.0816  0.2765
 6185SOL    HW130188   1.643   1.715   6.589 -0.6836 -0.3546  0.7801
 6185SOL    HW230189   1.540   1.812   6.650 -1.9777 -1.2515 -0.5026
 6186SOL     OW30190   1.313   2.073   8.003  0.1767  0.5443  0.0431
 6186SOL    HW130191   1.379   2.092   8.070  1.4654  1.8351 -1.5941
 6186SOL    HW230192   1.366   2.107   7.930  0.9545  1.2829  0.9538
 6187SOL     OW30193   1.212   3.154  13.943  0.1348  0.7176 -0.5737
 6187SOL    HW130194   1.220   3.163  13.848  0.0140 -1.4879 -0.8096
 6187SOL    HW230195   1.249   3.237  13.971 -0.6817  0.7463  0.4184
 6188SOL     OW30196   1.936   3.701   9.832 -0.1312 -0.1577 -0.3676
 6188SOL    HW130197   1.884   3.765   9.880 -1.8019 -0.9691 -1.0435
 6188SOL    HW230198   2.019   3.740   9.807 -0.5525  1.0427  0.0971
 6189SOL     OW30199   0.188   4.405  16.565  0.3398  0.2518 -0.1656
 6189SOL    HW130200   0.099   4.436  16.548  0.7486  1.5274 -0.0119
 6189SOL    HW230201   0.233   4.408  16.481  0.5072  0.1858 -0.0787
 6190SOL     OW30202   2.848   4.153   1.689 -0.1645  0.7512  0.1581
 6190SOL    HW130203   2.844   4.244   1.658 -0.9133  0.3200 -0.9855
 6190SOL    HW230204   2.937   4.140   1.723 -1.3342  0.6658  3.1790
 6191SOL     OW30205   4.574   1.952   5.051 -0.4779  0.4987  0.3785
 6191SOL    HW130206   4.561   1.858   5.040 -3.0672  1.1567 -2.1767
 6191SOL    HW230207   4.620   1.983   4.973  2.6910 -2.0606  1.2133
 6192SOL     OW30208   2.677   1.305   8.924  0.3366 -0.2157 -0.1517
 6192SOL    HW130209   2.721   1.275   9.003  1.0914  1.2889  0.0042
 6192SOL    HW230210   2.740   1.284   8.855  0.1883 -3.0483  0.5803
 6193SOL     OW30211   3.294   0.757   3.952 -0.2812 -0.1582  0.0212
 6193SOL    HW130212   3.329   0.694   4.014 -2.8028 -1.2690  0.3086
 6193SOL    HW230213   3.217   0.778   4.006 -0.1952  1.8564 -0.6371
 6194SOL     OW30214   4.516   0.874  11.869  0.5967 -0.3857  0.0162
 6194SOL    HW130215   4.549   0.902  11.784  0.7961  0.0367  0.2362
 6194SOL    HW230216   4.431   0.917  11.861  0.0150 -1.4735  0.2289
 6195SOL     OW30217   1.230   4.629  11.945 -0.6324 -0.5298  0.1759
 6195SOL    HW130218   1.279   4.666  11.872 -0.3380  0.7536  1.0106
 6195SOL    HW230219   1.299   4.599  12.004  1.1789  0.6099 -1.3636
 6196SOL     OW30220   2.573   3.031   5.254 -0.2397 -0.0726 -0.7861
 6196SOL    HW130221   2.553   3.113   5.208 -1.1226  0.0935 -0.0972
 6196SOL    HW230222   2.634   2.988   5.193  0.4344 -2.1702  1.3603
 6197SOL     OW30223   1.402   4.550  12.135 -0.0109 -0.2075  0.4522
 6197SOL    HW130224   1.468   4.486  12.162  1.7821  0.7836 -1.5661
 6197SOL    HW230225   1.459   4.627  12.136 -0.0361 -0.1773 -1.2448
 6198SOL     OW30226   3.774   1.591  17.124  0.4001 -0.0923 -0.3174
 6198SOL    HW130227   3.797   1.628  17.209 -1.4591  0.2020  0.0662
 6198SOL    HW230228   3.732   1.507  17.144  0.3716 -0.0729 -0.2950
 6199SOL     OW30229   2.230   4.360   3.774 -0.3223  0.3654  0.4872
 6199SOL    HW130230   2.294   4.428   3.755  0.7836 -0.6520  0.5917
 6199SOL    HW230231   2.225   4.311   3.693 -0.2247  1.2522 -0.0536
 6200SOL     OW30232   1.015   0.516   7.005 -0.0891 -0.0502 -0.2424
 6200SOL    HW130233   0.964   0.479   7.077  1.9203 -2.9298 -0.2796
 6200SOL    HW230234   1.099   0.515   7.050 -0.9819  0.1939  1.3940
 6201SOL     OW30235   4.089   1.276   2.242 -0.1701 -0.5310  0.5461
 6201SOL    HW130236   4.014   1.218   2.250 -0.8591  0.3903  0.8404
 6201SOL    HW230237   4.161   1.214   2.231 -0.0490 -0.0397 -1.6206
 6202SOL     OW30238   4.075   0.313   5.229  0.5006  0.1445  0.1065
 6202SOL    HW130239   4.070   0.376   5.157  0.9900 -0.1077 -0.1542
 6202SOL    HW230240   4.023   0.351   5.299  1.0138  2.6128 -0.8775
 6203SOL     OW30241   4.484   1.786   7.402  0.2631 -0.4392  0.4537
 6203SOL    HW130242   4.526   1.778   7.316 -2.4533  1.7522 -1.0870
 6203SOL    HW230243   4.473   1.693   7.421 -0.1436 -0.5272 -0.2139
 6204SOL     OW30244   1.563   4.160   0.010  0.4078  0.5158  0.3758
 6204SOL    HW130245   1.635   4.135   0.069  0.4831 -2.4117 -0.9953
 6204SOL    HW230246   1.598   4.143  17.669  0.4251 -0.3425  0.5508
 6205SOL     OW30247   4.626   1.666  11.495 -0.2136  0.5654  0.1771
 6205SOL    HW130248   4.535   1.691  11.481  0.0978  2.4202  1.5623
 6205SOL    HW230249   4.668   1.698  11.414 -0.1426  0.1094  0.0308
 6206SOL     OW30250   2.564   3.637   2.602 -0.1486  0.2685 -0.2431
 6206SOL    HW130251   2.477   3.657   2.637 -0.6335 -3.3408  0.5837
 6206SOL    HW230252   2.613   3.610   2.680 -0.9821  0.1256  0.2246
 6207SOL     OW30253   4.532   0.071  11.690 -0.0201  0.5362 -1.1723
 6207SOL    HW130254   4.592   4.737  11.666  0.0980  0.4419 -0.6046
 6207SOL    HW230255   4.575   0.117  11.761  0.5317  0.9824 -1.7991
 6208SOL     OW30256   1.076   1.720   2.091  0.0440 -0.0982 -0.0712
 6208SOL    HW130257   0.982   1.713   2.106  0.0404 -1.0710 -0.5347
 6208SOL    HW230258   1.086   1.627   2.070  1.1645 -0.1494  0.6800
 6209SOL     OW30259   0.432   0.417  10.184 -0.0931 -0.3793 -0.1120
 6209SOL    HW130260   0.440   0.332  10.226 -0.1751  0.1999  1.0799
 6209SOL    HW230261   0.416   0.398  10.092  1.0906 -2.1712  0.0668
 6210SOL     OW30262   4.203   2.388  14.083  0.5654 -0.5139 -0.0663
 6210SOL    HW130263   4.125   2.423  14.038  1.9855 -0.2393 -2.3283
 6210SOL    HW230264   4.199   2.303  14.040  0.5782 -0.3242 -0.4499
 6211SOL     OW30265   2.235   2.812   5.729 -0.1421  0.4117  0.1945
 6211SOL    HW130266   2.328   2.787   5.731  0.1739  1.5381 -0.1762
 6211SOL    HW230267   2.192   2.742   5.777  0.2881 -0.2534 -0.3963
 6212SOL     OW30268   3.726   1.174  10.290 -0.2103  0.3150 -0.2433
 6212SOL    HW130269   3.635   1.194  10.266 -0.8627 -0.6916  1.4672
 6212SOL    HW230270   3.715   1.110  10.360  0.1979  0.8795  0.3313
 6213SOL     OW30271   4.321   3.192   5.960  0.4486  0.1070 -0.7588
 6213SOL    HW130272   4.366   3.265   5.915  0.0001  0.4542 -0.6425
 6213SOL    HW230273   4.251   3.162   5.903 -1.1951 -1.2690  2.0286
 6214SOL     OW30274   1.891   4.457   5.350 -0.5320 -0.5285 -0.4474
 6214SOL    HW130275   1.821   4.522   5.351 -0.6290 -0.6249 -1.2644
 6214SOL    HW230276   1.843   4.385   5.391 -1.3019  1.3655  2.0139
 6215SOL     OW30277   3.823   2.950   0.215 -0.1564  0.1151 -0.1579
 6215SOL    HW130278   3.893   2.980   0.274 -0.3200 -1.1271  0.6674
 6215SOL    HW230279   3.831   3.020   0.151 -0.7148  0.0043 -0.3449
 6216SOL     OW30280   4.653   1.659  17.302  1.0416 -0.4828  0.2444
 6216SOL    HW130281   0.002   1.690  17.272  1.7660 -2.4305  0.3181
 6216SOL    HW230282   4.596   1.723  17.259  1.2918 -1.1401 -1.0677
 6217SOL     OW30283   2.355   3.559   4.822 -0.3332 -0.0400 -0.2502
 6217SOL    HW130284   2.297   3.594   4.889 -2.3433  0.1679 -2.1133
 6217SOL    HW230285   2.430   3.537   4.877  0.1930 -0.7144 -1.2305
 6218SOL     OW30286   0.820   3.003   4.103 -0.6250  0.2719 -0.4742
 6218SOL    HW130287   0.750   2.959   4.055 -1.4696 -0.6881  1.6417
 6218SOL    HW230288   0.766   3.075   4.134 -1.4561 -0.3007 -0.6048
 6219SOL     OW30289   4.680   1.245   7.612  0.5403  0.2761 -0.3120
 6219SOL    HW130290   4.717   1.333   7.619 -1.6636  1.0814  1.4078
 6219SOL    HW230291   4.656   1.227   7.703  1.9878  1.3117  0.2786
 6220SOL     OW30292   0.225   3.066  10.846  0.5748 -0.1025 -0.2021
 6220SOL    HW130293   0.203   3.113  10.765  0.7849 -0.6422 -0.5762
 6220SOL    HW230294   0.139   3.031  10.867 -0.1922  2.3977  0.7992
 6221SOL     OW30295   0.632   3.455   4.354 -0.3005  0.5199  0.0761
 6221SOL    HW130296   0.648   3.549   4.343 -1.1550  0.5019 -1.3287
 6221SOL    HW230297   0.674   3.444   4.439  1.0278 -0.2137 -0.6720
 6222SOL     OW30298   4.100   3.718  11.566 -0.4630 -0.6470 -0.4715
 6222SOL    HW130299   4.125   3.649  11.627 -2.0786 -0.4835  0.3776
 6222SOL    HW230300   4.137   3.794  11.612 -1.9174  0.0215 -0.4141
 6223SOL     OW30301   0.422   3.612  10.997 -0.2409  0.3582  0.1187
 6223SOL    HW130302   0.498   3.629  10.940 -0.2919 -0.3766 -0.1727
 6223SOL    HW230303   0.393   3.534  10.948 -0.9836  1.1082 -0.6318
 6224SOL     OW30304   1.000   3.118   4.985  0.1781 -0.3939  0.0512
 6224SOL    HW130305   1.049   3.072   5.053 -0.2737 -0.4823  0.3203
 6224SOL    HW230306   0.908   3.097   5.002  0.5566 -1.1845  1.1706
 6225SOL     OW30307   2.209   4.061  17.266 -0.2997 -0.3152 -0.1204
 6225SOL    HW130308   2.299   4.031  17.254  0.4336  2.2290 -1.1611
 6225SOL    HW230309   2.218   4.154  17.247  1.4626 -0.7135 -1.1822
 6226SOL     OW30310   1.551   2.793   2.526  0.1899 -0.1301 -0.5419
 6226SOL    HW130311   1.503   2.870   2.498 -0.5577  0.4507  2.3163
 6226SOL    HW230312   1.499   2.756   2.597  0.6163 -0.5434 -0.4434
 6227SOL     OW30313   4.043   0.930   6.366 -0.0036 -0.1760 -0.2946
 6227SOL    HW130314   4.021   0.841   6.395  0.1356  0.2721  1.1881
 6227SOL    HW230315   4.096   0.909   6.289  2.0212  1.4403  0.6802
 6228SOL     OW30316   0.103   2.361   8.816 -0.2067  0.3075  0.5779
 6228SOL    HW130317   0.091   2.297   8.886  0.6343 -1.7741 -1.1384
 6228SOL    HW230318   0.195   2.379   8.836  0.7049 -0.3059 -2.9382
 6229SOL     OW30319   2.104   1.541   3.491  0.0538  0.5436 -0.3421
 6229SOL    HW130320   2.054   1.553   3.410  1.8735 -1.2164 -1.7315
 6229SOL    HW230321   2.042   1.580   3.552  0.0121  0.0024 -0.0399
 6230SOL     OW30322   0.955   3.190   1.873 -0.2472  0.5687 -0.2741
 6230SOL    HW130323   0.944   3.278   1.837  1.0334  1.2465  0.9900
 6230SOL    HW230324   0.891   3.191   1.943 -0.2408 -0.1043 -0.2564
 6231SOL     OW30325   3.300   0.917   5.044 -0.4127 -0.1377  0.1182
 6231SOL    HW130326   3.336   0.926   5.133  1.1804  3.0571 -0.8549
 6231SOL    HW230327   3.361   0.969   4.992 -1.2786  0.6500 -0.0908
 6232SOL     OW30328   3.833   0.894  16.522  0.9498 -0.1307 -0.0457
 6232SOL    HW130329   3.904   0.865  16.465  0.3921  0.8196 -1.2339
 6232SOL    HW230330   3.783   0.944  16.457 -0.6341 -0.1992  1.1291
 6233SOL     OW30331   2.832   4.670   7.056 -0.3544  0.6009 -0.0282
 6233SOL    HW130332   2.796   4.597   7.108  0.9265  0.0493  0.0762
 6233SOL    HW230333   2.756   4.728   7.046 -1.2979 -0.1040  2.7328
 6234SOL     OW30334   1.701   1.706   4.821  0.1701  0.3739  0.5126
 6234SOL    HW130335   1.690   1.674   4.911  0.6350  0.1054  0.4772
 6234SOL    HW230336   1.629   1.667   4.773  2.0092 -1.2514 -0.9362
 6235SOL     OW30337   3.888   0.789   9.513  0.7114 -0.0109  0.3117
 6235SOL    HW130338   3.892   0.759   9.604 -0.0401 -1.0784 -0.0076
 6235SOL    HW230339   3.931   0.716   9.468 -2.1346 -0.9823 -0.8304
 6236SOL     OW30340   4.727   3.249   6.924  0.1007 -0.2228 -0.0766
 6236SOL    HW130341   0.016   3.206   7.005  2.6259 -0.2068 -0.8847
 6236SOL    HW230342   4.688   3.179   6.870  1.3288 -1.5470  0.7583
 6237SOL     OW30343   0.186   0.984   7.616  0.0612  0.0171 -0.1990
 6237SOL    HW130344   0.219   0.938   7.692 -1.2149  0.0489  0.3687
 6237SOL    HW230345   0.161   1.068   7.655  3.4958  0.7769  0.4118
 6238SOL     OW30346   2.066   2.613  17.091 -0.2264 -0.2384 -0.2277
 6238SOL    HW130347   2.051   2.617  16.997 -1.3046  1.0723  0.0093
 6238SOL    HW230348   2.037   2.702  17.113  0.1161 -0.8646  2.7854
 6239SOL     OW30349   4.119   2.010   6.286 -0.5918  0.1158  0.1302
 6239SOL    HW130350   4.202   2.058   6.283  0.1358 -1.2222 -1.2974
 6239SOL    HW230351   4.110   2.005   6.382 -1.0368  2.5597  0.2053
 6240SOL     OW30352   3.103   4.640   6.183  0.2367 -0.1976 -0.5304
 6240SOL    HW130353   3.125   4.721   6.229 -1.8767 -0.4744  0.9704
 6240SOL    HW230354   3.007   4.644   6.187  0.2881 -0.0473  0.5039
 6241SOL     OW30355   4.659   2.493   3.180  0.2730  0.1158  0.3691
 6241SOL    HW130356   4.571   2.461   3.197  0.0601  1.1837  1.2827
 6241SOL    HW230357   4.680   2.448   3.098  1.4238  1.7134 -0.2365
 6242SOL     OW30358   3.931   3.802   8.400  0.8175 -0.1363  0.1293
 6242SOL    HW130359   3.861   3.846   8.352  1.0697 -0.5449 -0.6060
 6242SOL    HW230360   3.942   3.717   8.357  1.3125  0.0819 -0.1739
 6243SOL     OW30361   1.370   0.522   2.577  0.3995  0.0829 -0.2246
 6243SOL    HW130362   1.373   0.580   2.501 -0.6798 -1.9052 -1.7759
 6243SOL    HW230363   1.437   0.565   2.630 -1.0399  4.0152 -1.5678
 6244SOL     OW30364   4.572   2.067   6.972  0.1118  0.1241  0.2665
 6244SOL    HW130365   4.600   1.983   6.937 -0.7013 -0.9179  2.0963
 6244SOL    HW230366   4.640   2.122   6.935  0.7770  0.1601  1.5289
 6245SOL     OW30367   4.302   1.324   6.739 -0.5992 -0.9281  0.2257
 6245SOL    HW130368   4.309   1.315   6.834 -0.5445 -1.5217  0.1668
 6245SOL    HW230369   4.311   1.419   6.731  2.1826 -1.4830 -3.4157
 6246SOL     OW30370   1.220   0.622   1.842 -0.0655 -0.9213 -0.0558
 6246SOL    HW130371   1.139   0.634   1.892  0.9872  0.1843  1.4025
 6246SOL    HW230372   1.198   0.604   1.751 -1.1300  0.7382 -0.1266
 6247SOL     OW30373   4.466   3.677   3.930 -0.3322 -0.5122  0.7088
 6247SOL    HW130374   4.514   3.724   3.862 -0.5130 -1.9866 -0.4310
 6247SOL    HW230375   4.405   3.749   3.945  1.1657  0.9431 -0.3075
 6248SOL     OW30376   2.129   1.854   5.857 -0.4151  0.1867 -0.0170
 6248SOL    HW130377   2.044   1.876   5.821 -1.2855 -0.1059  1.8629
 6248SOL    HW230378   2.150   1.934   5.905  0.6588 -0.6230  0.8942
 6249SOL     OW30379   2.681   3.634   5.451  0.0008  0.7984 -0.2921
 6249SOL    HW130380   2.771   3.636   5.419  0.3353 -2.7668  0.4420
 6249SOL    HW230381   2.640   3.663   5.370  0.1929 -1.0211 -1.0439
 6250SOL     OW30382   4.044   4.590   8.285  0.1439 -0.3936 -0.1259
 6250SOL    HW130383   4.103   4.531   8.238  1.4953  0.1427  0.8997
 6250SOL    HW230384   4.077   4.671   8.247 -1.9280  0.1695 -0.7031
 6251SOL     OW30385   0.217   3.813  16.070 -0.7936 -0.0942 -0.2942
 6251SOL    HW130386   0.156   3.764  16.014  0.2775 -2.6241  0.7455
 6251SOL    HW230387   0.207   3.901  16.033  1.8484  0.7455  1.0328
 6252SOL     OW30388   0.652   1.735   0.900  0.0124 -0.0209  0.0660
 6252SOL    HW130389   0.726   1.796   0.907 -0.7508  1.2175 -2.6029
 6252SOL    HW230390   0.581   1.779   0.946 -1.2957 -1.2860 -0.7611
 6253SOL     OW30391   2.616   4.046   8.317  0.4751  0.2418 -0.7022
 6253SOL    HW130392   2.633   4.062   8.410  1.9876  1.3687 -1.1693
 6253SOL    HW230393   2.670   4.113   8.273 -0.4029  0.1516 -1.9013
 6254SOL     OW30394   0.000   0.523   5.289  0.1576 -0.3116  0.3612
 6254SOL    HW130395   0.046   0.504   5.371 -0.0924  2.1137  1.0689
 6254SOL    HW230396   4.673   0.590   5.313  0.7296  0.6132 -0.6743
 6255SOL     OW30397   3.069   4.151  15.526  0.0974  0.3489  0.4505
 6255SOL    HW130398   3.011   4.214  15.484 -4.3183 -2.7836  1.8285
 6255SOL    HW230399   3.041   4.148  15.618  0.9078  1.4514  0.7272
 6256SOL     OW30400   0.715   1.009   4.526  0.0334  0.1707  0.4841
 6256SOL    HW130401   0.666   0.927   4.530  1.7144 -0.8272  0.7509
 6256SOL    HW230402   0.779   0.994   4.456 -1.0653 -0.0547 -0.4549
 6257SOL     OW30403   1.341   0.295   7.768  0.6390  0.0075 -0.1917
 6257SOL    HW130404   1.318   0.203   7.780 -4.8741  1.3184 -0.7225
 6257SOL    HW230405   1.426   0.298   7.813 -0.9525  3.0659  2.6142
 6258SOL     OW30406   1.831   2.573   0.014  0.2994  0.0637  0.7603
 6258SOL    HW130407   1.919   2.580   0.052  0.9625  0.9799 -0.9857
 6258SOL    HW230408   1.768   2.616   0.072  1.4768  1.0055  1.3624
 6259SOL     OW30409   4.349   0.182   3.588  0.0414 -0.5849 -0.5138
 6259SOL    HW130410   4.375   0.274   3.598  2.2575 -1.2046 -0.4993
 6259SOL    HW230411   4.267   0.196   3.541 -0.7240 -0.1586  0.9356
 6260SOL     OW30412   0.881   0.606   9.774 -0.0372  0.6258 -0.2179
 6260SOL    HW130413   0.891   0.527   9.828 -0.7270  1.1769  0.7210
 6260SOL    HW230414   0.926   0.577   9.695  0.3023 -1.3770  0.7180
 6261SOL     OW30415   2.448   0.399   9.218  0.5053  0.0455  0.3039
 6261SOL    HW130416   2.454   0.485   9.259  0.4757  0.2619 -0.1477
 6261SOL    HW230417   2.379   0.352   9.266  2.3625 -2.1546  0.7981
 6262SOL     OW30418   3.336   1.761  15.275 -0.0299  0.2041 -0.0864
 6262SOL    HW130419   3.266   1.810  15.231 -1.0637 -0.0258  1.2926
 6262SOL    HW230420   3.420   1.794  15.243 -0.2689  1.0215  0.1308
 6263SOL     OW30421   1.381   3.590  16.000 -0.8949  0.6126  0.1918
 6263SOL    HW130422   1.473   3.587  16.026 -1.0879 -0.3232  0.7884
 6263SOL    HW230423   1.395   3.617  15.909  1.4566  2.6151  1.1377
 6264SOL     OW30424   1.330   3.854   0.388 -0.1944  0.3333  0.1515
 6264SOL    HW130425   1.398   3.790   0.407  0.3656  0.5377 -1.1715
 6264SOL    HW230426   1.374   3.928   0.347  0.6563  1.0680  2.3641
 6265SOL     OW30427   3.042   0.698   3.647 -0.2560  0.0250 -0.5228
 6265SOL    HW130428   3.040   0.783   3.604 -1.1345  0.5514  0.5684
 6265SOL    HW230429   2.948   0.695   3.663  0.5288 -2.0079  3.6448
 6266SOL     OW30430   0.685   1.203   3.870 -0.1626 -0.5024 -0.4314
 6266SOL    HW130431   0.711   1.239   3.954 -0.2888 -2.4840  0.4643
 6266SOL    HW230432   0.767   1.183   3.825  0.0293 -2.8646  0.9413
 6267SOL     OW30433   4.295   1.053   5.911  0.1582  0.1610  0.1715
 6267SOL    HW130434   4.214   1.104   5.913 -0.9420 -1.5792  0.2413
 6267SOL    HW230435   4.356   1.118   5.878  0.5946 -0.2225  0.2227
 6268SOL     OW30436   3.009   4.007   7.663 -0.3755  0.2492  0.0894
 6268SOL    HW130437   2.969   3.948   7.728  2.0694  0.7131  2.0260
 6268SOL    HW230438   2.979   4.091   7.697 -2.6801  0.6027 -2.8023
 6269SOL     OW30439   1.658   3.762  16.720  0.2160  0.3750  0.2795
 6269SOL    HW130440   1.605   3.823  16.772  1.0845  0.9682  0.4574
 6269SOL    HW230441   1.659   3.811  16.638 -0.9120  2.4309  1.4738
 6270SOL     OW30442   0.330   2.504   6.238  0.0618  0.8096 -0.9317
 6270SOL    HW130443   0.361   2.577   6.184  4.9421 -0.7857 -0.2744
 6270SOL    HW230444   0.411   2.470   6.276  0.3691 -0.2327 -2.5592
 6271SOL     OW30445   3.052   2.429   4.158 -0.1250 -0.2848  0.3069
 6271SOL    HW130446   3.089   2.483   4.228 -0.5012 -1.7242  1.6010
 6271SOL    HW230447   3.037   2.493   4.089  1.8882  0.3450  0.4610
 6272SOL     OW30448   2.535   4.399   1.927 -0.1485  0.4289  0.5309
 6272SOL    HW130449   2.583   4.316   1.919 -0.0159  0.4461  1.1967
 6272SOL    HW230450   2.450   4.373   1.963  0.4150  1.6988  2.7423
 6273SOL     OW30451   1.360   1.867   8.281  0.2359  0.0248 -0.1597
 6273SOL    HW130452   1.273   1.881   8.244 -0.3957 -2.8522  0.2188
 6273SOL    HW230453   1.379   1.959   8.299 -0.6869  0.3085 -0.6350
 6274SOL     OW30454   3.202   3.175   0.868 -0.3640  0.1559 -0.5619
 6274SOL    HW130455   3.184   3.259   0.826 -2.0587  0.5315  0.9249
 6274SOL    HW230456   3.263   3.132   0.807 -0.1279 -1.5274  0.8671
 6275SOL     OW30457   3.901   1.662  14.957 -0.1362 -0.0462  0.4360
 6275SOL    HW130458   3.890   1.712  15.038 -1.1326  0.7202 -0.1786
 6275SOL    HW230459   3.976   1.705  14.914 -0.5116  1.2362  1.0482
 6276SOL     OW30460   3.916   3.858   5.408 -0.1742  0.2300 -0.0239
 6276SOL    HW130461   3.879   3.778   5.370 -3.4889  1.2519  1.0208
 6276SOL    HW230462   3.910   3.845   5.503  1.6046 -2.3860 -0.2757
 6277SOL     OW30463   3.382   0.189   3.544 -0.3381  0.6620 -0.1052
 6277SOL    HW130464   3.403   0.106   3.587 -1.0008  0.5557  0.0041
 6277SOL    HW230465   3.386   0.160   3.453  3.3775  0.2021  0.2067
 6278SOL     OW30466   0.348   1.702   7.349  0.1684 -0.1706 -0.9194
 6278SOL    HW130467   0.356   1.627   7.408 -0.1171  0.3149 -0.2636
 6278SOL    HW230468   0.386   1.769   7.405 -2.8916  0.5393  0.3269
 6279SOL     OW30469   4.451   3.454  15.513  0.4447 -0.0563 -0.4472
 6279SOL    HW130470   4.497   3.395  15.453  0.1905 -1.2515  0.5436
 6279SOL    HW230471   4.362   3.417  15.513  0.6827 -0.6129 -2.0260
 6280SOL     OW30472   0.543   3.451   2.207  0.0368  0.2838  0.0627
 6280SOL    HW130473   0.603   3.412   2.270 -1.5177 -1.0617  0.7141
 6280SOL    HW230474   0.470   3.391   2.220 -1.0118  2.1191  2.7989
 6281SOL     OW30475   1.489   0.758   4.522  0.2404 -0.5842 -0.0320
 6281SOL    HW130476   1.456   0.830   4.467  0.5265  0.7678  1.5537
 6281SOL    HW230477   1.564   0.797   4.566  0.7773  0.1867 -1.6206
 6282SOL     OW30478   2.338   1.374   8.719  0.9675 -0.2532 -0.4669
 6282SOL    HW130479   2.247   1.379   8.749  0.1473 -0.7264 -2.8956
 6282SOL    HW230480   2.382   1.454   8.749  2.0033 -1.5627  1.4887
 6283SOL     OW30481   1.945   2.650  14.925  0.1496  0.1219  0.8797
 6283SOL    HW130482   1.977   2.696  14.847 -0.3453  0.4595  0.8732
 6283SOL    HW230483   1.997   2.686  14.996  0.4326  1.7992 -0.1765
 6284SOL     OW30484   0.877   3.413   7.118  0.2235  0.9319  0.2359
 6284SOL    HW130485   0.839   3.492   7.155  3.9024  1.2911  3.2779
 6284SOL    HW230486   0.943   3.388   7.183  0.5005 -0.7676 -0.6871
 6285SOL     OW30487   2.327   2.091  11.789  0.2385 -0.0698 -0.0157
 6285SOL    HW130488   2.351   2.022  11.851 -1.8153  0.6925  1.6395
 6285SOL    HW230489   2.360   2.061  11.705  2.8408  1.3051  0.5268
 6286SOL     OW30490   1.211   4.294   0.165  0.1754  0.4129  0.4070
 6286SOL    HW130491   1.214   4.222   0.228 -0.8558  0.4113  0.4545
 6286SOL    HW230492   1.137   4.342   0.203 -0.1394  0.7477 -0.6379
 6287SOL     OW30493   3.205   1.630  17.738  0.0343  0.0461  0.7457
 6287SOL    HW130494   3.218   1.578   0.070 -2.7130  0.6214  1.5845
 6287SOL    HW230495   3.111   1.626  17.720 -0.2580 -0.2620  2.3090
 6288SOL     OW30496   1.843   4.329   6.291 -0.5248 -0.5269 -0.0971
 6288SOL    HW130497   1.798   4.253   6.327  0.6485 -0.5350  1.3215
 6288SOL    HW230498   1.822   4.407   6.342  0.9682  0.6989 -1.3530
 6289SOL     OW30499   4.124   0.635   2.026  0.3685 -0.0711  0.2631
 6289SOL    HW130500   4.194   0.582   2.063 -0.0938 -0.6374  0.3329
 6289SOL    HW230501   4.057   0.570   2.004 -1.3901  1.8027  0.0704
 6290SOL     OW30502   3.625   0.113   2.221 -0.0733 -0.5669 -0.0650
 6290SOL    HW130503   3.573   0.190   2.244  2.2159  0.3647  2.0114
 6290SOL    HW230504   3.571   0.043   2.259 -0.5092 -0.3398 -0.2669
 6291SOL     OW30505   1.410   4.174  12.430  0.2355  0.0891 -0.2601
 6291SOL    HW130506   1.351   4.208  12.497 -1.2264  1.2768 -2.1609
 6291SOL    HW230507   1.355   4.202  12.357 -0.2657 -1.1084 -0.3498
 6292SOL     OW30508   2.459   0.803   8.885  0.0558  0.1462 -0.6060
 6292SOL    HW130509   2.538   0.842   8.847 -0.8966  1.1087 -1.5828
 6292SOL    HW230510   2.473   0.818   8.978 -0.0943 -1.1472 -0.3795
 6293SOL     OW30511   2.642   0.278   7.625  0.4090  0.0019 -0.0680
 6293SOL    HW130512   2.686   0.237   7.699 -2.3672 -0.7304  1.1624
 6293SOL    HW230513   2.696   0.251   7.550 -1.3633  0.4610 -1.5385
 6294SOL     OW30514   1.545   1.139   3.520 -0.3691  0.1668 -0.4273
 6294SOL    HW130515   1.579   1.051   3.503 -1.6916 -0.4353  0.0906
 6294SOL    HW230516   1.464   1.130   3.570  1.6444  0.8788  3.0021
 6295SOL     OW30517   2.000   0.549   8.593  0.2188  0.4866  0.2657
 6295SOL    HW130518   2.042   0.557   8.507 -0.1988 -0.4946 -0.0268
 6295SOL    HW230519   1.969   0.639   8.604 -1.8121 -0.1970  0.0690
 6296SOL     OW30520   4.730   1.100   2.272 -0.5337 -0.5074  0.3706
 6296SOL    HW130521   4.735   1.005   2.277  0.9147 -0.4367  0.2238
 6296SOL    HW230522   0.041   1.117   2.190  0.3772  0.5263  1.1149
 6297SOL     OW30523   4.620   1.007   8.618  0.1051  0.1056  0.2354
 6297SOL    HW130524   4.710   1.042   8.623 -0.7485  2.2982  0.3189
 6297SOL    HW230525   4.607   1.013   8.523  1.6869 -1.9567 -0.1094
 6298SOL     OW30526   1.912   2.483   6.667 -0.4284  0.4149 -0.1116
 6298SOL    HW130527   1.849   2.508   6.734 -1.0036 -1.5877  0.0897
 6298SOL    HW230528   1.932   2.570   6.633  1.9701 -0.1790 -0.2113
 6299SOL     OW30529   4.007   1.438   3.109 -0.0409  0.2608  0.3337
 6299SOL    HW130530   4.038   1.349   3.126  2.2202  0.6051 -2.0783
 6299SOL    HW230531   3.938   1.432   3.042 -0.1746 -2.2344  0.6798
 6300SOL     OW30532   2.279   3.978   6.314 -0.4922  0.9817  0.2926
 6300SOL    HW130533   2.366   3.944   6.334  0.7346  3.8569 -0.2174
 6300SOL    HW230534   2.257   4.021   6.397 -2.3737 -2.1350  1.4016
 6301SOL     OW30535   3.431   2.745  13.693  0.4689 -0.2616  0.0752
 6301SOL    HW130536   3.501   2.731  13.629 -0.9529 -2.5905 -0.9644
 6301SOL    HW230537   3.395   2.824  13.654  1.5389  0.6171  0.8816
 6302SOL     OW30538   4.196   1.278   0.549 -0.1866 -0.2023 -0.6244
 6302SOL    HW130539   4.241   1.193   0.551 -1.0468 -0.6361  0.3251
 6302SOL    HW230540   4.245   1.325   0.617  0.4120 -0.5214 -0.8284
 6303SOL     OW30541   2.437   0.550   0.187  0.1159 -0.0788 -0.3038
 6303SOL    HW130542   2.368   0.605   0.150 -1.2727 -1.0894  0.8008
 6303SOL    HW230543   2.506   0.567   0.123 -0.9966  3.2387 -0.6447
 6304SOL     OW30544   2.754   2.855  17.708  0.0874 -0.3715 -0.3101
 6304SOL    HW130545   2.713   2.942  17.704  3.0605  1.0209 -1.0508
 6304SOL    HW230546   2.690   2.804   0.010  0.6125 -1.1918 -0.4840
 6305SOL     OW30547   2.617   0.466   1.743 -0.2797  0.0672  0.4966
 6305SOL    HW130548   2.708   0.482   1.720 -0.4184 -0.4907 -0.4147
 6305SOL    HW230549   2.607   0.406   1.817 -2.4738  1.9230  1.7188
 6306SOL     OW30550   3.385   3.219   4.996  0.2416 -0.1408 -0.2283
 6306SOL    HW130551   3.473   3.231   4.960  0.2745 -0.7206 -0.3461
 6306SOL    HW230552   3.375   3.305   5.036  3.5474 -0.7565  1.8803
 6307SOL     OW30553   3.637   0.898  13.596 -0.2037 -0.3153  0.4821
 6307SOL    HW130554   3.708   0.891  13.532 -1.3184  1.1363 -0.9069
 6307SOL    HW230555   3.568   0.936  13.542 -0.4549 -2.3822 -0.6900
 6308SOL     OW30556   0.598   2.832   0.856  0.2464 -0.0998 -0.1892
 6308SOL    HW130557   0.545   2.848   0.934  2.2191 -0.8085  1.3044
 6308SOL    HW230558   0.655   2.908   0.856 -0.8738  0.7425  1.4596
 6309SOL     OW30559   3.131   1.035   2.123 -0.2090 -0.3602 -0.1489
 6309SOL    HW130560   3.101   1.121   2.092  0.4431 -0.3320 -0.7158
 6309SOL    HW230561   3.225   1.048   2.134 -0.1909  0.5450 -1.3905
 6310SOL     OW30562   2.262   1.048   2.724 -0.1878 -0.6643  0.0136
 6310SOL    HW130563   2.239   0.959   2.751 -1.7061  0.1879  1.4868
 6310SOL    HW230564   2.355   1.049   2.746 -0.2341  0.1431  0.1625
 6311SOL     OW30565   0.733   1.451   4.852  0.1009  0.5184  0.1593
 6311SOL    HW130566   0.677   1.373   4.856  0.3196  0.3403 -0.2662
 6311SOL    HW230567   0.703   1.495   4.773  0.6953 -0.6691 -0.7311
 6312SOL     OW30568   4.043   0.795   5.093  0.6794 -0.0257 -0.2058
 6312SOL    HW130569   4.081   0.857   5.155  1.5144 -1.0849  0.3411
 6312SOL    HW230570   4.021   0.851   5.019 -0.1914 -0.4358 -0.2567
 6313SOL     OW30571   4.623   4.406   6.700 -0.1473 -0.2666 -0.1213
 6313SOL    HW130572   4.570   4.477   6.736 -0.5219 -1.2768  1.3404
 6313SOL    HW230573   4.659   4.384   6.786 -0.3516 -0.0947  0.0063
 6314SOL     OW30574   3.886   3.242   4.811 -0.0548 -0.1682 -0.0140
 6314SOL    HW130575   3.940   3.284   4.744  0.8470  1.7318  1.9277
 6314SOL    HW230576   3.939   3.247   4.890 -1.1673 -4.9366  0.9900
 6315SOL     OW30577   4.404   0.076   2.690  0.0279  0.1368 -0.1645
 6315SOL    HW130578   4.309   0.064   2.696  0.2774 -1.8300 -0.3782
 6315SOL    HW230579   4.433   4.724   2.673 -1.0192  0.1629 -2.1890
 6316SOL     OW30580   4.701   3.020   8.038  0.0763 -0.2148 -0.6619
 6316SOL    HW130581   4.661   2.994   8.121  2.3346 -1.3527  0.0540
 6316SOL    HW230582   4.618   3.040   7.995  0.5348  0.2157 -1.3580
 6317SOL     OW30583   2.493   4.676   2.473  0.2745 -0.4794  0.1860
 6317SOL    HW130584   2.414   4.659   2.525  0.8533 -0.1636  1.1561
 6317SOL    HW230585   2.560   4.675   2.542 -0.5190 -1.4233  0.9531
 6318SOL     OW30586   4.446   0.988  12.148  0.0922  0.2263  0.0805
 6318SOL    HW130587   4.514   0.927  12.176 -0.5412 -0.6474 -0.3220
 6318SOL    HW230588   4.449   0.974  12.053 -1.0684  1.1027 -0.0884
 6319SOL     OW30589   3.239   1.012   1.715  0.4109 -0.5243  0.2453
 6319SOL    HW130590   3.283   1.097   1.714  1.4432 -1.0710 -1.2526
 6319SOL    HW230591   3.282   0.964   1.644  0.6263 -1.2635  0.8708
 6320SOL     OW30592   4.382   0.699   8.402 -0.1905  0.2332 -0.1310
 6320SOL    HW130593   4.337   0.618   8.423 -0.8850  0.1300 -1.9768
 6320SOL    HW230594   4.457   0.674   8.348  1.0758 -0.3855  1.9542
 6321SOL     OW30595   2.403   3.107   2.274  0.0971 -0.1393  0.5210
 6321SOL    HW130596   2.430   3.184   2.325 -0.2105  1.3790 -1.6179
 6321SOL    HW230597   2.345   3.148   2.210  0.9061 -1.0966 -0.8188
 6322SOL     OW30598   0.218   1.137  11.527 -0.7134 -0.3652 -0.5725
 6322SOL    HW130599   0.258   1.209  11.478  0.0525 -0.6938 -0.4297
 6322SOL    HW230600   0.293   1.078  11.533 -0.7132 -0.4616 -1.6330
 6323SOL     OW30601   1.111   3.222   3.716 -0.0256 -0.4574  0.3879
 6323SOL    HW130602   1.073   3.188   3.796  0.8652 -0.6245  0.7415
 6323SOL    HW230603   1.119   3.315   3.737 -0.1940 -0.3938  0.1808
 6324SOL     OW30604   3.265   0.159   2.425  0.1322  0.4733  0.2751
 6324SOL    HW130605   3.182   0.118   2.400 -0.0212  0.7064  0.3975
 6324SOL    HW230606   3.231   0.194   2.508  2.6277  1.1937  0.9778
 6325SOL     OW30607   0.358   0.958   7.389  0.0069  0.5776  0.6801
 6325SOL    HW130608   0.304   0.971   7.467 -1.4576 -0.3784 -0.1790
 6325SOL    HW230609   0.416   0.885   7.412  0.4839  0.6869 -0.1609
 6326SOL     OW30610   1.328   3.349   3.084  0.0260 -0.0637 -0.2529
 6326SOL    HW130611   1.261   3.303   3.033  1.6802 -3.5626  0.7289
 6326SOL    HW230612   1.363   3.277   3.136  0.5820  0.4346  0.0652
 6327SOL     OW30613   2.064   0.310   6.251  0.2258 -0.5840  0.3402
 6327SOL    HW130614   2.040   0.376   6.186  1.3642  0.8492  1.3519
 6327SOL    HW230615   2.078   0.361   6.331  0.4292  0.3117 -0.2731
 6328SOL     OW30616   2.992   1.502  13.019 -0.3654  0.5748 -0.1621
 6328SOL    HW130617   2.979   1.546  12.936  3.2424  0.6278 -0.7298
 6328SOL    HW230618   3.048   1.570  13.058 -0.1982 -0.3255  1.1529
 6329SOL     OW30619   3.085   3.292   1.398 -0.7571  0.0349  0.1525
 6329SOL    HW130620   3.041   3.254   1.322 -1.8849 -0.5252  1.0758
 6329SOL    HW230621   3.140   3.216   1.419  0.1589 -0.2551 -3.3921
 6330SOL     OW30622   3.331   1.895   7.252 -0.1060 -0.3490  0.0309
 6330SOL    HW130623   3.399   1.870   7.189 -0.8500 -3.5561  0.5108
 6330SOL    HW230624   3.288   1.816   7.285  2.7029 -1.4068  1.1371
 6331SOL     OW30625   4.221   2.909   8.405 -0.3533 -0.6003 -0.0093
 6331SOL    HW130626   4.189   2.903   8.315 -1.8497  0.4780  0.4435
 6331SOL    HW230627   4.274   2.989   8.401 -1.1418 -0.1088 -0.5222
 6332SOL     OW30628   1.876   4.234   5.936  0.2174 -0.1491  0.3107
 6332SOL    HW130629   1.938   4.194   5.874 -0.2150  2.8108 -2.0410
 6332SOL    HW230630   1.836   4.157   5.976  0.7551 -0.7309 -0.2559
 6333SOL     OW30631   0.496   0.673  13.304 -0.7895 -0.0027 -0.2156
 6333SOL    HW130632   0.486   0.700  13.395  1.1911  2.5541 -0.7677
 6333SOL    HW230633   0.428   0.728  13.265  0.6887  2.3860  0.5958
 6334SOL     OW30634   0.498   2.652  10.330 -0.0302 -0.0116  0.6306
 6334SOL    HW130635   0.532   2.626  10.245  2.3439 -1.2982  1.9737
 6334SOL    HW230636   0.496   2.747  10.331 -0.3286 -0.0219  1.6283
 6335SOL     OW30637   3.423   1.666   0.646 -0.5545  0.7209  0.0735
 6335SOL    HW130638   3.372   1.591   0.615  0.2725 -0.6503  2.0143
 6335SOL    HW230639   3.483   1.627   0.710  1.5556  1.0343 -1.7115
 6336SOL     OW30640   1.635   2.320  12.741  0.2843 -0.1533  0.3367
 6336SOL    HW130641   1.658   2.238  12.784  0.7222 -0.7889 -1.1135
 6336SOL    HW230642   1.671   2.383  12.803  0.5156 -1.9843  2.0493
 6337SOL     OW30643   2.769   2.156   4.832 -0.1235  0.2375 -0.5203
 6337SOL    HW130644   2.827   2.097   4.783 -1.7363 -1.7104 -0.0991
 6337SOL    HW230645   2.724   2.087   4.882 -2.7079  1.5607 -1.0148
 6338SOL     OW30646   1.381   0.229   2.226  0.9158  0.2583  0.6208
 6338SOL    HW130647   1.411   0.318   2.239 -2.7862  1.5497  0.3797
 6338SOL    HW230648   1.286   0.234   2.238  0.7073 -0.0680 -0.8052
 6339SOL     OW30649   3.684   3.529   2.826  0.4243 -0.1085 -0.9227
 6339SOL    HW130650   3.760   3.565   2.871 -0.2859 -1.4736  1.3428
 6339SOL    HW230651   3.652   3.612   2.791  0.9794  1.0380  1.3444
 6340SOL     OW30652   3.349   3.749   3.732  0.4113 -0.0767 -0.1325
 6340SOL    HW130653   3.349   3.670   3.786  0.5624 -0.1656 -0.2674
 6340SOL    HW230654   3.410   3.809   3.776 -0.6290  0.9912 -0.1215
 6341SOL     OW30655   0.384   0.124   7.001  0.4688 -0.5336  0.1833
 6341SOL    HW130656   0.302   0.144   6.956  0.9739  1.3945  0.1348
 6341SOL    HW230657   0.353   0.098   7.088 -2.0043  1.4808 -0.0687
 6342SOL     OW30658   3.040   0.039  13.834  0.4718  0.6009 -0.7126
 6342SOL    HW130659   3.116   4.722  13.855 -1.3607 -2.6307 -2.4458
 6342SOL    HW230660   2.990   0.023  13.914  0.2102  3.1474 -0.3468
 6343SOL     OW30661   1.754   3.787  15.853 -0.1064 -0.1350 -0.6714
 6343SOL    HW130662   1.816   3.854  15.881  0.9221 -0.6950 -1.5953
 6343SOL    HW230663   1.708   3.767  15.934  1.8074 -0.3216  0.3720
 6344SOL     OW30664   1.765   0.805   1.994 -0.5250 -0.6260  0.2955
 6344SOL    HW130665   1.739   0.775   2.082 -0.5058  0.1842  0.5732
 6344SOL    HW230666   1.770   0.900   2.007 -0.2204 -0.4104 -1.5033
 6345SOL     OW30667   1.818   3.690   3.186 -0.2777 -0.0764  0.5875
 6345SOL    HW130668   1.778   3.751   3.125 -0.9861 -0.2003  0.9277
 6345SOL    HW230669   1.864   3.743   3.251  2.7659  0.9007 -2.3636
 6346SOL     OW30670   4.094   2.654  12.756 -0.3039 -0.1181  0.2882
 6346SOL    HW130671   4.109   2.662  12.662 -0.6658 -1.9784  0.0771
 6346SOL    HW230672   4.123   2.563  12.761 -2.4440 -0.7207  1.4988
 6347SOL     OW30673   2.037   3.776   4.747 -0.4137 -0.4671 -0.3423
 6347SOL    HW130674   1.946   3.795   4.723 -1.2686 -1.5846  2.0566
 6347SOL    HW230675   2.063   3.703   4.690  1.1814 -0.9690  1.0168
 6348SOL     OW30676   0.358   3.339  16.681  0.0971  0.3898  0.3105
 6348SOL    HW130677   0.420   3.326  16.609  0.1956 -2.4856  0.9187
 6348SOL    HW230678   0.270   3.341  16.644 -1.2127  2.3431  3.4880
 6349SOL     OW30679   0.738   3.867   1.154 -0.2393 -0.4829  0.0427
 6349SOL    HW130680   0.712   3.803   1.088  0.5397  1.6766 -2.3239
 6349SOL    HW230681   0.827   3.869   1.121  0.0260 -1.2125  0.7270
 6350SOL     OW30682   2.248   1.491  13.794  0.0028 -0.1680 -0.2292
 6350SOL    HW130683   2.334   1.452  13.780  0.4936  0.7855  0.0724
 6350SOL    HW230684   2.191   1.438  13.739  0.1060  0.1175 -0.6154
 6351SOL     OW30685   1.367   1.639   3.802 -0.3677 -0.1917  0.3698
 6351SOL    HW130686   1.400   1.552   3.827  2.0882  0.7196  0.2062
 6351SOL    HW230687   1.370   1.629   3.707 -1.4099 -0.0548  0.3194
 6352SOL     OW30688   0.528   3.777   7.544  0.0101 -0.5554 -0.6809
 6352SOL    HW130689   0.446   3.745   7.582 -0.8730  0.6162 -1.5990
 6352SOL    HW230690   0.534   3.721   7.466 -0.3289 -0.1428 -1.0037
 6353SOL     OW30691   1.530   1.500   7.348  0.1786  0.1006 -0.0668
 6353SOL    HW130692   1.442   1.479   7.381  0.6420 -2.8727 -0.7365
 6353SOL    HW230693   1.516   1.592   7.324  1.9568  0.4986  0.4127
 6354SOL     OW30694   2.996   0.009   1.016 -0.9728  0.0383  0.1847
 6354SOL    HW130695   2.939   4.737   1.093 -1.5889  1.3019 -0.1244
 6354SOL    HW230696   3.051   0.080   1.049 -0.6103  0.0523 -0.4681
 6355SOL     OW30697   0.800   1.707   6.091 -0.3043 -0.1489 -0.1216
 6355SOL    HW130698   0.868   1.746   6.146 -1.4468  0.4847  0.8475
 6355SOL    HW230699   0.741   1.684   6.164 -1.1177  0.3789 -0.6126
 6356SOL     OW30700   2.251   2.865   2.162 -0.3745  0.0877  0.0219
 6356SOL    HW130701   2.305   2.940   2.136 -0.7362  0.0274 -0.9051
 6356SOL    HW230702   2.240   2.813   2.082  0.3532  1.7932 -1.1851
 6357SOL     OW30703   1.034   3.476   6.304 -0.8095  0.2350  0.0678
 6357SOL    HW130704   1.074   3.507   6.385  0.0856  2.3368 -1.1668
 6357SOL    HW230705   1.037   3.381   6.319 -0.6593  0.1529 -0.4872
 6358SOL     OW30706   0.495   1.337  16.480 -0.0780  0.7752 -0.0652
 6358SOL    HW130707   0.518   1.344  16.572  0.1804  1.0937 -0.1556
 6358SOL    HW230708   0.418   1.394  16.474 -1.7467 -1.3739  1.0339
 6359SOL     OW30709   2.990   4.168   5.640 -0.2668 -0.1345 -0.0186
 6359SOL    HW130710   2.989   4.103   5.569 -0.5271  1.4176 -1.4453
 6359SOL    HW230711   2.928   4.229   5.599 -0.8100 -0.0470  0.9534
 6360SOL     OW30712   1.569   2.037   8.430 -0.0080  0.1185  0.2111
 6360SOL    HW130713   1.650   2.011   8.387 -0.8074  4.7708 -4.0959
 6360SOL    HW230714   1.522   2.085   8.361  0.6307  1.6036  0.8006
 6361SOL     OW30715   4.263   1.625   4.573  0.1243  0.4116 -0.2761
 6361SOL    HW130716   4.300   1.609   4.486 -0.1823 -2.5742  0.1467
 6361SOL    HW230717   4.335   1.590   4.626 -1.4461 -2.8809 -0.2946
 6362SOL     OW30718   2.923   0.314   5.350  0.1550 -0.2028  0.3737
 6362SOL    HW130719   2.934   0.220   5.338 -2.2321 -0.5362  0.7117
 6362SOL    HW230720   2.970   0.320   5.433 -0.3544  1.2806  0.5579
 6363SOL     OW30721   2.777   0.166  15.443 -0.4331 -0.0475  0.2267
 6363SOL    HW130722   2.862   0.138  15.410 -1.0211 -1.4149 -0.1278
 6363SOL    HW230723   2.712   0.101  15.415 -0.3116 -0.1041  0.0794
 6364SOL     OW30724   1.002   2.090   4.959  0.5994  0.2983  0.3620
 6364SOL    HW130725   1.053   2.045   5.026 -1.7197 -3.4453 -0.3840
 6364SOL    HW230726   0.920   2.042   4.953  1.1704 -0.6088 -0.3636
 6365SOL     OW30727   2.280   1.579   5.761 -0.3991  0.0033  0.4899
 6365SOL    HW130728   2.344   1.619   5.702 -1.0425  1.3632  0.7178
 6365SOL    HW230729   2.270   1.654   5.820  0.4503  0.7901 -0.3508
 6366SOL     OW30730   4.520   2.921  17.592 -0.4354 -0.2024  0.4182
 6366SOL    HW130731   4.561   2.835  17.602  1.5159  0.8275  1.3369
 6366SOL    HW230732   4.596   2.979  17.585 -0.5718 -0.0102  0.5371
 6367SOL     OW30733   1.161   3.018  10.739  0.3811 -0.4374 -0.3826
 6367SOL    HW130734   1.245   3.060  10.760 -0.0411  0.5129 -0.6243
 6367SOL    HW230735   1.152   3.041  10.647 -0.8660 -0.5560 -0.2835
 6368SOL     OW30736   3.541   3.157   9.138 -0.2466 -0.1372  0.0810
 6368SOL    HW130737   3.500   3.076   9.168 -1.3659  0.7966  1.0780
 6368SOL    HW230738   3.612   3.122   9.084  0.4280  0.5218  0.5575
 6369SOL     OW30739   3.038   3.148  13.101 -0.7337  0.2600  1.1721
 6369SOL    HW130740   2.955   3.191  13.122 -0.4217  0.7765  1.3592
 6369SOL    HW230741   3.014   3.108  13.017 -1.2875  0.7946  1.0759
 6370SOL     OW30742   3.647   0.605   7.903 -0.0296  0.3395 -0.2942
 6370SOL    HW130743   3.688   0.683   7.863  0.5973 -0.3593 -1.0141
 6370SOL    HW230744   3.716   0.565   7.957 -0.6345 -0.7071 -0.3040
 6371SOL     OW30745   2.249   0.027   3.092 -0.3284  0.0574  0.5089
 6371SOL    HW130746   2.193   0.081   3.149 -1.7363 -0.8995  0.0368
 6371SOL    HW230747   2.305   4.708   3.145 -0.5143  1.6872  2.4531
 6372SOL     OW30748   3.786   1.033  14.936 -0.7380 -0.1506 -0.4954
 6372SOL    HW130749   3.862   0.996  14.980 -0.0016  0.2492 -1.4372
 6372SOL    HW230750   3.831   1.091  14.875  1.8551 -1.3926  0.2496
 6373SOL     OW30751   2.412   3.530   4.325  0.5500 -0.3205  0.0978
 6373SOL    HW130752   2.402   3.572   4.410 -1.1432  1.1977 -0.8469
 6373SOL    HW230753   2.493   3.573   4.295 -0.2665  2.1606  1.4776
 6374SOL     OW30754   1.369   4.238   3.412 -0.1775 -0.4965 -0.3820
 6374SOL    HW130755   1.274   4.245   3.426 -0.0422  0.7313 -0.1177
 6374SOL    HW230756   1.395   4.296   3.482  2.7601 -0.0839 -1.8480
 6375SOL     OW30757   1.400   2.676   8.440 -0.3671  0.2064  0.1222
 6375SOL    HW130758   1.384   2.767   8.414 -0.7575  0.3577  0.8876
 6375SOL    HW230759   1.363   2.634   8.363 -0.7452  1.5507 -0.4281
 6376SOL     OW30760   1.568   1.524   1.997  0.0844  0.3952  0.5243
 6376SOL    HW130761   1.506   1.585   2.038  0.4216  0.4982  0.8904
 6376SOL    HW230762   1.512   1.474   1.938  0.7291 -0.0647  0.3043
 6377SOL     OW30763   2.162   1.837   2.082 -0.0126  0.6437  0.2187
 6377SOL    HW130764   2.176   1.744   2.065 -1.6810  0.6062 -0.9679
 6377SOL    HW230765   2.212   1.844   2.163  2.1941 -2.4296 -0.8856
 6378SOL     OW30766   2.785   1.658  17.488 -0.3117  0.1946  0.0299
 6378SOL    HW130767   2.745   1.736  17.450 -2.1529  0.0075  1.5873
 6378SOL    HW230768   2.713   1.595  17.487  1.2016 -1.5800  0.9271
 6379SOL     OW30769   1.245   0.270   8.249 -0.7460 -0.2052 -0.7614
 6379SOL    HW130770   1.259   0.359   8.283 -1.3155 -0.3488 -0.1362
 6379SOL    HW230771   1.216   0.287   8.160 -1.4236 -1.5005 -0.7833
 6380SOL     OW30772   0.515   3.321   3.158 -0.5505 -0.3670 -0.0028
 6380SOL    HW130773   0.443   3.280   3.111 -1.5235  0.7426  0.5203
 6380SOL    HW230774   0.553   3.237   3.184  2.0136 -0.0121 -2.6129
 6381SOL     OW30775   1.977   2.749   5.499  0.9692  0.4022  0.0520
 6381SOL    HW130776   1.979   2.826   5.556  0.2738  0.1262  0.4547
 6381SOL    HW230777   2.069   2.724   5.495  1.0779  1.1581 -2.3480
 6382SOL     OW30778   0.745   2.146   7.614 -0.2839  0.6373  0.1650
 6382SOL    HW130779   0.780   2.103   7.692 -0.1121  0.8295  0.1957
 6382SOL    HW230780   0.743   2.235   7.651  0.0723  2.0145 -3.1080
 6383SOL     OW30781   3.501   1.897   5.446  0.2685 -0.1231 -0.2586
 6383SOL    HW130782   3.412   1.921   5.470 -0.6805 -0.1927 -3.6779
 6383SOL    HW230783   3.486   1.804   5.463  0.4381 -0.3349 -1.2383
 6384SOL     OW30784   0.587   3.593   6.586 -0.0547 -0.4031  0.0856
 6384SOL    HW130785   0.648   3.601   6.659 -0.3114  3.8506 -0.2039
 6384SOL    HW230786   0.641   3.584   6.508  1.0201  2.5862  0.5203
 6385SOL     OW30787   2.982   1.500   3.275 -0.3991 -0.6570 -0.3512
 6385SOL    HW130788   2.984   1.466   3.365 -0.0370 -0.3098 -0.2252
 6385SOL    HW230789   3.007   1.431   3.214  1.4453  1.3062 -1.8096
 6386SOL     OW30790   0.249   1.874   8.717 -0.2324 -0.3303  0.0014
 6386SOL    HW130791   0.253   1.917   8.632  0.3481 -0.9566 -0.2989
 6386SOL    HW230792   0.178   1.916   8.765 -1.1719 -1.1390 -0.6721
 6387SOL     OW30793   1.146   4.449   4.095  0.2139  0.5365  0.0103
 6387SOL    HW130794   1.075   4.423   4.153  1.8109 -0.8453  1.3366
 6387SOL    HW230795   1.093   4.492   4.028  0.0295  3.2217  1.8622
 6388SOL     OW30796   1.203   3.104  10.197  0.0960  0.2456  0.1775
 6388SOL    HW130797   1.276   3.065  10.149  0.1313  1.6959 -0.9473
 6388SOL    HW230798   1.146   3.028  10.209  0.5438 -0.2501 -0.8463
 6389SOL     OW30799   2.441   1.234  11.561 -0.8627  0.3476 -0.0172
 6389SOL    HW130800   2.491   1.159  11.529 -1.5369  0.3404 -1.0560
 6389SOL    HW230801   2.396   1.190  11.633 -1.1348 -2.1490 -1.6720
 6390SOL     OW30802   0.144   0.414   3.284  0.1029  0.6724  0.3244
 6390SOL    HW130803   0.167   0.404   3.377  0.4642  1.9142  0.3594
 6390SOL    HW230804   0.150   0.321   3.262  0.2438  0.0630  2.8894
 6391SOL     OW30805   0.465   3.497   2.842  0.4697 -0.2648  0.2784
 6391SOL    HW130806   0.400   3.465   2.904 -0.4951 -1.7858 -1.4955
 6391SOL    HW230807   0.527   3.426   2.858 -1.2390 -1.9557 -0.5961
 6392SOL     OW30808   0.705   3.360   2.918 -0.9699  0.2913  0.2152
 6392SOL    HW130809   0.772   3.320   2.863  0.0594 -1.2660  2.5650
 6392SOL    HW230810   0.756   3.383   2.996 -1.0005 -0.0736  0.3434
 6393SOL     OW30811   2.299   1.570   0.417  0.8514 -0.0573 -0.4102
 6393SOL    HW130812   2.369   1.633   0.403 -0.7418  1.7476 -0.1689
 6393SOL    HW230813   2.347   1.494   0.449  0.5442 -0.6660 -1.3852
 6394SOL     OW30814   2.456   2.335   4.520  0.1060  0.1379  0.1678
 6394SOL    HW130815   2.436   2.411   4.466  0.5683  1.0067  1.2360
 6394SOL    HW230816   2.469   2.384   4.601  1.4268  0.0410  0.0258
 6395SOL     OW30817   2.696   0.400   8.112  0.4370 -0.7839  0.4346
 6395SOL    HW130818   2.743   0.424   8.032  1.3442 -0.0431  1.1928
 6395SOL    HW230819   2.679   0.487   8.147  1.2321 -0.6059  0.3781
 6396SOL     OW30820   1.636   2.197   3.549  0.2258 -0.4397  0.6471
 6396SOL    HW130821   1.642   2.146   3.631 -2.0167  0.3139  1.2840
 6396SOL    HW230822   1.676   2.280   3.573  0.9462 -0.5182 -0.3142
 6397SOL     OW30823   2.149   2.073   1.951 -0.2445  0.3611 -0.4335
 6397SOL    HW130824   2.204   2.051   1.875 -1.2402  1.6592 -1.5241
 6397SOL    HW230825   2.150   1.988   1.995  1.8357  0.3586 -0.4595
 6398SOL     OW30826   2.048   4.521  16.505  0.3705 -0.0982 -0.6429
 6398SOL    HW130827   2.052   4.613  16.477  0.4742  0.5037  1.3401
 6398SOL    HW230828   2.092   4.480  16.431 -0.5159  1.5001 -2.0730
 6399SOL     OW30829   3.221   4.365   4.532  0.2396  0.5367  0.7264
 6399SOL    HW130830   3.234   4.274   4.559 -2.4298  0.5029  1.9064
 6399SOL    HW230831   3.222   4.369   4.436 -0.1844 -0.3489  0.6813
 6400SOL     OW30832   3.446   4.254   8.052 -0.4103  0.1253 -0.2723
 6400SOL    HW130833   3.398   4.172   8.064 -0.9876  0.7854  1.9564
 6400SOL    HW230834   3.448   4.253   7.956 -1.6034 -0.0784 -0.3022
 6401SOL     OW30835   0.952   3.829  10.423  0.0335 -0.6689  0.2283
 6401SOL    HW130836   0.983   3.882  10.497 -1.2467  0.7037 -0.2143
 6401SOL    HW230837   0.937   3.905  10.366  1.7461 -1.5377 -1.3952
 6402SOL     OW30838   0.868   3.564   2.417 -0.2591 -0.1360 -0.3553
 6402SOL    HW130839   0.803   3.584   2.349  1.3372 -0.7128 -2.0409
 6402SOL    HW230840   0.819   3.594   2.493  0.4988 -0.2201  0.1664
 6403SOL     OW30841   0.881   3.243   3.579 -0.6825  0.0072  0.4043
 6403SOL    HW130842   0.852   3.327   3.614 -0.1414  0.1557  0.4921
 6403SOL    HW230843   0.974   3.233   3.600 -0.6299 -1.9996 -0.7591
 6404SOL     OW30844   3.526   2.715  17.207  0.0074 -0.1427 -1.1714
 6404SOL    HW130845   3.481   2.787  17.252  1.6192  0.0644  0.0867
 6404SOL    HW230846   3.454   2.686  17.151  0.5122 -2.4951 -0.5999
 6405SOL     OW30847   4.168   0.664  11.666  0.5085 -0.1704  0.2768
 6405SOL    HW130848   4.208   0.585  11.630 -1.0204 -0.2292 -1.2634
 6405SOL    HW230849   4.107   0.622  11.727  0.0468 -1.0323 -0.7819
 6406SOL     OW30850   3.028   2.882   5.149 -0.0964  0.1867  0.1390
 6406SOL    HW130851   3.040   2.859   5.057  0.1250  1.5965 -0.1726
 6406SOL    HW230852   3.059   2.972   5.154  0.5734 -0.1129  1.5699
 6407SOL     OW30853   3.024   3.626   7.649  0.4715  0.2068 -0.4190
 6407SOL    HW130854   2.934   3.593   7.650  0.4647  0.2397  0.0641
 6407SOL    HW230855   3.053   3.632   7.558 -0.1351 -2.6435 -0.7854
 6408SOL     OW30856   2.027   1.200   7.205 -0.2965  0.2352  0.0002
 6408SOL    HW130857   2.102   1.142   7.209  0.8279  1.6249 -0.8471
 6408SOL    HW230858   2.033   1.254   7.284 -0.3603  1.1088 -0.5834
 6409SOL     OW30859   0.319   0.743   3.671  0.3618  0.1403 -0.0960
 6409SOL    HW130860   0.307   0.771   3.580  0.4756 -0.1603 -0.2041
 6409SOL    HW230861   0.235   0.769   3.707 -0.7464 -2.3151 -0.9188
 6410SOL     OW30862   3.909   3.174   9.994  0.2682 -0.1145  0.3516
 6410SOL    HW130863   3.827   3.141  10.030 -0.2526 -1.0718 -1.6735
 6410SOL    HW230864   3.883   3.222   9.915 -1.9711 -0.6078  0.8087
 6411SOL     OW30865   4.229   0.763   7.912  0.2997  0.4253  0.0482
 6411SOL    HW130866   4.200   0.853   7.924 -0.1543  0.4475 -1.2550
 6411SOL    HW230867   4.154   0.721   7.868 -0.2984 -0.3437  1.8118
 6412SOL     OW30868   2.995   1.113   8.557  0.8903  0.5286 -0.0015
 6412SOL    HW130869   3.073   1.167   8.543  0.5599  1.1207  0.4137
 6412SOL    HW230870   2.974   1.070   8.474 -3.2871 -1.4408  2.1115
 6413SOL     OW30871   0.089   0.104   3.241 -0.1649 -0.4263  0.0161
 6413SOL    HW130872   0.090   0.013   3.270  1.1964 -0.6109 -0.6282
 6413SOL    HW230873   0.048   0.134   3.323  0.0284  0.7749 -0.3234
 6414SOL     OW30874   2.041   1.244   0.875  0.6800 -0.1302 -0.9184
 6414SOL    HW130875   2.056   1.338   0.866 -2.5539  0.6434  2.0144
 6414SOL    HW230876   1.978   1.262   0.944  1.6833 -0.6062  0.1125
 6415SOL     OW30877   0.670   4.123   1.254 -0.4960  0.0837  0.7384
 6415SOL    HW130878   0.699   4.038   1.222 -1.5731  0.7055 -1.8963
 6415SOL    HW230879   0.714   4.127   1.339 -0.5173 -1.7092  0.8347
 6416SOL     OW30880   4.597   0.810   4.083  0.3371 -0.1057 -0.0475
 6416SOL    HW130881   4.569   0.807   4.175 -1.6980 -2.2679 -0.7075
 6416SOL    HW230882   4.629   0.899   4.070  1.1535  0.0488  2.9589
 6417SOL     OW30883   4.094   2.133   8.228 -0.1719 -0.0063 -0.2228
 6417SOL    HW130884   4.166   2.094   8.278 -1.4159  0.7768  2.1904
 6417SOL    HW230885   4.123   2.218   8.261 -1.3081 -0.4977  2.0593
 6418SOL     OW30886   3.767   4.426   5.298 -0.4641 -0.5797  0.4069
 6418SOL    HW130887   3.725   4.510   5.316 -0.7744 -0.2723 -1.8445
 6418SOL    HW230888   3.799   4.461   5.215  0.1499 -1.0894  0.4225
 6419SOL     OW30889   0.707   0.872   6.723 -0.3495  0.2137 -0.8967
 6419SOL    HW130890   0.688   0.916   6.805 -1.1259 -3.0330  0.6701
 6419SOL    HW230891   0.656   0.917   6.655 -1.2218 -1.3866 -1.2878
 6420SOL     OW30892   4.058   4.293   7.711 -0.6013  0.2713  0.8743
 6420SOL    HW130893   4.130   4.353   7.691 -0.4289 -1.1156 -2.7645
 6420SOL    HW230894   4.005   4.299   7.631  0.8359 -0.0971 -0.0971
 6421SOL     OW30895   1.386   1.057  13.958 -0.2291 -0.6373 -0.0950
 6421SOL    HW130896   1.419   0.977  13.919  0.9206 -0.8549  1.3198
 6421SOL    HW230897   1.304   1.081  13.915 -0.5570 -0.6543  0.5246
 6422SOL     OW30898   2.881   4.626   7.844 -0.1300  0.5227  0.4151
 6422SOL    HW130899   2.912   4.685   7.776  0.3649 -0.0176  0.1730
 6422SOL    HW230900   2.861   4.545   7.797 -0.8484  1.4936 -0.9476
 6423SOL     OW30901   4.458   2.042   6.591  0.8619 -0.0096 -0.0125
 6423SOL    HW130902   4.370   2.078   6.594  1.0162  0.5565 -1.7458
 6423SOL    HW230903   4.440   1.950   6.569 -0.4388  0.8620 -2.6817
 6424SOL     OW30904   0.310   0.568   8.805  0.4937 -0.0435 -0.0012
 6424SOL    HW130905   0.276   0.483   8.776 -0.5156  0.9133 -1.6289
 6424SOL    HW230906   0.229   0.619   8.808 -0.2764 -1.3839  2.0422
 6425SOL     OW30907   0.208   2.526   9.069  0.4421 -0.1170 -0.1277
 6425SOL    HW130908   0.301   2.507   9.059  0.5134  0.2569 -0.1573
 6425SOL    HW230909   0.207   2.614   9.031 -0.4785  0.3526  0.9908
 6426SOL     OW30910   2.512   1.866  14.224 -0.1048 -0.5357  0.0414
 6426SOL    HW130911   2.458   1.807  14.172  0.5235 -0.1834 -0.9964
 6426SOL    HW230912   2.596   1.820  14.225  0.5232  0.5938 -0.8298
 6427SOL     OW30913   0.031   2.564  16.924 -0.2763 -0.1803 -0.1377
 6427SOL    HW130914   4.673   2.565  16.937 -0.1306  2.6525  0.5726
 6427SOL    HW230915   0.059   2.570  17.015  1.5779 -1.5383 -0.6172
 6428SOL     OW30916   1.624   0.882   3.516 -0.2131  0.1960 -0.0582
 6428SOL    HW130917   1.579   0.845   3.593  1.2917  1.8398  1.5913
 6428SOL    HW230918   1.703   0.828   3.521  0.0386  0.5419 -0.3856
 6429SOL     OW30919   4.296   3.742  11.111 -0.4583 -0.0854  0.2482
 6429SOL    HW130920   4.334   3.675  11.168 -0.6478 -0.0103  0.4664
 6429SOL    HW230921   4.249   3.802  11.170 -1.2231  1.0400 -1.5091
 6430SOL     OW30922   3.683   1.260   5.642  0.0279 -1.0990  0.1828
 6430SOL    HW130923   3.640   1.341   5.669  2.0724  0.3507 -0.9367
 6430SOL    HW230924   3.610   1.235   5.586 -0.3727  1.8348 -0.5950
 6431SOL     OW30925   3.463   0.765   1.919  0.4569  0.4689 -0.5230
 6431SOL    HW130926   3.461   0.757   1.823  1.3886 -0.3138 -0.4722
 6431SOL    HW230927   3.510   0.849   1.919  0.1816  0.6238 -0.0598
 6432SOL     OW30928   1.246   2.094   5.708  0.2700 -0.0650 -0.7447
 6432SOL    HW130929   1.270   2.186   5.716 -1.5376  0.1179  2.4751
 6432SOL    HW230930   1.162   2.091   5.753  0.1143  1.5141 -0.9420
 6433SOL     OW30931   1.207   1.040   2.701  0.2853 -0.1366  0.1588
 6433SOL    HW130932   1.150   1.115   2.718  0.7492  0.1446  0.4537
 6433SOL    HW230933   1.203   0.992   2.784 -2.1816 -0.8253 -0.3676
 6434SOL     OW30934   1.875   3.781  10.916 -0.2060  0.0658 -0.1376
 6434SOL    HW130935   1.869   3.873  10.891  4.1089 -0.1933 -2.0659
 6434SOL    HW230936   1.929   3.783  10.995 -0.4861  0.4919  0.0404
 6435SOL     OW30937   0.628   2.820   4.047 -0.0308  0.2590 -0.7791
 6435SOL    HW130938   0.620   2.729   4.019 -0.4348  0.2583 -0.6562
 6435SOL    HW230939   0.552   2.858   4.003 -0.7559 -0.8958 -0.5113
 6436SOL     OW30940   1.940   1.055   7.004 -0.3243 -0.5089 -0.2283
 6436SOL    HW130941   1.856   1.100   6.991  0.3639  1.0620  0.7468
 6436SOL    HW230942   1.990   1.122   7.049 -1.7797 -0.1489  0.8505
 6437SOL     OW30943   0.797   3.595  10.417  0.1293  0.2091  1.2849
 6437SOL    HW130944   0.809   3.610  10.323  0.1291 -1.6171  0.9946
 6437SOL    HW230945   0.872   3.638  10.459  0.1667  0.7793  0.6408
 6438SOL     OW30946   0.174   2.706   1.600 -0.6035 -0.2075 -0.0107
 6438SOL    HW130947   0.120   2.745   1.669 -0.7642 -1.1166  0.3750
 6438SOL    HW230948   0.243   2.772   1.596 -2.4763  1.6693 -1.6024
 6439SOL     OW30949   4.659   3.212   4.960  0.1422  0.3576  0.0435
 6439SOL    HW130950   4.669   3.188   5.052 -0.6362 -0.0989  0.0138
 6439SOL    HW230951   4.666   3.129   4.913  0.0588  0.7058 -0.5857
 6440SOL     OW30952   3.396   3.456  11.090 -0.6230 -0.7399 -0.0208
 6440SOL    HW130953   3.405   3.551  11.102 -2.6156 -0.5898  0.3248
 6440SOL    HW230954   3.302   3.443  11.076 -0.2346 -1.3906 -1.8865
 6441SOL     OW30955   1.545   3.296   4.012 -0.3133 -0.1651  0.0922
 6441SOL    HW130956   1.514   3.316   3.924 -0.2714  0.3374  0.1896
 6441SOL    HW230957   1.555   3.381   4.056  0.5141 -0.8102  1.1545
 6442SOL     OW30958   2.936   0.055   4.100  0.3574 -0.8352 -0.2338
 6442SOL    HW130959   2.978   0.042   4.015  0.5870  0.1800 -0.2799
 6442SOL    HW230960   2.915   4.701   4.122  0.2192 -0.8291 -0.3400
 6443SOL     OW30961   0.961   1.215   2.862 -0.1064  0.6740  0.8470
 6443SOL    HW130962   0.883   1.236   2.914  0.4617  2.0931  1.1258
 6443SOL    HW230963   1.007   1.298   2.872 -0.3981  0.8522  0.7020
 6444SOL     OW30964   0.084   1.528   8.731 -0.1123  0.1399 -0.3751
 6444SOL    HW130965   0.065   1.525   8.638 -1.6281  1.5441 -0.1181
 6444SOL    HW230966   0.040   1.448   8.759  1.7221  0.6363  4.0116
 6445SOL     OW30967   4.540   3.357   9.367 -0.4764  0.2332 -0.1040
 6445SOL    HW130968   4.593   3.342   9.288  1.8564 -0.2942  1.5611
 6445SOL    HW230969   4.459   3.341   9.318  0.2509  0.7935 -1.5098
 6446SOL     OW30970   0.249   0.007   7.721 -0.0760 -1.1909  0.4261
 6446SOL    HW130971   0.329   0.031   7.768  0.3009 -1.1481 -0.2397
 6446SOL    HW230972   0.215   4.666   7.765 -0.5712 -0.4674  1.3378
 6447SOL     OW30973   3.122   0.620   5.462 -0.7476  0.0901  0.0992
 6447SOL    HW130974   3.072   0.686   5.413 -2.9748 -2.0825 -0.5624
 6447SOL    HW230975   3.050   0.580   5.511 -0.5348 -0.2547  0.1294
 6448SOL     OW30976   0.323   1.862   6.873 -0.2158  0.6172 -0.7099
 6448SOL    HW130977   0.305   1.819   6.956 -1.6267 -0.5909 -1.6395
 6448SOL    HW230978   0.278   1.944   6.892 -0.7673 -0.1670  1.3780
 6449SOL     OW30979   2.974   0.711  13.481  0.1003  0.0371  0.1086
 6449SOL    HW130980   2.901   0.755  13.524 -0.4901 -0.9932  0.1592
 6449SOL    HW230981   3.008   0.671  13.561  0.2292 -0.5335 -0.2383
 6450SOL     OW30982   3.528   2.546   5.671  1.1396 -0.5302 -0.0616
 6450SOL    HW130983   3.536   2.608   5.744  0.3311  0.9693 -1.2478
 6450SOL    HW230984   3.608   2.495   5.681  1.5751  0.4997  1.7323
 6451SOL     OW30985   2.312   4.193   6.837 -0.3049  0.7696 -0.0666
 6451SOL    HW130986   2.324   4.288   6.828  3.0524  0.6058  2.7224
 6451SOL    HW230987   2.232   4.197   6.889 -0.6258 -0.2052 -0.4979
 6452SOL     OW30988   0.740   1.349  10.531  0.4436 -0.3764  0.2544
 6452SOL    HW130989   0.658   1.388  10.561  0.7336 -0.8913  1.7141
 6452SOL    HW230990   0.716   1.257  10.519  0.9707 -0.3023 -1.3209
 6453SOL     OW30991   2.643   4.666   2.707 -0.2459 -0.2256  0.2959
 6453SOL    HW130992   2.700   4.727   2.753  2.0178 -1.1997 -1.2264
 6453SOL    HW230993   2.671   4.584   2.748 -2.2097 -1.1929 -0.3094
 6454SOL     OW30994   4.328   2.122   1.445  0.4771  0.0465  0.2695
 6454SOL    HW130995   4.278   2.203   1.440  0.5400  0.1634  1.6533
 6454SOL    HW230996   4.288   2.070   1.515  0.5302 -0.2558  0.0749
 6455SOL     OW30997   4.100   1.333   9.474 -0.0661 -0.7005 -0.4834
 6455SOL    HW130998   4.107   1.343   9.569  1.1135  0.2445 -0.6685
 6455SOL    HW230999   4.012   1.365   9.456  0.0747 -0.3242 -0.5149
 6456SOL     OW31000   3.683   2.474   1.781 -0.0260  0.0150  0.2137
 6456SOL    HW131001   3.675   2.496   1.688  1.8463  1.8690  0.4911
 6456SOL    HW231002   3.744   2.544   1.804 -2.0336  2.5760 -2.3165
 6457SOL     OW31003   2.961   0.604   5.959  0.7181  0.2011 -0.1021
 6457SOL    HW131004   2.953   0.570   6.048 -1.3834  0.2840 -0.2641
 6457SOL    HW231005   2.871   0.600   5.927  0.9632  0.6151 -0.8545
 6458SOL     OW31006   1.298   4.460   7.635  0.4512 -1.0178 -0.4647
 6458SOL    HW131007   1.277   4.382   7.584 -1.8098 -0.0100 -1.0916
 6458SOL    HW231008   1.301   4.527   7.566 -1.6346 -1.1092 -0.6388
 6459SOL     OW31009   1.088   2.262   4.437  0.7595 -0.3816 -0.2194
 6459SOL    HW131010   1.158   2.196   4.440 -0.0631 -1.3546 -2.7157
 6459SOL    HW231011   1.140   2.342   4.437  1.8878 -1.1015 -0.3513
 6460SOL     OW31012   0.692   0.562  13.929  0.6988  0.3935  0.0221
 6460SOL    HW131013   0.636   0.487  13.949 -0.3408  0.8780 -1.0915
 6460SOL    HW231014   0.759   0.518  13.877  0.8763 -0.5829  1.0585
 6461SOL     OW31015   0.522   0.464  16.917 -0.0996  0.6780  0.1392
 6461SOL    HW131016   0.465   0.470  16.841  1.8689 -0.7851 -1.4309
 6461SOL    HW231017   0.580   0.537  16.895 -0.0876 -0.0184 -2.0848
 6462SOL     OW31018   2.398   2.929   0.271  0.7612  0.3467 -0.1751
 6462SOL    HW131019   2.468   2.947   0.334  2.3003  1.6192 -2.2719
 6462SOL    HW231020   2.374   3.015   0.236  1.2205  0.6569  0.2655
 6463SOL     OW31021   0.429   1.872   1.090  0.2652 -0.1426  0.2874
 6463SOL    HW131022   0.344   1.914   1.103  0.4379  0.9954 -2.2822
 6463SOL    HW231023   0.481   1.896   1.167  0.0983  1.6691 -0.1481
 6464SOL     OW31024   1.671   3.015   5.853 -0.5748 -0.4855 -0.4522
 6464SOL    HW131025   1.673   3.074   5.928 -2.0911 -1.6234  0.4700
 6464SOL    HW231026   1.762   2.985   5.849 -1.1593 -2.1926 -1.0427
 6465SOL     OW31027   3.950   1.600   8.330  0.1611  0.1312  1.1503
 6465SOL    HW131028   4.018   1.533   8.329 -0.3373 -0.3697  0.5907
 6465SOL    HW231029   4.006   1.672   8.302  3.0370 -1.4680  2.8167
 6466SOL     OW31030   0.926   3.427   3.079 -0.6333 -0.5076 -0.2180
 6466SOL    HW131031   0.933   3.417   3.174  1.0963  0.8121 -0.2111
 6466SOL    HW231032   0.971   3.345   3.056 -2.1793 -1.3728 -0.1156
 6467SOL     OW31033   4.519   1.111   9.227  0.2754 -0.6728 -0.5034
 6467SOL    HW131034   4.507   1.031   9.279  1.4615 -0.4888  0.0457
 6467SOL    HW231035   4.434   1.154   9.238 -0.9255 -2.2642 -3.3204
 6468SOL     OW31036   2.111   3.615   1.777 -0.2865  0.0719  0.0529
 6468SOL    HW131037   2.097   3.584   1.687  4.0036 -2.1397  0.1726
 6468SOL    HW231038   2.058   3.545   1.817 -0.2179  0.3217  0.5673
 6469SOL     OW31039   1.730   2.610   6.845  1.0603 -0.2170  0.2776
 6469SOL    HW131040   1.797   2.627   6.911  1.4896  2.4779 -0.8600
 6469SOL    HW231041   1.657   2.589   6.904  0.6894  0.4880  0.0722
 6470SOL     OW31042   1.252   3.904   2.994 -0.4894  0.3762  0.5152
 6470SOL    HW131043   1.317   3.930   3.059 -2.0686 -1.7022  2.9723
 6470SOL    HW231044   1.267   3.809   2.998  1.8531  0.7434  0.5214
 6471SOL     OW31045   0.495   4.028   6.250  0.4126 -0.5280 -0.0750
 6471SOL    HW131046   0.459   4.004   6.336 -1.1103  2.4186  0.1183
 6471SOL    HW231047   0.575   4.076   6.274  0.3578 -1.4083  1.9040
 6472SOL     OW31048   3.217   2.962  16.822 -0.1381  0.2446 -0.0528
 6472SOL    HW131049   3.234   2.884  16.769  2.0375  1.4775 -1.1426
 6472SOL    HW231050   3.238   3.030  16.759  2.0623  0.5891  1.0488
 6473SOL     OW31051   2.401   0.598   5.347  0.1879 -0.3537  0.7532
 6473SOL    HW131052   2.489   0.625   5.320  0.3684 -0.6832  1.0074
 6473SOL    HW231053   2.412   0.605   5.442  3.2830 -0.1073  0.3548
 6474SOL     OW31054   1.370   3.423   1.777  0.1032  0.6487  0.1899
 6474SOL    HW131055   1.327   3.422   1.691  2.4545  1.5644 -1.0002
 6474SOL    HW231056   1.461   3.426   1.748 -0.1098  1.7685 -0.3615
 6475SOL     OW31057   2.515   1.126   2.417 -0.4172  0.3472  0.5520
 6475SOL    HW131058   2.419   1.125   2.427 -0.6151 -0.0615 -1.3712
 6475SOL    HW231059   2.525   1.031   2.414  1.7974  0.5254  3.0208
 6476SOL     OW31060   4.562   3.807   6.738 -0.0178  0.3750  0.4058
 6476SOL    HW131061   4.620   3.754   6.684 -1.0160  0.5748 -0.8834
 6476SOL    HW231062   4.481   3.757   6.727  1.4586 -2.9100  4.4083
 6477SOL     OW31063   1.542   4.482   7.787 -0.2201 -0.0641  0.9019
 6477SOL    HW131064   1.488   4.465   7.864 -3.0134 -0.4046 -1.1169
 6477SOL    HW231065   1.476   4.480   7.718  0.9082 -1.9159 -0.1407
 6478SOL     OW31066   0.836   3.751   8.768 -0.1802  0.1688 -0.3889
 6478SOL    HW131067   0.826   3.662   8.803 -0.4302  0.1011 -0.6296
 6478SOL    HW231068   0.748   3.757   8.731  0.2351  3.5656 -0.7929
 6479SOL     OW31069   3.849   1.287   8.502 -0.5833  0.2659  0.6573
 6479SOL    HW131070   3.879   1.237   8.425  0.0073  0.9255  0.4575
 6479SOL    HW231071   3.828   1.220   8.567 -0.8866  0.8750  1.1763
 6480SOL     OW31072   1.603   2.913  10.525 -0.3958  0.3257 -0.1247
 6480SOL    HW131073   1.614   2.916  10.620 -0.4041 -1.3220 -0.0676
 6480SOL    HW231074   1.507   2.907  10.521 -0.5121  0.8424  1.9103
 6481SOL     OW31075   3.941   3.987   1.943 -0.4309  0.2660  0.1164
 6481SOL    HW131076   3.900   3.912   1.986 -1.2000  2.3064  2.9149
 6481SOL    HW231077   3.946   3.951   1.854  0.8550 -0.0952  0.3345
 6482SOL     OW31078   3.070   3.190   4.717 -0.6473 -0.2548  0.4766
 6482SOL    HW131079   3.120   3.142   4.782  0.4454  0.2959  0.0412
 6482SOL    HW231080   3.099   3.130   4.648  1.9418  1.6455 -0.0942
 6483SOL     OW31081   1.731   3.638   2.337  0.0301 -0.5045  0.2822
 6483SOL    HW131082   1.744   3.607   2.426 -3.0633  0.9993  1.2337
 6483SOL    HW231083   1.644   3.606   2.311 -0.8641  1.4093  0.9105
 6484SOL     OW31084   3.937   2.655   3.466  0.4315  0.2061 -0.5877
 6484SOL    HW131085   3.865   2.594   3.477  0.3486  0.4625  0.2792
 6484SOL    HW231086   3.894   2.735   3.495  0.8602  0.5913 -1.0117
 6485SOL     OW31087   0.711   1.645   0.161 -0.2040 -0.5454 -0.0990
 6485SOL    HW131088   0.632   1.686   0.197  1.3101  3.3512 -1.1978
 6485SOL    HW231089   0.717   1.685   0.075  3.8071 -0.5958  0.1644
 6486SOL     OW31090   2.255   2.370   1.822 -0.0038 -0.1943  0.4319
 6486SOL    HW131091   2.322   2.437   1.819  0.3203 -0.5208  0.3408
 6486SOL    HW231092   2.178   2.415   1.788 -0.7302 -1.2087  0.7207
 6487SOL     OW31093   2.934   2.868   2.331 -0.2443 -0.0730  0.3565
 6487SOL    HW131094   2.967   2.847   2.419  0.0603  1.4484  0.6073
 6487SOL    HW231095   2.840   2.870   2.350  0.0874  1.7273  1.7166
 6488SOL     OW31096   4.154   3.431  17.698 -0.7792  0.1713 -0.4973
 6488SOL    HW131097   4.135   3.340  17.719  1.2979  0.1703  1.3372
 6488SOL    HW231098   4.210   3.455   0.025  1.5856  0.7840 -2.5074
 6489SOL     OW31099   3.756   1.165   3.149 -0.2562 -0.3391  0.6296
 6489SOL    HW131100   3.781   1.114   3.226  0.2408 -1.4242 -0.2587
 6489SOL    HW231101   3.706   1.095   3.107  1.6575 -1.1955 -0.2166
 6490SOL     OW31102   3.858   1.047   8.711  0.5641  0.6088  0.0418
 6490SOL    HW131103   3.942   1.003   8.699 -0.6561 -1.9589  0.9039
 6490SOL    HW231104   3.871   1.102   8.789 -1.3488  1.6779 -0.3810
 6491SOL     OW31105   4.123   4.736   5.782 -0.2170  0.4683 -0.2846
 6491SOL    HW131106   4.200   0.045   5.749  1.2339 -1.1781  0.8459
 6491SOL    HW231107   4.161   4.652   5.807 -5.3638 -2.4075 -2.0494
 6492SOL     OW31108   0.647   3.908   8.359  0.5202 -0.3346 -0.9050
 6492SOL    HW131109   0.643   3.949   8.446 -1.6953 -0.0963 -1.1095
 6492SOL    HW231110   0.630   3.980   8.299 -0.7896  1.9624  2.1970
 6493SOL     OW31111   3.644   3.866   3.787 -0.7271  0.1099 -0.1064
 6493SOL    HW131112   3.652   3.771   3.782  0.6175  0.2984 -1.4172
 6493SOL    HW231113   3.715   3.900   3.732  0.0585  2.4024  2.3063
 6494SOL     OW31114   0.573   2.096   4.152 -0.4454 -0.3404 -0.1984
 6494SOL    HW131115   0.604   2.171   4.203 -1.9507  0.5778 -0.6507
 6494SOL    HW231116   0.629   2.106   4.075  1.3467 -0.5007  1.0748
 6495SOL     OW31117   3.547   4.144  13.479 -0.2799  0.0422 -0.4312
 6495SOL    HW131118   3.586   4.166  13.395  2.2920 -0.0673  0.7173
 6495SOL    HW231119   3.456   4.163  13.461 -0.9353  1.8237  4.6137
 6496SOL     OW31120   0.270   2.894   8.279  0.0592  0.1861 -0.0743
 6496SOL    HW131121   0.286   2.903   8.373 -1.3108  2.2799 -0.0216
 6496SOL    HW231122   0.180   2.926   8.265 -0.1100 -0.4322 -0.3842
 6497SOL     OW31123   0.608   2.519   7.271  0.3433  0.1547  0.3669
 6497SOL    HW131124   0.568   2.432   7.272  2.1915 -0.7109 -0.2948
 6497SOL    HW231125   0.582   2.557   7.354 -0.4261  1.5483 -0.5139
 6498SOL     OW31126   2.557   1.123   5.745 -0.3336  0.5780 -0.6389
 6498SOL    HW131127   2.648   1.148   5.756 -0.0521 -0.0133 -1.7009
 6498SOL    HW231128   2.528   1.208   5.779 -1.9494 -1.0916  2.2080
 6499SOL     OW31129   1.812   0.427   0.395 -0.5149  0.1527 -0.6940
 6499SOL    HW131130   1.859   0.386   0.467 -0.8588  0.5174 -0.2605
 6499SOL    HW231131   1.876   0.421   0.324  2.0412 -1.1107  1.7209
 6500SOL     OW31132   1.737   2.671   9.609  0.0537  0.5097  0.0037
 6500SOL    HW131133   1.758   2.745   9.665 -1.2760  1.6279 -0.9593
 6500SOL    HW231134   1.646   2.650   9.631  0.7800 -1.8446  0.7629
 6501SOL     OW31135   2.119   0.497   8.835 -0.3821 -0.7868  0.7013
 6501SOL    HW131136   2.065   0.529   8.764  1.1454  2.0613  0.8487
 6501SOL    HW231137   2.204   0.539   8.819 -1.9972  1.5206 -1.6801
 6502SOL     OW31138   1.901   3.588   2.107 -0.1158 -0.5330  0.4000
 6502SOL    HW131139   1.848   3.581   2.187 -0.4514 -1.4131  0.1001
 6502SOL    HW231140   1.917   3.682   2.110 -2.5771 -0.0836 -0.6215
 6503SOL     OW31141   1.127   1.224   4.465  0.4749 -0.0939  0.1851
 6503SOL    HW131142   1.179   1.165   4.410  2.2453  0.3508  1.4110
 6503SOL    HW231143   1.123   1.173   4.545  2.8766 -1.0987 -0.3527
 6504SOL     OW31144   3.412   4.660   2.314  0.5886  0.0377  0.4043
 6504SOL    HW131145   3.383   0.000   2.362  1.4602 -0.5108  1.8089
 6504SOL    HW231146   3.358   4.599   2.363 -3.0216  2.6135 -0.3984
 6505SOL     OW31147   1.285   3.200   9.220 -0.3915 -0.4713 -0.6191
 6505SOL    HW131148   1.310   3.186   9.129  0.6804 -2.0557 -0.0724
 6505SOL    HW231149   1.227   3.127   9.244  0.7441 -0.9198  0.7755
 6506SOL     OW31150   1.078   0.622   2.295  0.0131 -0.0295 -0.5515
 6506SOL    HW131151   1.110   0.555   2.355  2.2334  1.1823 -0.3542
 6506SOL    HW231152   1.062   0.687   2.363 -1.7500 -0.8503 -0.2044
 6507SOL     OW31153   4.650   2.808   6.635 -0.1169 -0.2408 -0.4037
 6507SOL    HW131154   4.728   2.774   6.592  0.4287 -1.0299  1.2110
 6507SOL    HW231155   4.654   2.762   6.719  2.1075  3.1772  1.3971
 6508SOL     OW31156   4.430   2.132   0.599  0.0443  0.3914  0.2316
 6508SOL    HW131157   4.411   2.090   0.515 -0.7481  1.2356 -0.0102
 6508SOL    HW231158   4.343   2.167   0.617  0.0560 -0.1136  1.2497
 6509SOL     OW31159   0.069   1.756  15.048  0.5388 -0.0370 -0.0611
 6509SOL    HW131160   0.148   1.810  15.047 -0.0796  0.8733  0.6541
 6509SOL    HW231161   0.100   1.667  15.030  2.7029  0.9775 -1.4221
 6510SOL     OW31162   2.743   1.448  12.871 -0.3346  0.1111 -0.4793
 6510SOL    HW131163   2.788   1.398  12.939  2.1632  1.2271 -1.3386
 6510SOL    HW231164   2.823   1.492  12.843  0.2139 -0.7374 -0.2711
 6511SOL     OW31165   3.723   1.820  14.677 -1.3721 -0.5400  0.6650
 6511SOL    HW131166   3.738   1.897  14.732  1.1801 -0.7500  0.2791
 6511SOL    HW231167   3.792   1.756  14.694 -1.8155 -0.8058  1.4810
 6512SOL     OW31168   3.609   4.608   7.681  0.1130  0.6562 -0.2987
 6512SOL    HW131169   3.543   4.603   7.750  0.4428 -2.1742 -0.1576
 6512SOL    HW231170   3.556   4.641   7.608  0.3266 -0.1761 -0.8333
 6513SOL     OW31171   4.735   1.106   0.644  0.3119  0.4145  1.0459
 6513SOL    HW131172   0.032   1.020   0.665  2.0817  1.1109  1.0106
 6513SOL    HW231173   0.063   1.142   0.584 -0.7404  1.6321  0.6347
 6514SOL     OW31174   3.610   2.253   2.286 -0.2855 -0.5167 -0.1465
 6514SOL    HW131175   3.544   2.223   2.348 -0.7391 -0.3706 -0.5561
 6514SOL    HW231176   3.587   2.190   2.217  0.4269 -0.8855 -0.0431
 6515SOL     OW31177   0.588   2.555   3.948 -0.3646 -0.0964  0.2628
 6515SOL    HW131178   0.567   2.509   4.030 -1.0107 -0.6119 -0.1954
 6515SOL    HW231179   0.535   2.514   3.880 -1.3784 -0.8229  1.4864
 6516SOL     OW31180   1.081   0.426  15.511  0.2659  0.0005 -0.1428
 6516SOL    HW131181   1.033   0.468  15.582 -0.9448 -1.2036 -0.2442
 6516SOL    HW231182   1.149   0.493  15.503  0.6639 -0.2989  0.8185
 6517SOL     OW31183   4.362   2.078  15.553 -0.1387  0.0208  0.2285
 6517SOL    HW131184   4.306   2.101  15.627  0.9111 -2.1595  1.6968
 6517SOL    HW231185   4.446   2.076  15.599  0.2662 -1.9725 -0.6025
 6518SOL     OW31186   1.688   0.061   6.045  0.2007 -0.0643 -0.2510
 6518SOL    HW131187   1.661   0.152   6.033 -0.2815 -0.1518  0.1574
 6518SOL    HW231188   1.736   0.071   6.127 -2.9697  1.9087  1.3812
 6519SOL     OW31189   3.124   2.400   3.549  0.8613 -1.2120  0.6044
 6519SOL    HW131190   3.151   2.479   3.502  2.4564 -1.4963  1.0572
 6519SOL    HW231191   3.083   2.353   3.476 -1.6474  1.5407  0.2300
 6520SOL     OW31192   0.172   3.046   9.777 -0.0534  0.1611  0.1468
 6520SOL    HW131193   0.126   3.099   9.842 -0.9311 -0.4008 -0.0140
 6520SOL    HW231194   0.265   3.065   9.789  0.3359 -1.4040 -0.4391
 6521SOL     OW31195   4.165   3.137   6.189  0.0657  0.0149 -0.2881
 6521SOL    HW131196   4.208   3.198   6.129 -0.1769  0.6664  0.1992
 6521SOL    HW231197   4.246   3.090   6.211 -0.5710 -0.6870  0.5434
 6522SOL     OW31198   0.602   4.473   9.727 -0.0739  0.3839  0.1100
 6522SOL    HW131199   0.661   4.460   9.652 -0.6789  1.8387 -0.6107
 6522SOL    HW231200   0.521   4.441   9.687 -0.1192 -0.4232  0.8565
 6523SOL     OW31201   1.976   2.522   1.369  0.6902  0.4607 -0.1085
 6523SOL    HW131202   1.889   2.486   1.389 -0.3318  2.8218 -0.2502
 6523SOL    HW231203   1.965   2.554   1.279  2.8287 -0.5534 -0.7100
 6524SOL     OW31204   0.097   1.815  14.617  0.4522  0.2489  0.0624
 6524SOL    HW131205   0.014   1.838  14.658  0.9214  0.7515  0.7185
 6524SOL    HW231206   0.166   1.871  14.653 -0.0352 -0.7931  2.5643
 6525SOL     OW31207   1.941   2.508   3.006 -0.1192 -0.3678  0.1062
 6525SOL    HW131208   2.015   2.540   3.059  1.4001 -2.8428 -0.4967
 6525SOL    HW231209   1.982   2.470   2.928 -3.0790 -0.1680 -1.5397
 6526SOL     OW31210   1.140   3.832  10.070  0.4583  0.6046 -0.0809
 6526SOL    HW131211   1.166   3.813   9.980 -0.0636 -1.6875  0.2457
 6526SOL    HW231212   1.190   3.912  10.081  0.4175  0.5171  0.7611
 6527SOL     OW31213   1.858   0.602   6.864 -0.0992  0.6560 -0.3549
 6527SOL    HW131214   1.940   0.553   6.875 -0.2103  0.6495  0.4289
 6527SOL    HW231215   1.818   0.608   6.951 -1.6727  1.4426 -1.1250
 6528SOL     OW31216   0.381   1.015   2.957 -0.0383  0.2934 -0.2275
 6528SOL    HW131217   0.316   1.080   2.984 -1.2028 -1.6815  1.7144
 6528SOL    HW231218   0.326   0.940   2.934 -0.3221  0.4280 -0.0010
 6529SOL     OW31219   2.391   1.791  10.106  0.3999  0.1007  0.2116
 6529SOL    HW131220   2.432   1.757  10.185  2.1467 -1.7533 -1.4934
 6529SOL    HW231221   2.409   1.721  10.044 -0.1561  0.2182 -0.0833
 6530SOL     OW31222   0.072   0.608   9.699  0.4761 -0.3558  0.3040
 6530SOL    HW131223   4.737   0.606   9.762  0.5035 -1.1785  0.3047
 6530SOL    HW231224   0.145   0.618   9.760  0.1088  1.5042  0.4643
 6531SOL     OW31225   2.907   0.069   5.516  0.0539  0.4577  0.0309
 6531SOL    HW131226   2.937   0.150   5.558  0.9308 -0.6577  1.5603
 6531SOL    HW231227   2.823   0.041   5.552 -0.7381  1.3873 -1.0895
 6532SOL     OW31228   3.893   3.680   2.950  1.0173  0.2211  0.5070
 6532SOL    HW131229   3.921   3.705   3.038  0.6117  0.0218  0.6937
 6532SOL    HW231230   3.971   3.668   2.896  0.5603 -0.8422  0.0891
 6533SOL     OW31231   3.821   1.603   8.008 -0.6290  0.4682  0.6417
 6533SOL    HW131232   3.776   1.583   7.926 -1.0776  1.0330  0.7444
 6533SOL    HW231233   3.913   1.619   7.988 -0.6454  0.9177  0.9068
 6534SOL     OW31234   0.744   4.476   4.361 -0.0532 -0.1276  0.1375
 6534SOL    HW131235   0.684   4.502   4.290  2.1298 -1.6212 -2.2268
 6534SOL    HW231236   0.679   4.465   4.431 -0.0790 -0.2603  0.0936
 6535SOL     OW31237   3.906   0.416  16.673 -0.2145 -0.5091  0.7358
 6535SOL    HW131238   3.912   0.362  16.594 -4.7874  1.3748 -0.9083
 6535SOL    HW231239   3.960   0.493  16.658  0.2911 -0.6939  1.6311
 6536SOL     OW31240   2.975   0.746   7.461  0.2569  0.4476 -0.0593
 6536SOL    HW131241   2.971   0.841   7.472  0.4706  0.3132  1.1554
 6536SOL    HW231242   2.903   0.717   7.517  0.9309 -2.2949 -0.6469
 6537SOL     OW31243   1.272   4.509   7.888  0.6536 -0.2170 -0.1835
 6537SOL    HW131244   1.277   4.468   7.802 -0.8185 -1.4434  0.3066
 6537SOL    HW231245   1.207   4.458   7.936  0.2014 -1.6521 -2.3190
 6538SOL     OW31246   1.942   1.034   2.567 -0.3886  0.2049 -0.0555
 6538SOL    HW131247   1.971   0.967   2.629 -2.8536  0.0234  0.9042
 6538SOL    HW231248   1.870   1.076   2.614 -0.3460  0.6203 -0.3684
 6539SOL     OW31249   3.325   2.398  10.459 -0.2789  0.0700 -0.1908
 6539SOL    HW131250   3.300   2.432  10.545  0.9166 -1.0557  0.5969
 6539SOL    HW231251   3.317   2.476  10.404  0.9345  0.3664  0.0620
 6540SOL     OW31252   3.338   0.678  15.789  0.2828  0.2172  0.2382
 6540SOL    HW131253   3.377   0.621  15.855 -1.2474 -0.9916  0.1055
 6540SOL    HW231254   3.245   0.663  15.808  0.1823  1.2951  0.6214
 6541SOL     OW31255   0.883   2.108   4.361 -0.0514 -0.0475  0.6314
 6541SOL    HW131256   0.919   2.026   4.394 -1.4843 -0.9114  0.0491
 6541SOL    HW231257   0.944   2.173   4.395 -1.4055  1.2943  0.4739
 6542SOL     OW31258   2.172   1.913   4.625  0.5061 -0.4378 -0.6796
 6542SOL    HW131259   2.124   1.946   4.549  1.2116 -1.4213 -1.5528
 6542SOL    HW231260   2.103   1.853   4.655 -1.3767  1.0859 -1.9743
 6543SOL     OW31261   4.056   4.176   8.687 -0.3283 -0.4189 -0.3352
 6543SOL    HW131262   4.099   4.125   8.618 -1.2786 -0.1309 -1.1500
 6543SOL    HW231263   4.008   4.241   8.635  0.0664 -1.1050 -1.5379
 6544SOL     OW31264   4.267   0.463   2.695 -0.3232  0.2259 -0.0158
 6544SOL    HW131265   4.176   0.475   2.722 -0.9957 -2.3105 -1.1586
 6544SOL    HW231266   4.301   0.426   2.776 -2.4466 -2.3613 -0.2933
 6545SOL     OW31267   1.777   3.584  11.938  0.5088 -0.3823  0.0448
 6545SOL    HW131268   1.714   3.611  11.871  1.4125 -1.3364 -1.1731
 6545SOL    HW231269   1.751   3.493  11.952 -2.0392  0.0463 -1.8035
 6546SOL     OW31270   1.666   4.390  13.186 -0.2362  0.3625 -0.3294
 6546SOL    HW131271   1.653   4.440  13.266 -0.2621  0.2040 -0.2350
 6546SOL    HW231272   1.761   4.393  13.180 -0.2631  1.3935 -0.2466
 6547SOL     OW31273   3.362   2.015  15.051  0.0919 -0.3413  0.3195
 6547SOL    HW131274   3.408   1.962  14.985  0.1134 -0.3263  0.3223
 6547SOL    HW231275   3.284   1.960  15.054 -0.7640  0.7912 -1.3646
 6548SOL     OW31276   0.755   3.454   3.680  0.5223 -0.2829  0.0260
 6548SOL    HW131277   0.674   3.473   3.634  0.7352 -0.9898 -0.6513
 6548SOL    HW231278   0.724   3.441   3.769 -0.7661  1.3329 -0.1808
 6549SOL     OW31279   3.511   4.436  15.556 -0.7379  0.1542 -0.3641
 6549SOL    HW131280   3.513   4.392  15.641  0.7519 -0.0138 -0.4922
 6549SOL    HW231281   3.599   4.474  15.559  0.5786 -2.5635 -4.4118
 6550SOL     OW31282   4.558   4.727   7.908 -0.1236 -0.0240 -0.6237
 6550SOL    HW131283   4.514   0.051   7.968  3.7336  0.2961  1.8625
 6550SOL    HW231284   4.550   4.640   7.949 -3.3989  1.1200  1.1852
 6551SOL     OW31285   4.443   2.175  13.410 -0.0449 -0.7126 -0.1715
 6551SOL    HW131286   4.415   2.206  13.496 -3.0378  2.3460 -2.2398
 6551SOL    HW231287   4.429   2.254  13.358 -0.7834 -0.3050  0.6463
 6552SOL     OW31288   2.300   2.717   6.705 -0.2839 -0.3741  0.0555
 6552SOL    HW131289   2.319   2.793   6.761  0.6372  0.2736 -1.1173
 6552SOL    HW231290   2.235   2.739   6.638  0.0832  0.2973 -0.0825
 6553SOL     OW31291   4.156   4.712   7.580 -0.4618  0.1339 -0.2841
 6553SOL    HW131292   4.214   0.033   7.531  0.5565 -1.2129 -0.6771
 6553SOL    HW231293   4.128   0.036   7.647  0.1895 -0.9240  0.9501
 6554SOL     OW31294   1.080   4.492   6.092  0.0486 -0.2822 -0.0023
 6554SOL    HW131295   1.011   4.443   6.047  0.2918 -2.5542  2.0868
 6554SOL    HW231296   1.148   4.438   6.053  1.8244  0.6209  1.8646
 6555SOL     OW31297   4.074   0.334   7.290  0.5683  0.2740  0.6689
 6555SOL    HW131298   4.141   0.267   7.304 -0.6205 -1.1264 -0.4323
 6555SOL    HW231299   4.126   0.413   7.306 -0.8627  1.2054  0.7281
 6556SOL     OW31300   1.097   3.920   7.179  0.5254  0.1459  0.4110
 6556SOL    HW131301   1.017   3.957   7.215  0.7869  2.6480 -1.5991
 6556SOL    HW231302   1.085   3.825   7.178 -0.1262  0.2385 -1.1811
 6557SOL     OW31303   3.968   0.964   4.868  0.1836  0.2339 -0.7558
 6557SOL    HW131304   3.973   1.059   4.878 -2.3823  0.2164  0.8677
 6557SOL    HW231305   3.919   0.956   4.786 -0.1190 -0.1902 -0.5331
 6558SOL     OW31306   3.127   2.649   4.013  0.3794 -0.2773  0.0385
 6558SOL    HW131307   3.093   2.632   3.925  2.9701  0.7281 -1.1824
 6558SOL    HW231308   3.212   2.689   3.993  1.1142 -1.3555  1.0595
 6559SOL     OW31309   3.185   3.260   2.664  0.3549  0.3326 -0.0532
 6559SOL    HW131310   3.207   3.170   2.638 -0.2279  0.1609  0.0342
 6559SOL    HW231311   3.092   3.256   2.641 -0.4103  2.7647  2.5521
 6560SOL     OW31312   4.616   2.190   0.001 -0.2185 -0.0866 -0.0820
 6560SOL    HW131313   4.611   2.278   0.036  0.3012  0.5498 -1.5998
 6560SOL    HW231314   4.643   2.141   0.078  2.1297  2.2554  0.5791
 6561SOL     OW31315   4.123   3.519   4.116 -0.6736  0.2818  0.9191
 6561SOL    HW131316   4.067   3.591   4.088  1.0645  1.0840 -0.4790
 6561SOL    HW231317   4.165   3.553   4.195 -0.7822 -0.8204  1.4559
 6562SOL     OW31318   4.231   4.351   9.433  0.2157  0.1564 -0.3090
 6562SOL    HW131319   4.283   4.292   9.487  1.7233  0.4721 -1.4382
 6562SOL    HW231320   4.277   4.435   9.438  1.1295 -0.3650  0.0715
 6563SOL     OW31321   0.712   3.286   2.332  0.2786 -0.4034 -0.5649
 6563SOL    HW131322   0.739   3.298   2.423  2.7829 -1.7175 -1.1223
 6563SOL    HW231323   0.674   3.199   2.340  1.2965 -0.8414 -0.5102
 6564SOL     OW31324   1.556   1.198   1.115  0.4946  0.3747 -0.3781
 6564SOL    HW131325   1.495   1.137   1.073 -0.8328 -1.2514  3.9010
 6564SOL    HW231326   1.562   1.153   1.198  0.8895 -1.2318 -1.2822
 6565SOL     OW31327   1.990   2.620   2.561 -0.2831  0.4622 -0.5112
 6565SOL    HW131328   2.050   2.648   2.492  1.9415 -0.4836  1.0362
 6565SOL    HW231329   1.911   2.658   2.523 -0.8633  1.5256  1.8010
 6566SOL     OW31330   0.885   0.954   9.333 -0.3697 -0.0697  0.7672
 6566SOL    HW131331   0.925   0.914   9.410  0.0590 -0.9494  0.0963
 6566SOL    HW231332   0.792   0.952   9.355 -0.3888 -1.4789  0.5776
 6567SOL     OW31333   2.093   4.664   2.423 -0.0432 -0.5112  0.0606
 6567SOL    HW131334   2.026   4.714   2.377  3.4630  1.0122 -3.4214
 6567SOL    HW231335   2.143   4.734   2.465 -0.7105 -0.2242  0.3700
 6568SOL     OW31336   2.820   1.723   3.994 -0.1417 -0.3507  0.6136
 6568SOL    HW131337   2.743   1.685   4.035 -1.7851 -0.1693 -2.2906
 6568SOL    HW231338   2.790   1.722   3.903 -0.3505  0.4808  0.6726
 6569SOL     OW31339   2.275   3.838   1.319 -0.5907 -0.0932  0.3954
 6569SOL    HW131340   2.342   3.823   1.253  0.6741 -1.2375  1.9332
 6569SOL    HW231341   2.311   3.906   1.376  1.5679  0.5062 -1.6799
 6570SOL     OW31342   2.686   0.613   5.327  0.0813  0.0824 -0.1475
 6570SOL    HW131343   2.684   0.519   5.309  0.1245 -0.0152  0.3621
 6570SOL    HW231344   2.774   0.641   5.302 -0.2652 -0.1906 -1.6483
 6571SOL     OW31345   3.466   4.277   3.581  0.1490 -0.0565 -0.3307
 6571SOL    HW131346   3.547   4.297   3.535 -0.2694  1.1020 -0.5634
 6571SOL    HW231347   3.449   4.185   3.562 -0.1691 -0.2032  0.6637
 6572SOL     OW31348   3.165   0.974   0.868  0.4699 -0.5183 -0.7400
 6572SOL    HW131349   3.242   1.028   0.851  1.3424 -1.3982  0.4058
 6572SOL    HW231350   3.102   1.021   0.813  1.8035 -0.0118 -1.8313
 6573SOL     OW31351   0.437   4.565   0.227 -0.0941  0.0654 -0.1576
 6573SOL    HW131352   0.470   4.521   0.305  2.2306 -1.4704 -1.9954
 6573SOL    HW231353   0.406   4.493   0.172 -2.9577  0.9901  0.2378
 6574SOL     OW31354   4.236   2.462   5.163 -0.1849 -0.1386  0.0191
 6574SOL    HW131355   4.181   2.486   5.088  2.4029  0.0642 -1.8500
 6574SOL    HW231356   4.249   2.370   5.141 -1.1323 -0.0341 -0.9367
 6575SOL     OW31357   3.316   3.832   1.729 -0.1717 -0.0347 -0.0522
 6575SOL    HW131358   3.340   3.740   1.716 -2.3507 -0.6189  0.0737
 6575SOL    HW231359   3.309   3.872   1.642 -0.2450  1.4331  0.6215
 6576SOL     OW31360   1.034   1.125  12.775 -0.1090  0.2114 -0.3837
 6576SOL    HW131361   1.068   1.166  12.695 -1.3979 -0.3898 -1.2245
 6576SOL    HW231362   1.105   1.116  12.839 -1.2009 -0.1929  0.7607
 6577SOL     OW31363   1.827   2.624  14.041 -0.2815 -0.5552  0.7615
 6577SOL    HW131364   1.746   2.587  14.005  0.8326 -0.7611 -1.5219
 6577SOL    HW231365   1.882   2.548  14.023  1.5075  0.8714  0.2358
 6578SOL     OW31366   4.498   2.679   5.600  0.1724 -0.3677 -0.2148
 6578SOL    HW131367   4.493   2.609   5.534 -1.2391  0.5055 -1.0153
 6578SOL    HW231368   4.553   2.746   5.558  0.1231 -0.6992 -0.8140
 6579SOL     OW31369   1.778   0.389  16.864 -0.2352 -0.5114  0.0294
 6579SOL    HW131370   1.692   0.373  16.827 -0.2892 -2.3726  0.9855
 6579SOL    HW231371   1.771   0.483  16.882 -0.5685 -0.5945  0.3440
 6580SOL     OW31372   3.232   3.877  11.202  0.8848  0.2338 -0.2696
 6580SOL    HW131373   3.190   3.796  11.231  2.2689 -0.0644  0.8917
 6580SOL    HW231374   3.176   3.945  11.239 -1.3640 -2.5975  1.5794
 6581SOL     OW31375   1.575   0.251   0.428  0.2052 -0.4178  0.3714
 6581SOL    HW131376   1.671   0.257   0.423  0.1868 -1.1608 -0.9532
 6581SOL    HW231377   1.563   0.166   0.469  2.6406  0.1526  2.2952
 6582SOL     OW31378   4.415   3.326   5.049  0.6018 -0.3753  0.0179
 6582SOL    HW131379   4.503   3.292   5.036  0.7438 -0.3107  0.7948
 6582SOL    HW231380   4.378   3.315   4.961  0.8200  2.0699 -0.3958
 6583SOL     OW31381   2.189   4.253   5.845 -0.4205  0.2991 -0.2248
 6583SOL    HW131382   2.178   4.235   5.938  0.9008  0.3428 -0.0671
 6583SOL    HW231383   2.229   4.340   5.843 -2.0126  0.9982 -1.8038
 6584SOL     OW31384   3.837   1.400  15.607 -0.0440  0.8052  0.4970
 6584SOL    HW131385   3.930   1.416  15.591  0.0865 -0.0566  0.3471
 6584SOL    HW231386   3.835   1.304  15.608  0.2978  0.7795 -0.9247
 6585SOL     OW31387   0.943   4.288   3.228  0.6337  0.8239  0.1854
 6585SOL    HW131388   0.993   4.273   3.148  1.9907 -0.5907  1.3190
 6585SOL    HW231389   0.853   4.259   3.212  0.8289  0.2045  0.2051
 6586SOL     OW31390   3.629   3.762   3.043  0.2015  0.0636 -0.5208
 6586SOL    HW131391   3.641   3.852   3.013 -0.3447  0.1185 -0.5748
 6586SOL    HW231392   3.722   3.742   3.031  0.1818 -0.7355  0.6151
 6587SOL     OW31393   3.621   0.786   1.552  0.0700 -1.1241  0.0848
 6587SOL    HW131394   3.663   0.740   1.480  0.7066 -3.8640  2.2096
 6587SOL    HW231395   3.670   0.754   1.627  1.0336  1.4428  0.5307
 6588SOL     OW31396   3.819   2.707   1.248  0.1236 -0.6805 -0.3011
 6588SOL    HW131397   3.743   2.721   1.191 -1.8929  0.1282  2.5595
 6588SOL    HW231398   3.811   2.774   1.317  0.8924 -1.5915  0.6675
 6589SOL     OW31399   3.396   2.383  16.177  0.4873 -0.2615  0.2217
 6589SOL    HW131400   3.307   2.366  16.147  1.1418  1.2555 -2.5188
 6589SOL    HW231401   3.453   2.365  16.102  1.4091  3.2980  0.0598
 6590SOL     OW31402   0.299   0.485  12.065 -0.4074 -0.5804  0.6902
 6590SOL    HW131403   0.285   0.569  12.021  0.4679 -1.2163 -0.8096
 6590SOL    HW231404   0.296   0.426  11.989  0.9889  4.0745 -2.9525
 6591SOL     OW31405   1.245   0.702   6.244 -0.7931  0.1188 -0.4706
 6591SOL    HW131406   1.219   0.684   6.335  0.6718 -0.6742 -0.2109
 6591SOL    HW231407   1.260   0.795   6.258 -0.9064  0.1157 -0.3266
 6592SOL     OW31408   1.908   3.330   3.765  0.0275  0.2505  0.2638
 6592SOL    HW131409   1.837   3.269   3.784 -0.8599  0.9611 -0.8216
 6592SOL    HW231410   1.910   3.391   3.839  0.2561  2.1335 -1.2842
 6593SOL     OW31411   3.374   1.297  14.835  1.0540 -0.0127  0.1719
 6593SOL    HW131412   3.451   1.341  14.871  0.0156 -0.2991  2.7284
 6593SOL    HW231413   3.412   1.251  14.760 -0.6505 -1.1995  0.0464
 6594SOL     OW31414   2.403   3.243   9.947 -0.2997 -0.3149  0.0271
 6594SOL    HW131415   2.432   3.334   9.952  0.8728 -0.6201 -1.1264
 6594SOL    HW231416   2.308   3.250   9.933  0.2057  0.7648 -2.8158
 6595SOL     OW31417   0.096   3.976   5.089 -0.5825 -0.2328  0.4695
 6595SOL    HW131418   0.061   3.905   5.143 -0.6184 -0.5699  0.0020
 6595SOL    HW231419   0.186   3.992   5.117 -0.0355  0.1833 -1.5921
 6596SOL     OW31420   2.101   0.673   4.648  0.8896  0.2610  0.3184
 6596SOL    HW131421   2.061   0.607   4.704  0.4636 -2.5166 -3.2354
 6596SOL    HW231422   2.187   0.655   4.686 -0.1102 -3.3457  0.7979
 6597SOL     OW31423   3.411   1.102   0.842 -0.1282  0.4316 -0.4147
 6597SOL    HW131424   3.445   1.191   0.848  0.7223  0.2771 -2.8951
 6597SOL    HW231425   3.489   1.053   0.818 -0.8280 -1.0694  0.3289
 6598SOL     OW31426   2.582   4.319   4.316  0.2103 -0.7979  0.4970
 6598SOL    HW131427   2.667   4.330   4.274 -0.2919 -1.1393 -0.6019
 6598SOL    HW231428   2.544   4.404   4.296  2.8887  0.8405  2.2708
 6599SOL     OW31429   2.666   2.870  11.055  0.0185  0.6350  0.1662
 6599SOL    HW131430   2.631   2.868  10.966  0.6156  0.8776 -0.0697
 6599SOL    HW231431   2.751   2.827  11.047  0.4853  1.6175 -0.1134
 6600SOL     OW31432   1.142   3.495   3.729 -0.1868 -0.0085  0.3177
 6600SOL    HW131433   1.073   3.554   3.700 -0.2903  0.5005  1.6064
 6600SOL    HW231434   1.222   3.520   3.683  0.3255 -1.1228  0.5813
 6601SOL     OW31435   2.508   0.647   6.947 -0.3299  0.2652 -0.4716
 6601SOL    HW131436   2.534   0.566   6.991  1.8822  0.1087 -2.0344
 6601SOL    HW231437   2.417   0.620   6.945  0.0610 -1.0464 -0.5787
 6602SOL     OW31438   4.645   2.089   5.613 -0.0721  0.5809  0.0475
 6602SOL    HW131439   0.002   2.096   5.604  0.1113 -1.3036  0.4427
 6602SOL    HW231440   4.611   2.146   5.544 -0.3418  0.1737 -0.1573
 6603SOL     OW31441   2.892   1.374   5.202  0.0949 -0.2245 -0.2222
 6603SOL    HW131442   2.860   1.303   5.257  3.2159 -1.7339 -0.3365
 6603SOL    HW231443   2.833   1.363   5.127 -0.8282  0.2444  0.4432
 6604SOL     OW31444   2.795   1.879   1.873  0.0354 -0.1085  0.6707
 6604SOL    HW131445   2.705   1.898   1.849 -1.4083 -5.3944  1.8407
 6604SOL    HW231446   2.794   1.784   1.864  3.2987 -0.2585  1.6472
 6605SOL     OW31447   4.135   3.833   6.343  0.0548 -0.1060  0.3055
 6605SOL    HW131448   4.183   3.904   6.299 -0.0714  0.6938  1.4595
 6605SOL    HW231449   4.206   3.784   6.383  0.5884 -1.3837 -2.1899
 6606SOL     OW31450   4.470   1.303   5.341 -0.4380  0.8357 -0.3428
 6606SOL    HW131451   4.554   1.298   5.386 -1.1440 -0.3456  0.8369
 6606SOL    HW231452   4.409   1.252   5.394 -0.5262  2.8681  1.5097
 6607SOL     OW31453   3.061   4.675   8.485  0.3238  0.7352 -0.5708
 6607SOL    HW131454   2.980   4.624   8.479  1.2351 -1.0427  2.4806
 6607SOL    HW231455   3.021   0.025   8.481 -0.1188  0.5933  0.7721
 6608SOL     OW31456   0.398   2.770   5.803 -0.0880 -0.1053  0.5777
 6608SOL    HW131457   0.445   2.849   5.828  0.8299  0.0913 -1.7613
 6608SOL    HW231458   0.306   2.780   5.826 -0.4985 -1.6449 -0.4095
 6609SOL     OW31459   4.117   1.197   3.990 -0.1913 -0.1298 -0.2454
 6609SOL    HW131460   4.159   1.212   4.075  1.1520 -3.0316 -0.4137
 6609SOL    HW231461   4.109   1.287   3.959  0.4171 -0.0677 -0.2118
 6610SOL     OW31462   1.460   0.568  16.584 -0.2386 -0.2537 -0.0680
 6610SOL    HW131463   1.462   0.659  16.555 -1.6075 -0.2503 -0.1741
 6610SOL    HW231464   1.554   0.551  16.591 -0.3839  0.5296  3.8016
 6611SOL     OW31465   3.197   2.466   8.961 -0.2371 -0.5289 -0.0003
 6611SOL    HW131466   3.195   2.467   8.865  0.6030 -0.9251 -0.0260
 6611SOL    HW231467   3.112   2.508   8.972  0.1161  0.2845 -0.4017
 6612SOL     OW31468   2.847   3.222   3.450  0.8404 -0.0969 -0.3003
 6612SOL    HW131469   2.778   3.157   3.458 -1.2759  2.0944 -0.5543
 6612SOL    HW231470   2.873   3.188   3.364 -0.0520  0.7565 -0.9004
 6613SOL     OW31471   3.201   0.977   6.228  0.1498  0.2433 -0.0234
 6613SOL    HW131472   3.168   0.960   6.316 -1.3239  0.3861 -0.5466
 6613SOL    HW231473   3.125   0.990   6.171  0.6554  0.1488 -0.7229
 6614SOL     OW31474   4.513   4.555   4.622  0.2795 -0.1368  0.2431
 6614SOL    HW131475   4.493   4.631   4.567 -0.9343 -0.7890 -0.2484
 6614SOL    HW231476   4.602   4.532   4.597  0.6511  1.6753 -0.0470
 6615SOL     OW31477   0.710   4.222   2.044 -0.6210  0.2275 -0.0338
 6615SOL    HW131478   0.700   4.290   2.111  0.7708  2.2973 -1.9108
 6615SOL    HW231479   0.788   4.183   2.084 -1.1922 -1.3444 -0.4699
 6616SOL     OW31480   2.526   0.510   7.712  1.1742 -0.1436 -0.4001
 6616SOL    HW131481   2.457   0.499   7.646  0.0514 -0.5943  0.8589
 6616SOL    HW231482   2.571   0.426   7.706  2.5936  0.7819 -2.7670
 6617SOL     OW31483   0.395   0.043   6.253 -0.1806 -0.4741 -1.0132
 6617SOL    HW131484   0.401   0.135   6.278  0.3196 -0.5854 -0.7158
 6617SOL    HW231485   0.468   0.003   6.301 -1.4680 -1.1556  0.3837
 6618SOL     OW31486   1.207   4.288   0.865 -0.1487 -0.5253  0.1056
 6618SOL    HW131487   1.156   4.225   0.914 -1.1322  0.6104  0.5333
 6618SOL    HW231488   1.156   4.299   0.785  0.3617 -1.0633 -0.2909
 6619SOL     OW31489   1.456   2.116   0.743  0.1217 -0.2040 -0.4600
 6619SOL    HW131490   1.524   2.084   0.684 -0.7502 -0.3022 -1.4220
 6619SOL    HW231491   1.388   2.048   0.747  0.2081 -0.3263 -1.0876
 6620SOL     OW31492   3.134   2.632   4.355 -0.2308  0.0967  0.5532
 6620SOL    HW131493   3.064   2.697   4.345  0.1800  0.2363 -1.5347
 6620SOL    HW231494   3.214   2.675   4.324 -0.1847  0.0270  0.5748
 6621SOL     OW31495   2.263   3.562   4.057  0.0340 -0.2404 -0.1576
 6621SOL    HW131496   2.201   3.489   4.050  0.5719 -0.5801 -1.5982
 6621SOL    HW231497   2.304   3.536   4.139  1.9427  1.3704 -0.5903
 6622SOL     OW31498   0.031   3.971   6.432 -0.0899  0.1963  0.1009
 6622SOL    HW131499   0.096   3.938   6.370  1.6811  0.8515  1.6239
 6622SOL    HW231500   0.094   4.006   6.494  0.5762 -2.1652  0.7783
 6623SOL     OW31501   1.384   4.056   4.008  0.4186 -0.2309 -0.2835
 6623SOL    HW131502   1.343   4.119   4.068  0.7827 -1.6058  1.4172
 6623SOL    HW231503   1.320   3.985   4.003  1.6684 -1.4703  1.2442
 6624SOL     OW31504   1.215   1.767  13.392 -0.0511 -0.0521  0.0021
 6624SOL    HW131505   1.209   1.680  13.433 -0.0169  0.1147  0.3637
 6624SOL    HW231506   1.275   1.810  13.453 -1.4381 -0.2744  1.5093
 6625SOL     OW31507   0.799   2.642   3.295 -0.0561  0.2206 -0.0544
 6625SOL    HW131508   0.865   2.599   3.240 -0.5218  0.3756 -0.7305
 6625SOL    HW231509   0.857   2.677   3.362  1.3889  1.3468 -1.8850
 6626SOL     OW31510   0.994   2.552   4.444 -0.2034 -0.4185 -0.5941
 6626SOL    HW131511   0.949   2.475   4.479  0.6242 -0.2144  0.9147
 6626SOL    HW231512   1.025   2.596   4.523  1.4187 -0.5728 -1.1389
 6627SOL     OW31513   0.707   4.714   5.875  0.0832 -0.4753  0.0834
 6627SOL    HW131514   0.771   0.038   5.840 -1.4304  1.6980  1.1309
 6627SOL    HW231515   0.738   4.638   5.825  1.1833  1.2093 -1.7740
 6628SOL     OW31516   1.097   4.241   3.444 -0.2068  0.2045 -0.3811
 6628SOL    HW131517   1.034   4.203   3.506  0.3117 -2.4303 -1.4602
 6628SOL    HW231518   1.032   4.259   3.376  2.5947  1.1909 -2.7766
 6629SOL     OW31519   0.233   1.153   7.877 -0.5607  0.4416  0.2788
 6629SOL    HW131520   0.230   1.229   7.936  0.1480  1.3323 -0.8334
 6629SOL    HW231521   0.184   1.093   7.932  0.1856 -0.0326  0.4108
 6630SOL     OW31522   3.166   1.150  14.955  0.0613 -0.1725  0.6174
 6630SOL    HW131523   3.243   1.188  14.914 -1.0411  0.2701 -1.0559
 6630SOL    HW231524   3.101   1.215  14.928 -0.7879 -0.3183  2.3054
 6631SOL     OW31525   0.958   4.162   3.734 -0.0134  0.7070  0.0489
 6631SOL    HW131526   0.949   4.199   3.822  0.6639  0.2845  0.2920
 6631SOL    HW231527   0.914   4.078   3.748 -0.1739  1.2127  2.6156
 6632SOL     OW31528   3.569   3.898   6.348 -0.0424  0.6382 -0.2247
 6632SOL    HW131529   3.581   3.805   6.365  1.9064  0.4814 -2.4373
 6632SOL    HW231530   3.528   3.929   6.429 -1.4999 -2.2037  0.1195
 6633SOL     OW31531   1.066   2.143   5.460  0.1520  0.5880 -0.4139
 6633SOL    HW131532   1.142   2.101   5.500 -1.0059 -2.2348 -1.2050
 6633SOL    HW231533   1.015   2.166   5.539 -0.5941 -0.0448 -0.7056
 6634SOL     OW31534   0.241   3.701   0.903 -0.2980 -0.0282  0.1306
 6634SOL    HW131535   0.322   3.651   0.897  0.3064  0.5322  3.5678
 6634SOL    HW231536   0.244   3.761   0.828  4.8122 -0.2250  0.1743
 6635SOL     OW31537   0.453   0.386   5.385 -0.0038  0.0464  0.3533
 6635SOL    HW131538   0.382   0.451   5.395 -0.6716 -0.6771  0.2941
 6635SOL    HW231539   0.455   0.339   5.469  2.9683 -2.1225 -0.9453
 6636SOL     OW31540   4.158   0.490   3.532  0.1132 -0.0325 -0.3775
 6636SOL    HW131541   4.226   0.552   3.509 -0.1879  0.0554 -1.0406
 6636SOL    HW231542   4.134   0.521   3.619 -1.4191 -0.5462 -0.6010
 6637SOL     OW31543   0.132   2.184  11.711  0.1270 -0.6548 -0.1445
 6637SOL    HW131544   0.170   2.232  11.784 -0.0635 -0.7742  0.0360
 6637SOL    HW231545   0.207   2.185  11.652  0.7564 -0.7181  0.6505
 6638SOL     OW31546   2.368   1.754   0.141  0.1344  0.1072  0.4383
 6638SOL    HW131547   2.428   1.776   0.069  2.1127  0.0141  2.0558
 6638SOL    HW231548   2.417   1.789   0.216 -1.4471  0.6494  1.2223
 6639SOL     OW31549   0.118   1.165   8.592  0.2351 -0.2059 -0.0706
 6639SOL    HW131550   0.186   1.101   8.572 -2.0858 -1.3688 -4.3671
 6639SOL    HW231551   0.162   1.240   8.631 -1.7411  0.9858 -0.1433
 6640SOL     OW31552   3.200   0.605   3.452 -0.1502  0.5912  0.8699
 6640SOL    HW131553   3.160   0.656   3.522 -0.0678  1.4811  0.2707
 6640SOL    HW231554   3.181   0.517   3.484  0.9968 -0.0464 -0.1590
 6641SOL     OW31555   3.585   2.657  13.219 -0.1055 -0.4383 -0.1604
 6641SOL    HW131556   3.585   2.704  13.135  1.5479  1.1020  0.7134
 6641SOL    HW231557   3.527   2.581  13.215  0.3958 -0.8555  0.6465
 6642SOL     OW31558   1.111   0.647   6.018  0.0324 -0.0907 -0.2080
 6642SOL    HW131559   1.055   0.723   6.031  0.5374 -0.1125  1.9307
 6642SOL    HW231560   1.144   0.634   6.106 -2.1740  2.0077  0.9281
 6643SOL     OW31561   2.608   1.850   2.862  0.9764 -0.4835  0.2213
 6643SOL    HW131562   2.561   1.767   2.849  0.6646 -0.4092  0.8514
 6643SOL    HW231563   2.616   1.882   2.772  0.6111 -3.1654 -0.7857
 6644SOL     OW31564   3.010   1.165   0.743  0.3162  0.1044 -0.0484
 6644SOL    HW131565   3.030   1.225   0.815 -0.5032 -0.9395  1.0457
 6644SOL    HW231566   2.919   1.193   0.743 -0.0746 -1.2153 -2.1922
 6645SOL     OW31567   0.728   2.800  12.275 -0.1326  0.2434  0.2542
 6645SOL    HW131568   0.809   2.766  12.314 -0.2611 -1.8942 -1.3194
 6645SOL    HW231569   0.756   2.845  12.196  0.8035 -0.4510  0.1768
 6646SOL     OW31570   2.892   0.170   2.251  0.4262  0.1039  0.0139
 6646SOL    HW131571   2.965   0.167   2.190 -0.7565 -1.2824 -1.3343
 6646SOL    HW231572   2.827   0.163   2.181 -0.2869  0.2356  0.6549
 6647SOL     OW31573   2.609   2.398  10.455 -0.2376 -0.2548  0.2918
 6647SOL    HW131574   2.518   2.394  10.484 -0.1174 -0.3495  0.6562
 6647SOL    HW231575   2.637   2.474  10.506 -0.4743 -0.3547  0.5697
 6648SOL     OW31576   0.846   0.453   7.224 -0.9137  0.1262  0.1847
 6648SOL    HW131577   0.755   0.446   7.193 -0.8442  1.9949 -0.4389
 6648SOL    HW231578   0.832   0.425   7.315 -2.2446 -1.3305 -0.4637
 6649SOL     OW31579   2.966   4.563   9.272 -0.7007  0.1243 -0.7064
 6649SOL    HW131580   3.005   4.478   9.253 -2.6647 -1.2035  1.1689
 6649SOL    HW231581   2.939   4.548   9.362  1.7201  0.1671  0.0318
 6650SOL     OW31582   3.006   2.744  16.540 -0.4046  0.4720  0.3332
 6650SOL    HW131583   2.975   2.661  16.576 -0.3519 -0.5934 -2.1371
 6650SOL    HW231584   2.969   2.745  16.452  1.2834  3.1262 -0.3346
 6651SOL     OW31585   2.132   2.151  11.541 -0.1214  0.3722  0.1982
 6651SOL    HW131586   2.181   2.204  11.478 -0.9494  2.4567  1.3275
 6651SOL    HW231587   2.190   2.143  11.617  0.4487 -0.1957 -0.2875
 6652SOL     OW31588   0.160   1.806   4.174 -0.1306  0.2083  0.2342
 6652SOL    HW131589   0.191   1.828   4.262  0.5163  0.0121  0.0565
 6652SOL    HW231590   0.212   1.866   4.120 -1.5344  0.4735 -0.8093
 6653SOL     OW31591   1.139   1.851   2.310 -0.1117  0.5199 -0.0826
 6653SOL    HW131592   1.109   1.798   2.236  0.7054 -2.1407  1.4610
 6653SOL    HW231593   1.183   1.921   2.263  0.4630 -0.4306 -0.9658
 6654SOL     OW31594   1.703   1.356   3.592 -0.2178 -0.3947 -0.1433
 6654SOL    HW131595   1.649   1.307   3.530  0.2719 -1.1785  0.0409
 6654SOL    HW231596   1.755   1.279   3.616  0.1770  0.1120  0.6232
 6655SOL     OW31597   2.351   0.456   8.482  0.1531 -0.0178  0.1155
 6655SOL    HW131598   2.368   0.516   8.554 -0.2779  1.5525 -1.0833
 6655SOL    HW231599   2.342   0.515   8.407  1.2592 -1.0457 -0.8451
 6656SOL     OW31600   0.982   2.320   1.577 -0.1076 -0.2421  0.2437
 6656SOL    HW131601   1.051   2.266   1.538 -0.0106 -1.1308  1.6554
 6656SOL    HW231602   1.015   2.326   1.666  0.4109  0.2775  0.0244
 6657SOL     OW31603   1.061   3.077  11.608 -0.1609 -0.1955  0.3796
 6657SOL    HW131604   1.061   3.067  11.513 -2.0907 -2.5759  0.6223
 6657SOL    HW231605   1.145   3.037  11.630  1.2084  1.4170 -1.9297
 6658SOL     OW31606   0.547   2.587   3.206  0.4749 -0.1897  0.2001
 6658SOL    HW131607   0.633   2.623   3.227  0.3455 -0.4213  1.1350
 6658SOL    HW231608   0.568   2.514   3.148  0.2087  0.6845 -0.9923
 6659SOL     OW31609   0.502   2.992   6.155  0.4661  0.0935 -0.4219
 6659SOL    HW131610   0.427   3.051   6.166 -2.3865 -3.0791 -2.6799
 6659SOL    HW231611   0.534   2.988   6.245  0.5999  0.2830 -0.4619
 6660SOL     OW31612   4.252   4.453  16.322 -0.4690 -0.4067 -0.7846
 6660SOL    HW131613   4.210   4.436  16.237  0.9209 -0.6789 -1.4245
 6660SOL    HW231614   4.343   4.448  16.295 -0.2199 -0.9426  0.1549
 6661SOL     OW31615   3.849   0.520   8.081 -0.0489 -0.0099 -0.2414
 6661SOL    HW131616   3.791   0.461   8.129  0.4145 -0.4818 -0.2537
 6661SOL    HW231617   3.932   0.480   8.108 -1.2112 -0.4012  2.8465
 6662SOL     OW31618   0.176   1.513   1.008 -0.2451 -0.2385  0.7747
 6662SOL    HW131619   0.170   1.540   0.916  0.7574 -0.2267  0.7096
 6662SOL    HW231620   0.263   1.542   1.033  0.3255 -0.7794 -0.5556
 6663SOL     OW31621   2.646   3.901   2.016 -0.4458 -0.4702 -0.0059
 6663SOL    HW131622   2.717   3.927   2.075 -1.6951  1.8117  0.4953
 6663SOL    HW231623   2.700   3.841   1.964  0.3011  0.3817 -0.2080
 6664SOL     OW31624   4.231   2.058   9.835 -0.5201 -0.6013 -0.3609
 6664SOL    HW131625   4.190   2.130   9.787 -0.6159 -0.6679 -0.3822
 6664SOL    HW231626   4.200   1.982   9.784 -3.4381  0.2766  0.1019
 6665SOL     OW31627   2.085   0.844   5.306  0.5563  0.4167  0.1782
 6665SOL    HW131628   2.052   0.886   5.385  1.1304  2.3631 -0.6279
 6665SOL    HW231629   2.088   0.750   5.324  1.3436  0.6300  1.1613
 6666SOL     OW31630   0.039   4.101  10.960  0.3531 -0.3894 -0.4359
 6666SOL    HW131631   0.056   4.052  10.880 -1.2978  0.4716 -1.3149
 6666SOL    HW231632   4.681   4.094  10.969  0.3720  0.1667  0.2008
 6667SOL     OW31633   2.052   3.421  12.251 -0.3035 -0.1257 -0.0355
 6667SOL    HW131634   2.133   3.442  12.297  0.7477 -3.4726 -0.3174
 6667SOL    HW231635   2.088   3.411  12.163 -1.1779 -2.5924 -0.1110
 6668SOL     OW31636   2.429   1.924   3.378 -0.4504  0.5264  0.4245
 6668SOL    HW131637   2.486   2.001   3.380 -0.3143  0.4261  0.3228
 6668SOL    HW231638   2.405   1.918   3.286  0.3180 -2.1783  0.4019
 6669SOL     OW31639   1.923   2.501   7.802  0.1042  0.0859  0.2578
 6669SOL    HW131640   1.898   2.409   7.807 -2.0976  0.3926 -4.4166
 6669SOL    HW231641   2.017   2.494   7.782  0.4048  0.6227  1.4950
 6670SOL     OW31642   1.060   0.898   6.674  0.7595 -0.7027 -0.1074
 6670SOL    HW131643   1.003   0.971   6.650  0.4208 -0.9081  0.0686
 6670SOL    HW231644   1.014   0.816   6.657 -1.5553  0.7279 -0.7182
 6671SOL     OW31645   2.436   0.642   4.095 -0.1395  0.7325 -0.1191
 6671SOL    HW131646   2.345   0.672   4.101 -0.8136 -1.0159 -1.7667
 6671SOL    HW231647   2.479   0.713   4.142 -0.7791  0.4955  0.8215
 6672SOL     OW31648   3.411   2.376  17.349 -0.8768 -0.3452  0.1584
 6672SOL    HW131649   3.490   2.331  17.377 -0.3019  0.3667 -0.3463
 6672SOL    HW231650   3.421   2.464  17.386  0.9116  0.0716 -1.3909
 6673SOL     OW31651   4.477   3.935   2.639 -0.6091 -0.1270  0.3990
 6673SOL    HW131652   4.484   4.005   2.574 -1.1693  0.6295  1.1567
 6673SOL    HW231653   4.568   3.907   2.648 -1.1272 -1.7608  0.4348
 6674SOL     OW31654   0.271   1.934   5.777 -0.5645 -0.3408  0.3371
 6674SOL    HW131655   0.242   1.844   5.793 -1.0847  0.0442  1.5397
 6674SOL    HW231656   0.336   1.952   5.845 -0.7149  1.8325 -0.1070
 6675SOL     OW31657   3.362   3.866   7.199  0.0700  0.0961  0.4977
 6675SOL    HW131658   3.398   3.887   7.285 -1.2827  2.5920  0.4494
 6675SOL    HW231659   3.274   3.903   7.207 -0.8424 -2.1178  0.8150
 6676SOL     OW31660   0.352   0.573   9.070 -0.2927 -0.0585 -0.0715
 6676SOL    HW131661   0.437   0.611   9.094  0.1157 -1.8770  1.3667
 6676SOL    HW231662   0.357   0.572   8.975  2.5075  0.7366  0.0574
 6677SOL     OW31663   3.065   0.349  14.719 -0.7749 -0.3106 -0.2121
 6677SOL    HW131664   3.119   0.347  14.641  0.7281  0.0810  0.8190
 6677SOL    HW231665   3.123   0.397  14.779  0.1042  0.3391 -1.5992
 6678SOL     OW31666   1.695   1.322   5.423 -0.0097 -0.2838  0.1111
 6678SOL    HW131667   1.674   1.403   5.469  0.9618  1.9484 -3.3537
 6678SOL    HW231668   1.790   1.328   5.413 -0.3215  0.4058 -2.5275
 6679SOL     OW31669   0.549   2.196   8.561  0.1012  0.1303 -0.2326
 6679SOL    HW131670   0.611   2.126   8.586  0.5401  1.2200  1.7339
 6679SOL    HW231671   0.606   2.260   8.519 -0.7232  0.2745 -1.1088
 6680SOL     OW31672   1.855   3.725   1.744 -0.1473  0.2923 -0.1627
 6680SOL    HW131673   1.835   3.802   1.691 -2.5679 -1.1249 -1.3120
 6680SOL    HW231674   1.910   3.676   1.683  0.0242  0.4640 -0.1455
 6681SOL     OW31675   1.408   1.102  16.715  0.2065 -0.1579  0.4492
 6681SOL    HW131676   1.389   1.194  16.694  0.5540  0.2550  1.9848
 6681SOL    HW231677   1.325   1.057  16.727 -1.2612  1.9361 -1.9295
 6682SOL     OW31678   3.541   0.738   7.450  0.2183  0.2924 -0.1466
 6682SOL    HW131679   3.546   0.830   7.475  3.2458 -0.5686  2.3532
 6682SOL    HW231680   3.450   0.711   7.460 -0.0388  1.2444  0.1107
 6683SOL     OW31681   3.097   2.970   3.987  0.0143  0.8146 -0.3694
 6683SOL    HW131682   3.152   3.045   3.966 -0.7000  0.6260 -2.9560
 6683SOL    HW231683   3.032   3.003   4.050  0.1639  0.5158 -0.0571
 6684SOL     OW31684   4.098   0.460  10.399 -0.3692  0.2185 -0.0039
 6684SOL    HW131685   4.148   0.435  10.323 -0.1750  0.1225  0.1566
 6684SOL    HW231686   4.034   0.525  10.367  1.1047  0.1754 -3.0047
 6685SOL     OW31687   2.756   4.482   5.093  0.0095  0.0214 -0.4696
 6685SOL    HW131688   2.736   4.486   4.999 -3.6353  1.7588  0.3737
 6685SOL    HW231689   2.850   4.463   5.094  0.1414  0.6064 -1.7708
 6686SOL     OW31690   2.146   2.694   5.262 -0.4530  0.2212 -0.0737
 6686SOL    HW131691   2.148   2.765   5.326  1.5068  1.5702 -1.6129
 6686SOL    HW231692   2.084   2.723   5.195  0.1292  0.5233 -0.4801
 6687SOL     OW31693   3.886   4.577   7.724  0.0326  0.2241 -0.2990
 6687SOL    HW131694   3.804   4.627   7.726 -0.0551  0.0460  0.6060
 6687SOL    HW231695   3.846   4.494   7.751  0.1332 -0.5281 -2.4111
 6688SOL     OW31696   2.256   1.614  13.470 -0.6000  0.3175 -0.1414
 6688SOL    HW131697   2.194   1.660  13.413  0.2632 -0.7601 -1.9750
 6688SOL    HW231698   2.232   1.523  13.451 -0.4048  0.1279  0.5265
 6689SOL     OW31699   3.542   4.489  13.679  0.0128  0.1232  0.7516
 6689SOL    HW131700   3.633   4.495  13.707 -0.4143  0.3320  2.0911
 6689SOL    HW231701   3.507   4.442  13.755 -1.4573 -2.4021 -1.4872
 6690SOL     OW31702   3.318   0.210   5.386  0.3036 -0.1285 -0.1082
 6690SOL    HW131703   3.259   0.199   5.312 -1.3993 -1.1570  1.4394
 6690SOL    HW231704   3.387   0.273   5.360  1.0218 -1.1804 -0.7681
 6691SOL     OW31705   2.700   2.509   6.901 -0.0272 -0.8381  0.1720
 6691SOL    HW131706   2.702   2.488   6.808  2.0704  0.4701 -0.0860
 6691SOL    HW231707   2.668   2.599   6.906 -1.1280 -1.1371 -1.4481
 6692SOL     OW31708   4.501   0.953  11.555 -0.0727 -0.0689 -0.6008
 6692SOL    HW131709   4.556   0.875  11.548 -0.8349 -0.7365  0.7378
 6692SOL    HW231710   4.561   1.019  11.522 -0.4171  0.5195 -0.0477
 6693SOL     OW31711   0.495   4.010  10.698 -0.2486 -0.2356 -0.3915
 6693SOL    HW131712   0.555   3.936  10.686  0.3890  0.0719  0.9249
 6693SOL    HW231713   0.415   3.964  10.722 -1.4625  1.4414 -1.2283
 6694SOL     OW31714   1.599   3.662   3.963  0.2425  0.3654 -0.4891
 6694SOL    HW131715   1.550   3.727   3.913  0.6464  0.6982 -0.4555
 6694SOL    HW231716   1.537   3.590   3.964 -0.5335  1.0353 -1.0566
 6695SOL     OW31717   0.030   1.217   9.233  0.2215  0.3994 -0.5601
 6695SOL    HW131718   0.072   1.139   9.268 -0.0255  0.1113 -0.9103
 6695SOL    HW231719   4.675   1.192   9.224  0.4191 -0.9083  1.0519
 6696SOL     OW31720   4.338   0.342   2.467  0.0092 -0.1989 -0.8890
 6696SOL    HW131721   4.318   0.377   2.554  1.6194  0.4777 -0.7985
 6696SOL    HW231722   4.284   0.262   2.471  0.6564 -0.7734 -3.4002
 6697SOL     OW31723   3.873   4.547  11.285  0.3825 -0.2693 -0.1323
 6697SOL    HW131724   3.902   4.617  11.344  0.4340  0.0106 -0.4893
 6697SOL    HW231725   3.923   4.470  11.313  1.6086  0.3720 -0.5441
 6698SOL     OW31726   3.117   0.326   1.745  0.6886 -0.0181  1.1299
 6698SOL    HW131727   3.144   0.413   1.776  0.6679  1.5010 -3.0205
 6698SOL    HW231728   3.189   0.305   1.685  1.9147 -1.5771  3.1567
 6699SOL     OW31729   0.339   0.663   3.035  0.1694 -0.6768  0.4248
 6699SOL    HW131730   0.361   0.665   3.129  1.6136  1.5501  0.0441
 6699SOL    HW231731   0.427   0.647   3.002  0.9661  0.8530  1.8067
 6700SOL     OW31732   3.994   1.814   8.669 -0.2927  0.2378 -0.3174
 6700SOL    HW131733   3.933   1.874   8.713  0.7394  1.0700 -0.0224
 6700SOL    HW231734   3.949   1.731   8.682  0.0318  0.0493 -0.4142
 6701SOL     OW31735   4.653   4.275   9.497 -0.1867 -0.3452  0.8516
 6701SOL    HW131736   4.608   4.356   9.522 -0.8245 -0.2889 -0.5284
 6701SOL    HW231737   0.005   4.308   9.507 -0.9436  2.0369 -0.3912
 6702SOL     OW31738   2.572   0.439   8.997 -0.4091 -0.0502 -0.3781
 6702SOL    HW131739   2.646   0.402   9.044 -1.2310  0.7020  1.5150
 6702SOL    HW231740   2.502   0.427   9.061  0.5946 -1.3591  0.4609
 6703SOL     OW31741   1.377   4.424   4.233 -0.1934  0.0008 -0.5739
 6703SOL    HW131742   1.324   4.501   4.253  0.5335 -0.0385  1.4576
 6703SOL    HW231743   1.314   4.376   4.180 -1.1268 -1.7352  2.1256
 6704SOL     OW31744   2.722   3.573   2.339 -0.7320 -0.4493  0.2917
 6704SOL    HW131745   2.637   3.565   2.384  0.0418 -1.0072  1.6591
 6704SOL    HW231746   2.710   3.544   2.249 -0.0128 -0.0304  0.0663
 6705SOL     OW31747   1.253   2.966   1.037  0.0848  0.1701  0.1982
 6705SOL    HW131748   1.188   3.016   1.086 -0.8448 -0.6825 -0.1739
 6705SOL    HW231749   1.275   2.895   1.097  0.4855 -0.3540 -0.5686
 6706SOL     OW31750   3.792   2.612   3.944  0.0673  0.2010 -0.2577
 6706SOL    HW131751   3.860   2.547   3.960  1.2518  0.9176 -2.4286
 6706SOL    HW231752   3.715   2.557   3.959 -0.8800  0.9254 -2.4643
 6707SOL     OW31753   4.262   1.181   8.460 -0.5778 -0.4529 -0.4224
 6707SOL    HW131754   4.293   1.096   8.492  0.0025 -0.0451  0.1032
 6707SOL    HW231755   4.315   1.194   8.381  0.8576  2.7568  1.0587
 6708SOL     OW31756   4.031   2.966   5.022 -0.1176 -0.3635  0.0784
 6708SOL    HW131757   4.108   2.910   5.031  0.7397  0.7421 -0.3075
 6708SOL    HW231758   4.070   3.049   4.993 -1.1122  0.3472  0.7877
 6709SOL     OW31759   2.979   0.422   2.657 -0.3025  0.2324  0.0878
 6709SOL    HW131760   2.926   0.366   2.600 -0.8817  1.3807 -0.4878
 6709SOL    HW231761   3.059   0.370   2.662 -0.8435 -0.8740 -2.4494
 6710SOL     OW31762   2.058   2.513   1.668 -0.5581 -0.3893 -0.0555
 6710SOL    HW131763   2.112   2.574   1.617 -2.5788 -0.4202 -2.2125
 6710SOL    HW231764   2.014   2.458   1.604 -0.4305 -0.6080  0.0458
 6711SOL     OW31765   2.943   3.084   2.599 -0.3310 -0.8792 -0.1478
 6711SOL    HW131766   2.994   3.013   2.562  1.0309  0.5016 -0.9426
 6711SOL    HW231767   2.941   3.064   2.692  1.3944 -1.9705 -0.3599
 6712SOL     OW31768   2.940   2.482  14.515  0.2903 -0.0890  0.0814
 6712SOL    HW131769   2.943   2.461  14.609  3.3568 -1.1833 -0.2461
 6712SOL    HW231770   2.967   2.574  14.517  1.3096 -0.4188  1.6333
 6713SOL     OW31771   2.071   4.439   7.004 -0.2952  0.6081 -0.7198
 6713SOL    HW131772   2.048   4.477   6.919  2.6835  1.0512 -1.3339
 6713SOL    HW231773   2.048   4.347   6.992 -2.5592  1.2708 -1.3313
 6714SOL     OW31774   4.528   2.310  16.906  0.6073 -0.0412  0.5675
 6714SOL    HW131775   4.451   2.362  16.930  1.4700  0.8364  1.5000
 6714SOL    HW231776   4.547   2.336  16.816 -2.4595 -1.0674 -0.3643
 6715SOL     OW31777   4.188   3.817  16.638  0.0593  0.5629 -0.4464
 6715SOL    HW131778   4.283   3.803  16.647  0.1484  1.1104 -0.5261
 6715SOL    HW231779   4.168   3.782  16.551  0.7590 -0.1399 -0.3277
 6716SOL     OW31780   1.925   1.064  12.144 -0.1316  0.2971  0.3071
 6716SOL    HW131781   1.896   0.974  12.162  2.3986 -0.2561  1.6558
 6716SOL    HW231782   1.973   1.091  12.222 -0.5247 -0.0475  0.6707
 6717SOL     OW31783   2.848   4.425   6.201  0.6715  0.0299 -0.4120
 6717SOL    HW131784   2.766   4.440   6.154  0.7218  0.2583 -0.4238
 6717SOL    HW231785   2.823   4.447   6.290  2.0592  3.0443 -0.7864
 6718SOL     OW31786   0.281   2.468   1.357  0.3483  0.1481  0.0904
 6718SOL    HW131787   0.341   2.393   1.354  0.9903  0.7287 -1.8909
 6718SOL    HW231788   0.343   2.535   1.331  0.2716 -1.2765 -3.8628
 6719SOL     OW31789   0.326   0.715  11.602  0.0585  0.2395 -0.4130
 6719SOL    HW131790   0.335   0.801  11.560  0.5299  0.7543  0.7340
 6719SOL    HW231791   0.331   0.736  11.696 -0.3309 -1.8737  0.0693
 6720SOL     OW31792   3.592   2.148  14.782 -0.2316  0.2710 -0.6079
 6720SOL    HW131793   3.675   2.112  14.813 -0.4121 -0.0406 -0.4979
 6720SOL    HW231794   3.566   2.076  14.725 -2.1190 -0.3654  1.0756
 6721SOL     OW31795   3.546   0.412   8.966 -0.4393  0.2178 -0.1796
 6721SOL    HW131796   3.571   0.446   9.052 -1.9674 -1.0308  0.7553
 6721SOL    HW231797   3.540   0.487   8.906 -1.8909  0.9109  0.8550
 6722SOL     OW31798   3.711   0.933  11.671  0.8289 -0.4001 -0.9134
 6722SOL    HW131799   3.716   0.899  11.761 -0.4329 -1.1474 -1.1246
 6722SOL    HW231800   3.773   0.866  11.641 -1.3013 -2.5603 -0.4542
 6723SOL     OW31801   1.266   1.867   6.179 -0.3719 -0.8255 -0.2698
 6723SOL    HW131802   1.253   1.904   6.092 -0.1930  0.4144  0.2293
 6723SOL    HW231803   1.308   1.785   6.154  0.8310 -0.4751  0.5739
 6724SOL     OW31804   0.802   4.267   1.779 -0.7291  0.0232 -0.4454
 6724SOL    HW131805   0.731   4.217   1.738 -2.1734  0.4752  1.5121
 6724SOL    HW231806   0.821   4.220   1.861  0.3674  3.3569  1.2339
 6725SOL     OW31807   0.401   2.479   7.843 -0.6918 -0.0829  0.1090
 6725SOL    HW131808   0.481   2.433   7.866 -0.7918 -0.8853 -1.1503
 6725SOL    HW231809   0.426   2.571   7.847  0.9923 -0.5720  0.9529
 6726SOL     OW31810   4.000   2.165  17.162  0.0284 -0.0709 -0.0718
 6726SOL    HW131811   4.004   2.138  17.070  2.3354  1.4259 -0.4142
 6726SOL    HW231812   3.978   2.258  17.152  0.1315 -0.0494 -0.0999
 6727SOL     OW31813   4.335   4.214   2.390 -0.2041  1.2199  0.2909
 6727SOL    HW131814   4.300   4.228   2.478 -1.5055  1.0009 -0.1932
 6727SOL    HW231815   4.422   4.178   2.409  0.1453  2.1099  0.3847
 6728SOL     OW31816   3.035   4.526  16.144 -0.0258  0.1201 -0.4644
 6728SOL    HW131817   3.013   4.442  16.103 -2.0359  1.0502 -1.3113
 6728SOL    HW231818   3.129   4.524  16.122 -0.0887  2.2798 -1.0364
 6729SOL     OW31819   0.788   4.089  10.515 -0.3327 -0.2181  0.4165
 6729SOL    HW131820   0.830   4.155  10.571  0.5253 -1.2505  0.9798
 6729SOL    HW231821   0.790   4.013  10.573  1.5376  0.8832  1.8126
 6730SOL     OW31822   1.491   2.777   3.127  0.2711 -0.6684 -0.4283
 6730SOL    HW131823   1.523   2.867   3.121 -2.5836  0.4652  1.1607
 6730SOL    HW231824   1.574   2.735   3.152 -0.3512 -2.2065 -0.9395
 6731SOL     OW31825   1.540   3.345   9.269 -0.3430 -0.0920 -0.8079
 6731SOL    HW131826   1.587   3.356   9.186 -0.7527 -0.5503 -1.0936
 6731SOL    HW231827   1.455   3.320   9.235 -0.6989  1.3830 -0.9921
 6732SOL     OW31828   4.715   0.148  14.844 -0.0444 -0.2798 -0.1568
 6732SOL    HW131829   0.057   0.140  14.791  0.6670  0.8680  0.7542
 6732SOL    HW231830   0.003   0.199  14.921 -1.3409 -0.0278  0.1025
 6733SOL     OW31831   2.106   2.989   2.737  0.2001 -0.0365  1.1853
 6733SOL    HW131832   2.158   2.983   2.657 -2.8431 -1.2208 -0.7014
 6733SOL    HW231833   2.033   2.933   2.712 -1.5280  2.9799 -0.5006
 6734SOL     OW31834   2.264   3.793   3.820 -0.2539 -0.7514 -0.5967
 6734SOL    HW131835   2.331   3.736   3.782  0.7858 -0.4239  0.7565
 6734SOL    HW231836   2.277   3.877   3.775 -0.9316 -0.1992  0.2572
 6735SOL     OW31837   1.156   0.958   4.662  0.2167  0.3728 -0.2694
 6735SOL    HW131838   1.248   0.971   4.683  0.3574 -1.0436 -0.0162
 6735SOL    HW231839   1.157   0.945   4.567  0.6519  0.8929 -0.3336
 6736SOL     OW31840   3.044   0.503   8.808 -0.1406 -0.1575 -0.5003
 6736SOL    HW131841   3.031   0.586   8.762  1.4549  1.0556  1.2396
 6736SOL    HW231842   2.974   0.442   8.783 -0.0298 -0.6527  0.4041
 6737SOL     OW31843   1.357   1.521  10.117 -0.3763  0.2541  0.6387
 6737SOL    HW131844   1.310   1.450  10.074  0.0441  2.8257 -4.1049
 6737SOL    HW231845   1.433   1.471  10.146 -0.2668  0.5012  0.7775
 6738SOL     OW31846   1.566   3.005   7.724 -0.1324  0.6268  0.5597
 6738SOL    HW131847   1.614   2.992   7.642  0.1403  1.2000  0.6274
 6738SOL    HW231848   1.603   3.077   7.775  0.0193  0.7234  0.3161
 6739SOL     OW31849   1.711   1.084  15.875  0.0180 -0.1293 -0.2969
 6739SOL    HW131850   1.769   1.016  15.839  0.2969 -0.0280 -0.0405
 6739SOL    HW231851   1.747   1.161  15.831  1.5821  0.6870  2.3743
 6740SOL     OW31852   2.863   1.159   8.803 -0.2352 -0.3772 -0.5466
 6740SOL    HW131853   2.902   1.139   8.718 -3.3429 -0.6443 -1.8799
 6740SOL    HW231854   2.924   1.105   8.854  1.0726  1.0281 -0.6204
 6741SOL     OW31855   1.946   3.611   9.305 -0.1159  0.3646 -0.7018
 6741SOL    HW131856   1.976   3.528   9.342 -2.8130 -0.8502 -1.2487
 6741SOL    HW231857   1.889   3.646   9.373 -0.4250  0.2339 -0.8916
 6742SOL     OW31858   2.375   2.457   6.657  0.4254 -0.7197  0.4509
 6742SOL    HW131859   2.359   2.551   6.663  0.0774 -0.7116 -0.5968
 6742SOL    HW231860   2.294   2.415   6.627  0.3430 -0.9436  0.9950
 6743SOL     OW31861   2.428   0.028   0.212 -0.7692  0.3546 -0.2733
 6743SOL    HW131862   2.395   0.116   0.194 -0.5490  0.2721 -1.0727
 6743SOL    HW231863   2.486   0.047   0.285 -1.6129 -0.0638  0.5099
 6744SOL     OW31864   0.749   2.048   3.677 -0.3346 -0.2913 -0.3456
 6744SOL    HW131865   0.690   2.107   3.631  0.5214 -0.2510 -1.3927
 6744SOL    HW231866   0.833   2.058   3.632  0.4285 -0.4905  1.0240
 6745SOL     OW31867   1.788   4.023   1.035  0.1205  1.0056  0.1181
 6745SOL    HW131868   1.804   4.051   1.125  1.4643  0.8441 -0.0805
 6745SOL    HW231869   1.822   3.934   1.043  1.7127  1.5018 -1.2548
 6746SOL     OW31870   4.623   3.412   2.896 -0.1658 -0.2871  0.2168
 6746SOL    HW131871   4.575   3.453   2.968  2.2436  1.1078  1.0181
 6746SOL    HW231872   4.588   3.451   2.816 -3.0626 -0.3308  1.4548
 6747SOL     OW31873   3.388   0.546   7.858 -0.0425  0.1255 -0.1459
 6747SOL    HW131874   3.374   0.602   7.934  0.6354 -0.2666  0.2676
 6747SOL    HW231875   3.482   0.561   7.859  0.0348 -0.4851  1.7100
 6748SOL     OW31876   4.393   2.572  14.145  0.0801 -0.0272 -0.0431
 6748SOL    HW131877   4.329   2.506  14.119 -2.3893  1.9121  1.1129
 6748SOL    HW231878   4.388   2.576  14.240  4.0140  2.3550  0.0519
 6749SOL     OW31879   0.211   0.188   6.022 -0.8443  0.8041 -0.0028
 6749SOL    HW131880   0.205   0.108   6.074  0.0608 -0.4698 -1.8726
 6749SOL    HW231881   0.272   0.159   5.953 -1.2559  0.5433 -0.2548
 6750SOL     OW31882   2.085   3.049  11.171 -0.6678 -0.3930  0.3798
 6750SOL    HW131883   2.119   3.078  11.256  0.3777 -1.2481  0.2590
 6750SOL    HW231884   2.019   2.983  11.190 -0.6521 -1.0679 -1.9259
 6751SOL     OW31885   3.878   4.701   1.118  0.9300 -0.0472  0.1647
 6751SOL    HW131886   3.853   4.622   1.167 -3.2862  0.5001 -1.0533
 6751SOL    HW231887   3.928   0.015   1.181  0.1709  0.7338  0.1212
 6752SOL     OW31888   3.643   4.195   7.702  0.0386 -0.4526  0.0198
 6752SOL    HW131889   3.667   4.107   7.673 -0.0383 -0.5544  0.2589
 6752SOL    HW231890   3.638   4.254   7.627  0.5908  0.0053  0.3426
 6753SOL     OW31891   1.100   0.947  10.010  0.3340  0.1790 -0.8096
 6753SOL    HW131892   1.059   0.945  10.096  0.0866 -0.2349 -0.9381
 6753SOL    HW231893   1.155   0.869  10.016  0.9151  0.4682 -2.5281
 6754SOL     OW31894   3.560   1.269  15.572 -0.3009 -0.4389 -0.8614
 6754SOL    HW131895   3.593   1.181  15.591 -1.4885 -0.6697  0.0908
 6754SOL    HW231896   3.562   1.273  15.476 -0.6484  0.6085 -0.8229
 6755SOL     OW31897   3.184   0.716   7.789 -0.6606 -0.1693  0.1910
 6755SOL    HW131898   3.261   0.670   7.821  0.1052 -0.9596 -2.7678
 6755SOL    HW231899   3.115   0.676   7.843  0.3953 -0.1810  1.5147
 6756SOL     OW31900   0.915   0.717   8.634  0.0334 -0.1192  0.4220
 6756SOL    HW131901   1.001   0.753   8.658  0.2937 -0.0584 -0.5999
 6756SOL    HW231902   0.946   0.628   8.623  0.7967  0.0813  0.9179
 6757SOL     OW31903   0.933   1.392  15.615 -0.6532  0.3149  0.2021
 6757SOL    HW131904   0.972   1.312  15.581  0.1766  0.6449  0.3881
 6757SOL    HW231905   0.960   1.454  15.546  0.3647 -0.8716 -0.4495
 6758SOL     OW31906   4.568   3.448  11.147 -0.2349 -0.8809 -0.5282
 6758SOL    HW131907   4.652   3.439  11.191 -0.6310 -2.5776 -0.1133
 6758SOL    HW231908   4.592   3.418  11.059  1.4946 -0.4942 -0.1847
 6759SOL     OW31909   0.249   4.569   3.472  0.1444 -0.0889  0.4042
 6759SOL    HW131910   0.233   4.662   3.488 -0.3065  0.1453 -1.4197
 6759SOL    HW231911   0.297   4.551   3.553  1.8075 -0.5202 -0.6736
 6760SOL     OW31912   4.581   2.822   6.008  0.0113 -0.6125 -0.0513
 6760SOL    HW131913   4.608   2.767   6.082 -0.2408 -1.2492 -0.4277
 6760SOL    HW231914   4.577   2.907   6.051 -2.2657 -0.0411 -1.4075
 6761SOL     OW31915   0.342   4.674   9.489 -0.0331  0.1684 -1.1165
 6761SOL    HW131916   0.294   4.598   9.520  0.2191  0.2571 -0.5187
 6761SOL    HW231917   0.387   4.702   9.568  1.2613  0.9275 -2.1247
 6762SOL     OW31918   1.938   2.965  13.708 -0.2572 -0.1799  0.4006
 6762SOL    HW131919   1.866   2.921  13.753 -0.6097 -1.5523 -1.4758
 6762SOL    HW231920   2.015   2.912  13.728 -0.3466 -0.1055  0.9524
 6763SOL     OW31921   3.634   3.269   4.919 -0.2109  0.3610 -0.0713
 6763SOL    HW131922   3.710   3.278   4.862  0.2650  0.8520  0.6402
 6763SOL    HW231923   3.637   3.360   4.949  0.9715 -0.0204  0.9481
 6764SOL     OW31924   4.319   1.521   7.740 -0.4046 -0.2549 -0.2208
 6764SOL    HW131925   4.312   1.615   7.755  0.0565 -0.2790  0.1564
 6764SOL    HW231926   4.235   1.478   7.757 -1.5395  2.5168  1.1638
 6765SOL     OW31927   4.063   3.101  14.997 -0.6170  0.2762 -0.3796
 6765SOL    HW131928   4.061   3.025  14.939 -0.6555  0.7181 -0.9593
 6765SOL    HW231929   3.972   3.094  15.026 -0.2009  0.4179  0.9863
 6766SOL     OW31930   0.854   4.468   1.091 -0.1112 -0.4351  0.4928
 6766SOL    HW131931   0.804   4.480   1.172  0.0135  0.6761  0.4052
 6766SOL    HW231932   0.902   4.390   1.115  0.8898 -0.1021 -0.4285
 6767SOL     OW31933   1.130   3.170   2.271 -0.3325 -0.8542 -0.3113
 6767SOL    HW131934   1.221   3.146   2.253  0.0944  0.5449  0.0050
 6767SOL    HW231935   1.139   3.258   2.306 -1.5090 -1.1479  0.7528
 6768SOL     OW31936   2.539   4.351   5.300  0.1913  0.1148  0.2612
 6768SOL    HW131937   2.619   4.379   5.255  0.0209 -2.0841 -1.4448
 6768SOL    HW231938   2.508   4.429   5.345 -0.2601 -0.6130  1.2021
 6769SOL     OW31939   4.616   0.493   8.571 -0.3155 -0.2190 -0.5487
 6769SOL    HW131940   4.542   0.503   8.630  0.8523 -0.8319  1.0173
 6769SOL    HW231941   4.655   0.414   8.609 -3.3769 -0.8354  1.3335
 6770SOL     OW31942   3.052   0.051   6.605  0.0426 -0.0003  0.5289
 6770SOL    HW131943   2.966   0.020   6.631 -0.2945  0.6412  0.1902
 6770SOL    HW231944   3.101   4.706   6.615 -0.7030 -0.7105 -1.7445
 6771SOL     OW31945   3.134   4.329   5.288  0.3734 -0.0491  0.1449
 6771SOL    HW131946   3.154   4.423   5.284 -0.0354  0.1297  2.7170
 6771SOL    HW231947   3.218   4.296   5.320 -0.2025 -1.7333 -0.1227
 6772SOL     OW31948   0.048   1.082  17.214 -0.0647  0.1347  0.2099
 6772SOL    HW131949   0.085   0.996  17.236  0.9984  0.4720 -0.2658
 6772SOL    HW231950   0.053   1.128  17.298 -0.0793  1.5115 -0.5574
 6773SOL     OW31951   1.932   0.095   1.009  0.1245 -0.2535 -0.6514
 6773SOL    HW131952   1.946   0.017   1.062 -0.1175  0.0854 -0.0883
 6773SOL    HW231953   1.838   0.106   1.024  0.6034  0.2333  1.8480
 6774SOL     OW31954   1.818   0.498   6.275  0.1801 -0.5920  0.0390
 6774SOL    HW131955   1.821   0.435   6.346 -2.0199 -0.3311  0.3591
 6774SOL    HW231956   1.860   0.566   6.328 -1.6521  1.6857 -1.3980
 6775SOL     OW31957   2.390   0.128   7.759  0.0076 -0.1290 -0.4818
 6775SOL    HW131958   2.356   0.053   7.807 -5.3814  2.3107 -0.4408
 6775SOL    HW231959   2.446   0.175   7.821  0.3323  0.1656 -0.9906
 6776SOL     OW31960   0.666   0.757  11.150 -0.2669 -0.4798  0.0999
 6776SOL    HW131961   0.702   0.692  11.090  4.1606  1.9076  0.1463
 6776SOL    HW231962   0.717   0.739  11.229 -2.4197 -0.7373  1.4158
 6777SOL     OW31963   0.008   4.283   1.008 -0.2672 -0.2033  0.2913
 6777SOL    HW131964   0.074   4.310   1.073 -2.0751  1.3910  1.4526
 6777SOL    HW231965   0.011   4.189   1.023 -0.8357 -0.3259 -0.3641
 6778SOL     OW31966   4.455   1.788   8.708 -0.2531  0.6644  0.0917
 6778SOL    HW131967   4.449   1.877   8.741 -0.6779  0.7375 -0.1809
 6778SOL    HW231968   4.456   1.731   8.784 -0.1521 -1.6726 -1.6400
 6779SOL     OW31969   0.860   3.922   3.785 -0.4108 -0.6739  0.6892
 6779SOL    HW131970   0.796   3.958   3.847 -2.1265 -1.9178 -0.3594
 6779SOL    HW231971   0.852   3.827   3.796  0.1354 -0.8737 -0.6137
 6780SOL     OW31972   3.594   1.265  15.006 -0.5388 -0.2874 -0.2833
 6780SOL    HW131973   3.643   1.342  14.976 -0.4308  0.6747  2.3365
 6780SOL    HW231974   3.650   1.204  14.958  0.8110  0.9021 -0.2575
 6781SOL     OW31975   0.612   4.103   3.453  0.3340  0.2716 -0.2716
 6781SOL    HW131976   0.646   4.179   3.406  1.0113  1.5896  2.3455
 6781SOL    HW231977   0.689   4.050   3.471  1.1959  2.3047  2.1388
 6782SOL     OW31978   3.246   4.148   5.774 -0.5771  0.1136 -0.4826
 6782SOL    HW131979   3.160   4.165   5.737 -0.5249 -0.2012 -0.7414
 6782SOL    HW231980   3.225   4.125   5.864 -1.2656 -1.1437 -0.9710
 6783SOL     OW31981   0.839   1.526  14.562  0.5342  1.3005 -0.6147
 6783SOL    HW131982   0.829   1.434  14.587  0.1255  1.4308 -0.2943
 6783SOL    HW231983   0.760   1.547  14.513 -0.1484  0.6221  0.1941
 6784SOL     OW31984   3.249   2.967   7.435 -0.5778  0.5203 -0.3061
 6784SOL    HW131985   3.168   3.017   7.426 -0.1356  1.0724 -1.1395
 6784SOL    HW231986   3.271   2.970   7.342  0.0654 -1.3446 -0.2236
 6785SOL     OW31987   1.626   1.590   5.091  0.4357 -0.5506 -0.6633
 6785SOL    HW131988   1.624   1.579   5.186 -0.0936  0.4443 -0.5611
 6785SOL    HW231989   1.544   1.636   5.075  1.3254  0.2710 -2.9045
 6786SOL     OW31990   2.393   1.915   3.681  0.0037  0.0641 -0.0430
 6786SOL    HW131991   2.430   1.855   3.616 -1.3699 -0.3218 -0.4541
 6786SOL    HW231992   2.474   1.941   3.725 -1.1682  1.0603  1.5071
 6787SOL     OW31993   4.132   1.632   5.623  0.2992 -0.0405 -0.2055
 6787SOL    HW131994   4.095   1.661   5.706  0.4725  0.0268 -0.1510
 6787SOL    HW231995   4.226   1.649   5.626  0.3760 -0.8401  2.0137
 6788SOL     OW31996   2.699   4.716   4.425 -0.4463  0.0689 -0.1417
 6788SOL    HW131997   2.758   0.049   4.453 -1.4596  1.3912 -1.3716
 6788SOL    HW231998   2.765   4.646   4.425 -0.9986 -0.4584  1.4137
 6789SOL     OW31999   2.689   1.213   8.493 -0.7210 -0.1126 -0.3743
 6789SOL    HW132000   2.671   1.119   8.499  0.5720 -0.5162 -3.0292
 6789SOL    HW232001   2.782   1.215   8.471 -0.7933 -1.6206 -0.8258
 6790SOL     OW32002   1.896   3.874   3.380  0.3411  0.6420  0.2356
 6790SOL    HW132003   1.809   3.908   3.359  0.0004  2.3731  4.6030
 6790SOL    HW232004   1.878   3.822   3.458  0.3211  0.2924  0.0006
 6791SOL     OW32005   2.880   0.182   3.486 -0.1275  0.5930 -1.0397
 6791SOL    HW132006   2.944   0.114   3.466 -1.1000 -0.5296 -0.3247
 6791SOL    HW232007   2.827   0.176   3.406  0.9781  1.0822 -1.8059
 6792SOL     OW32008   2.690   4.507  10.983  0.0162  0.1631  0.2731
 6792SOL    HW132009   2.678   4.569  11.055 -1.2718 -1.7626  1.7164
 6792SOL    HW232010   2.700   4.427  11.034  1.1066 -0.5337 -1.0447
 6793SOL     OW32011   1.008   0.944   8.953  0.2985  0.1305 -0.2500
 6793SOL    HW132012   1.083   0.918   8.900  0.3477  1.3293 -0.7636
 6793SOL    HW232013   1.051   0.952   9.039  0.3396  1.1780 -0.3675
 6794SOL     OW32014   4.670   3.381   8.272  0.1156  0.1359 -0.4064
 6794SOL    HW132015   4.590   3.403   8.320  0.3761 -0.0180  0.1002
 6794SOL    HW232016   4.692   3.299   8.315  0.5617  0.4700  0.0036
 6795SOL     OW32017   1.692   1.182   7.519  0.4184 -0.2458  0.4799
 6795SOL    HW132018   1.730   1.124   7.452 -1.1128  0.0567 -0.6514
 6795SOL    HW232019   1.715   1.125   7.592  0.6436  1.6184  1.8574
 6796SOL     OW32020   4.264   1.592   8.636 -0.2360  0.2555  0.1357
 6796SOL    HW132021   4.317   1.670   8.652 -0.6130  0.5759 -0.1920
 6796SOL    HW232022   4.281   1.582   8.542  1.8394 -0.1674  0.5651
 6797SOL     OW32023   3.698   4.701   7.110  0.6418 -0.2758  0.3183
 6797SOL    HW132024   3.672   4.717   7.019  1.9246  2.3854  0.3888
 6797SOL    HW232025   3.793   4.695   7.104  0.6094  1.0072 -1.5450
 6798SOL     OW32026   4.568   2.667   8.898  0.2786  0.2693 -0.0572
 6798SOL    HW132027   4.508   2.673   8.824  1.3221  4.5347 -0.5388
 6798SOL    HW232028   4.537   2.741   8.949  0.3692  0.0480  0.3204
 6799SOL     OW32029   2.072   1.646   1.386 -0.2668 -0.2072  0.0318
 6799SOL    HW132030   2.120   1.658   1.304 -2.0805  0.4963 -0.9389
 6799SOL    HW232031   1.984   1.623   1.357 -0.1083 -0.7824  0.0054
 6800SOL     OW32032   2.050   1.522   7.068 -0.2184 -0.7981  0.0029
 6800SOL    HW132033   2.036   1.488   6.980  0.7420  2.0782 -1.2869
 6800SOL    HW232034   2.066   1.444   7.120 -0.2813 -0.5784  0.3484
 6801SOL     OW32035   4.183   0.981   4.476  0.0296 -0.0514  0.0187
 6801SOL    HW132036   4.256   0.955   4.419  0.2527 -0.4109  0.4727
 6801SOL    HW232037   4.148   1.048   4.417  1.2540 -0.0005 -0.6682
 6802SOL     OW32038   0.717   3.212   4.263 -0.3523 -0.1666  0.1341
 6802SOL    HW132039   0.685   3.301   4.276  0.8865  0.3410 -0.3453
 6802SOL    HW232040   0.810   3.229   4.277 -0.1140 -2.0194  0.7360
 6803SOL     OW32041   4.390   3.870   3.334  0.2505  0.0738  0.2858
 6803SOL    HW132042   4.322   3.919   3.288  1.3510  0.2885 -1.1020
 6803SOL    HW232043   4.466   3.893   3.281 -0.8517  3.3072  0.0855
 6804SOL     OW32044   0.928   0.949   3.158 -0.5160  0.3624 -0.1003
 6804SOL    HW132045   0.887   1.035   3.149 -1.0474  0.3182  1.9589
 6804SOL    HW232046   0.854   0.903   3.198 -1.3676  3.6537  2.0899
 6805SOL     OW32047   2.514   0.856   9.534  0.5913 -0.2347  0.0274
 6805SOL    HW132048   2.464   0.844   9.615  0.1312 -1.0687 -0.3895
 6805SOL    HW232049   2.514   0.951   9.520  0.1874  0.2484  3.2108
 6806SOL     OW32050   1.123   0.751   0.074 -0.8711  0.7446  0.5655
 6806SOL    HW132051   1.090   0.841   0.080  0.5127  1.2013  1.5403
 6806SOL    HW232052   1.053   0.709   0.024 -1.8289  3.2149 -0.1677
 6807SOL     OW32053   3.205   2.116   8.872 -0.6347 -0.2209  0.1281
 6807SOL    HW132054   3.204   2.174   8.796 -1.0985  0.5704  0.7295
 6807SOL    HW232055   3.115   2.082   8.877 -0.1778 -1.7542 -2.3813
 6808SOL     OW32056   3.954   4.113   6.799 -0.0815  0.7912  0.1478
 6808SOL    HW132057   4.008   4.098   6.721 -0.1728  1.0149  0.0414
 6808SOL    HW232058   3.873   4.088   6.754 -0.8712  2.2923  0.7265
 6809SOL     OW32059   0.619   4.094   9.805  0.2472  0.4678  0.3115
 6809SOL    HW132060   0.631   4.136   9.890  0.6601 -2.6610  1.7688
 6809SOL    HW232061   0.712   4.080   9.789  0.2729  0.5048  0.4270
 6810SOL     OW32062   1.302   3.819   2.524 -0.1529 -0.2536  0.8127
 6810SOL    HW132063   1.305   3.742   2.467 -0.6296 -0.3049  0.8607
 6810SOL    HW232064   1.218   3.805   2.567  0.0936  0.1025  1.4034
 6811SOL     OW32065   3.720   3.873   7.952  0.3240 -0.0335  0.0028
 6811SOL    HW132066   3.710   3.779   7.967 -0.9903 -0.0767 -1.2015
 6811SOL    HW232067   3.677   3.877   7.867 -2.0696  2.6354  1.3386
 6812SOL     OW32068   3.804   1.725  17.348  0.1775  0.1948 -0.2827
 6812SOL    HW132069   3.854   1.807  17.343  2.0995 -0.9404  0.1318
 6812SOL    HW232070   3.774   1.739  17.438  0.6726 -2.0710  0.2380
 6813SOL     OW32071   0.677   1.655   6.318 -0.7778  0.0245 -0.0019
 6813SOL    HW132072   0.643   1.566   6.311  1.7042 -1.0715  1.9578
 6813SOL    HW232073   0.724   1.643   6.401 -3.0969  0.2647  1.3290
 6814SOL     OW32074   1.192   4.148   4.204 -0.5241 -0.5252 -0.2294
 6814SOL    HW132075   1.161   4.060   4.224 -0.4502 -0.6059 -0.4718
 6814SOL    HW232076   1.234   4.159   4.289 -2.2042  2.2211  0.2400
 6815SOL     OW32077   2.183   2.943   4.925  1.3600 -0.1122 -0.1657
 6815SOL    HW132078   2.104   2.888   4.932  0.1999  1.7330  1.3200
 6815SOL    HW232079   2.257   2.893   4.960 -0.1701 -2.5405 -0.3977
 6816SOL     OW32080   2.955   1.954   1.418 -0.3896  0.5902 -0.4871
 6816SOL    HW132081   2.908   1.877   1.387  1.6219 -0.5350 -0.6840
 6816SOL    HW232082   2.986   1.979   1.332  0.0420  1.6001 -0.0417
 6817SOL     OW32083   1.703   1.791   2.819 -0.2340 -0.4912  0.0607
 6817SOL    HW132084   1.790   1.831   2.808 -0.8216  0.6676 -0.4454
 6817SOL    HW232085   1.709   1.771   2.912 -2.7790 -0.7198  0.1886
 6818SOL     OW32086   2.407   1.044   9.959  0.1442 -0.8127  0.1055
 6818SOL    HW132087   2.447   1.128   9.979  1.7798 -0.9597 -2.6610
 6818SOL    HW232088   2.484   0.997   9.990  0.5973 -0.8930 -1.1668
 6819SOL     OW32089   2.012   1.023   0.719 -0.1294  0.0833 -0.7967
 6819SOL    HW132090   2.063   0.999   0.797 -1.4024 -1.2970 -0.4082
 6819SOL    HW232091   1.982   1.109   0.749  0.8680  0.7494 -1.7055
 6820SOL     OW32092   1.583   1.018   3.877 -0.0413  0.0447 -0.1172
 6820SOL    HW132093   1.647   1.051   3.940  0.0311 -0.8704  0.2960
 6820SOL    HW232094   1.587   1.083   3.807  2.2336  0.4527  0.3704
 6821SOL     OW32095   3.718   3.431   5.847  0.1834  0.6065 -0.0704
 6821SOL    HW132096   3.691   3.491   5.777  0.5444  0.1818 -0.5761
 6821SOL    HW232097   3.810   3.412   5.827 -0.2779  1.4709 -3.0172
 6822SOL     OW32098   2.651   3.959   3.731  0.4203  0.1915 -0.2125
 6822SOL    HW132099   2.657   3.936   3.638 -1.4701  2.0906 -0.8184
 6822SOL    HW232100   2.568   4.007   3.724  0.2817 -0.2352 -1.6425
 6823SOL     OW32101   4.660   1.278   6.398 -0.1407 -0.0052  0.3222
 6823SOL    HW132102   4.624   1.275   6.310 -1.8485  0.9086  0.9845
 6823SOL    HW232103   4.628   1.209   6.456 -0.6538  0.4916  0.6350
 6824SOL     OW32104   3.042   3.459  15.665 -0.6150  0.3611 -0.8647
 6824SOL    HW132105   3.117   3.501  15.625 -0.0750 -1.1791 -1.4687
 6824SOL    HW232106   2.968   3.484  15.610 -0.9447 -0.2669 -0.7054
 6825SOL     OW32107   1.039   1.540   3.995 -0.1565  0.3108 -0.0470
 6825SOL    HW132108   1.040   1.618   3.939 -1.3023  0.5142  0.2274
 6825SOL    HW232109   0.947   1.540   4.020 -0.3610 -0.2596 -0.8101
 6826SOL     OW32110   2.796   1.681   6.762  0.6401  0.2463 -0.5078
 6826SOL    HW132111   2.705   1.661   6.739 -0.2249  2.3049  1.1312
 6826SOL    HW232112   2.821   1.744   6.694  1.4125  1.2639  0.7107
 6827SOL     OW32113   4.649   0.693   5.031  0.1942  0.1028 -0.9026
 6827SOL    HW132114   0.007   0.682   5.031  0.3463  1.2785 -2.7031
 6827SOL    HW232115   4.649   0.788   5.047 -0.7526 -0.2994  1.4193
 6828SOL     OW32116   1.985   2.739   7.953 -0.2222 -0.2189  0.2851
 6828SOL    HW132117   1.942   2.669   7.904 -1.4481 -0.1718  1.3075
 6828SOL    HW232118   2.073   2.734   7.916 -0.1468  1.8949  0.2087
 6829SOL     OW32119   3.215   2.321   6.667 -0.5436 -0.1271  0.2504
 6829SOL    HW132120   3.127   2.320   6.703 -1.0989  2.8726 -1.0286
 6829SOL    HW232121   3.230   2.229   6.688  1.7483  0.2824  0.4640
 6830SOL     OW32122   4.203   1.955   1.618  0.6135  0.2117  0.1116
 6830SOL    HW132123   4.225   1.892   1.686  1.7321  0.0444 -0.4104
 6830SOL    HW232124   4.113   1.929   1.598  0.3115  1.2950  0.0855
 6831SOL     OW32125   2.520   3.591   2.902 -0.6623  0.2232  0.1545
 6831SOL    HW132126   2.437   3.617   2.861 -0.7810 -0.9047 -0.3074
 6831SOL    HW232127   2.529   3.501   2.872 -1.4573 -0.1755  1.0981
 6832SOL     OW32128   2.969   1.689   0.367 -0.8126 -0.0005 -0.3082
 6832SOL    HW132129   3.023   1.612   0.349 -2.9537 -2.0334  1.8822
 6832SOL    HW232130   2.889   1.658   0.325  0.9861 -2.1046 -2.1990
 6833SOL     OW32131   2.114   0.144   4.203 -0.2992 -0.2223  0.1047
 6833SOL    HW132132   2.069   0.189   4.274 -0.3533 -2.2709  1.3735
 6833SOL    HW232133   2.179   0.091   4.249  0.5145  0.0544 -0.7215
 6834SOL     OW32134   4.727   3.211   3.942 -0.8052  0.1184  0.2348
 6834SOL    HW132135   4.677   3.292   3.954  0.0641  0.7038 -0.1203
 6834SOL    HW232136   0.078   3.245   3.930  0.0710 -2.1169  0.2599
 6835SOL     OW32137   1.745   0.064   8.685  0.2334 -1.0629  0.2133
 6835SOL    HW132138   1.830   0.019   8.687  1.1162  0.6045  0.3475
 6835SOL    HW232139   1.746   0.132   8.753  0.7105 -0.3882 -0.4660
 6836SOL     OW32140   2.137   1.533   5.480 -0.1879  0.0163  0.6807
 6836SOL    HW132141   2.212   1.481   5.451 -1.6806 -0.2895 -2.5672
 6836SOL    HW232142   2.121   1.494   5.566 -0.1569 -1.7468 -0.1149
 6837SOL     OW32143   2.001   4.376   2.739  0.0306  0.1076 -1.0213
 6837SOL    HW132144   2.042   4.460   2.720 -1.2884  0.6763 -1.2793
 6837SOL    HW232145   2.025   4.371   2.831  1.0845 -2.4103 -1.4080
 6838SOL     OW32146   3.806   0.435   4.072 -0.1847  0.3846 -0.6490
 6838SOL    HW132147   3.728   0.481   4.039 -0.1996 -0.1579 -1.3807
 6838SOL    HW232148   3.847   0.511   4.112  1.1864 -1.5103  1.5095
 6839SOL     OW32149   2.784   4.339   8.743 -0.1441 -0.3507  0.3118
 6839SOL    HW132150   2.777   4.286   8.822 -1.1887 -2.3169 -1.1328
 6839SOL    HW232151   2.791   4.425   8.787  1.5927 -0.3362  0.0307
 6840SOL     OW32152   1.328   1.307  13.123 -0.3500 -0.3569  0.2107
 6840SOL    HW132153   1.283   1.328  13.041  0.5968 -3.4269 -1.0762
 6840SOL    HW232154   1.255   1.306  13.186 -0.6265 -1.0690 -0.1256
 6841SOL     OW32155   3.417   4.003   2.622 -0.1541 -0.3526 -0.0370
 6841SOL    HW132156   3.511   3.985   2.624 -0.2043 -0.2324  3.1875
 6841SOL    HW232157   3.377   3.917   2.631 -1.6355  0.3074 -0.1495
 6842SOL     OW32158   4.199   1.587  15.016  0.1581 -0.2031 -0.0754
 6842SOL    HW132159   4.219   1.678  14.996  0.1646 -0.4824 -1.3836
 6842SOL    HW232160   4.197   1.590  15.111  0.5252 -3.1430  0.0388
 6843SOL     OW32161   0.912   2.747   5.331 -0.1559  0.1892  0.3441
 6843SOL    HW132162   0.825   2.739   5.371 -1.0044  1.9363 -1.1183
 6843SOL    HW232163   0.892   2.757   5.237 -3.9823 -0.7897  1.0536
 6844SOL     OW32164   4.317   2.348   2.935 -0.8042 -0.1303 -0.6828
 6844SOL    HW132165   4.373   2.425   2.946 -0.1902 -0.7230  0.3825
 6844SOL    HW232166   4.269   2.374   2.857  2.1896  2.7589 -1.5821
 6845SOL     OW32167   1.830   1.112  10.382  0.1801  0.5521  0.3355
 6845SOL    HW132168   1.782   1.185  10.420  1.5923  1.1100  1.0239
 6845SOL    HW232169   1.919   1.133  10.408  0.6482 -0.6979 -0.2275
 6846SOL     OW32170   4.467   1.049  16.504 -0.2656 -0.4690  0.1571
 6846SOL    HW132171   4.508   0.986  16.444 -1.7790  1.0962 -2.5108
 6846SOL    HW232172   4.440   0.997  16.580 -0.7175 -0.1930  0.1834
 6847SOL     OW32173   0.950   2.042   3.482 -0.0838 -0.2759 -0.1054
 6847SOL    HW132174   1.043   2.047   3.461  0.6788  1.3746  3.7953
 6847SOL    HW232175   0.909   1.984   3.418 -2.0733 -0.0711  0.9921
 6848SOL     OW32176   1.057   2.140   8.944  0.3253  0.3890 -0.2381
 6848SOL    HW132177   1.085   2.121   8.854 -3.6048 -3.0762 -0.7261
 6848SOL    HW232178   0.967   2.170   8.934  0.1126 -0.5071 -0.9604
 6849SOL     OW32179   0.163   0.379   6.247  0.0521  0.5530 -0.2011
 6849SOL    HW132180   0.137   0.316   6.179  3.0731  0.1258 -0.9606
 6849SOL    HW232181   0.160   0.325   6.326  0.4753  0.2008 -0.4256
 6850SOL     OW32182   0.550   0.299  12.012  0.4476 -0.2925 -0.4370
 6850SOL    HW132183   0.512   0.370  11.960  0.1498 -1.0402 -1.2333
 6850SOL    HW232184   0.597   0.345  12.081  1.6011 -1.9496 -0.1130
 6851SOL     OW32185   3.903   1.085   2.074  0.3648 -0.5946  0.1091
 6851SOL    HW132186   3.972   1.087   2.008 -1.3699  2.9392 -1.5751
 6851SOL    HW232187   3.904   0.995   2.106  0.5131 -1.5256 -2.5268
 6852SOL     OW32188   0.225   2.261  16.728  0.4302 -0.1718  0.3659
 6852SOL    HW132189   0.261   2.172  16.725 -1.3020 -0.7982 -1.3057
 6852SOL    HW232190   0.147   2.239  16.780  0.0761 -0.7582 -0.4158
 6853SOL     OW32191   1.742   3.701   8.046  0.0954 -0.1911 -0.2359
 6853SOL    HW132192   1.768   3.706   8.138  1.8504  1.4925 -0.8079
 6853SOL    HW232193   1.775   3.619   8.011 -0.4007 -0.8843  0.9368
 6854SOL     OW32194   3.165   3.169   5.913 -0.1444  0.0960 -0.6397
 6854SOL    HW132195   3.158   3.263   5.925  0.5949 -0.0588  0.8980
 6854SOL    HW232196   3.183   3.151   5.820 -1.7640  0.5644 -1.0389
 6855SOL     OW32197   3.075   3.892   1.850  0.9786 -0.5050 -0.0525
 6855SOL    HW132198   3.020   3.888   1.772 -0.1083 -1.4085  0.7557
 6855SOL    HW232199   3.158   3.862   1.813  1.5480  0.2946  0.5683
 6856SOL     OW32200   0.095   2.332   9.770 -0.0004  0.0521 -0.4850
 6856SOL    HW132201   0.060   2.421   9.774 -0.5719 -0.0854 -2.5831
 6856SOL    HW232202   0.134   2.329   9.683 -0.3371  1.6391 -0.6794
 6857SOL     OW32203   4.284   4.524   0.305 -0.3346  0.4043 -0.6912
 6857SOL    HW132204   4.299   4.505   0.212 -1.1471  0.5902 -0.8626
 6857SOL    HW232205   4.193   4.552   0.298 -0.6681 -0.0177  1.9025
 6858SOL     OW32206   3.534   0.674   8.803 -0.5974  0.0012 -0.1644
 6858SOL    HW132207   3.599   0.703   8.739  0.1789  0.2705  0.7460
 6858SOL    HW232208   3.543   0.750   8.860 -0.4921 -0.5535  0.5611
 6859SOL     OW32209   3.000   2.892   6.984  0.2054  0.0984  0.8291
 6859SOL    HW132210   2.936   2.842   7.034 -1.0794  1.4041  0.4664
 6859SOL    HW232211   3.072   2.828   6.981 -1.1959 -1.4396  0.3489
 6860SOL     OW32212   2.707   0.252   2.645  0.2813  0.0077  0.4590
 6860SOL    HW132213   2.620   0.262   2.684 -0.2735 -1.2752 -0.4714
 6860SOL    HW232214   2.767   0.255   2.720  0.6298  1.1662  0.1432
 6861SOL     OW32215   4.108   1.392   4.627 -0.3219  0.4260  0.2537
 6861SOL    HW132216   4.113   1.488   4.628  0.6861  0.3853 -0.8690
 6861SOL    HW232217   4.132   1.378   4.535  1.4754 -0.1040  0.8180
 6862SOL     OW32218   0.595   3.146  10.695 -0.0214 -0.1617  0.1476
 6862SOL    HW132219   0.565   3.235  10.712 -1.6030 -0.5409 -0.7472
 6862SOL    HW232220   0.637   3.121  10.778 -2.1918 -1.1010  0.9663
 6863SOL     OW32221   0.109   2.761   9.819 -0.4397  0.1345 -0.5312
 6863SOL    HW132222   0.031   2.801   9.857  0.0395 -2.1295  2.8215
 6863SOL    HW232223   0.141   2.843   9.783 -0.5685  0.5635  0.3356
 6864SOL     OW32224   4.534   0.744  13.526  0.4791  0.6989  0.1139
 6864SOL    HW132225   4.626   0.732  13.503 -0.0393 -0.2867 -1.4815
 6864SOL    HW232226   4.526   0.839  13.537 -1.3337  0.5512  0.0582
 6865SOL     OW32227   3.993   0.504  11.782 -0.0112  0.1667 -0.3839
 6865SOL    HW132228   4.035   0.418  11.789 -0.5412 -0.1688 -1.2984
 6865SOL    HW232229   3.944   0.499  11.864  3.0542  1.0907  1.4742
 6866SOL     OW32230   0.584   2.912  10.289 -0.1717 -0.1908  0.0309
 6866SOL    HW132231   0.660   2.964  10.316  0.7139 -1.9523  1.0143
 6866SOL    HW232232   0.581   2.935  10.196  1.6623  0.0964  0.0441
 6867SOL     OW32233   0.105   1.466   0.741  0.1409 -0.2793 -0.0433
 6867SOL    HW132234   0.038   1.408   0.776  0.2564 -0.5392 -0.2555
 6867SOL    HW232235   0.051   1.508   0.674  0.5137 -1.0822 -0.8536
 6868SOL     OW32236   2.919   3.027   7.602  0.6426 -0.2050 -0.3225
 6868SOL    HW132237   2.930   2.934   7.583 -0.2121 -0.1500 -1.0846
 6868SOL    HW232238   2.894   3.030   7.695 -1.4798  1.0231 -0.9294
 6869SOL     OW32239   3.200   2.205   5.677 -0.2165  0.5615 -0.0680
 6869SOL    HW132240   3.217   2.118   5.714  1.1741  0.2875 -1.3541
 6869SOL    HW232241   3.289   2.210   5.643  0.6568  1.5025  2.3438
 6870SOL     OW32242   3.907   1.983   2.846 -0.4699  0.0126  0.1236
 6870SOL    HW132243   3.921   2.010   2.756 -1.8189  1.1848  0.2776
 6870SOL    HW232244   3.829   1.929   2.833 -0.3483  0.2552 -1.6022
 6871SOL     OW32245   2.042   2.024  17.099 -0.0342  0.0972 -0.4321
 6871SOL    HW132246   2.085   1.949  17.057  1.9018  0.1634  1.3881
 6871SOL    HW232247   2.100   2.100  17.093  0.8660 -0.6431 -1.2494
 6872SOL     OW32248   4.707   2.229   6.804  0.1864 -0.2632 -0.1492
 6872SOL    HW132249   4.700   2.294   6.734 -0.5432  0.9098  1.0101
 6872SOL    HW232250   4.737   2.154   6.753 -0.5887  0.5187 -1.7608
 6873SOL     OW32251   4.300   0.689  14.622 -0.2999  0.5252 -0.4760
 6873SOL    HW132252   4.339   0.727  14.543  0.5769  0.4281 -0.0918
 6873SOL    HW232253   4.287   0.771  14.671  2.4686  1.3536 -1.1118
 6874SOL     OW32254   3.267   4.410   7.555 -0.2033  0.0039  0.0243
 6874SOL    HW132255   3.211   4.468   7.607 -0.1106 -1.7368  2.1106
 6874SOL    HW232256   3.331   4.471   7.517 -2.2300  1.1126 -1.5586
 6875SOL     OW32257   4.287   1.472   4.859  0.1372 -0.0315 -0.3392
 6875SOL    HW132258   4.258   1.427   4.939  2.6770 -0.1296  0.5277
 6875SOL    HW232259   4.212   1.462   4.801 -0.2955  0.7521  0.0889
 6876SOL     OW32260   3.310   2.767   7.607  0.3238  0.0909  0.2886
 6876SOL    HW132261   3.264   2.794   7.687  1.8349 -0.4665  1.3363
 6876SOL    HW232262   3.292   2.842   7.551 -0.4746 -0.8298 -0.6797
 6877SOL     OW32263   1.631   4.153   1.539 -0.3792 -0.5172  0.0130
 6877SOL    HW132264   1.666   4.226   1.488 -0.4147  0.8320  1.9418
 6877SOL    HW232265   1.597   4.094   1.472 -1.7112  0.5946 -0.2965
 6878SOL     OW32266   3.013   1.391   7.557  0.8419 -0.1280  0.5204
 6878SOL    HW132267   3.028   1.448   7.481 -0.6490 -1.0314 -0.4447
 6878SOL    HW232268   3.019   1.454   7.628 -2.6298 -0.4558  1.0942
 6879SOL     OW32269   4.519   3.029   2.914  0.3624  0.1868 -0.4087
 6879SOL    HW132270   4.588   3.073   2.865 -0.4621  1.6570 -0.2714
 6879SOL    HW232271   4.503   3.091   2.986  1.2623  1.9841 -1.7366
 6880SOL     OW32272   3.325   0.453   0.153  0.2299 -0.7298 -0.0493
 6880SOL    HW132273   3.305   0.412   0.069 -2.5041 -0.3900  0.4122
 6880SOL    HW232274   3.416   0.432   0.172  0.2822 -2.4156 -2.1984
 6881SOL     OW32275   2.954   4.670  17.104 -0.2421  0.3409  0.7746
 6881SOL    HW132276   2.866   4.649  17.136  0.3704 -1.3205  1.3146
 6881SOL    HW232277   2.983   0.007  17.157  3.3264 -1.0020  0.7040
 6882SOL     OW32278   3.585   1.534  14.910 -0.0309  0.5636  0.1422
 6882SOL    HW132279   3.578   1.520  14.815  0.3817 -1.0635  0.3558
 6882SOL    HW232280   3.670   1.575  14.924  0.7748 -0.6125 -1.3372
 6883SOL     OW32281   1.226   1.432   4.166 -0.5316  0.5009  0.1111
 6883SOL    HW132282   1.171   1.464   4.093  0.1857  1.4995  0.0160
 6883SOL    HW232283   1.267   1.512   4.197  1.3299 -0.6102  0.4787
 6884SOL     OW32284   2.595   2.866   4.429  0.0981 -0.2011  0.2778
 6884SOL    HW132285   2.684   2.879   4.461  0.4879  0.5931 -1.1361
 6884SOL    HW232286   2.602   2.781   4.386  1.5242 -0.8250  1.7519
 6885SOL     OW32287   4.069   0.383  16.920  0.5212  0.1987 -0.4974
 6885SOL    HW132288   4.065   0.479  16.916  0.1431  0.2608  0.9897
 6885SOL    HW232289   3.990   0.365  16.868  0.8581  0.9211 -1.2553
 6886SOL     OW32290   3.807   1.034   8.046 -0.7849 -0.5465 -0.1995
 6886SOL    HW132291   3.753   1.065   8.119  1.4001  2.0457  0.2875
 6886SOL    HW232292   3.803   0.945   8.080  0.5682  0.7819  3.3663
 6887SOL     OW32293   3.727   0.748   8.598  0.2803 -0.5037  0.0455
 6887SOL    HW132294   3.800   0.780   8.650  1.0990  0.9949 -1.9997
 6887SOL    HW232295   3.767   0.684   8.539  2.7131  0.9871  0.0727
 6888SOL     OW32296   0.021   4.250  13.961 -0.6209 -0.0036 -0.9992
 6888SOL    HW132297   0.042   4.327  13.908  0.6345 -0.7146 -1.5214
 6888SOL    HW232298   0.010   4.286  14.049 -0.2480 -0.9822 -0.5495
 6889SOL     OW32299   2.669   1.953  11.517  0.0684 -0.3214  0.1188
 6889SOL    HW132300   2.662   1.983  11.426  0.1842 -0.1141  0.1778
 6889SOL    HW232301   2.704   2.030  11.563  0.4752 -0.5831  0.2523
 6890SOL     OW32302   3.049   4.719   3.860 -0.5625  0.1227  0.1912
 6890SOL    HW132303   3.121   4.670   3.901 -1.6611 -0.2961  1.5846
 6890SOL    HW232304   3.034   4.668   3.780 -2.1352  0.4717  0.2707
 6891SOL     OW32305   1.200   4.553   6.311 -0.0190 -0.1746  0.2770
 6891SOL    HW132306   1.251   4.629   6.283  1.3838 -1.2183 -0.0084
 6891SOL    HW232307   1.148   4.534   6.233  0.2602  1.0939 -0.2090
 6892SOL     OW32308   2.935   0.080  12.178 -0.4799  0.1145 -0.5973
 6892SOL    HW132309   2.925   0.175  12.189  0.9207  0.1081  0.7616
 6892SOL    HW232310   2.951   0.078  12.083  1.3091 -0.2779 -0.2889
 6893SOL     OW32311   1.631   2.785  12.599  0.3335  0.4438 -0.0802
 6893SOL    HW132312   1.723   2.781  12.629 -0.1913 -1.7412  1.2651
 6893SOL    HW232313   1.613   2.691  12.592  0.7985  0.2921  0.7635
 6894SOL     OW32314   0.139   1.069   2.011  0.0736 -0.2927 -0.2822
 6894SOL    HW132315   0.143   1.126   1.934  1.9971  2.4203  1.8351
 6894SOL    HW232316   0.150   0.984   1.968  2.0169  0.3777 -1.1304
 6895SOL     OW32317   1.893   3.777   4.089 -0.4240  0.0519  0.6863
 6895SOL    HW132318   1.818   3.837   4.092 -0.4495  0.0776 -0.5963
 6895SOL    HW232319   1.967   3.838   4.082 -0.6132  0.2285  0.2036
 6896SOL     OW32320   1.048   1.086   4.877 -0.3827  0.1197 -0.2381
 6896SOL    HW132321   1.082   1.046   4.797  2.0265  0.9578  0.3591
 6896SOL    HW232322   0.966   1.123   4.843 -0.3221  0.7644  0.3112
 6897SOL     OW32323   3.601   1.836  17.150 -0.1093  0.1090  0.1211
 6897SOL    HW132324   3.640   1.776  17.214 -0.8525 -0.5164 -0.0114
 6897SOL    HW232325   3.633   1.922  17.179 -0.4654 -0.0248  0.9230
 6898SOL     OW32326   4.265   2.445   8.799  0.1427 -0.2294  0.1602
 6898SOL    HW132327   4.293   2.375   8.858  1.5089 -0.4745 -0.7996
 6898SOL    HW232328   4.310   2.429   8.717 -0.0759  0.8461 -0.1757
 6899SOL     OW32329   1.865   1.992   7.195 -0.0332  0.4681 -0.2926
 6899SOL    HW132330   1.955   1.999   7.227  0.8427  1.8153 -3.1003
 6899SOL    HW232331   1.844   1.899   7.192  1.8970 -0.0598  2.2402
 6900SOL     OW32332   1.889   4.061   3.941 -0.6621  0.9546  0.0505
 6900SOL    HW132333   1.927   4.129   3.996  1.6257 -1.6794  1.7073
 6900SOL    HW232334   1.813   4.044   3.996 -0.6753  3.0015  0.6534
 6901SOL     OW32335   3.365   1.049   3.532  0.5432  0.1143  0.3585
 6901SOL    HW132336   3.453   1.083   3.517  0.5698  0.2130  0.7638
 6901SOL    HW232337   3.380   0.977   3.593 -1.3351 -0.8749 -0.3212
 6902SOL     OW32338   3.648   4.529  16.675 -0.3662 -0.0879  0.1210
 6902SOL    HW132339   3.618   4.438  16.672 -1.0244  0.1476 -0.5168
 6902SOL    HW232340   3.641   4.541  16.770  1.5126 -0.5123  0.2991
 6903SOL     OW32341   1.027   3.888   4.959 -0.0692 -0.6119 -0.1016
 6903SOL    HW132342   1.105   3.864   4.909 -0.3850 -2.9289  0.5223
 6903SOL    HW232343   1.058   3.976   4.983  1.3561 -1.6396  1.8389
 6904SOL     OW32344   4.208   3.008  16.558  0.4236  0.8636 -0.2568
 6904SOL    HW132345   4.291   2.995  16.603  0.2236  2.5811  0.5973
 6904SOL    HW232346   4.207   3.103  16.562  3.1702  0.9936 -2.4167
 6905SOL     OW32347   0.910   1.802   7.260  0.4608 -0.2861  0.9149
 6905SOL    HW132348   0.912   1.849   7.343 -3.2670 -2.2012  2.0976
 6905SOL    HW232349   0.820   1.769   7.254  0.0587  0.6858  1.8062
 6906SOL     OW32350   3.707   1.759   5.209 -0.3683  0.3550  0.2724
 6906SOL    HW132351   3.681   1.667   5.199 -0.4658  0.2232  1.7684
 6906SOL    HW232352   3.734   1.755   5.300 -0.4356  1.5569  0.3437
 6907SOL     OW32353   3.638   1.047  16.397 -0.2982 -0.4090  0.0719
 6907SOL    HW132354   3.571   1.057  16.464 -1.0896 -1.1429 -0.6174
 6907SOL    HW232355   3.650   1.133  16.355 -1.0405  0.0295  0.7581
 6908SOL     OW32356   2.277   1.678  11.432  0.1843  0.4750 -0.2517
 6908SOL    HW132357   2.312   1.659  11.519  1.0976 -1.8179 -1.1117
 6908SOL    HW232358   2.190   1.639  11.423  0.5191 -0.0530 -1.2601
 6909SOL     OW32359   2.480   4.690   1.566  0.0722 -0.4369 -0.1807
 6909SOL    HW132360   2.440   0.034   1.535  1.8876 -0.0902 -1.6312
 6909SOL    HW232361   2.426   4.672   1.643  0.2797  0.8506  0.2801
 6910SOL     OW32362   0.419   3.331   7.743 -0.5809  0.5893 -0.2015
 6910SOL    HW132363   0.334   3.295   7.716  0.0836 -2.8977  2.3765
 6910SOL    HW232364   0.409   3.325   7.838  0.1843 -0.3068 -0.1809
 6911SOL     OW32365   0.213   1.715   6.072 -0.3238  0.6938 -0.5865
 6911SOL    HW132366   0.299   1.742   6.105  0.0017 -0.2173 -0.6839
 6911SOL    HW232367   0.158   1.746   6.144 -0.3725  1.7890 -1.0922
 6912SOL     OW32368   3.417   2.513   2.945 -0.6238  0.2988  0.1799
 6912SOL    HW132369   3.442   2.592   2.897  0.9343  0.7741  1.7609
 6912SOL    HW232370   3.340   2.491   2.893  0.4187 -0.8284 -0.9097
 6913SOL     OW32371   0.738   2.896   2.398 -0.3840  0.5866 -0.4915
 6913SOL    HW132372   0.751   2.861   2.486 -1.0606  3.4669  0.7474
 6913SOL    HW232373   0.690   2.976   2.414  0.6187  0.3559  3.5919
 6914SOL     OW32374   0.816   1.040  14.085  0.2854  0.0666 -0.2756
 6914SOL    HW132375   0.795   1.037  14.178  0.3821  2.6412 -0.1692
 6914SOL    HW232376   0.743   1.096  14.059 -0.1824 -0.4218 -0.0128
 6915SOL     OW32377   0.089   4.691   3.928  0.0337 -0.2197  0.2214
 6915SOL    HW132378   0.151   0.015   3.967 -0.6472  0.7517 -0.2452
 6915SOL    HW232379   0.048   0.007   3.861 -0.0512  1.1695  1.3851
 6916SOL     OW32380   3.204   4.622   4.374  0.0837  0.0138  0.5586
 6916SOL    HW132381   3.297   4.604   4.370  0.0092 -0.2706  0.1077
 6916SOL    HW232382   3.225   4.704   4.418  0.0169 -0.8124  2.1230
 6917SOL     OW32383   1.808   1.146   4.597 -0.1231 -0.2071  0.7427
 6917SOL    HW132384   1.769   1.102   4.521 -0.6331 -1.1236  1.5389
 6917SOL    HW232385   1.782   1.096   4.674 -2.0219  0.1353  0.3230
 6918SOL     OW32386   1.504   0.595   2.912 -0.2017  0.3780  0.4674
 6918SOL    HW132387   1.484   0.503   2.892  0.1885  0.6166 -1.0716
 6918SOL    HW232388   1.576   0.622   2.855 -0.7712  0.5374 -0.1752
 6919SOL     OW32389   1.913   2.654   1.856 -0.0246 -0.2370 -0.1589
 6919SOL    HW132390   1.893   2.635   1.948 -0.4224  1.1666  0.0542
 6919SOL    HW232391   1.928   2.564   1.830  0.8127 -0.6811  1.8247
 6920SOL     OW32392   2.837   0.376   3.689  0.2643  0.0333  0.7424
 6920SOL    HW132393   2.850   0.308   3.623 -0.4990  0.7064 -0.1078
 6920SOL    HW232394   2.826   0.329   3.771 -1.5728  3.8651  2.6485
 6921SOL     OW32395   1.017   0.455   7.764 -0.2828  0.3033  0.1455
 6921SOL    HW132396   1.005   0.393   7.691  0.5188 -1.6559  1.6743
 6921SOL    HW232397   0.928   0.485   7.782 -1.1695 -1.7656 -0.6683
 6922SOL     OW32398   1.287   1.299  12.857  0.1199  0.2260 -0.0075
 6922SOL    HW132399   1.252   1.339  12.777  0.8819 -0.4966 -0.7088
 6922SOL    HW232400   1.376   1.283  12.825 -0.1377 -3.2629  1.0574
 6923SOL     OW32401   0.720   2.323   5.633  0.1522  0.2844  0.4435
 6923SOL    HW132402   0.709   2.391   5.699  1.4784 -0.4312  1.4147
 6923SOL    HW232403   0.808   2.285   5.635 -0.0649 -0.4061 -2.3214
 6924SOL     OW32404   0.314   1.034   4.599 -0.4444  0.1121  0.3616
 6924SOL    HW132405   0.295   1.115   4.552 -0.0491 -0.6225 -1.0681
 6924SOL    HW232406   0.331   0.969   4.531  0.6845  0.3701  0.4071
 6925SOL     OW32407   3.023   4.567   2.278  0.3761 -0.0740  0.2815
 6925SOL    HW132408   3.055   4.623   2.207  1.1083 -0.1936  0.5202
 6925SOL    HW232409   2.931   4.569   2.253  0.9702  0.6982 -1.8787
 6926SOL     OW32410   1.507   2.162   8.196  0.3983 -0.1038  0.2387
 6926SOL    HW132411   1.472   2.248   8.174  0.5256 -0.0834  0.1189
 6926SOL    HW232412   1.573   2.138   8.132  0.2341 -0.4551  0.2003
 6927SOL     OW32413   3.640   0.385   2.462  0.0620  0.0758 -0.5617
 6927SOL    HW132414   3.561   0.370   2.410 -0.4809 -2.3454  0.9470
 6927SOL    HW232415   3.639   0.480   2.466 -1.9881  0.0846 -1.4855
 6928SOL     OW32416   1.492   1.458  10.689  0.1153 -0.0259  0.5224
 6928SOL    HW132417   1.425   1.439  10.623 -0.3280 -1.3771  1.3527
 6928SOL    HW232418   1.559   1.501  10.636  1.0579  0.1065  1.8153
 6929SOL     OW32419   2.713   1.127   2.092 -0.6077 -0.0621 -0.4006
 6929SOL    HW132420   2.758   1.091   2.015  0.9536  1.7663 -0.3420
 6929SOL    HW232421   2.735   1.220   2.097  0.4187 -0.3340  0.0677
 6930SOL     OW32422   1.667   3.148   6.678 -0.0529  0.0270 -0.1901
 6930SOL    HW132423   1.603   3.170   6.746  0.6667  1.0863  0.1487
 6930SOL    HW232424   1.746   3.183   6.719  0.7451 -0.0046 -1.7006
 6931SOL     OW32425   0.038   0.908   2.877  0.5334 -0.1902 -0.1684
 6931SOL    HW132426   0.036   0.821   2.837  0.6205  0.2574 -1.1302
 6931SOL    HW232427   0.110   0.950   2.831  0.8250 -1.0836 -0.5259
 6932SOL     OW32428   3.755   3.402   3.430 -0.4609  0.3976 -0.4226
 6932SOL    HW132429   3.683   3.397   3.492 -1.1943  1.1215 -1.2203
 6932SOL    HW232430   3.795   3.319   3.456 -0.2840  1.1779  1.7612
 6933SOL     OW32431   0.570   3.475   9.440 -0.3104  0.0962  0.2938
 6933SOL    HW132432   0.510   3.539   9.479  0.1570  0.9490 -0.4076
 6933SOL    HW232433   0.575   3.402   9.502  1.1500 -0.3209 -0.3267
 6934SOL     OW32434   2.321   2.356  16.876  0.2134 -0.2419 -0.6615
 6934SOL    HW132435   2.257   2.322  16.813  0.0917  0.0376 -0.6888
 6934SOL    HW232436   2.288   2.330  16.962 -0.0561  2.1814 -0.0339
 6935SOL     OW32437   0.842   3.110   6.480  0.4917  0.0334 -0.0195
 6935SOL    HW132438   0.823   3.189   6.429  0.1402 -1.4225 -2.1747
 6935SOL    HW232439   0.938   3.118   6.476  0.3921  0.7329 -0.8821
 6936SOL     OW32440   2.835   1.006  16.359 -0.0529 -0.4935 -0.4573
 6936SOL    HW132441   2.879   0.923  16.340 -0.5371 -1.0433  0.8283
 6936SOL    HW232442   2.789   0.988  16.441  0.9318 -0.8679  0.0143
 6937SOL     OW32443   4.410   1.824   0.706  0.2216  0.1009 -0.1055
 6937SOL    HW132444   4.340   1.858   0.650 -1.1078  0.0512  1.5227
 6937SOL    HW232445   4.447   1.899   0.753 -0.9816  1.0295 -0.6325
 6938SOL     OW32446   4.433   2.596   2.600  0.1433  0.3224  0.0189
 6938SOL    HW132447   4.525   2.612   2.578 -0.0759  0.5643 -0.7312
 6938SOL    HW232448   4.406   2.670   2.654  0.3061  0.5133 -0.1617
 6939SOL     OW32449   3.476   1.529   3.595 -0.7846  1.0765  0.0075
 6939SOL    HW132450   3.434   1.560   3.675  1.5438  1.1088  1.2142
 6939SOL    HW232451   3.399   1.548   3.542 -0.3141  2.9252 -0.0248
 6940SOL     OW32452   3.718   3.579   7.896 -0.2421  0.1958 -0.2652
 6940SOL    HW132453   3.719   3.532   7.979 -1.3999  1.4117  0.4367
 6940SOL    HW232454   3.691   3.502   7.845 -0.8515  0.9375 -1.0747
 6941SOL     OW32455   0.373   2.287   8.804  0.0937 -0.2820 -0.4420
 6941SOL    HW132456   0.407   2.330   8.883 -1.4435  1.6360 -0.8254
 6941SOL    HW232457   0.397   2.200   8.838 -1.0360  0.0024  1.1145
 6942SOL     OW32458   0.345   0.116  13.917  0.2732 -0.2366 -0.3699
 6942SOL    HW132459   0.317   0.120  14.009  0.1456  0.4443 -0.4386
 6942SOL    HW232460   0.338   0.021  13.909 -0.1392 -0.1025 -1.5643
 6943SOL     OW32461   1.975   0.349   5.033 -0.3077 -0.3076  0.1828
 6943SOL    HW132462   2.059   0.309   5.056  0.7246  1.6320 -0.2084
 6943SOL    HW232463   1.931   0.328   5.115  1.0165  2.2429  1.5202
 6944SOL     OW32464   3.688   2.826   3.769 -0.2068 -0.1588  0.5435
 6944SOL    HW132465   3.704   2.911   3.809 -2.3752  0.8237 -0.7293
 6944SOL    HW232466   3.722   2.764   3.833 -0.2157 -0.7572 -0.0269
 6945SOL     OW32467   0.282   1.369   5.010  0.4079  0.1901 -0.5296
 6945SOL    HW132468   0.192   1.335   5.004  1.0558 -1.5830 -0.2068
 6945SOL    HW232469   0.336   1.296   5.041 -1.8729 -1.1841  0.2308
 6946SOL     OW32470   1.807   1.918  10.022 -0.0295 -0.2013  0.3048
 6946SOL    HW132471   1.829   1.833  10.059  1.0411 -0.3144 -0.6059
 6946SOL    HW232472   1.718   1.896   9.992 -0.3303  2.1555 -0.5779
 6947SOL     OW32473   0.896   1.475   3.672 -0.1489 -0.3603 -1.1118
 6947SOL    HW132474   0.923   1.546   3.730 -0.3872 -1.8973  0.8721
 6947SOL    HW232475   0.985   1.454   3.642  0.5913 -0.6378  1.2632
 6948SOL     OW32476   2.700   2.126  13.317  0.6850 -0.2408 -0.6342
 6948SOL    HW132477   2.717   2.038  13.284  1.8232  0.3388 -1.6002
 6948SOL    HW232478   2.661   2.089  13.396  2.2455 -0.0822  0.2238
 6949SOL     OW32479   3.765   3.210  16.774 -0.3702 -0.2755 -0.1595
 6949SOL    HW132480   3.803   3.234  16.689 -0.0217  3.3731  1.0555
 6949SOL    HW232481   3.717   3.288  16.803  0.5066 -0.5807  2.0976
 6950SOL     OW32482   4.378   0.909   6.413 -0.3283  0.1274 -0.3774
 6950SOL    HW132483   4.349   0.991   6.453  2.5765  0.5624  0.8632
 6950SOL    HW232484   4.426   0.858   6.479 -0.1747  1.5832  0.6329
 6951SOL     OW32485   3.781   2.224   4.052  0.0410  0.5795  0.1059
 6951SOL    HW132486   3.771   2.280   4.129 -0.4495  0.4880  0.1069
 6951SOL    HW232487   3.874   2.240   4.038  0.1887 -1.0924 -0.8502
 6952SOL     OW32488   4.573   0.727   6.177 -1.0267 -0.4598 -0.2224
 6952SOL    HW132489   4.526   0.761   6.253  0.3434  1.7402 -0.3438
 6952SOL    HW232490   4.646   0.676   6.214 -1.7023 -0.5625  0.9728
 6953SOL     OW32491   4.613   2.865   5.446  0.7959 -0.0210 -0.3478
 6953SOL    HW132492   4.621   2.958   5.470 -1.5956 -0.2315  1.2403
 6953SOL    HW232493   4.523   2.872   5.414  0.6012 -0.4906  0.1131
 6954SOL     OW32494   4.159   3.361  17.429 -0.0743  0.1296  0.0171
 6954SOL    HW132495   4.240   3.410  17.415 -0.1895 -0.3354 -2.2684
 6954SOL    HW232496   4.158   3.365  17.525 -0.0257 -0.7629  0.0635
 6955SOL     OW32497   1.467   1.395  17.477  0.5137 -0.1540  0.2518
 6955SOL    HW132498   1.526   1.319  17.470  0.8884  0.3650 -2.1592
 6955SOL    HW232499   1.531   1.465  17.480  0.0989  0.1604  1.6357
 6956SOL     OW32500   4.591   0.243  15.162 -0.2338  0.0039  0.7831
 6956SOL    HW132501   4.546   0.319  15.124 -0.2204 -0.7532 -0.7738
 6956SOL    HW232502   4.663   0.235  15.099  0.3104 -0.0467  1.4211
 6957SOL     OW32503   3.395   2.954  17.351  0.5204  0.2187 -0.1010
 6957SOL    HW132504   3.446   3.029  17.382  1.8191 -0.8913  0.4414
 6957SOL    HW232505   3.361   3.001  17.274 -0.2044  0.4691  0.3777
 6958SOL     OW32506   4.262   1.081   2.170 -0.1127  0.0180 -1.0095
 6958SOL    HW132507   4.351   1.095   2.140  0.2740  0.4824  0.3664
 6958SOL    HW232508   4.222   1.060   2.086 -2.7951 -1.1144  0.5440
 6959SOL     OW32509   2.609   0.083  12.223 -0.1483 -0.0767  0.4723
 6959SOL    HW132510   2.602   0.056  12.131  2.8492  0.7999 -0.0198
 6959SOL    HW232511   2.659   0.164  12.210  0.7571 -0.7969 -0.5401
 6960SOL     OW32512   0.775   1.504  10.276 -0.0454 -0.1259  0.3169
 6960SOL    HW132513   0.723   1.584  10.285  0.3815  0.1047  0.7579
 6960SOL    HW232514   0.752   1.447  10.350  1.5642 -0.5815  0.4884
 6961SOL     OW32515   0.262   0.138   4.000  0.1071  0.2364  0.4131
 6961SOL    HW132516   0.288   0.141   4.092 -2.1440  5.0448  0.8826
 6961SOL    HW232517   0.307   0.217   3.969  0.0431  0.5107  1.0081
 6962SOL     OW32518   1.382   0.662   2.344 -0.0737 -0.8077 -0.2689
 6962SOL    HW132519   1.311   0.726   2.334 -0.5390 -1.2937 -0.0995
 6962SOL    HW232520   1.399   0.629   2.255 -0.9143  0.2983 -0.8395
 6963SOL     OW32521   2.536   1.346   3.798  0.1300  0.2896 -0.1007
 6963SOL    HW132522   2.612   1.315   3.748 -0.5021  1.1440 -1.5511
 6963SOL    HW232523   2.529   1.438   3.772 -1.2923 -0.0276 -0.7636
 6964SOL     OW32524   1.432   0.021   1.043  0.3777  0.1490  0.1964
 6964SOL    HW132525   1.372   0.077   0.994  0.7499  0.7527  0.4220
 6964SOL    HW232526   1.383   4.736   1.123  3.5672  1.4165  2.4931
 6965SOL     OW32527   0.465   0.358  14.751  0.6033  0.2488  0.2523
 6965SOL    HW132528   0.496   0.292  14.689 -0.9579 -0.4772  0.2227
 6965SOL    HW232529   0.438   0.415  14.680  0.7672  0.2687  0.2066
 6966SOL     OW32530   0.470   3.904   1.666 -0.0722  0.5498  0.2481
 6966SOL    HW132531   0.458   3.861   1.581 -0.5002  0.9866  0.0923
 6966SOL    HW232532   0.559   3.881   1.695  0.2407  0.2095 -0.9949
 6967SOL     OW32533   3.615   2.925   4.082  0.1419  0.0157  0.1169
 6967SOL    HW132534   3.628   2.949   4.174 -0.3074 -0.8516  0.4018
 6967SOL    HW232535   3.706   2.903   4.063 -0.5403 -1.2872 -1.5785
 6968SOL     OW32536   1.072   1.495   5.833  0.5295  0.2802 -0.6749
 6968SOL    HW132537   1.093   1.571   5.780 -0.7588  1.3242  0.3243
 6968SOL    HW232538   1.137   1.431   5.803  1.4204  0.2113  1.4413
 6969SOL     OW32539   2.432   4.114   3.679  0.3030 -0.1621 -0.4479
 6969SOL    HW132540   2.364   4.082   3.738  0.0520 -0.6442 -1.0101
 6969SOL    HW232541   2.393   4.095   3.594 -1.5241 -3.0027  1.0365
 6970SOL     OW32542   3.163   0.177   1.139 -0.2451  0.5748  0.6251
 6970SOL    HW132543   3.184   0.244   1.074 -0.2820  0.0878  0.1105
 6970SOL    HW232544   3.252   0.145   1.154  0.0058  0.0458 -1.9718
 6971SOL     OW32545   0.095   3.462   6.766 -0.0088 -0.4504  0.0172
 6971SOL    HW132546   0.037   3.403   6.815 -1.0135  0.3333 -0.2217
 6971SOL    HW232547   0.177   3.432   6.805  0.0418 -1.7158 -1.0716
 6972SOL     OW32548   3.347   0.416  17.592  0.2948  0.7807  0.1527
 6972SOL    HW132549   3.276   0.470  17.558  0.3585 -0.2877 -1.6643
 6972SOL    HW232550   3.328   0.336  17.543 -5.0148 -0.5981  4.3642
 6973SOL     OW32551   2.366   1.717  15.761 -0.0030  0.1179  0.1070
 6973SOL    HW132552   2.349   1.801  15.805 -3.9710 -0.2576 -0.6750
 6973SOL    HW232553   2.319   1.659  15.821  1.6743  0.0090  1.3298
 6974SOL     OW32554   2.769   0.755   0.988  0.1800  0.3440 -0.3330
 6974SOL    HW132555   2.743   0.847   0.996  1.2675  0.7652 -1.5405
 6974SOL    HW232556   2.864   0.752   1.003  0.0009  0.6301  0.8725
 6975SOL     OW32557   2.268   2.213   8.925 -0.0377  0.0796  0.2121
 6975SOL    HW132558   2.220   2.242   9.003 -0.5061  2.9590 -1.1286
 6975SOL    HW232559   2.200   2.163   8.879  0.3961 -0.8827  0.6153
 6976SOL     OW32560   2.444   2.077  11.562 -0.1823  0.5677 -0.4190
 6976SOL    HW132561   2.505   2.012  11.526 -1.6203 -1.7411  1.2838
 6976SOL    HW232562   2.396   2.109  11.485  0.5030 -0.1705 -1.1584
 6977SOL     OW32563   4.416   0.198   8.347 -0.4723  0.2278  0.0515
 6977SOL    HW132564   4.379   0.280   8.380  0.4478  0.3915  0.6899
 6977SOL    HW232565   4.506   0.193   8.379 -0.8312 -2.7273  0.5553
 6978SOL     OW32566   0.919   2.707   7.044  0.4502  0.4066 -0.0409
 6978SOL    HW132567   0.876   2.633   7.000  1.6356 -0.2434 -0.0931
 6978SOL    HW232568   1.008   2.686   7.018  0.7048  2.4225 -0.8251
 6979SOL     OW32569   1.052   2.943   7.777 -0.0663 -0.0998  0.4591
 6979SOL    HW132570   1.023   2.999   7.849 -0.3259  1.7701 -1.1024
 6979SOL    HW232571   1.147   2.945   7.786 -0.1598 -2.4187  1.9073
 6980SOL     OW32572   3.108   1.913   8.196  0.1063 -0.1195 -0.0947
 6980SOL    HW132573   3.035   1.873   8.243  0.5607 -0.0380  0.6974
 6980SOL    HW232574   3.178   1.875   8.250  1.8321  1.4417 -1.2404
 6981SOL     OW32575   1.252   0.656   3.516  0.1250 -0.3240 -0.1984
 6981SOL    HW132576   1.321   0.696   3.463  0.5335  0.0710  0.6443
 6981SOL    HW232577   1.212   0.588   3.461 -1.9463  0.1881  0.6873
 6982SOL     OW32578   3.986   4.263  11.151 -0.2646 -1.3817  0.2681
 6982SOL    HW132579   3.969   4.258  11.245 -0.8789 -0.3229  0.2208
 6982SOL    HW232580   3.999   4.171  11.128 -0.2645 -1.0501 -1.0246
 6983SOL     OW32581   2.382   3.170  16.116 -0.0097 -0.2206 -0.5383
 6983SOL    HW132582   2.442   3.147  16.187 -2.1447 -0.4174  1.1955
 6983SOL    HW232583   2.301   3.179  16.165 -0.3939 -2.6678 -0.7414
 6984SOL     OW32584   1.187   0.600  17.194 -0.4492  0.1852 -0.3001
 6984SOL    HW132585   1.168   0.651  17.115  0.2151 -0.3187 -0.7827
 6984SOL    HW232586   1.169   0.665  17.262 -0.0062  3.4330 -3.2531
 6985SOL     OW32587   0.052   3.169   7.168 -0.3978 -0.3504 -0.2978
 6985SOL    HW132588   0.099   3.100   7.215  1.7668  1.0518 -0.3788
 6985SOL    HW232589   4.719   3.181   7.232 -0.4460  0.6553 -0.5340
 6986SOL     OW32590   1.591   3.396   7.351  0.4251  0.3726 -0.2236
 6986SOL    HW132591   1.652   3.404   7.278 -0.9802  1.2809 -1.3047
 6986SOL    HW232592   1.506   3.382   7.309  0.7707  1.6037 -1.3279
 6987SOL     OW32593   0.090   3.049   8.929 -0.0936  0.2196 -0.1331
 6987SOL    HW132594   0.018   3.102   8.964 -0.5141  0.7205 -1.7566
 6987SOL    HW232595   0.138   3.043   9.012 -1.5519 -0.0432  0.7073
 6988SOL     OW32596   0.130   1.177   8.955  0.0848  0.3624 -0.5140
 6988SOL    HW132597   0.125   1.081   8.956  0.5385  0.3326 -1.8379
 6988SOL    HW232598   0.107   1.202   9.045 -1.2084  0.5285 -0.8991
 6989SOL     OW32599   1.387   3.765   6.376  0.3568  0.3585  0.1410
 6989SOL    HW132600   1.453   3.830   6.400  1.2855 -0.5190  0.0034
 6989SOL    HW232601   1.362   3.806   6.293  0.3928  1.2769  0.5845
 6990SOL     OW32602   4.004   1.643  16.607 -0.2064  0.0720  0.1675
 6990SOL    HW132603   3.981   1.599  16.689  0.6003 -1.3243 -0.3369
 6990SOL    HW232604   4.068   1.585  16.564 -0.3517 -0.0008  0.0504
 6991SOL     OW32605   4.177   2.542   5.852  0.0922  0.7430 -0.0937
 6991SOL    HW132606   4.088   2.529   5.884  0.5069 -1.2187  0.2329
 6991SOL    HW232607   4.218   2.606   5.911 -0.5661  0.6374  0.4709
 6992SOL     OW32608   1.603   0.238   0.789 -0.2786  0.4268  0.3960
 6992SOL    HW132609   1.599   0.163   0.730 -1.0536  0.9654 -0.2441
 6992SOL    HW232610   1.621   0.208   0.878 -1.5368 -1.5929 -0.0350
 6993SOL     OW32611   0.697   0.908   3.709  0.0121 -0.7434 -0.6562
 6993SOL    HW132612   0.752   0.985   3.724 -0.3483 -0.7943  0.8706
 6993SOL    HW232613   0.659   0.927   3.623  1.7123 -0.9615 -1.4586
 6994SOL     OW32614   3.465   2.361   6.276  0.2544 -0.2899 -0.5393
 6994SOL    HW132615   3.497   2.425   6.213  0.5708 -1.2491 -1.3562
 6994SOL    HW232616   3.378   2.396   6.291 -0.3463 -0.9809 -2.5444
 6995SOL     OW32617   0.234   2.421   7.430  0.2795  0.1785 -0.5471
 6995SOL    HW132618   0.171   2.489   7.407 -0.8424 -0.1119  1.6278
 6995SOL    HW232619   0.176   2.347   7.449 -1.0102  1.3031 -0.0483
 6996SOL     OW32620   1.518   4.681   9.334 -0.1474 -0.3105  0.7075
 6996SOL    HW132621   1.473   4.653   9.254  1.2775  1.0632 -0.5796
 6996SOL    HW232622   1.486   0.034   9.332 -2.2727 -1.0673  0.1455
 6997SOL     OW32623   0.523   2.145   7.870 -0.6710  0.2637 -0.0625
 6997SOL    HW132624   0.615   2.148   7.896 -0.8198 -0.3672  0.5148
 6997SOL    HW232625   0.520   2.052   7.849 -0.9749  0.6723 -1.8784
 6998SOL     OW32626   3.583   2.126   6.759 -0.0888 -0.0290  0.6568
 6998SOL    HW132627   3.601   2.079   6.841 -0.6975 -1.7986 -0.2382
 6998SOL    HW232628   3.663   2.177   6.772  0.2321 -0.1314 -0.9110
 6999SOL     OW32629   1.846   0.191  13.573 -0.4957  0.6702 -0.3459
 6999SOL    HW132630   1.801   0.110  13.550 -1.8453  1.2519  0.2292
 6999SOL    HW232631   1.937   0.165  13.557 -0.5636  1.6317 -2.3137
 7000SOL     OW32632   3.639   1.122   3.516  0.2578  0.4789 -0.0746
 7000SOL    HW132633   3.704   1.109   3.586  2.0204 -2.3304 -2.2249
 7000SOL    HW232634   3.640   1.217   3.510  3.1103  0.4438 -0.0846
 7001SOL     OW32635   3.134   2.199  11.924  0.1570 -0.3054 -0.5093
 7001SOL    HW132636   3.133   2.126  11.986 -0.1022 -0.1282 -0.3070
 7001SOL    HW232637   3.219   2.233  11.953 -0.4900 -1.9631  3.2658
 7002SOL     OW32638   4.546   1.548   8.852  0.6295  0.2014  0.6393
 7002SOL    HW132639   4.522   1.517   8.939  0.0894 -1.2098 -0.0184
 7002SOL    HW232640   4.578   1.466   8.814  0.3377  0.1686  0.4631
 7003SOL     OW32641   4.449   3.425   3.606 -0.0344 -0.6102  0.2348
 7003SOL    HW132642   4.499   3.506   3.618 -0.4427 -0.5987  1.8518
 7003SOL    HW232643   4.399   3.409   3.686 -3.9424  0.3432 -2.0158
 7004SOL     OW32644   1.717   2.453  10.862 -0.0583 -0.1928  0.3396
 7004SOL    HW132645   1.724   2.548  10.867 -0.4891 -0.1950  0.9705
 7004SOL    HW232646   1.773   2.435  10.937 -0.1502  0.9108  0.6708
 7005SOL     OW32647   2.618   1.601   7.784 -0.5280  0.2990  0.9684
 7005SOL    HW132648   2.682   1.671   7.776  0.8294 -1.0403  0.1504
 7005SOL    HW232649   2.587   1.624   7.872 -0.6892  1.2354  0.6577
 7006SOL     OW32650   2.375   2.980   8.833  0.1984  0.5064 -0.2926
 7006SOL    HW132651   2.356   2.917   8.763  1.0841  0.8870 -0.8799
 7006SOL    HW232652   2.316   2.948   8.901  1.5590  1.3797  1.2840
 7007SOL     OW32653   1.059   0.289   0.286  0.0278 -0.1024  0.2827
 7007SOL    HW132654   1.110   0.214   0.256  1.6945  2.0912 -2.3184
 7007SOL    HW232655   1.124   0.347   0.324  1.3096 -0.0582 -1.9542
 7008SOL     OW32656   3.429   3.025   2.507 -0.2288  0.1064  0.1039
 7008SOL    HW132657   3.349   3.053   2.463 -0.7920 -1.4450  0.1476
 7008SOL    HW232658   3.399   3.019   2.598  0.2463  1.5419  0.3477
 7009SOL     OW32659   2.916   0.502   7.095 -0.6363 -0.0037  0.3999
 7009SOL    HW132660   2.956   0.589   7.090 -3.4375  1.2340 -0.1751
 7009SOL    HW232661   2.943   0.479   7.184 -1.6122  0.6381  0.8666
 7010SOL     OW32662   2.703   4.593  17.208 -0.4583  0.2122  1.1141
 7010SOL    HW132663   2.696   4.504  17.242 -0.3938 -0.7337 -1.3128
 7010SOL    HW232664   2.629   4.633  17.253 -0.7306  0.6057  0.3217
 7011SOL     OW32665   1.018   3.401   5.610  0.0052  0.9535 -0.0019
 7011SOL    HW132666   0.962   3.446   5.547  0.3786  0.8766 -0.3914
 7011SOL    HW232667   1.100   3.424   5.567  1.5268 -3.8630  0.3160
 7012SOL     OW32668   0.795   3.240   2.078  0.3179  0.7174 -0.0886
 7012SOL    HW132669   0.764   3.237   2.169 -0.4762  0.2896 -0.3676
 7012SOL    HW232670   0.725   3.214   2.017 -0.1373  0.5183  0.5152
 7013SOL     OW32671   3.427   0.768   2.793 -0.0728  0.0151  0.0091
 7013SOL    HW132672   3.410   0.845   2.738 -0.3905 -0.7372 -0.9478
 7013SOL    HW232673   3.373   0.783   2.870 -0.3600 -0.2864 -0.1340
 7014SOL     OW32674   0.008   2.462  17.711  0.1363 -0.3856 -0.0771
 7014SOL    HW132675   4.657   2.470  17.674 -0.8724 -1.0729  2.1277
 7014SOL    HW232676   0.001   2.457   0.060  1.6204 -0.0613  0.0351
 7015SOL     OW32677   2.340   4.355   1.534 -0.0072  0.8862  0.5882
 7015SOL    HW132678   2.317   4.329   1.623 -2.3202 -0.6448 -0.4621
 7015SOL    HW232679   2.403   4.290   1.503 -0.9365  0.1695  0.1942
 7016SOL     OW32680   4.584   3.438   4.000  0.0499 -0.3417 -0.4177
 7016SOL    HW132681   4.652   3.478   4.054  1.2700 -3.6092  0.4698
 7016SOL    HW232682   4.532   3.514   3.974  2.1095  1.2155  0.0506
 7017SOL     OW32683   2.944   1.577  16.265  0.3263  0.0266  0.3236
 7017SOL    HW132684   2.872   1.532  16.310 -0.2388  1.9860  1.3958
 7017SOL    HW232685   2.918   1.549  16.177  1.0757  1.0907 -0.2326
 7018SOL     OW32686   4.700   4.236   8.974  0.3581  1.1555 -0.1941
 7018SOL    HW132687   4.678   4.201   9.061  0.4846  0.7181 -0.3386
 7018SOL    HW232688   4.643   4.187   8.915 -0.3612  0.7109  0.8734
 7019SOL     OW32689   3.185   2.092   7.849 -0.1803  0.4816 -0.2958
 7019SOL    HW132690   3.116   2.144   7.808  0.2168  0.7713 -0.6001
 7019SOL    HW232691   3.205   2.150   7.923 -0.4854 -1.4256  1.2848
 7020SOL     OW32692   2.802   4.366  10.780  0.1409  0.2128 -0.3064
 7020SOL    HW132693   2.741   4.407  10.841 -0.4720 -1.7190  0.3791
 7020SOL    HW232694   2.796   4.273  10.802  0.7041  0.1454 -0.4388
 7021SOL     OW32695   1.246   2.612   1.893 -0.1704  0.2002  0.1541
 7021SOL    HW132696   1.224   2.693   1.939 -1.7122  1.0041 -2.0171
 7021SOL    HW232697   1.338   2.598   1.917  0.1814  2.7913  0.3129
 7022SOL     OW32698   0.939   0.705   5.424 -0.2192 -0.0200  0.8778
 7022SOL    HW132699   1.018   0.682   5.377  1.4492 -1.8749  4.6151
 7022SOL    HW232700   0.942   0.634   5.488  0.1099 -0.3866  0.4536
 7023SOL     OW32701   2.160   4.230   7.752 -0.4331  0.4433 -0.7252
 7023SOL    HW132702   2.142   4.136   7.756  2.4166 -0.0127  1.7927
 7023SOL    HW232703   2.256   4.230   7.761 -0.4426 -0.7681 -0.5488
 7024SOL     OW32704   0.347   2.935   1.608  0.1113  0.0186  0.5530
 7024SOL    HW132705   0.289   2.987   1.664  0.1661  1.0621 -0.3718
 7024SOL    HW232706   0.421   2.920   1.668  1.6694 -4.2054 -2.4033
 7025SOL     OW32707   1.107   3.186  12.804 -0.0948  0.0017 -0.5648
 7025SOL    HW132708   1.026   3.135  12.811 -0.0935  0.1428  0.4443
 7025SOL    HW232709   1.141   3.171  12.892 -0.9847 -1.7539 -0.5227
 7026SOL     OW32710   1.700   3.539  10.818 -0.3429 -0.3653 -0.0014
 7026SOL    HW132711   1.732   3.601  10.884  0.3127 -2.4688  1.6645
 7026SOL    HW232712   1.668   3.596  10.748  2.3571  0.5246 -0.5433
 7027SOL     OW32713   0.804   2.416  13.311 -0.2860  0.0977 -0.2923
 7027SOL    HW132714   0.815   2.348  13.378  0.0275  0.5605  0.1261
 7027SOL    HW232715   0.713   2.401  13.285  0.2067  0.5673 -2.3147
 7028SOL     OW32716   2.457   2.238   5.273 -0.1823 -0.5266 -0.2344
 7028SOL    HW132717   2.378   2.289   5.261  0.7754  1.2427  1.0375
 7028SOL    HW232718   2.421   2.186   5.345  0.9586  1.4498  1.7850
 7029SOL     OW32719   1.321   0.279  15.498  0.3684  0.1329 -0.1864
 7029SOL    HW132720   1.241   0.327  15.520  0.7985  0.4341  0.6985
 7029SOL    HW232721   1.287   0.196  15.464  2.1105 -0.4751 -0.4147
 7030SOL     OW32722   1.416   1.172  15.849  0.0110  0.1137 -0.5115
 7030SOL    HW132723   1.411   1.089  15.802 -2.7641 -0.3978  0.6533
 7030SOL    HW232724   1.511   1.171  15.857 -0.0436 -0.2864  0.0190
 7031SOL     OW32725   1.927   0.244   9.923  0.3309 -0.3495 -0.2624
 7031SOL    HW132726   1.934   0.149   9.932 -2.2810 -0.6882 -1.5818
 7031SOL    HW232727   1.997   0.274   9.865  0.9180 -1.2111  0.0033
 7032SOL     OW32728   3.781   3.584   0.995  0.2355  0.1015  0.0044
 7032SOL    HW132729   3.754   3.542   1.076  2.1997 -2.7055 -0.7884
 7032SOL    HW232730   3.819   3.666   1.027  2.3402 -1.1452  0.6778
 7033SOL     OW32731   1.981   0.729   5.713  0.2508  0.3303 -0.4120
 7033SOL    HW132732   2.018   0.653   5.668 -1.4477 -0.7746  0.0669
 7033SOL    HW232733   1.993   0.798   5.647  3.2388 -0.1844 -0.4023
 7034SOL     OW32734   0.190   2.335   2.619 -0.4129  0.0609  0.1493
 7034SOL    HW132735   0.162   2.373   2.702 -0.6667  1.6235 -0.6541
 7034SOL    HW232736   0.145   2.251   2.615 -0.0549 -0.2162  2.2796
 7035SOL     OW32737   0.742   2.397   7.698  0.1410  0.1234  0.5709
 7035SOL    HW132738   0.709   2.398   7.788 -0.8872 -0.6819  0.1957
 7035SOL    HW232739   0.780   2.484   7.687  0.7447 -0.6716 -3.5169
 7036SOL     OW32740   3.642   4.197  13.210  0.1686  0.4919 -0.1782
 7036SOL    HW132741   3.725   4.163  13.177  1.5818  1.7375  2.1284
 7036SOL    HW232742   3.582   4.133  13.171 -1.1162  2.4826 -1.4330
 7037SOL     OW32743   0.922   2.912  12.601 -0.0849 -0.4175 -0.7837
 7037SOL    HW132744   0.875   2.995  12.606 -0.5088 -0.7021 -0.0803
 7037SOL    HW232745   0.945   2.891  12.691 -1.2839 -0.7849 -0.5635
 7038SOL     OW32746   3.812   0.157   9.181 -0.3126  0.0517  0.1139
 7038SOL    HW132747   3.779   0.104   9.109  1.6632  0.0359 -0.7895
 7038SOL    HW232748   3.787   0.103   9.255  0.5963  0.9235  1.0601
 7039SOL     OW32749   4.335   4.191  15.000  0.4282 -0.3013 -0.3208
 7039SOL    HW132750   4.308   4.190  14.908 -0.2695  1.5771 -0.1203
 7039SOL    HW232751   4.426   4.167  14.983  0.6781 -0.7813  1.6634
 7040SOL     OW32752   1.380   3.004   2.412  0.3412  0.3555 -0.4322
 7040SOL    HW132753   1.379   3.042   2.324 -3.5814  1.1282 -0.0331
 7040SOL    HW232754   1.425   3.078   2.452  1.0876 -0.6485  0.6028
 7041SOL     OW32755   3.005   1.999  16.133 -0.3932  0.4983 -0.9150
 7041SOL    HW132756   3.063   2.042  16.070  0.2642 -1.5833 -1.7223
 7041SOL    HW232757   3.073   1.935  16.153 -1.5571 -0.5357 -0.2545
 7042SOL     OW32758   0.576   1.035  15.870  0.2207 -0.2093  0.2083
 7042SOL    HW132759   0.670   1.052  15.865  0.1446 -0.1527 -1.0352
 7042SOL    HW232760   0.531   1.111  15.832  2.5825  0.5401 -1.1496
 7043SOL     OW32761   0.871   4.269  13.241 -0.3555 -0.7132 -0.4788
 7043SOL    HW132762   0.873   4.364  13.229 -1.0535 -0.6482 -0.0462
 7043SOL    HW232763   0.820   4.244  13.164 -0.5940 -2.1898  0.1650
 7044SOL     OW32764   4.029   4.526   6.712  0.3256 -0.1751 -0.1812
 7044SOL    HW132765   4.026   4.475   6.631  0.0588 -1.3035  0.5338
 7044SOL    HW232766   4.110   4.576   6.717  0.5993 -0.3851 -2.3889
 7045SOL     OW32767   3.738   2.980   9.044 -0.5297 -0.4130 -0.0238
 7045SOL    HW132768   3.724   2.913   8.977  0.4375 -0.1088 -0.5307
 7045SOL    HW232769   3.827   2.953   9.067  0.2315  1.4036 -0.8148
 7046SOL     OW32770   4.568   1.542   7.575 -0.2001 -0.1900 -0.1556
 7046SOL    HW132771   4.491   1.525   7.630 -1.2655  2.8296 -0.7590
 7046SOL    HW232772   4.646   1.526   7.629  0.9428 -0.3516 -1.8803
 7047SOL     OW32773   4.360   0.915   8.202  0.2333 -0.1564  0.8429
 7047SOL    HW132774   4.373   0.863   8.282  0.5421 -0.4153  0.6250
 7047SOL    HW232775   4.430   0.981   8.203  1.3473 -1.3258 -0.2578
 7048SOL     OW32776   2.562   0.391  12.774 -0.1232 -0.6242  0.3209
 7048SOL    HW132777   2.634   0.434  12.820 -2.8907  2.0716  2.1200
 7048SOL    HW232778   2.613   0.337  12.714 -1.9256 -1.0764 -0.7915
 7049SOL     OW32779   4.219   1.598   3.110 -0.4644 -0.5072  0.0755
 7049SOL    HW132780   4.140   1.544   3.106 -0.0342 -1.0823 -0.8789
 7049SOL    HW232781   4.220   1.642   3.025 -2.2592 -0.6184  0.0072
 7050SOL     OW32782   2.311   3.620   2.664 -0.1776 -0.5641  0.3494
 7050SOL    HW132783   2.270   3.668   2.592  2.3019  0.5744 -0.3126
 7050SOL    HW232784   2.285   3.530   2.644 -1.6487  0.0579 -0.5044
 7051SOL     OW32785   1.035   0.460  13.995 -0.1330  0.3792  0.0329
 7051SOL    HW132786   1.056   0.389  13.934  0.1060 -0.3818  0.9922
 7051SOL    HW232787   1.037   0.532  13.933  0.9834 -2.8614 -3.6952
 7052SOL     OW32788   0.818   3.565   2.118 -0.0921 -0.1518  0.7410
 7052SOL    HW132789   0.764   3.486   2.111  1.3490 -1.2456  1.7896
 7052SOL    HW232790   0.904   3.528   2.142 -0.1016 -0.0657  0.9058
 7053SOL     OW32791   1.515   3.181   1.463  0.1414  0.0504  0.1210
 7053SOL    HW132792   1.556   3.101   1.495 -0.4205 -0.0631  0.5591
 7053SOL    HW232793   1.423   3.174   1.487 -0.2544  0.3302 -1.2856
 7054SOL     OW32794   4.499   2.328   5.852 -0.1656 -0.2894 -0.0730
 7054SOL    HW132795   4.582   2.302   5.890 -0.0626  0.2934  0.1021
 7054SOL    HW232796   4.498   2.424   5.842  1.1218 -0.0563  2.1671
 7055SOL     OW32797   1.465   1.340   7.107  0.2999  0.2859 -0.4324
 7055SOL    HW132798   1.404   1.279   7.149 -2.1096  3.1995  0.3199
 7055SOL    HW232799   1.473   1.413   7.169 -3.0585  0.0547  0.2963
 7056SOL     OW32800   0.638   0.984   9.457  0.5310  0.0138 -0.1126
 7056SOL    HW132801   0.638   0.974   9.552  1.8408  0.4620 -0.0582
 7056SOL    HW232802   0.554   0.946   9.430  0.5277  0.4657 -0.7670
 7057SOL     OW32803   4.651   1.739   2.121  0.5712  0.2598  0.6695
 7057SOL    HW132804   4.714   1.811   2.128  0.3304  0.5749 -0.3790
 7057SOL    HW232805   4.619   1.734   2.211 -0.5183  0.8958  0.3204
 7058SOL     OW32806   0.438   2.980   4.671  0.1354 -0.0065  0.4307
 7058SOL    HW132807   0.389   2.936   4.601  0.5021  0.6207 -0.2112
 7058SOL    HW232808   0.514   3.016   4.627  0.1922  0.9119  1.2729
 7059SOL     OW32809   1.886   4.125  14.466  0.5321 -0.0043 -0.2926
 7059SOL    HW132810   1.943   4.064  14.513  0.7955  0.5136  0.0616
 7059SOL    HW232811   1.935   4.137  14.385  0.5811 -3.3317 -0.7396
 7060SOL     OW32812   2.619   0.371   5.156  0.4923  0.1344  0.2283
 7060SOL    HW132813   2.619   0.296   5.096 -1.2037  0.0288  0.3839
 7060SOL    HW232814   2.617   0.443   5.094  2.0355  0.5131  0.5997
 7061SOL     OW32815   2.699   3.916   3.459 -0.8988  0.7575 -0.1667
 7061SOL    HW132816   2.702   3.965   3.378  0.9961 -0.2502 -0.7026
 7061SOL    HW232817   2.793   3.916   3.478 -0.4621 -2.9164 -2.2455
 7062SOL     OW32818   1.956   2.250   4.978  0.2778 -0.2015 -0.3589
 7062SOL    HW132819   2.032   2.213   4.934 -1.8401 -2.9461 -1.7113
 7062SOL    HW232820   1.905   2.290   4.906  0.4482 -0.8371 -0.8262
 7063SOL     OW32821   1.666   0.416  11.137 -0.1569  0.3291 -0.6073
 7063SOL    HW132822   1.612   0.493  11.121  0.6409  1.1256  0.5083
 7063SOL    HW232823   1.623   0.348  11.085 -0.0794 -0.2493  0.0803
 7064SOL     OW32824   3.582   2.927   0.827  0.3929 -0.3276 -0.6467
 7064SOL    HW132825   3.510   2.964   0.776 -0.6744  0.3673  1.3416
 7064SOL    HW232826   3.556   2.912   0.918  0.5496  0.9141 -0.3941
 7065SOL     OW32827   1.831   4.198   8.126  0.6989  0.3368  0.7349
 7065SOL    HW132828   1.880   4.269   8.167  1.6206  1.0462 -1.5585
 7065SOL    HW232829   1.804   4.244   8.046  0.5704  0.4851  0.8658
 7066SOL     OW32830   1.963   3.759  12.288 -0.0778 -0.2323 -0.1986
 7066SOL    HW132831   2.053   3.742  12.262 -1.1723 -3.9206 -1.5104
 7066SOL    HW232832   1.981   3.754  12.382 -0.1322 -0.9556 -0.2281
 7067SOL     OW32833   4.523   1.882   5.375 -0.4645  0.0937 -0.1119
 7067SOL    HW132834   4.612   1.875   5.411 -0.0934  1.9054 -0.6686
 7067SOL    HW232835   4.535   1.948   5.307  0.4787  0.4474  0.3974
 7068SOL     OW32836   3.294   4.062   5.375 -0.1962 -0.0972 -0.2689
 7068SOL    HW132837   3.321   4.018   5.456 -0.3700  0.8143  0.2775
 7068SOL    HW232838   3.315   4.152   5.399  0.9688 -0.5658  0.4817
 7069SOL     OW32839   3.607   3.661  12.704 -0.0635  0.2346 -0.6473
 7069SOL    HW132840   3.514   3.640  12.715 -0.1503  1.3385  0.8118
 7069SOL    HW232841   3.598   3.721  12.630  2.6402  1.0375 -0.3172
 7070SOL     OW32842   3.487   4.454  14.796  0.4469 -0.6981  0.5458
 7070SOL    HW132843   3.485   4.364  14.764 -1.0904 -0.5770  0.3087
 7070SOL    HW232844   3.568   4.493  14.762  0.3260 -0.4332  0.5570
 7071SOL     OW32845   1.945   3.815  12.001  0.6834 -0.0439  0.2796
 7071SOL    HW132846   1.891   3.737  11.994  1.2844 -0.4120 -0.1521
 7071SOL    HW232847   1.994   3.801  12.082  1.7890 -0.2628 -0.4393
 7072SOL     OW32848   2.497   1.684  11.653  0.6637 -0.0248  0.1596
 7072SOL    HW132849   2.548   1.763  11.669 -0.3608  0.8205 -0.7378
 7072SOL    HW232850   2.515   1.666  11.560  1.6143 -2.0793  0.7568
 7073SOL     OW32851   0.970   0.206   7.151  0.4322  0.2210  0.1104
 7073SOL    HW132852   0.908   0.192   7.079  2.8924 -2.0449 -1.5870
 7073SOL    HW232853   0.933   0.283   7.196 -0.0314  1.1018 -1.7851
 7074SOL     OW32854   4.714   2.926  11.434 -0.4512  0.2679  0.3679
 7074SOL    HW132855   4.686   2.891  11.349  0.0862  0.0610  0.2790
 7074SOL    HW232856   4.736   3.014  11.404  0.8552 -0.2184 -0.0922
 7075SOL     OW32857   0.946   2.185  11.311 -0.2959  0.8408 -0.0721
 7075SOL    HW132858   0.910   2.122  11.374  0.9977 -1.7511 -1.9339
 7075SOL    HW232859   1.008   2.235  11.364  2.4860 -3.1222  0.4351
 7076SOL     OW32860   0.420   0.025   2.596  0.2346 -0.2513 -0.8238
 7076SOL    HW132861   0.401   0.043   2.688  1.2483  0.6573 -0.8089
 7076SOL    HW232862   0.343   0.064   2.554  0.6090  2.2814  0.8455
 7077SOL     OW32863   4.170   3.661   7.195 -0.1212  0.1900 -0.2125
 7077SOL    HW132864   4.113   3.592   7.228  1.5261 -0.5942  1.0270
 7077SOL    HW232865   4.129   3.680   7.111 -0.8095  0.1546  0.1110
 7078SOL     OW32866   3.078   2.606   8.262  0.1497 -0.1527  0.2454
 7078SOL    HW132867   3.159   2.623   8.214  1.6540 -2.5234  1.9904
 7078SOL    HW232868   3.090   2.512   8.273  1.6838  0.0309  0.1173
 7079SOL     OW32869   4.167   0.667   3.770  0.2381  0.0642  0.0927
 7079SOL    HW132870   4.152   0.601   3.837  0.0081  1.9084  1.8703
 7079SOL    HW232871   4.241   0.715   3.808  0.4517  0.2498 -0.5588
 7080SOL     OW32872   3.652   0.167  14.505 -0.5048  1.2789  0.4289
 7080SOL    HW132873   3.591   0.112  14.456 -1.0059  1.8448  0.4093
 7080SOL    HW232874   3.590   0.233  14.535  0.7574  1.9467  1.5805
 7081SOL     OW32875   2.662   3.087  13.950 -0.0999  0.4048  0.1121
 7081SOL    HW132876   2.583   3.081  13.896 -0.4904 -0.6343  0.7971
 7081SOL    HW232877   2.688   2.997  13.970  0.0597  0.9311  2.2849
 7082SOL     OW32878   2.460   1.018  17.122 -0.4757  0.3951  0.2127
 7082SOL    HW132879   2.392   1.059  17.068 -1.7041  1.3343  2.4776
 7082SOL    HW232880   2.443   0.926  17.105 -1.7134  0.0936  3.0315
 7083SOL     OW32881   1.672   0.299   6.743  0.4047 -0.5124  0.0111
 7083SOL    HW132882   1.608   0.367   6.766  0.9500 -0.7592  2.2106
 7083SOL    HW232883   1.697   0.279   6.833  0.2735  1.2425  0.4256
 7084SOL     OW32884   0.753   2.841  10.597  0.1158  0.0591 -0.0256
 7084SOL    HW132885   0.805   2.893  10.535 -0.7714 -1.0696 -1.7361
 7084SOL    HW232886   0.791   2.880  10.675 -1.8622  3.6067 -0.8271
 7085SOL     OW32887   1.548   3.388   7.793 -0.3443  0.3483 -0.3150
 7085SOL    HW132888   1.630   3.420   7.830 -0.3848 -1.7003  1.4946
 7085SOL    HW232889   1.585   3.389   7.705  0.2148  1.2101 -0.0701
 7086SOL     OW32890   3.330   4.150   7.446 -0.1757 -0.3128 -0.0501
 7086SOL    HW132891   3.290   4.234   7.469 -1.5968 -0.9704 -0.1263
 7086SOL    HW232892   3.367   4.176   7.361 -1.6592  1.4506 -0.1373
 7087SOL     OW32893   3.098   1.452   5.014  0.1080  0.9612 -0.0888
 7087SOL    HW132894   3.045   1.528   4.990 -1.1456  0.2639  0.5146
 7087SOL    HW232895   3.053   1.417   5.091 -0.7641  0.9018 -0.6338
 7088SOL     OW32896   1.063   1.026  15.750 -0.0159 -0.3917 -0.4884
 7088SOL    HW132897   1.122   0.954  15.729 -0.2779 -0.7395 -0.0255
 7088SOL    HW232898   1.087   1.081  15.676 -0.0603  0.9846  0.4982
 7089SOL     OW32899   1.343   4.697   2.197  0.0106 -0.6798 -0.0016
 7089SOL    HW132900   1.366   0.051   2.215  1.7470 -1.1329  0.0788
 7089SOL    HW232901   1.290   4.722   2.121  1.2384 -0.3869 -0.7544
 7090SOL     OW32902   0.449   1.089   6.184 -0.1041  0.3404  0.0940
 7090SOL    HW132903   0.356   1.102   6.197 -0.0934 -0.3568  0.8696
 7090SOL    HW232904   0.453   1.018   6.119  1.1866  0.1309  0.4022
 7091SOL     OW32905   4.242   3.201   3.862  0.2611  0.1502 -0.4196
 7091SOL    HW132906   4.309   3.174   3.799 -0.2339 -0.9672 -0.4696
 7091SOL    HW232907   4.257   3.295   3.857  0.2276  0.0960 -1.6724
 7092SOL     OW32908   0.846   0.117   2.914  0.3612  0.1785  0.4059
 7092SOL    HW132909   0.789   0.193   2.921  0.9697  0.7192 -0.4644
 7092SOL    HW232910   0.847   0.086   3.005 -1.0909  1.2516  0.7732
 7093SOL     OW32911   1.047   3.954   5.890 -0.0677 -0.8502  0.2939
 7093SOL    HW132912   0.967   3.903   5.906 -0.7597  0.2587  0.3957
 7093SOL    HW232913   1.064   3.910   5.807  3.0205  0.0042  0.4917
 7094SOL     OW32914   0.016   2.622   8.360  0.1475  0.6366 -0.2882
 7094SOL    HW132915   4.737   2.716   8.372  1.4753  0.9038 -0.5500
 7094SOL    HW232916   4.667   2.589   8.387  0.9302 -0.5373  0.7424
 7095SOL     OW32917   2.088   0.454   6.912  0.1760 -0.3072 -0.2755
 7095SOL    HW132918   2.142   0.523   6.952 -0.7264  0.0715  0.2974
 7095SOL    HW232919   2.098   0.396   6.988  3.5180 -0.5771 -0.9423
 7096SOL     OW32920   2.348   4.488   6.854  0.9393 -0.6992 -0.5329
 7096SOL    HW132921   2.339   4.558   6.790  0.0861 -1.2728 -1.0330
 7096SOL    HW232922   2.444   4.492   6.852  0.9221  0.3682  0.9462
 7097SOL     OW32923   0.951   0.421  11.961  0.0879  0.2554 -0.2373
 7097SOL    HW132924   1.011   0.347  11.960 -1.0859 -0.6965 -1.1189
 7097SOL    HW232925   0.973   0.458  11.875 -0.6847 -0.7620 -0.8743
 7098SOL     OW32926   4.486   3.052   4.278  0.0465  0.1870 -0.1645
 7098SOL    HW132927   4.482   2.956   4.284  0.1779  0.0996 -1.4541
 7098SOL    HW232928   4.402   3.078   4.241 -1.3402 -1.3474  1.8689
 7099SOL     OW32929   4.683   2.382   0.218 -0.4668  0.1632 -0.1634
 7099SOL    HW132930   4.687   2.354   0.309 -0.1917  1.2860  0.1628
 7099SOL    HW232931   4.594   2.415   0.210  0.4282  2.9235  1.2422
 7100SOL     OW32932   4.230   0.317   9.592  0.2797 -0.5143 -0.1339
 7100SOL    HW132933   4.148   0.285   9.555  0.1628 -0.0600 -0.2620
 7100SOL    HW232934   4.287   0.313   9.515  0.2502 -2.0603 -0.0797
 7101SOL     OW32935   3.822   4.214  15.732 -0.8424 -0.1174  0.1010
 7101SOL    HW132936   3.837   4.143  15.670 -0.7314  0.8901 -1.0142
 7101SOL    HW232937   3.728   4.232  15.725 -1.0706 -1.4743 -0.3231
 7102SOL     OW32938   4.026   0.663  10.691 -0.3593 -0.0603 -0.3995
 7102SOL    HW132939   3.972   0.671  10.613  2.3900 -0.3277 -2.3145
 7102SOL    HW232940   4.108   0.631  10.654  0.3685 -0.9340  1.9747
 7103SOL     OW32941   4.607   4.589   5.715  0.0620 -0.1361  0.4625
 7103SOL    HW132942   4.588   4.636   5.634  2.3148  0.7860  0.4831
 7103SOL    HW232943   4.576   4.650   5.782 -3.2905 -2.3627  0.9815
 7104SOL     OW32944   2.226   1.363   4.433 -0.0864  0.8767  0.4177
 7104SOL    HW132945   2.134   1.346   4.449 -0.6623  0.0226 -3.6197
 7104SOL    HW232946   2.250   1.406   4.515  1.9067 -0.2766  0.4506
 7105SOL     OW32947   3.128   3.844   5.857 -0.0447 -0.0734  0.1468
 7105SOL    HW132948   3.139   3.850   5.952  0.1508  1.1313  0.0476
 7105SOL    HW232949   3.062   3.912   5.840 -0.2867 -0.0712  1.1116
 7106SOL     OW32950   0.154   2.919   9.540  0.1399 -0.0621  0.0779
 7106SOL    HW132951   0.146   2.971   9.620  0.3756  0.5009 -0.2683
 7106SOL    HW232952   0.235   2.869   9.553 -0.4461 -1.0469 -0.0775
 7107SOL     OW32953   0.328   4.370  16.333 -0.2513 -0.0873  0.2140
 7107SOL    HW132954   0.284   4.431  16.274 -1.3473 -0.3342  0.7856
 7107SOL    HW232955   0.420   4.367  16.306 -0.0855  0.8243  0.6950
 7108SOL     OW32956   1.685   2.398   2.584 -0.3600  0.1024  0.3062
 7108SOL    HW132957   1.751   2.379   2.517  2.0863  2.4772  2.0757
 7108SOL    HW232958   1.706   2.328   2.645 -0.1039 -0.6905 -0.6788
 7109SOL     OW32959   4.354   2.620   7.960  0.1410  0.5655 -0.4374
 7109SOL    HW132960   4.396   2.546   8.004  0.5519  1.6291  0.9496
 7109SOL    HW232961   4.362   2.687   8.027  0.3773 -1.9787  2.0573
 7110SOL     OW32962   3.754   4.197   3.199 -0.1337  0.4363 -0.0582
 7110SOL    HW132963   3.819   4.209   3.129  2.6951  0.1291  2.5539
 7110SOL    HW232964   3.696   4.142   3.146 -0.4320 -1.6718  2.5139
 7111SOL     OW32965   4.067   0.464   0.506 -0.6386 -0.0847 -0.4636
 7111SOL    HW132966   4.042   0.536   0.447 -2.7800  0.1768  0.7667
 7111SOL    HW232967   3.981   0.431   0.534 -1.2530  2.2112  0.2972
 7112SOL     OW32968   0.702   2.894   6.356 -0.0712  0.3648  0.9256
 7112SOL    HW132969   0.780   2.864   6.309 -0.3883  2.9148 -1.1968
 7112SOL    HW232970   0.741   2.955   6.419 -2.1064  1.8295  0.7740
 7113SOL     OW32971   0.387   4.069   7.806  0.1694  0.4995 -0.4938
 7113SOL    HW132972   0.335   4.022   7.872 -0.0384 -1.7251 -2.2420
 7113SOL    HW232973   0.463   4.011   7.796  0.7085  1.3515 -1.3061
 7114SOL     OW32974   0.750   1.306  10.873  0.1431 -0.3910 -0.5280
 7114SOL    HW132975   0.680   1.353  10.917  0.8819  1.4548 -1.3279
 7114SOL    HW232976   0.740   1.213  10.895 -0.2814 -0.4863 -1.1145
 7115SOL     OW32977   1.916   0.829   8.139  0.8069 -0.1130 -0.1080
 7115SOL    HW132978   1.877   0.746   8.166  0.7181 -0.5821 -1.6694
 7115SOL    HW232979   1.902   0.897   8.206  2.3196  0.0647  0.0313
 7116SOL     OW32980   4.178   0.576   7.454  0.6182 -0.1001 -0.7394
 7116SOL    HW132981   4.175   0.627   7.535  1.6736 -0.5828 -0.3945
 7116SOL    HW232982   4.239   0.633   7.407  0.3136  0.5994 -0.2982
 7117SOL     OW32983   3.425   0.958  14.060  0.0890  0.5266  0.3188
 7117SOL    HW132984   3.380   0.876  14.039  0.8985  0.0713  0.3570
 7117SOL    HW232985   3.374   0.983  14.138 -3.3363 -0.3839 -1.6322
 7118SOL     OW32986   1.993   4.383   8.297 -0.9323 -0.0566  0.3787
 7118SOL    HW132987   2.032   4.460   8.338  3.3283 -1.1011 -1.7294
 7118SOL    HW232988   2.042   4.305   8.324  1.7686  1.7239  0.6241
 7119SOL     OW32989   3.540   3.363   6.956  0.3214  0.1565  0.1727
 7119SOL    HW132990   3.565   3.280   6.916 -0.3096  0.1135 -0.1457
 7119SOL    HW232991   3.509   3.334   7.041  1.8693 -0.4840  0.5059
 7120SOL     OW32992   2.087   2.650   6.141 -0.4250  0.0580 -0.4807
 7120SOL    HW132993   2.017   2.623   6.201  0.7972 -2.8936 -0.4374
 7120SOL    HW232994   2.158   2.592   6.167  0.5840  1.1031 -0.8931
 7121SOL     OW32995   2.954   2.359   9.513 -0.2483  0.3158  0.3913
 7121SOL    HW132996   2.861   2.381   9.506 -0.9842 -2.3922  1.5069
 7121SOL    HW232997   2.939   2.279   9.564 -2.4858  1.5437  1.6702
 7122SOL     OW32998   2.562   0.183   2.333 -0.0699 -0.6021  0.5238
 7122SOL    HW132999   2.625   0.186   2.405  1.1695  2.1981 -0.6571
 7122SOL    HW233000   2.530   0.096   2.354 -0.7479 -0.4019  0.3068
 7123SOL     OW33001   0.248   4.539   1.836  0.1536  0.7442 -0.4218
 7123SOL    HW133002   0.293   4.469   1.789  0.3080  0.3357  0.3419
 7123SOL    HW233003   0.166   4.502   1.870  0.0461 -0.1182 -1.6077
 7124SOL     OW33004   3.925   2.561   2.822  0.1148 -0.0774 -0.7972
 7124SOL    HW133005   3.879   2.478   2.831 -2.3411  1.3175 -0.4999
 7124SOL    HW233006   4.014   2.530   2.806 -0.7252 -1.1219 -3.4800
 7125SOL     OW33007   2.342   2.055   8.252 -0.3662 -0.1375 -0.3923
 7125SOL    HW133008   2.333   2.124   8.318  1.6354  0.6506 -0.9538
 7125SOL    HW233009   2.365   2.107   8.176  1.9245  0.1663  0.5158
 7126SOL     OW33010   0.445   0.423   8.090 -0.7236 -0.1732 -0.2769
 7126SOL    HW133011   0.479   0.508   8.119 -1.6847  0.6547 -1.5735
 7126SOL    HW233012   0.353   0.442   8.104 -0.5158  1.2974 -0.8845
 7127SOL     OW33013   3.421   3.132  14.353  0.3138  0.1262 -0.3874
 7127SOL    HW133014   3.491   3.163  14.296 -1.6806  2.7963 -1.3863
 7127SOL    HW233015   3.466   3.131  14.438  1.8740 -4.3601 -1.2532
 7128SOL     OW33016   2.825   4.165   8.137  0.4167  0.1817  0.3109
 7128SOL    HW133017   2.909   4.190   8.174  0.9490  0.1974 -0.8986
 7128SOL    HW233018   2.810   4.246   8.088 -0.7942 -1.5236 -2.1528
 7129SOL     OW33019   2.578   2.137   2.356  0.1593 -0.0133  0.4861
 7129SOL    HW133020   2.535   2.082   2.290  1.8576  0.7843 -1.2822
 7129SOL    HW233021   2.651   2.170   2.305  0.6774  2.7668  3.0375
 7130SOL     OW33022   2.279   1.532   9.156 -0.2351 -0.1847 -0.3287
 7130SOL    HW133023   2.194   1.503   9.189 -0.4006  0.1295 -0.4828
 7130SOL    HW233024   2.317   1.458   9.108 -1.2266 -1.8464  1.4176
 7131SOL     OW33025   4.531   4.309  12.232 -0.7793 -0.3579 -0.0750
 7131SOL    HW133026   4.495   4.359  12.306 -0.2480 -0.8293  0.5044
 7131SOL    HW233027   4.618   4.278  12.258 -1.2308 -1.7038 -0.1512
 7132SOL     OW33028   1.697   0.457  14.958 -0.3675  0.0242 -0.4140
 7132SOL    HW133029   1.602   0.458  14.970 -0.4559  2.1749 -1.3291
 7132SOL    HW233030   1.723   0.504  15.038  1.4287 -0.8550 -0.4753
 7133SOL     OW33031   1.637   3.016   3.089 -0.3271  0.4320 -0.4122
 7133SOL    HW133032   1.718   2.998   3.137 -0.3544  1.0779 -0.1235
 7133SOL    HW233033   1.679   3.028   3.003  1.3192 -0.6592  0.2404
 7134SOL     OW33034   3.341   1.487  15.262 -0.6329 -0.1237 -0.6417
 7134SOL    HW133035   3.325   1.580  15.282 -0.8891 -0.5359  1.1213
 7134SOL    HW233036   3.322   1.479  15.169 -1.6978  0.4287 -0.4839
 7135SOL     OW33037   4.519   2.116   0.285  0.3504 -0.2171 -0.7222
 7135SOL    HW133038   4.431   2.084   0.268 -0.2690  0.7411  0.6914
 7135SOL    HW233039   4.505   2.209   0.270 -1.4964 -0.3621  0.1219
 7136SOL     OW33040   1.887   4.453  11.424  0.0064  0.1474  0.4467
 7136SOL    HW133041   1.824   4.479  11.491 -0.7511 -1.6402  0.4255
 7136SOL    HW233042   1.835   4.483  11.349 -1.5217 -2.1678  0.5990
 7137SOL     OW33043   1.067   2.416   7.142 -0.6882 -0.0257 -0.2132
 7137SOL    HW133044   1.017   2.469   7.204 -0.6391  0.2280 -0.3890
 7137SOL    HW233045   1.005   2.344   7.136  1.4253 -1.7142 -1.7115
 7138SOL     OW33046   0.081   0.830   7.171  0.9465  0.2857  0.0082
 7138SOL    HW133047   4.732   0.834   7.129  1.6578 -4.2602 -1.9144
 7138SOL    HW233048   0.129   0.907   7.140  0.5839  1.5389  2.5688
 7139SOL     OW33049   2.778   0.811  14.973 -0.1837 -0.7609  0.0892
 7139SOL    HW133050   2.864   0.852  14.977 -0.8882  0.7206  0.1328
 7139SOL    HW233051   2.719   0.882  14.947 -2.1998 -2.2273  0.6676
 7140SOL     OW33052   2.486   0.671  17.596 -0.2923  0.1052  0.5556
 7140SOL    HW133053   2.518   0.598  17.650  0.4885  0.4762  0.6026
 7140SOL    HW233054   2.558   0.693  17.536  0.5349  0.4223  1.6640
 7141SOL     OW33055   3.236   3.598  16.748  0.0551  0.2680 -0.0758
 7141SOL    HW133056   3.316   3.546  16.746 -1.2952 -1.7410 -1.6193
 7141SOL    HW233057   3.243   3.635  16.660 -3.3504 -3.2092 -1.7765
 7142SOL     OW33058   2.082   2.744  11.199 -0.2755 -0.0148 -0.8461
 7142SOL    HW133059   2.083   2.652  11.226  1.2934  0.0866 -0.6016
 7142SOL    HW233060   2.157   2.773  11.250  1.2202 -2.4607 -1.6614
 7143SOL     OW33061   0.718   2.496  12.348 -0.1755 -0.3376 -0.3563
 7143SOL    HW133062   0.715   2.519  12.440  0.7021 -1.5461 -0.0264
 7143SOL    HW233063   0.696   2.568  12.288  1.3897 -0.8797 -1.6007
 7144SOL     OW33064   0.994   0.725   3.364 -0.5140 -0.6008  0.3108
 7144SOL    HW133065   1.032   0.644   3.398 -1.2564 -1.0484  0.0885
 7144SOL    HW233066   0.902   0.699   3.361 -0.6146  0.1319 -2.4817
 7145SOL     OW33067   2.194   0.193  11.490  0.3110 -0.3945  0.0465
 7145SOL    HW133068   2.212   0.186  11.397  1.1571  0.5211  0.1452
 7145SOL    HW233069   2.136   0.269  11.487  2.2131  1.0540  0.0544
 7146SOL     OW33070   3.335   4.554   4.745  0.3477 -0.1015  0.6984
 7146SOL    HW133071   3.342   4.478   4.688 -1.5058  1.3706 -1.5226
 7146SOL    HW233072   3.337   4.498   4.823  0.6241 -0.6718  0.2703
 7147SOL     OW33073   0.568   0.866   1.143 -0.0754  0.1247 -0.2284
 7147SOL    HW133074   0.655   0.904   1.130  0.1112  0.1959  1.2145
 7147SOL    HW233075   0.554   0.819   1.061  0.6458 -1.4953  0.5590
 7148SOL     OW33076   3.447   0.765   0.823 -0.1171  0.1805 -0.7691
 7148SOL    HW133077   3.431   0.805   0.737 -2.8272  1.2090  0.2086
 7148SOL    HW233078   3.358   0.758   0.858  0.6499 -2.5600  0.6236
 7149SOL     OW33079   2.722   2.148  15.084  0.9818 -0.2715  0.4848
 7149SOL    HW133080   2.724   2.219  15.020 -0.4127 -0.5286  0.1461
 7149SOL    HW233081   2.642   2.178  15.127  0.9323  0.8946 -0.4017
 7150SOL     OW33082   3.210   0.711   6.388 -0.1392  0.1074  0.0205
 7150SOL    HW133083   3.263   0.637   6.360  1.2888  0.1586  2.5983
 7150SOL    HW233084   3.278   0.748   6.444  1.5049 -1.2762 -1.0486
 7151SOL     OW33085   4.042   3.274   8.366 -0.5018  0.1078 -0.0647
 7151SOL    HW133086   3.991   3.289   8.446  0.7893 -1.5171  1.0608
 7151SOL    HW233087   3.977   3.244   8.302  0.7197  0.3239 -1.4101
 7152SOL     OW33088   4.092   3.708   4.858 -0.0543  0.0053 -0.2993
 7152SOL    HW133089   4.153   3.780   4.870  0.4084 -0.5408  0.6707
 7152SOL    HW233090   4.073   3.704   4.765  1.4149 -1.0931 -0.5532
 7153SOL     OW33091   3.928   3.662   2.436 -0.0783  0.0203 -0.2017
 7153SOL    HW133092   3.931   3.585   2.493  0.1076 -0.3279 -0.6805
 7153SOL    HW233093   4.021   3.674   2.419 -0.2111  0.7885 -0.3988
 7154SOL     OW33094   3.809   1.797  10.015  0.1065  0.0371  0.3239
 7154SOL    HW133095   3.848   1.723  10.062 -0.9272 -1.0356 -0.5033
 7154SOL    HW233096   3.882   1.858  10.026  0.6931 -0.7189  0.6256
 7155SOL     OW33097   1.983   2.426  12.806  0.6160  0.1384  0.5693
 7155SOL    HW133098   2.025   2.512  12.797 -0.2643  0.6617  1.5332
 7155SOL    HW233099   1.897   2.458  12.832 -0.0767 -1.6431  0.4913
 7156SOL     OW33100   1.300   3.279   6.128 -0.3033 -0.4637 -0.4691
 7156SOL    HW133101   1.296   3.369   6.159 -0.6682 -0.5166 -0.3625
 7156SOL    HW233102   1.387   3.248   6.152 -0.5599 -1.6797 -1.1053
 7157SOL     OW33103   3.048   4.410   4.938 -0.6841 -0.2660  0.0446
 7157SOL    HW133104   3.044   4.472   4.866  1.2564  0.9640  1.0070
 7157SOL    HW233105   3.142   4.407   4.957 -0.1691  2.4406 -2.1202
 7158SOL     OW33106   4.212   1.800   5.880  0.1649 -0.2415 -0.5631
 7158SOL    HW133107   4.284   1.812   5.818 -1.3653  0.9331 -2.1233
 7158SOL    HW233108   4.222   1.890   5.912  0.1342 -0.0609 -1.0576
 7159SOL     OW33109   2.631   0.977  10.113 -0.1857  0.0935  0.1131
 7159SOL    HW133110   2.561   0.986  10.177  0.7215 -1.0440  1.2541
 7159SOL    HW233111   2.709   0.969  10.169 -0.4612  0.5580  0.5575
 7160SOL     OW33112   0.837   0.377  13.768  0.0848  0.1700  0.8649
 7160SOL    HW133113   0.797   0.293  13.745 -0.3968  1.0801 -1.6503
 7160SOL    HW233114   0.917   0.371  13.716 -0.0802 -1.1226  0.7489
 7161SOL     OW33115   0.656   1.321   1.863 -0.5023 -0.1730 -0.0371
 7161SOL    HW133116   0.674   1.408   1.899  1.5602 -0.4928 -0.3012
 7161SOL    HW233117   0.729   1.297   1.807  0.1272  1.0864  0.2650
 7162SOL     OW33118   1.081   3.503   5.301  0.2128  0.0205  0.2180
 7162SOL    HW133119   1.035   3.499   5.218 -0.2939  1.6964  0.4051
 7162SOL    HW233120   1.130   3.422   5.313 -1.0678 -0.8746 -0.6849
 7163SOL     OW33121   4.300   4.238   1.124 -0.3105  0.3456  0.3885
 7163SOL    HW133122   4.266   4.307   1.181 -1.1052  0.1658  0.1251
 7163SOL    HW233123   4.341   4.303   1.067 -0.3524 -0.2842 -0.3481
 7164SOL     OW33124   0.314   2.668  15.711 -0.2464  0.4483  0.2752
 7164SOL    HW133125   0.248   2.600  15.696 -0.6412  1.1052 -0.9649
 7164SOL    HW233126   0.386   2.608  15.731 -0.4620 -0.1863 -0.8824
 7165SOL     OW33127   1.665   3.245  12.450 -0.1592  0.1783  0.1678
 7165SOL    HW133128   1.675   3.286  12.365  0.8987  0.6321  0.5204
 7165SOL    HW233129   1.644   3.155  12.424  4.7724 -1.0211  0.4141
 7166SOL     OW33130   2.647   2.099  15.867  0.3476  0.0946  0.1576
 7166SOL    HW133131   2.624   2.013  15.831 -1.1354  0.9646 -0.9904
 7166SOL    HW233132   2.731   2.107  15.820  1.8019 -0.7121  2.6150
 7167SOL     OW33133   1.414   0.885  17.173 -0.0340 -0.1955  0.3578
 7167SOL    HW133134   1.392   0.955  17.111 -2.3461 -1.6568 -0.4978
 7167SOL    HW233135   1.429   0.933  17.254  1.4201 -1.0535  0.5923
 7168SOL     OW33136   3.855   0.665   4.212  0.2788  0.1421 -0.3446
 7168SOL    HW133137   3.933   0.717   4.194  0.5320 -0.2637 -0.4284
 7168SOL    HW233138   3.789   0.729   4.188  2.3237  2.6551  0.7806
 7169SOL     OW33139   2.602   3.786   3.072  0.2926  0.1871 -0.8099
 7169SOL    HW133140   2.673   3.758   3.129 -1.9872 -1.9235  0.9408
 7169SOL    HW233141   2.561   3.703   3.047 -4.2338  1.5508  2.0778
 7170SOL     OW33142   2.032   2.481   4.352  0.0861  0.3600 -0.4625
 7170SOL    HW133143   2.002   2.482   4.261 -0.7698 -2.8758 -0.2376
 7170SOL    HW233144   2.097   2.410   4.355 -1.6869 -1.2048  1.1716
 7171SOL     OW33145   3.196   3.746   2.605  0.2276  0.5011 -0.2655
 7171SOL    HW133146   3.151   3.696   2.536 -0.6320  0.5530  0.2633
 7171SOL    HW233147   3.123   3.802   2.631 -1.9526 -2.3897 -0.1342
 7172SOL     OW33148   1.635   3.732   1.168  0.1608 -0.1328 -0.0183
 7172SOL    HW133149   1.578   3.673   1.118  0.4638 -1.6622  1.4198
 7172SOL    HW233150   1.706   3.669   1.178 -2.5691 -2.9775  1.9750
 7173SOL     OW33151   0.082   3.239   5.659  0.3699 -0.0596  0.1725
 7173SOL    HW133152   0.119   3.151   5.656 -0.2434 -0.2202 -2.2711
 7173SOL    HW233153   4.726   3.222   5.642 -0.0236  1.4954  0.7112
 7174SOL     OW33154   2.540   4.325   6.161  0.3310 -0.1626  0.3998
 7174SOL    HW133155   2.505   4.378   6.090  2.2657 -1.2218 -1.3328
 7174SOL    HW233156   2.548   4.238   6.124 -0.4263  0.5946 -1.5270
 7175SOL     OW33157   3.475   1.816  14.880 -0.1293  0.2868  0.0391
 7175SOL    HW133158   3.462   1.721  14.880 -0.5187  0.3453 -0.4910
 7175SOL    HW233159   3.480   1.845  14.789 -1.1022  0.6955  0.1179
 7176SOL     OW33160   1.153   0.391  11.733  0.0785  0.3938  0.0387
 7176SOL    HW133161   1.248   0.391  11.726  0.1452 -2.1102  0.9373
 7176SOL    HW233162   1.137   0.485  11.725  0.9575  0.6619  1.4624
 7177SOL     OW33163   2.247   4.056   7.457  0.0943 -0.0813  0.4081
 7177SOL    HW133164   2.188   4.130   7.446  0.3095  0.1825  1.0420
 7177SOL    HW233165   2.199   3.981   7.423  1.1884 -0.8798  0.6126
 7178SOL     OW33166   2.512   4.019  16.130 -0.2882  0.3349 -0.2535
 7178SOL    HW133167   2.553   3.978  16.054  0.7034  0.6815  0.0926
 7178SOL    HW233168   2.488   3.937  16.174 -1.5654  0.1968 -1.2098
 7179SOL     OW33169   3.911   2.258   7.859 -0.5188 -0.2373  0.2110
 7179SOL    HW133170   3.987   2.314   7.874  0.2462 -1.2665  0.1915
 7179SOL    HW233171   3.839   2.317   7.836 -0.1015 -0.1506 -0.8721
 7180SOL     OW33172   2.306   2.484   5.236 -0.3474  0.7256 -0.3216
 7180SOL    HW133173   2.255   2.563   5.249  0.7319  1.1562  1.2825
 7180SOL    HW233174   2.286   2.464   5.144  0.0761 -2.5879  0.3015
 7181SOL     OW33175   1.118   1.671   6.827  0.8075  0.3307  0.6580
 7181SOL    HW133176   1.144   1.613   6.755 -0.6267 -0.1681  0.5541
 7181SOL    HW233177   1.024   1.662   6.817  0.5394  3.1854  0.6350
 7182SOL     OW33178   0.102   3.573   0.531  0.1349 -0.3806 -0.1058
 7182SOL    HW133179   0.168   3.638   0.552  0.2746 -0.6569  0.3211
 7182SOL    HW233180   0.030   3.637   0.535 -0.1583 -1.0356  4.3827
 7183SOL     OW33181   2.366   0.639   8.222 -0.6819  0.3038  0.6510
 7183SOL    HW133182   2.412   0.607   8.145  1.2158  1.7545  1.1687
 7183SOL    HW233183   2.364   0.729   8.189 -1.7469 -0.5089 -1.4932
 7184SOL     OW33184   0.213   3.134   7.697  0.0764  0.2290 -0.2308
 7184SOL    HW133185   0.119   3.146   7.680 -0.1687 -0.1909  0.7927
 7184SOL    HW233186   0.214   3.123   7.792  1.6979 -0.2442 -0.3009
 7185SOL     OW33187   1.669   1.338   2.208 -0.1349  0.0544  0.5511
 7185SOL    HW133188   1.621   1.282   2.147  1.9055 -1.5000  0.3694
 7185SOL    HW233189   1.651   1.419   2.161  0.5117 -0.7036 -0.9836
 7186SOL     OW33190   1.117   0.885   4.382 -0.2495  0.2028  0.1062
 7186SOL    HW133191   1.038   0.938   4.365 -0.0960  1.2203  2.5234
 7186SOL    HW233192   1.123   0.824   4.309  1.0354 -0.4697  0.7870
 7187SOL     OW33193   4.719   3.997   4.702 -0.4375 -0.3581  0.2482
 7187SOL    HW133194   0.000   4.011   4.795 -1.8696 -0.5150  0.5583
 7187SOL    HW233195   4.624   4.003   4.690 -0.1352  0.7195 -1.6842
 7188SOL     OW33196   2.893   2.741   4.178 -0.6664  0.4001 -0.8016
 7188SOL    HW133197   2.946   2.714   4.103 -0.2655  1.6733 -0.9738
 7188SOL    HW233198   2.874   2.835   4.169  0.2723  0.8328  1.7713
 7189SOL     OW33199   2.216   4.144   4.276  0.3375  0.2404  0.3511
 7189SOL    HW133200   2.188   4.130   4.186 -0.5127  0.3874  0.5922
 7189SOL    HW233201   2.219   4.053   4.304 -1.3388 -0.0619 -0.4808
 7190SOL     OW33202   1.319   1.257   3.889  0.1641 -0.6910  0.0021
 7190SOL    HW133203   1.320   1.168   3.852 -0.1717 -0.9379  0.5871
 7190SOL    HW233204   1.402   1.292   3.859  0.0458 -0.6870 -0.3153
 7191SOL     OW33205   1.662   2.558   3.424 -0.0012  0.1865  0.0132
 7191SOL    HW133206   1.625   2.643   3.445 -3.4623 -1.4905  0.7500
 7191SOL    HW233207   1.709   2.589   3.347 -2.4825  1.8222 -0.8528
 7192SOL     OW33208   0.134   4.109   6.142  0.0613 -0.2201 -0.4075
 7192SOL    HW133209   0.159   4.024   6.178 -0.0656  0.2825  0.8442
 7192SOL    HW233210   0.219   4.133   6.105 -0.3045  1.2525 -0.2997
 7193SOL     OW33211   0.479   0.839  10.920 -0.2468 -0.4066 -0.2398
 7193SOL    HW133212   0.385   0.829  10.908 -0.2160  0.1643 -0.9828
 7193SOL    HW233213   0.508   0.750  10.897  1.5738  0.1400 -0.0657
 7194SOL     OW33214   0.204   3.216   1.559  0.3259 -0.9293 -0.7798
 7194SOL    HW133215   0.282   3.225   1.505  0.5213  0.2511 -0.3027
 7194SOL    HW233216   0.137   3.199   1.493 -2.5171  0.9993  1.6001
 7195SOL     OW33217   3.070   0.816  11.398 -0.1544  0.1742 -0.2265
 7195SOL    HW133218   3.055   0.827  11.304 -0.4356 -2.3511 -0.4839
 7195SOL    HW233219   3.094   0.725  11.416 -1.2770 -0.2234 -0.7271
 7196SOL     OW33220   4.537   1.207  16.886 -0.1621 -0.5855 -0.3264
 7196SOL    HW133221   4.527   1.284  16.830  1.3480 -1.5687 -1.9898
 7196SOL    HW233222   4.447   1.188  16.912  0.6030  0.4714  3.0353
 7197SOL     OW33223   0.890   0.190   3.902 -0.3582  0.3980 -0.2061
 7197SOL    HW133224   0.865   0.106   3.864 -1.2914  0.6344 -0.1379
 7197SOL    HW233225   0.882   0.248   3.827 -0.4874  0.0075 -0.4917
 7198SOL     OW33226   0.069   2.601   1.245  0.2507  0.5090  0.1905
 7198SOL    HW133227   4.723   2.574   1.285  1.0272 -0.8393  0.8928
 7198SOL    HW233228   0.129   2.530   1.268 -2.6254 -2.0841 -0.2289
 7199SOL     OW33229   1.663   4.255   2.259 -0.2207  0.0271 -0.7904
 7199SOL    HW133230   1.619   4.340   2.258 -1.5235 -0.6146  1.4549
 7199SOL    HW233231   1.710   4.252   2.342  1.3752 -0.2341 -1.7108
 7200SOL     OW33232   4.729   3.882   7.307 -0.6837 -0.6192  0.1791
 7200SOL    HW133233   4.726   3.839   7.392  0.0994  0.7690  0.9032
 7200SOL    HW233234   0.068   3.837   7.269 -1.7205 -0.8394 -1.6693
 7201SOL     OW33235   1.605   0.139   8.255  0.2514  0.1791 -0.3543
 7201SOL    HW133236   1.694   0.118   8.228  0.6875  2.5936 -0.8171
 7201SOL    HW233237   1.557   0.090   8.189  1.0481  1.5391 -1.9303
 7202SOL     OW33238   1.646   1.923   5.216 -0.1857  0.2161  0.0934
 7202SOL    HW133239   1.706   1.849   5.224  1.0937  1.0780 -1.3836
 7202SOL    HW233240   1.574   1.884   5.166  1.7614 -3.1306 -0.0978
 7203SOL     OW33241   4.223   1.806   4.220  0.5340 -0.2360  0.1919
 7203SOL    HW133242   4.293   1.858   4.260 -1.5988  2.0609  0.9958
 7203SOL    HW233243   4.158   1.873   4.244  0.2235 -0.5675  0.2697
 7204SOL     OW33244   0.250   2.472  17.567  0.2605 -0.1065 -0.0591
 7204SOL    HW133245   0.163   2.474  17.607 -0.1841 -1.3201 -0.9602
 7204SOL    HW233246   0.228   2.462  17.475  0.9490  2.2456 -0.4733
 7205SOL     OW33247   0.510   2.996   2.105 -0.0285  0.3730 -0.0092
 7205SOL    HW133248   0.567   3.052   2.051  0.0757  0.4736  0.2059
 7205SOL    HW233249   0.571   2.923   2.104 -0.3951  0.0564  1.8495
 7206SOL     OW33250   0.177   1.409   7.362  0.5228  0.1549  0.3838
 7206SOL    HW133251   0.245   1.446   7.419  1.3447 -0.3849 -0.2556
 7206SOL    HW233252   0.177   1.314   7.368 -0.2910 -0.0969 -3.8372
 7207SOL     OW33253   3.814   4.333   7.876  0.0491  0.7380 -0.0217
 7207SOL    HW133254   3.886   4.299   7.822  1.1490  1.7774  0.7921
 7207SOL    HW233255   3.730   4.308   7.837 -0.2776  1.5684  0.1431
 7208SOL     OW33256   3.556   2.767   5.855  0.0528 -0.2680 -0.0132
 7208SOL    HW133257   3.474   2.815   5.857 -0.5763 -1.5355  5.1426
 7208SOL    HW233258   3.596   2.794   5.938  0.5755  0.3456 -0.4589
 7209SOL     OW33259   2.318   3.523   8.131  0.0996 -0.0103  0.1084
 7209SOL    HW133260   2.239   3.564   8.094  0.2424 -0.8054 -1.1048
 7209SOL    HW233261   2.376   3.598   8.141 -2.2481  1.7359  0.5638
 7210SOL     OW33262   4.417   3.863   8.372  0.5943 -0.6728  0.6885
 7210SOL    HW133263   4.506   3.869   8.337  0.6101 -1.1544  0.6442
 7210SOL    HW233264   4.363   3.873   8.293  0.3900 -2.3988  0.6226
 7211SOL     OW33265   1.344   2.242   6.829 -0.9294  0.0653  0.5471
 7211SOL    HW133266   1.328   2.224   6.736 -1.4908  0.2641  0.6039
 7211SOL    HW233267   1.430   2.282   6.818 -0.6756 -0.1299  1.8942
 7212SOL     OW33268   0.839   1.706   2.250 -0.1067  0.1492 -0.3310
 7212SOL    HW133269   0.762   1.652   2.234  1.0915 -1.2172 -1.5293
 7212SOL    HW233270   0.796   1.791   2.243  1.0926  0.7881  0.0350
 7213SOL     OW33271   2.123   0.582   5.346 -0.2573  0.0613 -0.2247
 7213SOL    HW133272   2.101   0.538   5.428 -1.5790  1.8000  0.3456
 7213SOL    HW233273   2.214   0.552   5.336 -0.2364 -0.1410  0.5582
 7214SOL     OW33274   3.533   1.962   9.152  0.6807 -0.7239  0.2025
 7214SOL    HW133275   3.587   1.981   9.076  0.1397  0.7089  0.1701
 7214SOL    HW233276   3.453   1.936   9.106  0.0375 -1.7490  1.9151
 7215SOL     OW33277   2.941   3.704   6.111  0.2246 -0.7127  0.6502
 7215SOL    HW133278   3.017   3.749   6.147  1.4087  0.2731 -3.0460
 7215SOL    HW233279   2.957   3.617   6.146 -2.0526 -1.1773  0.5034
 7216SOL     OW33280   3.896   1.333  10.179  0.5033 -0.2455  0.0417
 7216SOL    HW133281   3.830   1.284  10.228 -1.1872  0.8413 -1.1742
 7216SOL    HW233282   3.863   1.346  10.090  0.8255  1.6901  0.1930
 7217SOL     OW33283   2.071   4.448   2.982 -0.0080 -0.3197  0.0285
 7217SOL    HW133284   2.160   4.443   3.018 -0.6346 -2.0102  1.3742
 7217SOL    HW233285   2.032   4.379   3.036 -1.3483 -0.1851 -0.7854
 7218SOL     OW33286   4.401   0.177  15.369  0.1267 -0.0559  0.1366
 7218SOL    HW133287   4.439   0.176  15.281  0.8682 -1.9531  0.4844
 7218SOL    HW233288   4.446   0.252  15.408  1.0802 -0.7469  0.3597
 7219SOL     OW33289   2.936   0.240   7.204 -0.0242 -0.0264 -0.6258
 7219SOL    HW133290   3.031   0.245   7.214 -0.4254  2.5645  1.6918
 7219SOL    HW233291   2.910   0.303   7.137 -1.4661  1.4061  1.2878
 7220SOL     OW33292   3.937   0.757   8.807  0.0627  0.3574 -0.3980
 7220SOL    HW133293   3.951   0.811   8.885 -0.4327  0.3807 -0.3279
 7220SOL    HW233294   3.993   0.803   8.744  1.7013 -0.9223  0.1197
 7221SOL     OW33295   0.960   4.303   1.516  0.5682 -0.0283  0.5226
 7221SOL    HW133296   1.038   4.287   1.570  0.2725 -1.9225  0.3930
 7221SOL    HW233297   0.896   4.293   1.587  0.1392 -2.1022 -0.1742
 7222SOL     OW33298   2.757   1.844  14.328 -0.1081  0.0513 -0.3729
 7222SOL    HW133299   2.751   1.894  14.409 -1.7839  1.3224 -1.2790
 7222SOL    HW233300   2.853   1.844  14.318 -0.1184  0.9121 -0.5005
 7223SOL     OW33301   1.752   1.306   9.943 -1.0860  0.6882  0.3943
 7223SOL    HW133302   1.823   1.267   9.994  0.3007  0.6580 -1.5530
 7223SOL    HW233303   1.806   1.377   9.907 -2.0283  0.9003 -0.5881
 7224SOL     OW33304   3.492   0.788  16.278  0.0391  0.1633  0.2490
 7224SOL    HW133305   3.544   0.858  16.318  0.5052 -0.5896  0.9606
 7224SOL    HW233306   3.554   0.717  16.260 -1.1279 -0.5684 -0.8966
 7225SOL     OW33307   2.115   2.096  10.887  0.7149 -0.0320  0.6892
 7225SOL    HW133308   2.135   2.020  10.940  0.5822 -0.9264 -0.5441
 7225SOL    HW233309   2.035   2.125  10.932 -0.6372 -0.5279 -1.3857
 7226SOL     OW33310   3.883   3.682   5.044 -0.5294  0.1648 -0.3593
 7226SOL    HW133311   3.854   3.770   5.021 -1.3371 -0.2236 -0.8494
 7226SOL    HW233312   3.966   3.672   4.999 -0.4122  0.0375 -0.1153
 7227SOL     OW33313   1.780   0.042   7.612 -0.0716 -0.1381 -0.2397
 7227SOL    HW133314   1.873   0.046   7.591 -0.3714  0.2386 -1.5001
 7227SOL    HW233315   1.778   4.713   7.681 -2.1573  1.4384  1.1881
 7228SOL     OW33316   1.527   2.457   2.992 -0.9159  0.0452 -0.2759
 7228SOL    HW133317   1.603   2.441   3.048 -2.6164 -0.5292  1.8569
 7228SOL    HW233318   1.560   2.510   2.920 -0.3820  0.7394  0.4734
 7229SOL     OW33319   4.591   2.923   8.744  0.1563 -0.4848 -0.4108
 7229SOL    HW133320   4.673   2.905   8.789 -1.1304 -1.2465  1.6333
 7229SOL    HW233321   4.583   3.019   8.742 -1.6459 -0.5869  1.7708
 7230SOL     OW33322   2.480   4.127   8.981  0.0715 -0.6057 -0.3368
 7230SOL    HW133323   2.452   4.156   8.895  0.8325  0.6334 -0.1730
 7230SOL    HW233324   2.539   4.195   9.013  0.7993 -1.7365  0.7497
 7231SOL     OW33325   2.218   1.922   0.995 -0.1892 -0.2565 -0.5507
 7231SOL    HW133326   2.247   1.999   1.044 -0.1547 -0.9718  0.5498
 7231SOL    HW233327   2.197   1.952   0.906 -0.4385 -1.5876 -0.9459
 7232SOL     OW33328   2.726   2.696  10.605  0.0022  0.5536  0.0964
 7232SOL    HW133329   2.635   2.701  10.574  0.4363 -3.3800 -1.8064
 7232SOL    HW233330   2.719   2.770  10.665  1.4740  1.2379 -0.5873
 7233SOL     OW33331   0.583   4.600   6.416 -0.1402  0.0272 -0.5310
 7233SOL    HW133332   0.565   4.565   6.504  0.0623  3.6230  0.9467
 7233SOL    HW233333   0.636   4.534   6.372 -1.6629 -0.5952 -1.4264
 7234SOL     OW33334   4.437   1.246  10.863  0.9742  0.1848 -0.0198
 7234SOL    HW133335   4.407   1.275  10.949 -0.1390  2.2296 -1.0900
 7234SOL    HW233336   4.425   1.154  10.884  0.4731  0.6303  1.6052
 7235SOL     OW33337   2.251   1.882   2.837 -1.0941  0.0506 -0.0337
 7235SOL    HW133338   2.244   1.853   2.928 -0.6356  2.2363  0.6810
 7235SOL    HW233339   2.332   1.931   2.832 -2.3086  1.9961 -0.5720
 7236SOL     OW33340   2.905   0.146   4.492 -0.7883 -0.3815  0.1236
 7236SOL    HW133341   2.899   0.229   4.539 -0.7372  0.7981 -1.9853
 7236SOL    HW233342   2.978   0.164   4.433  1.2338  0.6598  2.9185
 7237SOL     OW33343   4.295   2.239   8.953 -0.4615  0.6530  0.4175
 7237SOL    HW133344   4.289   2.186   8.873  3.7418 -0.8424  1.1055
 7237SOL    HW233345   4.269   2.166   9.009  2.1235  0.1996  1.0110
 7238SOL     OW33346   1.287   3.127   0.812 -0.0508  0.5128  0.3293
 7238SOL    HW133347   1.266   3.079   0.892 -0.1582  0.6865  0.4043
 7238SOL    HW233348   1.221   3.094   0.752 -0.3837  0.6763  0.6070
 7239SOL     OW33349   3.231   2.856   5.583 -0.3254  0.0692 -0.3318
 7239SOL    HW133350   3.224   2.833   5.676  0.7224 -0.3300 -0.3500
 7239SOL    HW233351   3.314   2.902   5.573 -0.1609 -0.5180 -1.7179
 7240SOL     OW33352   1.706   2.715   5.921  0.2563 -0.0245  0.7501
 7240SOL    HW133353   1.617   2.749   5.907 -0.2818 -2.1218 -0.9081
 7240SOL    HW233354   1.702   2.625   5.890 -0.6883  1.0970 -2.3116
 7241SOL     OW33355   0.364   3.184  16.248 -0.5027  0.6604 -0.2512
 7241SOL    HW133356   0.314   3.155  16.325  1.5869 -2.0406  0.1055
 7241SOL    HW233357   0.391   3.274  16.266 -1.9125  0.7934  1.2769
 7242SOL     OW33358   4.267   1.570   9.329  0.2061 -0.3877 -0.1617
 7242SOL    HW133359   4.363   1.563   9.329  0.3885  2.2934  0.4582
 7242SOL    HW233360   4.235   1.486   9.363 -1.1534  0.5359  0.8229
 7243SOL     OW33361   0.827   2.434   3.693  0.6322 -0.0642 -0.5960
 7243SOL    HW133362   0.794   2.393   3.613  0.3242 -1.1791  0.0992
 7243SOL    HW233363   0.836   2.527   3.672 -0.0131  0.7089  2.5157
 7244SOL     OW33364   4.690   2.977   4.069  0.0342 -0.3406 -0.5105
 7244SOL    HW133365   4.693   3.058   4.016 -2.3703 -0.1762 -0.4132
 7244SOL    HW233366   4.642   3.014   4.143  0.4336 -0.1835 -0.3322
 7245SOL     OW33367   0.789   3.813   4.832  0.6320 -0.4632 -0.2810
 7245SOL    HW133368   0.770   3.739   4.888  0.3656 -0.9368 -1.0012
 7245SOL    HW233369   0.872   3.844   4.867  0.5435 -0.1365 -0.3536
 7246SOL     OW33370   1.560   2.331   5.019  0.0878 -0.5079 -0.2895
 7246SOL    HW133371   1.566   2.358   5.111  0.0383 -0.1719 -0.3854
 7246SOL    HW233372   1.598   2.400   4.965  0.4075 -1.9572 -1.9353
 7247SOL     OW33373   4.586   3.987   3.190 -0.4355  0.0833 -0.4765
 7247SOL    HW133374   4.530   4.014   3.118  0.0656 -1.5198 -1.4800
 7247SOL    HW233375   4.642   4.063   3.205 -1.3916  0.5691  0.5807
 7248SOL     OW33376   4.654   4.682   9.554  0.0003 -0.0399  0.0008
 7248SOL    HW133377   4.645   0.040   9.546 -2.0368 -0.3501 -1.4638
 7248SOL    HW233378   4.694   4.664   9.469 -0.5132 -0.1181 -0.2254
 7249SOL     OW33379   4.003   0.555   9.422 -0.0735  0.0484  0.9924
 7249SOL    HW133380   4.098   0.542   9.417 -0.2220 -1.2791  1.4960
 7249SOL    HW233381   3.972   0.479   9.373 -2.8714  0.1139  2.6312
 7250SOL     OW33382   4.487   4.213   6.564 -0.1588  0.0589 -0.3050
 7250SOL    HW133383   4.540   4.262   6.626 -3.2862  2.7787  0.2018
 7250SOL    HW233384   4.514   4.261   6.486 -1.0983 -2.2758 -2.0631
 7251SOL     OW33385   0.510   3.740  10.464 -0.0931  0.6793  0.1518
 7251SOL    HW133386   0.580   3.678  10.488 -1.6251 -1.1032 -0.0387
 7251SOL    HW233387   0.437   3.694  10.505 -1.6173  1.2359 -1.9421
 7252SOL     OW33388   3.378   0.821  11.928 -0.5144  0.0505  0.2697
 7252SOL    HW133389   3.452   0.880  11.942 -1.4128  1.3442 -0.4909
 7252SOL    HW233390   3.371   0.771  12.009  4.0577 -2.5731 -0.9606
 7253SOL     OW33391   3.072   3.895   2.250 -0.3714  0.0980 -0.1435
 7253SOL    HW133392   3.153   3.938   2.278 -0.1218 -0.4966  0.0542
 7253SOL    HW233393   3.041   3.846   2.326 -0.2572  1.8740  1.0467
 7254SOL     OW33394   1.068   3.741   0.337 -0.6600  0.0455 -0.2228
 7254SOL    HW133395   1.156   3.776   0.354  0.1628 -1.9059 -0.5022
 7254SOL    HW233396   1.054   3.710   0.426 -2.3316 -1.0557 -0.8690
 7255SOL     OW33397   0.124   1.566  17.060  0.0134 -0.2036 -0.3585
 7255SOL    HW133398   0.186   1.556  17.132 -0.2969  3.9013  0.4636
 7255SOL    HW233399   0.104   1.472  17.063 -4.1950  0.6809 -1.3672
 7256SOL     OW33400   3.821   2.392   6.682 -0.1202  0.0432  0.2209
 7256SOL    HW133401   3.729   2.402   6.659  0.4619  0.6508 -1.9394
 7256SOL    HW233402   3.825   2.462   6.747 -0.0658  1.2116 -1.0326
 7257SOL     OW33403   1.504   1.672   8.184 -0.0432  0.0657  0.3116
 7257SOL    HW133404   1.552   1.718   8.115 -3.5443  0.8436 -1.5925
 7257SOL    HW233405   1.461   1.749   8.224 -0.1514  0.0535  0.2188
 7258SOL     OW33406   1.059   3.761   3.156  0.2440 -0.0870 -0.1138
 7258SOL    HW133407   1.088   3.835   3.103 -0.5400 -0.8145 -1.5527
 7258SOL    HW233408   0.997   3.718   3.098 -0.3866  1.4199 -0.5459
 7259SOL     OW33409   3.873   3.719  12.812 -0.0285  0.2774 -0.4095
 7259SOL    HW133410   3.785   3.695  12.784 -0.0626  0.0156 -0.0694
 7259SOL    HW233411   3.924   3.639  12.822 -1.0534 -0.5057 -1.4461
 7260SOL     OW33412   4.087   4.070  14.503  0.1498  0.0648 -0.3572
 7260SOL    HW133413   4.131   3.991  14.472 -1.4734 -1.8522  2.1515
 7260SOL    HW233414   4.128   4.082  14.588 -0.8516 -0.6011  0.2304
 7261SOL     OW33415   4.719   2.550   2.050  0.0686 -0.1951 -0.3539
 7261SOL    HW133416   0.055   2.571   2.108 -0.2350  1.4923 -0.5686
 7261SOL    HW233417   4.639   2.554   2.103 -0.0898 -4.4915 -0.2771
 7262SOL     OW33418   4.166   1.652   7.436 -0.0625 -0.4420  0.3277
 7262SOL    HW133419   4.168   1.723   7.372  0.7742  2.2225  3.3123
 7262SOL    HW233420   4.172   1.705   7.516  1.0951  2.2535 -1.5430
 7263SOL     OW33421   2.685   3.329  14.100 -0.6012  0.1288  0.5340
 7263SOL    HW133422   2.648   3.246  14.069 -1.7396  1.3316 -1.2853
 7263SOL    HW233423   2.774   3.298  14.114 -0.0602  1.4439 -0.0422
 7264SOL     OW33424   3.220   3.358   7.412  0.3807 -0.4645  0.2293
 7264SOL    HW133425   3.261   3.385   7.330  1.5467 -0.0356  0.9492
 7264SOL    HW233426   3.248   3.428   7.472 -1.1798  1.5801 -1.4173
 7265SOL     OW33427   2.500   3.649   8.676 -0.3069  0.6239  0.3804
 7265SOL    HW133428   2.436   3.720   8.682  0.0620  1.0276 -0.4713
 7265SOL    HW233429   2.582   3.690   8.703 -0.2566  1.6019 -1.2482
 7266SOL     OW33430   2.871   1.210   1.145 -0.1121  0.2303 -0.5819
 7266SOL    HW133431   2.928   1.250   1.211  2.0982 -0.8998 -1.8337
 7266SOL    HW233432   2.867   1.268   1.069  0.3248  1.2321  0.1540
 7267SOL     OW33433   0.965   2.344   8.067 -0.0354 -0.0472 -0.1308
 7267SOL    HW133434   1.040   2.370   8.015 -0.0261 -0.6303 -0.4115
 7267SOL    HW233435   0.970   2.414   8.131 -0.7599 -1.7082  1.7637
 7268SOL     OW33436   3.379   3.238   2.843 -0.2772 -0.1618 -0.2219
 7268SOL    HW133437   3.322   3.181   2.894 -0.2293 -1.4447 -1.5940
 7268SOL    HW233438   3.327   3.265   2.768  0.2209 -2.1115 -1.2779
 7269SOL     OW33439   3.989   1.461   4.975 -0.3188 -0.1620 -0.9514
 7269SOL    HW133440   3.917   1.485   5.034  0.2371  0.0765 -0.3744
 7269SOL    HW233441   4.056   1.511   5.022 -1.1551  0.5064 -0.4510
 7270SOL     OW33442   0.364   3.622   7.674  0.1608  0.5456 -0.2058
 7270SOL    HW133443   0.285   3.569   7.670  0.8712 -0.4492 -1.1319
 7270SOL    HW233444   0.430   3.553   7.685 -0.0562  0.1107 -1.6122
 7271SOL     OW33445   4.547   3.351   4.300  0.1128  0.0693 -0.1199
 7271SOL    HW133446   4.622   3.355   4.241  0.6955 -0.5453  0.5912
 7271SOL    HW233447   4.522   3.259   4.297 -1.1355  0.3736  1.0588
 7272SOL     OW33448   1.147   3.909   4.297  0.2788 -0.1942 -0.4949
 7272SOL    HW133449   1.197   3.889   4.376 -1.5482 -0.0540  0.6971
 7272SOL    HW233450   1.075   3.847   4.287  0.7703 -0.2578 -3.6497
 7273SOL     OW33451   2.117   1.402   1.533  0.1790  0.1371 -0.6216
 7273SOL    HW133452   2.104   1.488   1.492 -1.5657  0.2994  0.2758
 7273SOL    HW233453   2.080   1.346   1.464  1.3849 -0.0267 -1.1420
 7274SOL     OW33454   0.167   4.482   4.763 -0.7705 -0.1138 -0.3377
 7274SOL    HW133455   0.203   4.555   4.814  0.3747 -0.1943 -1.0191
 7274SOL    HW233456   0.078   4.467   4.794 -0.8818 -0.3702 -0.7750
 7275SOL     OW33457   1.795   1.677   8.320 -0.1767  0.0112  0.1856
 7275SOL    HW133458   1.727   1.667   8.254 -1.5390  1.4966  1.3364
 7275SOL    HW233459   1.868   1.637   8.272 -0.4453  0.1255 -0.3170
 7276SOL     OW33460   3.747   0.363   9.320 -0.2764  0.1058  0.1622
 7276SOL    HW133461   3.659   0.352   9.356  0.3030 -1.0013  1.2842
 7276SOL    HW233462   3.751   0.288   9.261 -0.0438  0.3637 -0.1489
 7277SOL     OW33463   2.801   4.491  12.163  1.0281  0.1493  0.2699
 7277SOL    HW133464   2.744   4.419  12.137 -2.0079  2.3498  0.8707
 7277SOL    HW233465   2.753   4.569  12.134  3.0488  1.5115  0.5862
 7278SOL     OW33466   3.609   2.708  12.555  0.3878  0.4473 -0.3419
 7278SOL    HW133467   3.671   2.656  12.607 -0.5555 -1.3729 -1.0472
 7278SOL    HW233468   3.541   2.641  12.541 -0.4882  1.3327 -0.3322
 7279SOL     OW33469   4.471   2.688   5.076  0.8876  0.3439  0.3402
 7279SOL    HW133470   4.485   2.625   5.005  1.6171  0.2196  0.5907
 7279SOL    HW233471   4.535   2.754   5.051  2.6950 -1.4827  0.1795
 7280SOL     OW33472   3.608   3.004  10.282  0.5748  0.0504  0.3060
 7280SOL    HW133473   3.588   3.062  10.208 -0.8847  0.1536  0.7872
 7280SOL    HW233474   3.522   3.007  10.324 -0.5783 -1.3478 -1.9115
 7281SOL     OW33475   3.831   3.285   4.304 -0.7514  0.8390  0.2684
 7281SOL    HW133476   3.743   3.254   4.323 -1.1381  2.1237  0.5448
 7281SOL    HW233477   3.865   3.322   4.386  1.4518  0.6761 -0.5532
 7282SOL     OW33478   0.777   4.154   7.712  0.3753  0.1998 -0.3877
 7282SOL    HW133479   0.793   4.144   7.806  2.0074  2.3946 -0.4252
 7282SOL    HW233480   0.721   4.232   7.704 -2.6376 -2.0911 -1.6845
 7283SOL     OW33481   4.092   0.963   9.351  0.0804 -0.5644  0.1540
 7283SOL    HW133482   4.004   0.974   9.387 -0.4906 -1.7060 -0.8879
 7283SOL    HW233483   4.133   0.897   9.408  0.6354 -1.1544 -0.9231
 7284SOL     OW33484   2.044   1.687   4.924 -0.6556 -0.1542  0.3953
 7284SOL    HW133485   2.014   1.759   4.980  0.3432 -0.3821  1.2161
 7284SOL    HW233486   2.021   1.719   4.837 -2.3045  0.3559  1.0069
 7285SOL     OW33487   2.272   4.170   1.733 -0.1364 -0.8856  0.0755
 7285SOL    HW133488   2.290   4.168   1.827 -0.3479  2.2347  0.1652
 7285SOL    HW233489   2.191   4.120   1.723 -0.9349  0.1899  1.2337
 7286SOL     OW33490   1.923   3.023   3.173  0.1102  0.3768 -0.0526
 7286SOL    HW133491   1.987   2.958   3.202  0.9333  0.4629 -1.6630
 7286SOL    HW233492   1.956   3.062   3.092 -0.1808  0.9825  0.1180
 7287SOL     OW33493   0.723   4.497  15.193 -0.2448  0.2071 -0.1683
 7287SOL    HW133494   0.753   4.564  15.256 -0.4222  1.4693 -1.4354
 7287SOL    HW233495   0.655   4.542  15.144  0.0868 -1.2540 -1.9550
 7288SOL     OW33496   0.679   2.744  11.940 -0.0021  0.5434  0.1627
 7288SOL    HW133497   0.771   2.770  11.932  0.4958 -0.9027  1.0080
 7288SOL    HW233498   0.690   2.657  11.901 -0.9274 -0.1322  1.4047
 7289SOL     OW33499   0.349   0.170   4.257 -0.3221  0.5909  0.2447
 7289SOL    HW133500   0.380   0.251   4.298  1.4391  0.7068 -1.2704
 7289SOL    HW233501   0.427   0.121   4.232 -0.6103 -0.1972  0.8874
 7290SOL     OW33502   2.235   1.438   9.903 -0.3793  0.1142  0.5940
 7290SOL    HW133503   2.233   1.379   9.978 -1.0715 -2.0298 -1.1219
 7290SOL    HW233504   2.326   1.425   9.874 -0.7108  0.6932 -0.7256
 7291SOL     OW33505   2.835   3.239   6.130 -0.2188 -0.0666 -0.4157
 7291SOL    HW133506   2.864   3.168   6.073  1.3352  1.3996 -1.4914
 7291SOL    HW233507   2.782   3.292   6.070 -3.0100  0.2499  2.3269
 7292SOL     OW33508   0.554   3.848   1.392 -0.1947 -0.3267 -0.0437
 7292SOL    HW133509   0.586   3.759   1.407  1.1632  0.0332 -0.8169
 7292SOL    HW233510   0.582   3.859   1.301  0.6414  1.7236  0.4863
 7293SOL     OW33511   2.635   1.844   3.124 -0.0975 -0.9422 -0.2852
 7293SOL    HW133512   2.645   1.845   3.029 -0.4892 -2.0709 -0.3454
 7293SOL    HW233513   2.597   1.756   3.131  0.6750 -1.4351 -2.4350
 7294SOL     OW33514   1.906   0.986   6.166 -0.5305 -0.0618  0.3490
 7294SOL    HW133515   1.892   1.072   6.206 -1.0283  0.7256 -1.5062
 7294SOL    HW233516   1.818   0.950   6.172 -0.8648  0.5390 -0.9366
 7295SOL     OW33517   1.000   2.024   8.500 -0.0230  0.0308  0.4737
 7295SOL    HW133518   1.023   1.998   8.411  0.0862 -2.5371  1.2515
 7295SOL    HW233519   1.030   2.115   8.498 -0.2946  0.0651 -1.8694
 7296SOL     OW33520   1.980   4.638   5.077 -0.1265  0.7919 -0.3262
 7296SOL    HW133521   2.071   4.632   5.109 -0.2970 -1.7991 -0.2649
 7296SOL    HW233522   1.940   4.580   5.142 -0.8336 -0.5391 -1.9507
 7297SOL     OW33523   0.287   4.400   7.103  0.6523 -0.1702 -0.1230
 7297SOL    HW133524   0.252   4.489   7.102 -0.2110 -0.4653  3.1251
 7297SOL    HW233525   0.267   4.379   7.012  1.1865  2.0916 -0.7718
 7298SOL     OW33526   0.277   3.394  10.497 -0.1460  0.1137 -0.6419
 7298SOL    HW133527   0.263   3.486  10.521  0.2966  0.0881 -0.2790
 7298SOL    HW233528   0.372   3.388  10.482  0.1701  2.8918  0.1870
 7299SOL     OW33529   3.135   0.921   4.339 -0.1732  0.6939  0.6754
 7299SOL    HW133530   3.225   0.895   4.356  0.9803  2.4152 -2.9135
 7299SOL    HW233531   3.129   0.932   4.244 -0.8089 -1.9069  0.4101
 7300SOL     OW33532   3.879   3.027   2.624 -0.6235 -0.2314  0.3058
 7300SOL    HW133533   3.786   3.011   2.643 -1.2529 -0.4877 -2.9864
 7300SOL    HW233534   3.909   2.956   2.680 -0.0619 -0.6778 -0.5588
 7301SOL     OW33535   0.664   3.066   3.204  0.4895 -0.0613  0.2699
 7301SOL    HW133536   0.754   3.077   3.235  1.1742 -1.1514 -1.3090
 7301SOL    HW233537   0.611   3.063   3.283 -0.9428  0.8949 -0.6720
 7302SOL     OW33538   4.428   1.355   3.080 -0.8064  0.4267 -0.2064
 7302SOL    HW133539   4.345   1.310   3.063 -1.5969  2.0718 -0.7243
 7302SOL    HW233540   4.400   1.403   3.158 -0.5898  0.6050 -0.2383
 7303SOL     OW33541   1.328   3.467   8.903  0.3265  0.3938 -0.0504
 7303SOL    HW133542   1.332   3.371   8.907  1.9558  0.4977  0.5760
 7303SOL    HW233543   1.390   3.482   8.832 -1.4976  0.6122 -1.6003
 7304SOL     OW33544   3.526   1.245  15.291  0.3784 -0.1924 -0.4578
 7304SOL    HW133545   3.564   1.261  15.204 -1.4266  0.1454 -1.1780
 7304SOL    HW233546   3.456   1.311  15.291 -0.8147 -1.4819  1.1939
 7305SOL     OW33547   4.580   1.489   2.444 -0.0462  0.0102  0.2878
 7305SOL    HW133548   4.523   1.416   2.418  0.1269  0.2667 -0.8291
 7305SOL    HW233549   4.668   1.452   2.435 -0.1803 -0.8676  2.5352
 7306SOL     OW33550   4.441   3.581   4.367 -0.5271  0.3200 -0.4141
 7306SOL    HW133551   4.473   3.494   4.343 -0.0005 -0.1970  2.2273
 7306SOL    HW233552   4.472   3.582   4.457  3.3385  0.1290 -1.7193
 7307SOL     OW33553   3.251   1.184   8.488  1.1577 -0.4259 -0.1376
 7307SOL    HW133554   3.258   1.095   8.453  0.1358 -0.8903  0.8173
 7307SOL    HW233555   3.338   1.219   8.472  1.3534 -0.6945  0.3411
 7308SOL     OW33556   2.153   3.906   4.068  0.0894 -0.0377 -0.0141
 7308SOL    HW133557   2.182   3.877   3.982  0.1615  2.2376 -0.7579
 7308SOL    HW233558   2.188   3.995   4.068 -0.2918  0.1127 -2.5651
 7309SOL     OW33559   0.451   1.403   4.600 -0.2001 -0.5564 -0.5678
 7309SOL    HW133560   0.519   1.469   4.587 -0.8381 -0.1519 -1.9550
 7309SOL    HW233561   0.464   1.337   4.531  0.5730 -0.0109 -0.9509
 7310SOL     OW33562   3.777   2.482  14.286  0.5739 -0.5061 -0.1781
 7310SOL    HW133563   3.769   2.398  14.330 -1.8185 -0.2526 -0.1061
 7310SOL    HW233564   3.726   2.477  14.205  0.3325 -0.2360 -0.0454
 7311SOL     OW33565   1.003   2.958   4.330 -0.1969  0.0126 -0.5473
 7311SOL    HW133566   0.963   2.958   4.243  0.9368  1.2845 -1.0647
 7311SOL    HW233567   1.079   3.012   4.310 -1.3647  2.8237  2.6180
 7312SOL     OW33568   4.007   3.523   8.239 -0.6705 -0.0703 -0.7291
 7312SOL    HW133569   4.097   3.555   8.233 -0.4628 -0.0168  2.6662
 7312SOL    HW233570   4.009   3.467   8.317  0.7292  1.7027  0.5328
 7313SOL     OW33571   3.574   3.386  16.973 -0.1815  0.2046  0.4240
 7313SOL    HW133572   3.656   3.433  16.953 -0.4851 -1.1363 -4.0512
 7313SOL    HW233573   3.592   3.356  17.062  2.1391  0.5683  0.0781
 7314SOL     OW33574   3.083   1.619   1.870  0.0480 -0.4759 -0.4615
 7314SOL    HW133575   3.067   1.608   1.963 -1.2435 -1.0659 -0.7594
 7314SOL    HW233576   2.997   1.617   1.828 -0.9361  1.8345  1.4796
 7315SOL     OW33577   4.554   1.742  10.134  0.0885 -0.4646  0.5383
 7315SOL    HW133578   4.504   1.671  10.175 -0.3815 -0.6151 -0.3032
 7315SOL    HW233579   4.495   1.759  10.061  0.9810  0.8672  0.1322
 7316SOL     OW33580   3.917   0.817   2.098  0.1835 -0.3289 -0.1695
 7316SOL    HW133581   3.999   0.768   2.094  0.9675  0.9707 -0.0630
 7316SOL    HW233582   3.858   0.756   2.142 -1.1670  0.9666 -0.1936
 7317SOL     OW33583   1.568   3.293   7.008 -0.0458  0.0633 -0.1627
 7317SOL    HW133584   1.627   3.360   7.045  0.3105 -1.5950  2.2842
 7317SOL    HW233585   1.609   3.208   7.016  1.0086  0.6976  1.2453
 7318SOL     OW33586   4.674   3.621  15.534 -0.3716 -0.1484 -0.0322
 7318SOL    HW133587   4.683   3.597  15.441 -0.3683  2.8208 -0.8064
 7318SOL    HW233588   4.581   3.619  15.555  0.0404 -2.0260  1.5865
 7319SOL     OW33589   0.568   3.074   7.502  0.2736  0.1810 -0.2902
 7319SOL    HW133590   0.629   3.039   7.568 -1.0482  0.7880  1.2698
 7319SOL    HW233591   0.510   2.998   7.503  0.5599 -0.0321  0.7397
 7320SOL     OW33592   1.262   4.528   5.362  0.2737 -0.2070  0.1178
 7320SOL    HW133593   1.175   4.497   5.388 -0.9157  1.3385 -2.0341
 7320SOL    HW233594   1.234   4.566   5.278 -0.7449 -0.8664  0.1547
 7321SOL     OW33595   2.182   1.800   3.386 -0.3141 -0.7191  0.1448
 7321SOL    HW133596   2.218   1.714   3.408 -2.2111 -1.7950 -0.9223
 7321SOL    HW233597   2.251   1.856   3.422 -1.4876  0.6889  0.2102
 7322SOL     OW33598   1.159   1.004   8.410  0.4994  0.2159  0.6331
 7322SOL    HW133599   1.222   0.937   8.437 -0.4047 -0.3160  1.4289
 7322SOL    HW233600   1.209   1.083   8.393 -0.1040  0.2942 -0.7341
 7323SOL     OW33601   3.146   2.608   7.431  0.2083  0.1713 -0.1842
 7323SOL    HW133602   3.202   2.653   7.494  1.9498 -0.2066 -1.4858
 7323SOL    HW233603   3.174   2.620   7.341 -3.4307 -0.3741 -1.3896
 7324SOL     OW33604   4.410   4.423   3.384 -0.3257  0.6335  0.4687
 7324SOL    HW133605   4.386   4.515   3.396  1.6329  1.2417 -0.3506
 7324SOL    HW233606   4.506   4.420   3.385 -0.3102  1.4659  1.6522
 7325SOL     OW33607   0.129   0.098   2.529 -0.3656  0.1371  0.1603
 7325SOL    HW133608   0.090   0.025   2.577  0.5443 -0.0582  0.6115
 7325SOL    HW233609   0.050   0.140   2.497 -0.0675  0.7871  0.2571
 7326SOL     OW33610   3.688   4.168  10.935  0.0502 -0.1784 -0.3393
 7326SOL    HW133611   3.770   4.183  10.888  0.8802 -0.1706  1.1387
 7326SOL    HW233612   3.625   4.134  10.871  0.0769  1.6384 -1.3437
 7327SOL     OW33613   1.837   0.576   5.341 -0.3629 -0.2071 -0.0477
 7327SOL    HW133614   1.822   0.497   5.393  2.6259 -0.7823 -0.0853
 7327SOL    HW233615   1.926   0.570   5.306  0.1169  0.0741  1.1108
 7328SOL     OW33616   3.668   2.998  17.315 -0.2770 -0.4762  0.0048
 7328SOL    HW133617   3.656   2.922  17.372 -0.4491 -0.6750 -0.2949
 7328SOL    HW233618   3.758   2.992  17.282 -0.1012  1.7643  0.0512
 7329SOL     OW33619   3.419   4.241   7.197  0.3213 -0.5993  0.1444
 7329SOL    HW133620   3.335   4.227   7.153 -0.9244  0.6938  2.0906
 7329SOL    HW233621   3.437   4.332   7.173  0.0096 -0.8604 -1.1077
 7330SOL     OW33622   2.531   0.983   8.284  0.0036  0.0417 -0.0843
 7330SOL    HW133623   2.475   0.966   8.360  1.7682 -1.7177  0.8011
 7330SOL    HW233624   2.612   0.939   8.311 -0.9471 -1.7972 -0.2381
 7331SOL     OW33625   3.329   4.135   8.405  0.5724 -0.3301 -0.0894
 7331SOL    HW133626   3.352   4.072   8.474 -0.4588  0.4559  0.9823
 7331SOL    HW233627   3.353   4.087   8.327 -0.8111 -3.0516  1.1779
 7332SOL     OW33628   2.225   4.624   9.552  0.9725  0.1497 -0.1502
 7332SOL    HW133629   2.207   4.532   9.531  0.5494  0.0737  0.5811
 7332SOL    HW233630   2.230   4.658   9.462  1.6058 -1.2315 -0.6405
 7333SOL     OW33631   1.394   3.034   2.743 -0.2060 -0.0172  0.2892
 7333SOL    HW133632   1.458   2.969   2.771  0.2352  0.4846  0.4579
 7333SOL    HW233633   1.322   2.975   2.761 -0.0377 -0.5389 -0.7774
 7334SOL     OW33634   1.772   1.052   7.966  0.1557  0.1097 -0.0702
 7334SOL    HW133635   1.711   1.032   7.895  2.9027 -0.5042 -2.2493
 7334SOL    HW233636   1.813   0.966   7.980  0.3083  0.0088 -1.1204
 7335SOL     OW33637   2.408   2.555  14.196 -0.1425 -0.5954 -0.0872
 7335SOL    HW133638   2.399   2.474  14.145  2.8367 -0.6765 -0.4613
 7335SOL    HW233639   2.487   2.541  14.248  0.0852  0.5469 -0.1298
 7336SOL     OW33640   4.342   4.160   3.589  0.0735 -0.8215  0.0366
 7336SOL    HW133641   4.272   4.206   3.543  0.1263 -0.2999  0.4771
 7336SOL    HW233642   4.341   4.072   3.553  0.3512 -0.5115 -0.7417
 7337SOL     OW33643   3.344   0.821  15.524  0.4559 -0.0868 -0.4121
 7337SOL    HW133644   3.352   0.842  15.432 -1.3452  1.5896 -0.1773
 7337SOL    HW233645   3.359   0.728  15.541 -0.5381  0.0107  1.0240
 7338SOL     OW33646   4.516   0.430   3.661 -0.4115 -0.2552 -0.1444
 7338SOL    HW133647   4.498   0.416   3.754 -0.4170  0.8411  0.0126
 7338SOL    HW233648   4.566   0.510   3.670 -1.7578  0.4079  1.3620
 7339SOL     OW33649   4.384   2.636   6.615 -0.1312  0.1062 -0.8604
 7339SOL    HW133650   4.317   2.705   6.615  0.8163  1.0332  0.0279
 7339SOL    HW233651   4.468   2.681   6.602 -0.3401  0.0912 -2.2741
 7340SOL     OW33652   0.488   2.892  10.710  0.1634 -0.4727 -0.0805
 7340SOL    HW133653   0.515   2.984  10.703  1.1483 -0.8436 -1.0429
 7340SOL    HW233654   0.556   2.853  10.655  0.8855  1.0746 -0.2948
 7341SOL     OW33655   2.055   0.901   2.343 -0.0731  0.5800  0.1268
 7341SOL    HW133656   1.995   0.917   2.415 -0.0277  2.0451 -0.1548
 7341SOL    HW233657   2.066   0.807   2.358 -1.6930  0.7583  2.2774
 7342SOL     OW33658   3.181   2.477   2.803 -0.3986 -0.5624 -0.3853
 7342SOL    HW133659   3.162   2.444   2.891  0.9046 -0.8681 -0.2234
 7342SOL    HW233660   3.150   2.403   2.750 -1.1587 -0.0170 -0.7096
 7343SOL     OW33661   0.915   2.936  17.334 -0.0762 -0.6377 -0.5638
 7343SOL    HW133662   0.964   3.006  17.291  0.1811 -0.4242  0.0781
 7343SOL    HW233663   0.946   2.947  17.424 -1.0248  1.6605 -0.5137
 7344SOL     OW33664   3.294   3.125   8.725  0.1496 -0.5649  0.2576
 7344SOL    HW133665   3.293   3.111   8.631  0.3466  0.0469  0.1675
 7344SOL    HW233666   3.216   3.079   8.758  0.1045 -1.3061 -0.8737
 7345SOL     OW33667   1.339   2.795  10.197  0.1259 -0.6793 -0.6481
 7345SOL    HW133668   1.364   2.709  10.231  1.4272  0.8386  2.2517
 7345SOL    HW233669   1.270   2.769  10.136  0.5504  0.2194 -1.4949
 7346SOL     OW33670   2.434   4.201   4.901 -0.3321 -0.6162  0.3401
 7346SOL    HW133671   2.366   4.259   4.866  2.0941  3.1721  1.9339
 7346SOL    HW233672   2.486   4.180   4.823  0.8873  2.4668  0.3250
 7347SOL     OW33673   4.269   0.023   4.366  0.0964 -0.0353  0.1625
 7347SOL    HW133674   4.365   0.023   4.359 -0.0470  2.5078 -1.9853
 7347SOL    HW233675   4.256   0.097   4.425  1.8115  0.6456 -0.3021
 7348SOL     OW33676   1.151   1.310   2.526 -0.5984 -0.6002  0.0880
 7348SOL    HW133677   1.151   1.226   2.480 -1.1336 -0.5267 -0.0461
 7348SOL    HW233678   1.077   1.358   2.489 -0.5001 -0.9542 -0.5764
 7349SOL     OW33679   2.104   0.691  16.218  0.4532 -0.1035  0.2590
 7349SOL    HW133680   2.141   0.778  16.234  1.8725 -1.0311  1.9299
 7349SOL    HW233681   2.175   0.652  16.167  2.3096  2.0075  1.2062
 7350SOL     OW33682   1.355   3.660   1.513  0.3803  0.0316  0.0863
 7350SOL    HW133683   1.287   3.592   1.515  0.0151  0.3348 -1.9980
 7350SOL    HW233684   1.389   3.649   1.425  2.9474  2.2044  0.8134
 7351SOL     OW33685   0.414   0.538  17.370 -0.6505  0.6807 -0.0110
 7351SOL    HW133686   0.400   0.487  17.290 -2.0873  1.0116  0.0163
 7351SOL    HW233687   0.394   0.484  17.446  1.7762  0.6252  0.5795
 7352SOL     OW33688   0.269   1.906   9.207  0.0869  0.2065 -0.1023
 7352SOL    HW133689   0.357   1.893   9.173 -1.3594 -0.6604 -3.4772
 7352SOL    HW233690   0.222   1.832   9.167  0.7949 -1.1076  1.5070
 7353SOL     OW33691   3.908   1.890   6.848 -0.0476 -0.2086  0.3005
 7353SOL    HW133692   3.913   1.982   6.820 -1.0940 -0.1944  0.1542
 7353SOL    HW233693   3.827   1.858   6.807 -1.1959 -1.0627  3.2287
 7354SOL     OW33694   3.383   0.715  14.253  0.3834  0.0934  0.1022
 7354SOL    HW133695   3.337   0.719  14.169 -0.2547  3.1401  0.5867
 7354SOL    HW233696   3.455   0.773  14.228  1.3400 -0.8590  0.6434
 7355SOL     OW33697   4.375   4.455  12.427  0.3224 -0.5991  0.2706
 7355SOL    HW133698   4.341   4.544  12.438 -2.7462 -1.4562 -2.3287
 7355SOL    HW233699   4.298   4.399  12.437 -1.1152  1.7599  2.5058
 7356SOL     OW33700   3.515   0.715  13.391 -0.3931 -0.0285 -1.0090
 7356SOL    HW133701   3.444   0.713  13.327  0.4262 -0.1283 -1.9223
 7356SOL    HW233702   3.550   0.798  13.360 -0.3041  1.0712  2.1053
 7357SOL     OW33703   1.627   2.469  13.209 -0.1462  0.2484 -0.8850
 7357SOL    HW133704   1.701   2.409  13.217 -0.1109  0.3020 -0.8071
 7357SOL    HW233705   1.665   2.542  13.257 -2.2053  0.1742  0.8779
 7358SOL     OW33706   4.648   2.443   3.992  0.1181  0.4896 -0.2752
 7358SOL    HW133707   4.729   2.448   3.940  1.0543  0.7545  1.2077
 7358SOL    HW233708   4.614   2.532   3.982 -2.2866 -0.4003  0.1643
 7359SOL     OW33709   1.552   4.668   3.153 -0.2343 -0.1995  0.1810
 7359SOL    HW133710   1.606   4.692   3.228  0.7187 -3.0425  0.4101
 7359SOL    HW233711   1.613   4.620   3.096  0.2653 -0.0705  0.6097
 7360SOL     OW33712   0.748   0.138   5.277  0.2929  0.3878  0.1294
 7360SOL    HW133713   0.764   0.123   5.370 -0.0109 -0.9222 -0.0290
 7360SOL    HW233714   0.789   0.225   5.269 -2.0403  1.4659 -0.1362
 7361SOL     OW33715   1.192   4.723   9.114 -0.5690  0.0403 -0.6658
 7361SOL    HW133716   1.136   4.708   9.038 -0.7902  1.4418 -0.7683
 7361SOL    HW233717   1.145   0.051   9.165  2.0506 -2.0483  4.4696
 7362SOL     OW33718   2.035   4.523   6.714  0.3514 -0.3137  0.2694
 7362SOL    HW133719   2.009   4.449   6.659 -0.1789  0.6719 -0.8041
 7362SOL    HW233720   2.129   4.513   6.728  0.2121  0.0696  1.4554
 7363SOL     OW33721   1.701   3.529   0.548 -0.1642  0.2574 -0.5597
 7363SOL    HW133722   1.763   3.487   0.607 -0.1781  1.3006  0.1862
 7363SOL    HW233723   1.750   3.522   0.466 -1.6824  0.4843 -1.4993
 7364SOL     OW33724   4.484   2.849  13.103 -0.3975  0.7455  0.1796
 7364SOL    HW133725   4.480   2.754  13.117  0.3116  0.9007  1.4635
 7364SOL    HW233726   4.443   2.858  13.017  0.1577 -0.3939 -0.2075
 7365SOL     OW33727   4.368   4.426   0.919 -0.1658  0.7552  0.1864
 7365SOL    HW133728   4.401   4.463   0.837 -0.6244  1.1507  0.1791
 7365SOL    HW233729   4.322   4.502   0.954  0.0228 -0.4723  3.0894
 7366SOL     OW33730   0.121   0.108  17.094  0.2790 -0.4406  0.2079
 7366SOL    HW133731   0.214   0.086  17.095 -0.1135 -2.1088  0.3068
 7366SOL    HW233732   0.101   0.073  17.007 -0.7762  0.9752 -0.1180
 7367SOL     OW33733   1.637   3.861   1.993  0.2956 -0.2001  0.1882
 7367SOL    HW133734   1.673   3.939   2.037  0.5470 -1.1327  1.6484
 7367SOL    HW233735   1.698   3.857   1.920 -0.9536 -2.1085 -0.7438
 7368SOL     OW33736   1.788   1.382   5.822 -0.1554  0.0307 -0.6223
 7368SOL    HW133737   1.716   1.322   5.801 -0.8980  0.0411  1.8563
 7368SOL    HW233738   1.787   1.370   5.917 -2.6807 -0.3491 -0.6970
 7369SOL     OW33739   1.135   3.947   1.991 -0.5071  0.1913  0.2091
 7369SOL    HW133740   1.134   3.981   1.902 -0.2137  0.8238  0.4465
 7369SOL    HW233741   1.223   3.915   2.010 -0.1388 -0.4764 -2.7563
 7370SOL     OW33742   1.695   3.929   6.717 -0.2297  0.6644  0.2246
 7370SOL    HW133743   1.754   4.004   6.714  0.9469 -0.2095  1.3578
 7370SOL    HW233744   1.746   3.855   6.751 -2.0623 -0.6145  0.1637
 7371SOL     OW33745   1.532   2.579   4.611 -0.3436  0.3593 -0.1524
 7371SOL    HW133746   1.617   2.594   4.569  0.3345 -2.4242  0.2505
 7371SOL    HW233747   1.503   2.670   4.621  0.6902  0.6888 -0.1541
 7372SOL     OW33748   4.136   2.393   5.614  0.1923 -0.1732  0.0987
 7372SOL    HW133749   4.185   2.454   5.669 -0.4345 -1.5816  2.2314
 7372SOL    HW233750   4.189   2.314   5.625  0.3063 -0.0774  0.2503
 7373SOL     OW33751   3.037   2.239   7.646 -0.2813 -0.1908  0.0713
 7373SOL    HW133752   3.100   2.306   7.621 -0.6119 -0.5763 -1.8046
 7373SOL    HW233753   2.993   2.213   7.566 -2.4810  2.6920  0.3798
 7374SOL     OW33754   4.106   2.883   5.852  0.4813 -0.2899  0.9171
 7374SOL    HW133755   4.039   2.942   5.817  0.5285 -2.1183 -2.2550
 7374SOL    HW233756   4.163   2.862   5.778 -1.3567  0.0070 -0.5809
 7375SOL     OW33757   2.284   4.180   3.114 -0.1366  0.9988  0.5316
 7375SOL    HW133758   2.218   4.113   3.125  2.6280 -2.0833 -1.6105
 7375SOL    HW233759   2.360   4.133   3.150 -0.1049  0.0764 -0.7558
 7376SOL     OW33760   3.496   0.401   5.896  0.5777  0.4928  0.2475
 7376SOL    HW133761   3.555   0.446   5.836  1.9232 -0.4902  0.8229
 7376SOL    HW233762   3.422   0.461   5.908 -0.8527 -0.1901 -5.2392
 7377SOL     OW33763   3.839   1.340   5.336 -0.0022 -0.1116 -0.3185
 7377SOL    HW133764   3.851   1.265   5.279  0.2983 -0.6307  0.4222
 7377SOL    HW233765   3.926   1.354   5.372 -0.5303  2.3116  0.0092
 7378SOL     OW33766   4.222   0.640   0.141 -0.1378  0.2662 -0.2660
 7378SOL    HW133767   4.191   0.568   0.086  2.1960 -1.8267  1.1825
 7378SOL    HW233768   4.187   0.611   0.226 -0.6150 -0.9810 -0.8872
 7379SOL     OW33769   1.086   1.207  12.006 -0.1318 -0.0901  0.1651
 7379SOL    HW133770   1.118   1.219  11.917  0.9980 -1.4859  0.3875
 7379SOL    HW233771   1.112   1.290  12.046  0.4193  0.4039 -1.2309
 7380SOL     OW33772   2.475   1.367   0.459 -0.4835  0.6788  0.5030
 7380SOL    HW133773   2.522   1.348   0.377 -1.2830 -0.2794  0.2735
 7380SOL    HW233774   2.431   1.283   0.465 -0.4511  0.4440 -2.4352
 7381SOL     OW33775   4.178   3.487   5.003  0.9561 -0.0740  0.8227
 7381SOL    HW133776   4.273   3.492   5.013  0.8587 -0.7371  2.0572
 7381SOL    HW233777   4.158   3.579   4.985  1.5575  0.4243  2.6967
 7382SOL     OW33778   2.777   0.683   7.641 -0.5391  0.0300 -0.3251
 7382SOL    HW133779   2.697   0.642   7.673  0.3119 -1.0235  0.4352
 7382SOL    HW233780   2.763   0.773   7.673 -3.6261 -0.7537  0.5735
 7383SOL     OW33781   3.735   4.550  11.033  0.3582  0.0627 -0.1837
 7383SOL    HW133782   3.756   4.552  11.127 -0.5990  0.7801  0.0256
 7383SOL    HW233783   3.670   4.618  11.011 -0.5291 -0.5516  0.5394
 7384SOL     OW33784   3.423   1.791   2.470  0.0518 -0.1717  0.3040
 7384SOL    HW133785   3.332   1.813   2.489 -0.2097 -0.5898 -0.4501
 7384SOL    HW233786   3.424   1.806   2.375 -2.2726  0.3839  0.3535
 7385SOL     OW33787   2.556   2.108   3.027 -0.8552  0.3360  0.2660
 7385SOL    HW133788   2.583   2.018   3.043 -0.6002 -0.2099 -3.2358
 7385SOL    HW233789   2.461   2.097   3.032 -0.9081 -0.0608 -1.4409
 7386SOL     OW33790   4.013   3.372   9.348  0.1474 -0.2262 -0.0194
 7386SOL    HW133791   4.081   3.401   9.408  0.3811  0.5248 -0.6419
 7386SOL    HW233792   4.022   3.443   9.284 -0.0507  1.7829  2.1624
 7387SOL     OW33793   0.409   2.917  16.695  0.3322 -0.3770  0.3436
 7387SOL    HW133794   0.435   2.869  16.773 -2.2359 -0.3914  1.1912
 7387SOL    HW233795   0.478   2.982  16.699 -1.4463  1.6459 -1.3519
 7388SOL     OW33796   1.190   1.126  14.774  0.2296  0.3576  0.0959
 7388SOL    HW133797   1.123   1.094  14.713 -1.6261  2.5944  0.9759
 7388SOL    HW233798   1.262   1.064  14.762  0.8244  1.0966 -0.1859
 7389SOL     OW33799   1.235   0.844   3.709  0.4942  0.4992  0.3649
 7389SOL    HW133800   1.220   0.788   3.785  0.1078  1.9571  1.3733
 7389SOL    HW233801   1.228   0.779   3.639 -0.6098 -1.6118  2.4505
 7390SOL     OW33802   2.946   0.693   4.901 -0.2322 -0.2613  0.2804
 7390SOL    HW133803   2.871   0.750   4.882  0.1501  0.7525  1.8564
 7390SOL    HW233804   3.015   0.751   4.868  0.0465 -0.9380 -0.3230
 7391SOL     OW33805   2.861   4.409   1.579 -0.0466 -0.5588 -0.0221
 7391SOL    HW133806   2.783   4.459   1.604  1.0169  0.8159  0.5493
 7391SOL    HW233807   2.925   4.480   1.570 -2.3045  1.3105 -1.4123
 7392SOL     OW33808   2.231   2.907   9.044 -0.8260  0.1898  0.1412
 7392SOL    HW133809   2.182   2.965   9.102 -2.4999  0.4896 -1.5983
 7392SOL    HW233810   2.260   2.849   9.114  0.6432  0.8355  0.0647
 7393SOL     OW33811   1.403   1.994  15.478 -0.2119 -0.7045 -0.0037
 7393SOL    HW133812   1.475   2.034  15.430 -0.9771 -2.0229 -2.2374
 7393SOL    HW233813   1.391   1.919  15.419 -0.1716  0.2839 -1.2705
 7394SOL     OW33814   3.995   2.655   0.343 -0.1312  0.1472 -0.2083
 7394SOL    HW133815   3.954   2.720   0.399  0.0259 -0.0273  0.1110
 7394SOL    HW233816   3.985   2.693   0.256  0.6379  0.1826 -0.2781
 7395SOL     OW33817   2.868   2.662  15.002 -0.6540 -0.4256 -0.2718
 7395SOL    HW133818   2.890   2.745  14.961  2.0368 -2.3586 -2.7701
 7395SOL    HW233819   2.950   2.658  15.052 -0.7627  0.4528 -0.0229
 7396SOL     OW33820   3.962   2.965   6.180 -0.6934 -0.3983 -0.0149
 7396SOL    HW133821   3.924   3.018   6.111  0.2224  0.7652  0.3691
 7396SOL    HW233822   4.039   3.022   6.184 -1.5332  0.6941  0.4693
 7397SOL     OW33823   4.154   3.433   7.856 -0.5533 -0.0535  0.0613
 7397SOL    HW133824   4.082   3.489   7.884 -1.0433  0.3893 -2.0926
 7397SOL    HW233825   4.133   3.450   7.764  2.1335  1.4743 -0.2882
 7398SOL     OW33826   0.272   4.385   4.205 -0.2166  0.3455 -0.5088
 7398SOL    HW133827   0.366   4.379   4.222 -0.2604  1.6848  0.2137
 7398SOL    HW233828   0.269   4.363   4.112 -0.7373  1.9857 -0.8654
 7399SOL     OW33829   0.031   2.444   6.977  0.1067  0.8419 -0.5183
 7399SOL    HW133830   0.100   2.495   6.935 -1.1701  0.4129 -3.1395
 7399SOL    HW233831   0.033   2.359   6.933 -0.7202  0.4965  0.1173
 7400SOL     OW33832   3.746   3.766   9.189  0.1333  0.3203  0.5398
 7400SOL    HW133833   3.750   3.737   9.098  0.2386  1.2643  0.2478
 7400SOL    HW233834   3.824   3.724   9.225  1.9563  3.2970  0.0533
 7401SOL     OW33835   2.133   4.655   4.624  0.1440 -0.4511 -0.2703
 7401SOL    HW133836   2.109   4.568   4.657  1.7641 -1.5827 -2.0419
 7401SOL    HW233837   2.096   4.703   4.697  1.6023  0.6196 -0.2430
 7402SOL     OW33838   2.430   0.753   0.824  0.6312 -0.3618  0.2262
 7402SOL    HW133839   2.354   0.714   0.779  0.8857 -0.7810  0.1591
 7402SOL    HW233840   2.457   0.819   0.761 -1.1809  1.2729  1.1481
 7403SOL     OW33841   2.100   3.693  11.807 -0.0835  0.0908  0.3039
 7403SOL    HW133842   2.031   3.728  11.863 -0.5852  1.4297 -1.1574
 7403SOL    HW233843   2.065   3.622  11.754  0.9767 -0.2904  0.0970
 7404SOL     OW33844   4.045   3.573   8.568 -0.6297  0.1550  0.0742
 7404SOL    HW133845   3.995   3.492   8.577  0.1351 -0.3085  0.1847
 7404SOL    HW233846   4.011   3.634   8.633  1.0290  1.1511 -0.0029
 7405SOL     OW33847   2.340   2.480   8.075 -0.3463 -0.0835  0.1388
 7405SOL    HW133848   2.261   2.519   8.038 -1.3625 -0.7034  1.6465
 7405SOL    HW233849   2.412   2.484   8.012 -1.7537  2.3131 -1.3334
 7406SOL     OW33850   0.885   0.206   4.297  0.2399  0.2093 -0.3994
 7406SOL    HW133851   0.886   0.203   4.392 -2.0703 -1.2435 -0.4199
 7406SOL    HW233852   0.900   0.113   4.280  1.5080  0.0388  1.6456
 7407SOL     OW33853   4.322   3.880   4.871  0.0308  0.2940 -0.5923
 7407SOL    HW133854   4.408   3.882   4.914 -0.8259 -0.1333  1.1312
 7407SOL    HW233855   4.268   3.930   4.932 -1.4091  0.1036 -1.7191
 7408SOL     OW33856   2.427   3.996  17.097  0.1090 -0.3025 -0.1711
 7408SOL    HW133857   2.516   3.960  17.095  0.3159  0.0708  2.3062
 7408SOL    HW233858   2.457   4.076  17.139 -2.2307 -0.2256  1.3333
 7409SOL     OW33859   0.748   2.788   7.919 -1.3207 -0.0779 -0.2495
 7409SOL    HW133860   0.742   2.736   7.998  1.7799 -0.7042 -0.4221
 7409SOL    HW233861   0.779   2.868   7.963  0.5627 -1.2548  0.5347
 7410SOL     OW33862   0.734   3.258   9.879 -0.3321  0.1095 -0.5799
 7410SOL    HW133863   0.782   3.310   9.944  0.9758 -0.2789 -1.2393
 7410SOL    HW233864   0.647   3.297   9.881 -0.0630  0.7852 -2.7462
 7411SOL     OW33865   4.654   3.173   7.596  0.6143 -0.2110  0.1522
 7411SOL    HW133866   4.601   3.249   7.573  0.3960 -0.7310 -1.0571
 7411SOL    HW233867   4.643   3.121   7.516  2.0298  1.4106 -1.1128
 7412SOL     OW33868   3.675   1.830   2.209 -0.2599  0.4671  0.3762
 7412SOL    HW133869   3.615   1.762   2.180 -0.8953  0.7177  1.1059
 7412SOL    HW233870   3.651   1.909   2.161  1.5042 -0.0514 -1.3778
 7413SOL     OW33871   4.055   1.889   2.074 -0.4498 -0.2507 -0.1812
 7413SOL    HW133872   4.135   1.875   2.023  0.3562 -0.2424  1.0886
 7413SOL    HW233873   4.028   1.799   2.091 -1.0655 -0.3037 -1.4011
 7414SOL     OW33874   4.003   4.386   6.196 -0.1915  0.2348 -0.0355
 7414SOL    HW133875   3.984   4.318   6.132  0.4385 -1.1134  1.2192
 7414SOL    HW233876   4.098   4.392   6.202 -0.0243 -0.5535 -2.0194
 7415SOL     OW33877   0.999   2.905   8.175  0.3794  0.0072  0.3018
 7415SOL    HW133878   0.981   2.999   8.185 -1.8109 -0.4354  0.5722
 7415SOL    HW233879   1.088   2.903   8.141  0.1542 -1.8821 -0.1847
 7416SOL     OW33880   3.140   0.255  12.369  0.1464 -0.0964 -0.7129
 7416SOL    HW133881   3.161   0.256  12.276  0.1329  2.1815 -0.6909
 7416SOL    HW233882   3.142   0.160  12.382 -1.4210 -0.1882 -1.1259
 7417SOL     OW33883   1.595   1.184   9.088  0.0909  0.3622  0.2152
 7417SOL    HW133884   1.580   1.134   9.168  0.6884  0.6342  0.4988
 7417SOL    HW233885   1.538   1.143   9.023 -2.1838  1.3760  1.5760
 7418SOL     OW33886   0.207   0.062   8.029  0.1671  0.0653  0.1171
 7418SOL    HW133887   0.219   0.149   7.990  1.5610 -0.2374 -0.1379
 7418SOL    HW233888   0.288   0.044   8.078 -1.1922 -1.0731  1.9307
 7419SOL     OW33889   4.475   0.896  10.752 -0.1545 -0.3250 -0.3201
 7419SOL    HW133890   4.415   0.835  10.710 -3.3068  2.9367 -0.6039
 7419SOL    HW233891   4.423   0.944  10.817  1.0588  2.0675 -1.1152
 7420SOL     OW33892   2.463   3.116   8.175  0.3637  0.5355  0.0702
 7420SOL    HW133893   2.540   3.159   8.138  1.7146 -0.9210  1.1663
 7420SOL    HW233894   2.409   3.186   8.212  1.1910  0.5114  1.3084
 7421SOL     OW33895   4.122   1.020   3.637  0.3491 -0.5473 -0.0172
 7421SOL    HW133896   4.143   0.927   3.626 -1.7250 -1.1560  1.3665
 7421SOL    HW233897   4.201   1.065   3.606  0.1851  1.6658  2.7792
 7422SOL     OW33898   4.687   3.189   2.764 -0.3961 -0.0252  1.0042
 7422SOL    HW133899   4.607   3.175   2.713  0.6876 -0.1993 -0.6712
 7422SOL    HW233900   4.669   3.269   2.813  0.3794  1.2658 -0.8163
 7423SOL     OW33901   3.751   4.336   2.424  0.6716  0.3224  0.4823
 7423SOL    HW133902   3.720   4.245   2.426 -1.6049  1.0866  0.1620
 7423SOL    HW233903   3.704   4.374   2.350 -0.7176  0.3873  1.3828
 7424SOL     OW33904   3.344   0.550   7.077  0.4471  0.1208  0.6238
 7424SOL    HW133905   3.301   0.534   7.161 -1.2958  1.7023  0.0466
 7424SOL    HW233906   3.423   0.597   7.104  1.5033  0.3074 -2.8476
 7425SOL     OW33907   2.616   1.981   2.603  0.0743 -1.0332 -0.5461
 7425SOL    HW133908   2.635   1.998   2.511 -1.1127 -1.1484 -0.8121
 7425SOL    HW233909   2.540   2.037   2.620  3.4270  2.1588  3.8111
 7426SOL     OW33910   1.361   1.591   3.516  0.0319  0.3954 -0.1444
 7426SOL    HW133911   1.395   1.586   3.427  1.0113  3.3868  0.0783
 7426SOL    HW233912   1.292   1.656   3.504 -0.1474  0.2248 -0.0597
 7427SOL     OW33913   3.516   2.443   8.696  0.7477 -0.1809  0.4331
 7427SOL    HW133914   3.475   2.356   8.699 -1.6056  0.8811 -0.3147
 7427SOL    HW233915   3.606   2.413   8.693  0.4271 -1.3348  2.6968
 7428SOL     OW33916   1.623   3.270   0.937  0.1174 -0.2471 -0.5319
 7428SOL    HW133917   1.609   3.177   0.948 -2.8442  0.3503  0.5450
 7428SOL    HW233918   1.683   3.274   1.011  0.0085 -0.4234 -0.4375
 7429SOL     OW33919   1.774   4.500   3.676  0.2825  0.4193 -0.5821
 7429SOL    HW133920   1.760   4.483   3.583 -1.3829  1.4600 -0.5219
 7429SOL    HW233921   1.840   4.569   3.680 -0.4036  0.9944  1.3762
 7430SOL     OW33922   1.521   2.938   3.886 -0.3007  0.1083  0.2360
 7430SOL    HW133923   1.436   2.972   3.915 -1.4299 -2.3364 -0.1925
 7430SOL    HW233924   1.495   2.880   3.813 -0.0379 -0.3324  0.4921
 7431SOL     OW33925   4.625   1.516   8.146  0.0668  0.1758  0.4592
 7431SOL    HW133926   4.699   1.576   8.147  0.9742 -0.9592  1.6385
 7431SOL    HW233927   4.556   1.568   8.104 -1.2787 -2.9405 -1.2687
 7432SOL     OW33928   3.638   0.651   5.819 -0.1120  0.1655  0.6622
 7432SOL    HW133929   3.620   0.697   5.901  0.2206 -1.1365  1.4518
 7432SOL    HW233930   3.602   0.711   5.754  0.1782  1.0526  1.3194
 7433SOL     OW33931   1.993   0.147   3.590 -0.2730 -0.2300  0.3230
 7433SOL    HW133932   1.968   0.071   3.642  2.4041 -1.1841  0.2227
 7433SOL    HW233933   1.908   0.190   3.591 -0.3101 -0.3041  0.3164
 7434SOL     OW33934   3.545   1.056   7.847 -0.0112  0.4498 -0.0053
 7434SOL    HW133935   3.455   1.065   7.880 -0.7050 -1.8481 -1.2645
 7434SOL    HW233936   3.604   1.081   7.919  0.7783  0.9405 -0.8351
 7435SOL     OW33937   0.461   2.762   6.393  0.5528 -0.4744  0.0475
 7435SOL    HW133938   0.541   2.811   6.377  1.1383 -1.7671 -1.0121
 7435SOL    HW233939   0.495   2.692   6.449  1.4587 -0.4028 -0.4225
 7436SOL     OW33940   1.212   1.740   4.523 -0.9912  0.3818  0.2035
 7436SOL    HW133941   1.200   1.648   4.501  0.3628  0.0701  0.7253
 7436SOL    HW233942   1.222   1.747   4.618 -1.9272  2.0649  0.1812
 7437SOL     OW33943   0.326   2.760   8.922 -0.4348  0.2638 -0.4768
 7437SOL    HW133944   0.354   2.850   8.938 -1.0102  0.6701 -1.7540
 7437SOL    HW233945   0.282   2.759   8.837 -0.3308 -0.3481 -0.5247
 7438SOL     OW33946   0.844   0.235  15.809 -0.1532  0.3233 -0.0394
 7438SOL    HW133947   0.923   0.201  15.767  0.7570 -0.2510  2.1925
 7438SOL    HW233948   0.772   0.213  15.749 -0.1784  0.8226 -0.1945
 7439SOL     OW33949   2.411   0.258   5.510  0.1648  0.1036  0.4661
 7439SOL    HW133950   2.494   0.239   5.467  0.6981  1.2541  0.9977
 7439SOL    HW233951   2.384   0.166   5.511  1.4158 -0.2775 -1.5875
 7440SOL     OW33952   2.950   1.809  12.151  0.5498 -0.1372 -0.4653
 7440SOL    HW133953   3.011   1.740  12.178  0.6918  0.4488  0.7136
 7440SOL    HW233954   2.899   1.762  12.085  0.5324  1.5499 -1.6500
 7441SOL     OW33955   2.832   0.622   9.046 -0.1509 -0.1438  0.0710
 7441SOL    HW133956   2.820   0.527   9.036 -3.3388  0.5748 -3.2152
 7441SOL    HW233957   2.847   0.633   9.140 -0.4424  0.6544  0.0190
 7442SOL     OW33958   4.656   1.290   2.901  0.4017 -0.0852  0.0542
 7442SOL    HW133959   4.586   1.319   2.959  1.6737 -0.9255  1.9926
 7442SOL    HW233960   4.625   1.305   2.811  0.9374 -2.3954 -0.5194
 7443SOL     OW33961   3.300   0.731  13.703  0.1460 -0.4820 -0.2881
 7443SOL    HW133962   3.286   0.670  13.775 -3.0234  1.7769  1.0278
 7443SOL    HW233963   3.221   0.786  13.699  0.3168 -0.3656 -2.3411
 7444SOL     OW33964   1.148   3.332   3.405 -0.6341 -0.2150 -0.1849
 7444SOL    HW133965   1.228   3.378   3.427 -0.0348 -1.7515  0.8190
 7444SOL    HW233966   1.083   3.401   3.389  0.1739  0.8801  1.3259
 7445SOL     OW33967   2.940   4.291   7.507 -0.2496 -0.2562  0.3299
 7445SOL    HW133968   2.976   4.379   7.503 -0.4200 -0.1852  0.3396
 7445SOL    HW233969   3.020   4.242   7.526 -0.6789 -0.8794  0.5619
 7446SOL     OW33970   2.796   0.462   4.194 -0.0236 -0.1186  0.0992
 7446SOL    HW133971   2.778   0.466   4.288 -0.8024 -2.0179  0.0365
 7446SOL    HW233972   2.712   0.465   4.148  0.7053 -1.6475 -1.3040
 7447SOL     OW33973   1.931   3.889   2.824 -0.4720  0.0994  0.2331
 7447SOL    HW133974   1.897   3.929   2.904  0.0606 -0.2456  0.6303
 7447SOL    HW233975   2.002   3.944   2.793  0.2296  0.1200  1.8668
 7448SOL     OW33976   2.958   2.569   8.985  0.0283 -0.2240  0.0165
 7448SOL    HW133977   2.873   2.584   8.944  0.3212  1.5581  0.0638
 7448SOL    HW233978   2.938   2.588   9.076  0.6146 -2.3762  0.6156
 7449SOL     OW33979   3.606   2.537  17.637  0.1910 -0.0648 -0.4063
 7449SOL    HW133980   3.520   2.560  17.602 -1.2237 -2.3250  1.6480
 7449SOL    HW233981   3.644   2.624  17.646  1.6437 -0.7844  0.4185
 7450SOL     OW33982   0.992   4.536   0.857 -0.2840 -0.2444 -0.1978
 7450SOL    HW133983   1.014   4.609   0.915 -2.6464 -0.2157  0.6652
 7450SOL    HW233984   0.922   4.495   0.907  0.0788  0.5012  0.9317
 7451SOL     OW33985   0.665   0.742   4.714 -0.0330 -0.2148  0.4599
 7451SOL    HW133986   0.629   0.804   4.777  1.1827  2.5100 -1.4980
 7451SOL    HW233987   0.751   0.783   4.706  0.1784 -0.8756 -0.7881
 7452SOL     OW33988   0.816   1.851   1.893 -0.2546 -0.0812  0.1086
 7452SOL    HW133989   0.877   1.919   1.921  0.2990 -1.0893  1.3831
 7452SOL    HW233990   0.735   1.884   1.933 -0.6969 -1.1072  0.0744
 7453SOL     OW33991   3.909   3.432   7.101  0.7385  0.3789  0.3015
 7453SOL    HW133992   3.890   3.403   7.012 -0.8640  0.8227  0.4973
 7453SOL    HW233993   3.866   3.513   7.129  2.0066  0.2278  2.6913
 7454SOL     OW33994   1.025   3.173   2.995 -0.3035 -0.8039 -0.3027
 7454SOL    HW133995   0.960   3.170   2.925  1.0621 -0.3670 -1.5736
 7454SOL    HW233996   1.099   3.132   2.950  0.7820  2.3433 -1.3858
 7455SOL     OW33997   2.213   0.177   5.041  0.1674  0.4105  0.1427
 7455SOL    HW133998   2.243   0.101   5.090  0.8698 -1.6026 -3.3571
 7455SOL    HW233999   2.297   0.197   4.999 -0.4469 -1.1238 -1.8226
 7456SOL     OW34000   0.190   3.403   8.866  0.3612 -0.1020 -0.0327
 7456SOL    HW134001   0.212   3.491   8.897 -0.4136  0.3841 -0.8487
 7456SOL    HW234002   0.169   3.425   8.775  0.9212  0.5553 -0.0031
 7457SOL     OW34003   1.608   3.064  12.973  0.5123 -0.2827 -0.3817
 7457SOL    HW134004   1.674   3.049  12.905  0.5208  2.0934 -0.8776
 7457SOL    HW234005   1.641   3.003  13.039  1.1525  0.5066  0.0257
 7458SOL     OW34006   4.226   3.165   4.159  0.2901 -0.4489 -0.0652
 7458SOL    HW134007   4.216   3.152   4.065  2.3803  0.3970 -0.3861
 7458SOL    HW234008   4.235   3.260   4.157 -3.7431 -0.0575  0.1520
 7459SOL     OW34009   0.281   2.356   4.556 -0.1790 -0.3045 -0.1456
 7459SOL    HW134010   0.337   2.368   4.633 -0.9134 -2.1807  0.6781
 7459SOL    HW234011   0.227   2.286   4.593 -0.9886  0.3967 -0.0033
 7460SOL     OW34012   3.707   3.883   6.893 -0.1811  0.3663  0.2598
 7460SOL    HW134013   3.702   3.952   6.827 -0.4437  1.4704  1.4430
 7460SOL    HW234014   3.687   3.936   6.970 -2.2315  0.7485 -0.5222
 7461SOL     OW34015   0.999   2.869   5.772 -0.7218  0.4751 -0.0481
 7461SOL    HW134016   0.910   2.894   5.746 -1.8486  0.1224  3.4736
 7461SOL    HW234017   1.048   2.949   5.755 -0.5870  0.7403  1.5151
 7462SOL     OW34018   2.727   1.135   0.690  0.4068  0.5943  0.7089
 7462SOL    HW134019   2.671   1.062   0.663  1.0720  1.7738 -3.8027
 7462SOL    HW234020   2.676   1.208   0.654  0.1576 -0.6575 -1.4670
 7463SOL     OW34021   1.155   1.546   6.582  0.7352 -0.0188  0.3847
 7463SOL    HW134022   1.094   1.609   6.543  0.8424 -0.9278 -1.2562
 7463SOL    HW234023   1.233   1.565   6.530 -0.6933  0.6672 -1.4974
 7464SOL     OW34024   1.393   0.049  11.775 -0.1317  0.3075 -0.8721
 7464SOL    HW134025   1.441   0.016  11.851 -0.1533 -2.3963 -2.0294
 7464SOL    HW234026   1.391   0.140  11.805 -0.6348 -0.4761  1.4584
 7465SOL     OW34027   0.423   1.930   3.652 -0.6174 -0.1924 -0.1308
 7465SOL    HW134028   0.443   2.022   3.631 -1.5629 -0.4030 -1.9707
 7465SOL    HW234029   0.363   1.901   3.583 -1.0594 -0.1815  0.2525
 7466SOL     OW34030   3.660   4.427   2.685  0.2606  0.4452 -0.3190
 7466SOL    HW134031   3.718   4.399   2.614  1.0418  2.6220 -0.5325
 7466SOL    HW234032   3.592   4.474   2.637  0.2090  0.1698 -0.5158
 7467SOL     OW34033   0.104   2.797  17.737  0.7260 -0.4179 -0.5252
 7467SOL    HW134034   0.047   2.762  17.669 -2.7067  2.5758  0.7845
 7467SOL    HW234035   0.076   2.743   0.064  0.9033 -0.1822 -0.2846
 7468SOL     OW34036   0.095   1.771   7.323  0.4331 -0.6995 -0.6295
 7468SOL    HW134037   0.089   1.809   7.411 -3.4759 -2.2768 -0.1934
 7468SOL    HW234038   0.184   1.738   7.332  1.3880  2.0779  0.3354
 7469SOL     OW34039   0.259   4.228   8.560 -0.1079  0.5357  0.1178
 7469SOL    HW134040   0.220   4.142   8.571  2.5490 -0.4042  2.1467
 7469SOL    HW234041   0.226   4.265   8.641 -0.0345 -1.4656  1.0577
 7470SOL     OW34042   4.312   3.813   9.726  0.5573 -0.0010 -0.0628
 7470SOL    HW134043   4.216   3.818   9.732  0.6163  1.5412 -0.4264
 7470SOL    HW234044   4.332   3.737   9.672  1.2666  0.1368  0.0116
 7471SOL     OW34045   4.034   4.143  12.722 -0.0005  0.1015  0.2480
 7471SOL    HW134046   4.027   4.082  12.796 -0.5482  2.5395  2.1789
 7471SOL    HW234047   3.949   4.181  12.703  0.1100  0.9743  1.5031
 7472SOL     OW34048   0.409   3.388   5.080  0.4342 -0.2659 -0.3724
 7472SOL    HW134049   0.355   3.309   5.085  1.6698 -1.0312  0.8370
 7472SOL    HW234050   0.466   3.383   5.157  2.4761 -0.3803 -1.8919
 7473SOL     OW34051   0.473   2.326   3.716  0.1022  0.2577  0.0912
 7473SOL    HW134052   0.421   2.293   3.789 -0.3407  0.2541 -0.2308
 7473SOL    HW234053   0.410   2.389   3.681 -1.1433  0.0508  2.0078
 7474SOL     OW34054   3.117   4.112  11.257 -0.2445  0.3724 -0.2420
 7474SOL    HW134055   3.159   4.193  11.286  1.8670 -0.6326 -0.5241
 7474SOL    HW234056   3.042   4.095  11.315 -0.5228  0.2927 -0.6299
 7475SOL     OW34057   2.719   0.883   4.917 -0.0068 -0.7129  0.3206
 7475SOL    HW134058   2.643   0.933   4.946 -0.6362 -1.3196 -0.2669
 7475SOL    HW234059   2.763   0.931   4.847 -0.3850  0.1782  0.6905
 7476SOL     OW34060   1.660   1.232   2.465  0.6439 -0.4091  0.0798
 7476SOL    HW134061   1.659   1.313   2.415 -1.5297 -0.3001  0.3256
 7476SOL    HW234062   1.625   1.177   2.395 -1.1157 -1.1656  1.5655
 7477SOL     OW34063   4.395   3.628   6.011  0.2430  0.0714 -0.6896
 7477SOL    HW134064   4.334   3.585   6.071  2.4663  0.4401  1.8377
 7477SOL    HW234065   4.465   3.657   6.070 -0.3480  1.1286 -0.5138
 7478SOL     OW34066   0.445   0.948   3.890 -0.0707 -0.0898  0.4311
 7478SOL    HW134067   0.463   0.884   3.821  0.6782  0.6866 -0.0877
 7478SOL    HW234068   0.466   1.030   3.845 -1.1728 -0.1893 -0.2718
 7479SOL     OW34069   4.102   0.216   4.146 -0.3601 -0.0071 -0.5372
 7479SOL    HW134070   4.127   0.198   4.056  2.4380  0.1703  0.1852
 7479SOL    HW234071   4.159   0.156   4.194  2.1437  1.3344 -1.8079
 7480SOL     OW34072   0.238   0.594   6.064 -0.1481 -0.6504  0.0786
 7480SOL    HW134073   0.208   0.534   6.133  1.9725 -1.3221  0.4296
 7480SOL    HW234074   0.327   0.564   6.044  0.6258  1.6078  0.0960
 7481SOL     OW34075   4.111   0.984   5.290 -0.4673  0.2569 -1.1413
 7481SOL    HW134076   4.110   0.943   5.376  0.3312  0.8192 -0.8645
 7481SOL    HW234077   4.175   1.054   5.302 -0.4632 -0.1272  1.0263
 7482SOL     OW34078   3.168   2.561   5.944  0.4025  0.5660  0.1540
 7482SOL    HW134079   3.126   2.541   6.027  0.0632 -1.4442 -0.4871
 7482SOL    HW234080   3.102   2.541   5.876  0.2625  1.3480  0.0671
 7483SOL     OW34081   3.401   0.195   3.963  0.1026 -0.0693 -0.3043
 7483SOL    HW134082   3.455   0.120   3.940 -0.3184 -0.5830  0.3704
 7483SOL    HW234083   3.462   0.268   3.954 -0.2570  0.5820  2.3246
 7484SOL     OW34084   1.186   3.517  16.176  0.3612 -0.4564  0.7912
 7484SOL    HW134085   1.209   3.583  16.242  2.8222 -1.0399  0.5337
 7484SOL    HW234086   1.268   3.497  16.131  0.8571  0.3084  1.3581
 7485SOL     OW34087   2.497   4.122   1.315  0.2910  0.2890  0.0677
 7485SOL    HW134088   2.444   4.092   1.389 -2.1394  1.2144 -1.2582
 7485SOL    HW234089   2.558   4.050   1.305  1.2183  1.0204  0.4946
 7486SOL     OW34090   0.801   4.285   2.309 -0.0855 -0.0120 -0.3772
 7486SOL    HW134091   0.894   4.271   2.328 -0.0577  0.2800 -0.2887
 7486SOL    HW234092   0.769   4.196   2.295  1.2987 -0.1497 -2.5976
 7487SOL     OW34093   4.665   1.261   0.880 -0.5058  0.4422  0.1688
 7487SOL    HW134094   4.581   1.237   0.920 -0.1907 -0.2091  0.4402
 7487SOL    HW234095   4.687   1.191   0.819 -1.5313  0.2915 -0.0279
 7488SOL     OW34096   4.499   2.434   4.607 -0.3551 -0.4880  0.1917
 7488SOL    HW134097   4.577   2.461   4.559  0.1137 -0.7615  0.8126
 7488SOL    HW234098   4.435   2.443   4.536  2.7224  0.2931 -2.4214
 7489SOL     OW34099   3.112   1.077  10.182 -1.0107  0.6848  0.3170
 7489SOL    HW134100   3.151   1.088  10.269  0.5878 -3.0487  0.0651
 7489SOL    HW234101   3.037   1.026  10.210 -1.1676 -0.4635 -2.2334
 7490SOL     OW34102   4.062   4.332  16.479  0.1131  0.0293 -0.3272
 7490SOL    HW134103   4.122   4.399  16.447  1.4536 -0.3006  1.4952
 7490SOL    HW234104   4.117   4.254  16.470  0.9919  0.5081  0.8512
 7491SOL     OW34105   2.122   0.882   9.508  0.1167  0.0679  0.3869
 7491SOL    HW134106   2.052   0.945   9.528 -0.3651  0.2527 -1.8279
 7491SOL    HW234107   2.192   0.898   9.571  1.4016  0.2089 -1.0837
 7492SOL     OW34108   2.694   0.081  16.646  0.4994  0.4921  0.2921
 7492SOL    HW134109   2.703   0.023  16.722  1.2022  0.7866  0.4393
 7492SOL    HW234110   2.754   0.143  16.688 -0.6206  0.9789  1.1567
 7493SOL     OW34111   1.246   2.097   2.169 -0.4138 -0.2015 -0.2976
 7493SOL    HW134112   1.287   2.129   2.250  0.1679 -1.9249  0.0897
 7493SOL    HW234113   1.325   2.079   2.118 -0.7477 -0.6925 -0.6459
 7494SOL     OW34114   4.150   4.505   4.440 -0.8719  0.6355 -0.4970
 7494SOL    HW134115   4.174   4.570   4.374 -1.7066  1.5531  0.0963
 7494SOL    HW234116   4.172   4.542   4.525  1.9465  2.0453 -1.8621
 7495SOL     OW34117   1.656   1.788  16.907 -0.1057 -0.3150  0.2978
 7495SOL    HW134118   1.624   1.861  16.854 -0.5323 -0.8397 -0.1718
 7495SOL    HW234119   1.727   1.768  16.846  0.2069 -0.7203  0.7935
 7496SOL     OW34120   4.694   2.760   6.261  0.0906  0.2040  0.2990
 7496SOL    HW134121   4.648   2.822   6.318 -0.4304 -0.1889  0.3096
 7496SOL    HW234122   0.047   2.789   6.273 -0.3482  1.5384  0.3132
 7497SOL     OW34123   4.409   3.887   8.907 -0.1701 -0.1733 -0.3027
 7497SOL    HW134124   4.502   3.902   8.923 -0.1890 -1.0600  0.6672
 7497SOL    HW234125   4.381   3.854   8.992 -2.2990  1.8448 -0.2390
 7498SOL     OW34126   2.440   3.430   1.069 -0.3931  0.4769 -0.0261
 7498SOL    HW134127   2.374   3.364   1.049 -0.5020  0.3357  0.7877
 7498SOL    HW234128   2.509   3.382   1.023  1.6244  1.6670  1.7104
 7499SOL     OW34129   4.179   1.536   6.503 -0.2355 -0.5488 -0.2721
 7499SOL    HW134130   4.214   1.611   6.552 -1.1109  0.6649 -1.4821
 7499SOL    HW234131   4.256   1.498   6.461  0.0153  0.5541 -0.8060
 7500SOL     OW34132   1.768   2.659   3.184  0.3767  0.3899 -0.0514
 7500SOL    HW134133   1.816   2.599   3.127  0.4123  0.3242  0.0489
 7500SOL    HW234134   1.822   2.737   3.172  0.5742 -0.0222 -1.9563
 7501SOL     OW34135   3.489   3.543   4.291 -0.3013 -0.2036 -0.6170
 7501SOL    HW134136   3.535   3.617   4.252 -0.2361  0.6622  1.1109
 7501SOL    HW234137   3.408   3.589   4.315  0.7635  1.4701 -0.2320
 7502SOL     OW34138   1.194   1.554   8.105  0.0699  0.2580 -0.3253
 7502SOL    HW134139   1.271   1.611   8.105 -0.8238  1.4559 -0.0146
 7502SOL    HW234140   1.196   1.525   8.014  2.1208 -2.7864  0.6796
 7503SOL     OW34141   4.004   2.890   9.018 -0.2402 -0.4448 -0.1563
 7503SOL    HW134142   4.045   2.818   8.970 -0.9449  0.3055 -1.8668
 7503SOL    HW234143   4.032   2.863   9.106 -1.6853  1.4648  0.9013
 7504SOL     OW34144   4.129   2.889   8.668  0.9092  0.5917 -0.3029
 7504SOL    HW134145   4.146   2.912   8.576  0.6036 -1.0208 -0.7607
 7504SOL    HW234146   4.034   2.902   8.665  0.4629 -2.9020 -0.9819
 7505SOL     OW34147   0.795   4.116   2.792  0.3736 -0.2641  0.5420
 7505SOL    HW134148   0.882   4.142   2.819  0.6207  0.3403 -0.8352
 7505SOL    HW234149   0.749   4.200   2.787  1.1001  0.0926 -0.2061
 7506SOL     OW34150   3.070   0.072   5.064 -0.1363  0.8132 -0.2920
 7506SOL    HW134151   3.052   0.166   5.071 -1.7897  0.2793  2.5377
 7506SOL    HW234152   3.085   0.052   4.972 -1.4221  1.8908 -0.7398
 7507SOL     OW34153   0.214   4.492   1.428 -0.1800 -0.2978  0.0574
 7507SOL    HW134154   0.215   4.446   1.343 -0.4264 -1.5930  0.7442
 7507SOL    HW234155   0.263   4.434   1.486 -0.4352  0.4237  0.9741
 7508SOL     OW34156   2.764   0.178   7.410 -0.0209 -0.4454  0.3653
 7508SOL    HW134157   2.828   0.223   7.355  0.3907 -0.7177  0.6238
 7508SOL    HW234158   2.690   0.206   7.356  0.6166  0.8975  0.1936
 7509SOL     OW34159   0.913   3.809   0.958 -0.2063  0.2970  0.1119
 7509SOL    HW134160   0.864   3.728   0.949  1.8644 -0.9413  0.0424
 7509SOL    HW234161   0.960   3.831   0.877 -0.2971 -0.8631 -0.2522
 7510SOL     OW34162   0.371   4.126   6.003  0.3958 -0.2474 -0.0250
 7510SOL    HW134163   0.422   4.093   6.077  0.9459 -0.0389 -0.3169
 7510SOL    HW234164   0.442   4.173   5.960 -0.0828  1.9128  1.5855
 7511SOL     OW34165   3.035   0.904  14.997 -0.3422 -0.1833 -0.0336
 7511SOL    HW134166   3.076   0.991  14.997  0.5320 -0.5995 -0.0315
 7511SOL    HW234167   3.097   0.865  14.936  3.0909  2.3978  1.8031
 7512SOL     OW34168   2.111   2.542   3.331 -0.2278 -0.4973 -0.1387
 7512SOL    HW134169   2.130   2.474   3.266 -0.9327 -0.9687  0.1574
 7512SOL    HW234170   2.075   2.491   3.403 -2.1605  1.3441  0.1849
 7513SOL     OW34171   3.439   0.537   4.531  0.3590 -0.0485  0.3295
 7513SOL    HW134172   3.448   0.469   4.465 -0.6087  0.0783  0.0661
 7513SOL    HW234173   3.351   0.510   4.556 -0.4564  0.9904 -1.4061
 7514SOL     OW34174   2.545   0.497   2.047  0.6598 -0.1701 -0.0945
 7514SOL    HW134175   2.624   0.459   2.085  1.2482  1.3651  0.2243
 7514SOL    HW234176   2.494   0.417   2.040  1.3857 -0.4625 -2.1320
 7515SOL     OW34177   2.345   4.629   1.785  0.2126 -0.1371  0.1608
 7515SOL    HW134178   2.306   4.580   1.856 -0.0133  0.1364  0.2249
 7515SOL    HW234179   2.290   4.706   1.772 -0.5075 -0.7533 -0.4088
 7516SOL     OW34180   2.564   2.347   7.666 -0.3413 -0.2693 -0.1398
 7516SOL    HW134181   2.577   2.385   7.752  1.6312  0.6037 -0.8118
 7516SOL    HW234182   2.595   2.257   7.680  1.5997  0.1614 -1.5504
 7517SOL     OW34183   4.569   4.399   3.118  0.3344  0.1546  0.3393
 7517SOL    HW134184   4.555   4.465   3.049 -0.3569  0.6489  0.9597
 7517SOL    HW234185   4.485   4.373   3.155  0.3000  0.0779  0.2091
 7518SOL     OW34186   0.003   0.546   7.521 -0.0635 -0.2012  0.3574
 7518SOL    HW134187   0.068   0.525   7.588  0.9259 -2.3222 -1.2577
 7518SOL    HW234188   0.056   0.586   7.452 -0.0582  1.7116  1.4859
 7519SOL     OW34189   3.994   1.884  16.724 -0.3306  0.5892  0.1907
 7519SOL    HW134190   4.054   1.921  16.660 -0.6833  1.6207  0.4497
 7519SOL    HW234191   3.970   1.807  16.672  1.0097  0.7935 -0.7118
 7520SOL     OW34192   3.547   4.138   1.824  0.3724 -0.3623 -0.3190
 7520SOL    HW134193   3.473   4.166   1.769 -1.5405 -1.0876  1.8977
 7520SOL    HW234194   3.571   4.059   1.775  0.3400 -0.3587 -0.3411
 7521SOL     OW34195   1.316   1.902   0.468 -0.1555 -0.3313  0.2985
 7521SOL    HW134196   1.315   1.900   0.564 -4.5891 -0.8219  0.2540
 7521SOL    HW234197   1.379   1.834   0.447 -0.1858 -0.2782  0.0426
 7522SOL     OW34198   1.541   0.437   9.174 -0.0127  0.8389  0.2570
 7522SOL    HW134199   1.524   0.382   9.098  1.1418  0.1149  0.5260
 7522SOL    HW234200   1.592   0.377   9.227 -1.0961 -1.8440 -1.7593
 7523SOL     OW34201   0.921   2.802  13.101  0.7675  0.4656  0.3622
 7523SOL    HW134202   0.985   2.763  13.161  0.8687 -1.0054 -0.7027
 7523SOL    HW234203   0.935   2.896  13.115  0.0643  0.8296 -1.3534
 7524SOL     OW34204   2.432   1.443   4.274  0.1682  0.4591  0.1870
 7524SOL    HW134205   2.508   1.384   4.273  0.4157  0.7684  1.0106
 7524SOL    HW234206   2.365   1.392   4.320  1.7870 -1.5575  0.3637
 7525SOL     OW34207   3.165   2.448  15.741 -0.2063 -0.4099 -0.3307
 7525SOL    HW134208   3.201   2.359  15.741 -0.1022 -0.3767 -1.6250
 7525SOL    HW234209   3.233   2.504  15.703  1.8323 -3.0803 -0.6243
 7526SOL     OW34210   3.765   2.260   6.021 -0.0128  0.2531  0.1518
 7526SOL    HW134211   3.680   2.215   6.022  0.4432 -0.5339  2.4097
 7526SOL    HW234212   3.830   2.194   6.045  2.3638  1.8576 -1.8476
 7527SOL     OW34213   4.609   2.766   2.872 -0.0732 -0.2117  0.1129
 7527SOL    HW134214   4.702   2.783   2.884  0.3421 -0.7831 -2.2488
 7527SOL    HW234215   4.580   2.855   2.856  0.3496 -0.2646 -0.9500
 7528SOL     OW34216   2.977   0.671  17.365 -0.1916 -0.3732 -0.0695
 7528SOL    HW134217   2.961   0.737  17.431  0.3185 -1.9116  1.5990
 7528SOL    HW234218   2.938   0.701  17.283  0.4074  0.1805 -0.1548
 7529SOL     OW34219   2.229   4.174  16.165 -0.1607 -0.3715  0.4691
 7529SOL    HW134220   2.200   4.145  16.251  0.3639  0.6967  0.9917
 7529SOL    HW234221   2.301   4.228  16.197 -0.5540  0.6280 -0.3133
 7530SOL     OW34222   1.268   0.906   1.009  0.7323 -0.2974  0.1508
 7530SOL    HW134223   1.324   0.896   1.086  0.8231 -0.5712  0.0500
 7530SOL    HW234224   1.235   0.996   1.016  1.7583  0.0715  0.2389
 7531SOL     OW34225   3.659   2.759   6.360 -0.6874 -0.0403  0.5645
 7531SOL    HW134226   3.589   2.715   6.409  0.1553 -1.1155  0.8201
 7531SOL    HW234227   3.634   2.731   6.272 -0.6591  0.3548  0.4333
 7532SOL     OW34228   3.998   4.499   8.624 -0.1606 -0.1399  0.5181
 7532SOL    HW134229   4.052   4.488   8.545  2.5877  0.8814  2.2435
 7532SOL    HW234230   3.916   4.453   8.609 -0.1285 -1.0159  3.0288
 7533SOL     OW34231   2.113   2.090   8.754 -0.0508  0.2837  0.3754
 7533SOL    HW134232   2.140   2.000   8.735  1.0881  1.2033 -2.2776
 7533SOL    HW234233   2.029   2.080   8.711 -0.4507  1.0895  0.9603
 7534SOL     OW34234   3.617   0.743  15.990  0.4754  0.0730  0.1752
 7534SOL    HW134235   3.667   0.673  15.948 -0.7501 -0.6896 -0.0367
 7534SOL    HW234236   3.537   0.745  15.937 -0.2686 -2.1358  1.2279
 7535SOL     OW34237   1.750   1.104   3.088 -0.5309  0.0669 -0.3259
 7535SOL    HW134238   1.816   1.047   3.048  0.1204 -0.3316  1.3346
 7535SOL    HW234239   1.758   1.168   3.017 -1.2263  1.3355  0.7366
 7536SOL     OW34240   0.008   1.282   5.315 -0.4442  0.0578  0.3747
 7536SOL    HW134241   4.673   1.274   5.252  0.6478 -1.3578 -0.6862
 7536SOL    HW234242   0.059   1.349   5.269 -1.4905  0.5661 -0.0495
 7537SOL     OW34243   3.296   3.275  10.831  0.4993 -0.3331 -0.0619
 7537SOL    HW134244   3.303   3.182  10.851  0.3636  0.0286  1.6393
 7537SOL    HW234245   3.343   3.283  10.748  0.4813 -0.4654 -0.0845
 7538SOL     OW34246   3.002   0.436   6.533  0.6342 -0.1290  0.0311
 7538SOL    HW134247   2.920   0.415   6.487  0.9446  0.0031 -0.5794
 7538SOL    HW234248   2.986   0.413   6.624  1.5493 -0.7446  0.0292
 7539SOL     OW34249   1.009   1.819   6.519  0.3312 -0.4796 -0.2936
 7539SOL    HW134250   1.010   1.888   6.586  2.1282 -0.5633 -0.2267
 7539SOL    HW234251   0.917   1.796   6.533 -0.1549  0.6910 -1.5789
 7540SOL     OW34252   3.681   0.878   4.364  0.1290 -0.0405  0.3151
 7540SOL    HW134253   3.696   0.950   4.303  1.6593 -0.6128  0.0122
 7540SOL    HW234254   3.739   0.902   4.437 -2.8940  2.2098  1.9657
 7541SOL     OW34255   3.761   1.479   3.775 -1.0758 -0.5879 -0.1005
 7541SOL    HW134256   3.835   1.502   3.719 -0.3700 -1.0127  0.6588
 7541SOL    HW234257   3.709   1.443   3.703  0.1094 -0.5095 -1.0046
 7542SOL     OW34258   3.735   2.470   3.489 -0.0516 -0.5255  0.0490
 7542SOL    HW134259   3.684   2.430   3.419  0.7723 -0.0305 -0.8326
 7542SOL    HW234260   3.672   2.523   3.538 -0.0929 -0.9391  0.4464
 7543SOL     OW34261   1.027   1.180   5.788 -0.2716 -0.3034  0.5485
 7543SOL    HW134262   1.055   1.248   5.850 -0.5105  0.4098 -0.1172
 7543SOL    HW234263   1.085   1.110   5.817  0.0818  0.5489  1.9101
 7544SOL     OW34264   0.504   3.829  14.342  0.2922 -0.6197  0.3264
 7544SOL    HW134265   0.561   3.755  14.363 -0.8399 -1.6498 -0.2237
 7544SOL    HW234266   0.422   3.790  14.370 -0.5192 -0.9089 -2.4141
 7545SOL     OW34267   1.154   0.254  16.920  0.1040 -0.1268 -0.1206
 7545SOL    HW134268   1.127   0.331  16.870  2.4055  0.4133 -0.5276
 7545SOL    HW234269   1.125   0.275  17.009  2.2800  0.2028  0.5073
 7546SOL     OW34270   4.012   3.741   9.251 -0.4083 -0.0803 -0.1259
 7546SOL    HW134271   4.040   3.759   9.341  1.6559  0.8867 -0.9479
 7546SOL    HW234272   4.018   3.826   9.207  0.8885 -1.0810 -1.8847
 7547SOL     OW34273   3.096   3.181   6.366 -0.0548  0.6149 -0.1187
 7547SOL    HW134274   3.182   3.198   6.404  0.8514  0.7602 -2.2576
 7547SOL    HW234275   3.128   3.147   6.283 -0.1967  2.2831 -0.8572
 7548SOL     OW34276   2.951   1.616  12.770 -0.0762 -0.0032  0.3242
 7548SOL    HW134277   3.039   1.631  12.736  0.0988  0.5807  1.0355
 7548SOL    HW234278   2.900   1.602  12.690 -0.7696  1.2740  0.5365
 7549SOL     OW34279   2.062   0.244   8.185  0.5143 -0.1548  0.7356
 7549SOL    HW134280   2.113   0.309   8.138 -2.5811  1.2708 -0.6477
 7549SOL    HW234281   2.002   0.298   8.237  0.0004  0.2624 -0.3062
 7550SOL     OW34282   4.538   3.812  10.669  0.0928 -0.0825  0.3477
 7550SOL    HW134283   4.465   3.847  10.617 -0.0525 -2.3843 -0.9821
 7550SOL    HW234284   4.479   3.758  10.720 -0.5584 -0.3829 -0.7240
 7551SOL     OW34285   2.441   4.366   9.755  0.4088  0.0320  0.2253
 7551SOL    HW134286   2.451   4.273   9.735 -0.1052  0.7113 -3.1109
 7551SOL    HW234287   2.477   4.399   9.673  1.6887 -0.0745  0.7431
 7552SOL     OW34288   2.683   4.223   7.248  0.2520 -0.1312  0.1933
 7552SOL    HW134289   2.615   4.185   7.192 -0.0435 -0.4327  0.7640
 7552SOL    HW234290   2.651   4.194   7.333 -0.5102  0.4087  0.0927
 7553SOL     OW34291   1.279   0.536   1.514  0.1206 -0.4407 -0.5292
 7553SOL    HW134292   1.212   0.593   1.476  0.4635  0.7357  0.6335
 7553SOL    HW234293   1.233   0.458   1.545 -1.5451  1.1960  1.1470
 7554SOL     OW34294   2.849   4.210   8.979  0.0906  0.5178  0.3322
 7554SOL    HW134295   2.849   4.120   9.012  0.6841  0.6215  0.6182
 7554SOL    HW234296   2.919   4.250   9.029 -0.6054  0.3628  1.4262
 7555SOL     OW34297   0.423   2.781   0.229 -0.0702 -0.1872  0.0843
 7555SOL    HW134298   0.416   2.768   0.134  0.8591  1.1703 -0.1709
 7555SOL    HW234299   0.512   2.809   0.250 -1.2151  2.1830  1.7747
 7556SOL     OW34300   2.730   1.757   3.739  0.2265  0.0580 -0.8335
 7556SOL    HW134301   2.711   1.850   3.728 -0.1720  0.0878  0.0602
 7556SOL    HW234302   2.804   1.753   3.680  2.7114  1.5427  2.1670
 7557SOL     OW34303   0.421   0.831  11.192 -0.1025  0.0074  0.4686
 7557SOL    HW134304   0.512   0.813  11.170  0.1898  1.6085  0.3929
 7557SOL    HW234305   0.386   0.888  11.124 -0.6716 -0.4736  0.3548
 7558SOL     OW34306   1.817   3.709   9.540 -0.2812 -0.1515 -0.1656
 7558SOL    HW134307   1.743   3.766   9.560 -0.9891 -1.3555  0.7135
 7558SOL    HW234308   1.866   3.694   9.620  2.1775  1.3156 -1.4198
 7559SOL     OW34309   4.559   3.949   3.732 -0.0188  0.3949 -0.0761
 7559SOL    HW134310   4.573   4.024   3.790  2.1042  1.2889 -1.7749
 7559SOL    HW234311   4.588   3.987   3.649  0.1484  1.5323  0.5002
 7560SOL     OW34312   0.032   3.255   9.514  0.4469  0.3831  0.3469
 7560SOL    HW134313   0.089   3.313   9.465  0.7456 -0.4360 -0.2770
 7560SOL    HW234314   4.689   3.301   9.489  0.5608  1.1525  1.4223
 7561SOL     OW34315   3.991   0.579  16.144 -0.6281 -0.3392  0.5063
 7561SOL    HW134316   4.027   0.495  16.173  2.4281  1.5423  2.1755
 7561SOL    HW234317   3.988   0.572  16.049  1.1386  1.0713  0.3607
 7562SOL     OW34318   2.384   1.802  11.218  0.1950  0.1403 -0.0714
 7562SOL    HW134319   2.368   1.892  11.246  1.0638 -0.5253  2.5192
 7562SOL    HW234320   2.326   1.741  11.264  0.2279  0.2148  0.0693
 7563SOL     OW34321   3.206   0.120   6.311  0.2705 -0.1058  0.7854
 7563SOL    HW134322   3.184   0.144   6.401 -1.1544  0.2773  0.3406
 7563SOL    HW234323   3.296   0.089   6.317  0.1785 -0.6220 -0.5469
 7564SOL     OW34324   4.671   0.582   3.274  0.0215  0.8674 -0.0608
 7564SOL    HW134325   4.699   0.673   3.283  2.6188  0.0183  0.1757
 7564SOL    HW234326   0.017   0.535   3.277  0.2188  1.2526  0.7643
 7565SOL     OW34327   1.670   3.729   8.552 -0.4748  0.0129  0.7414
 7565SOL    HW134328   1.658   3.795   8.620  1.5629  2.3451 -1.1330
 7565SOL    HW234329   1.696   3.651   8.601  0.5266  0.9050  1.6353
 7566SOL     OW34330   2.047   3.019  17.101  0.0165  0.4967  0.2119
 7566SOL    HW134331   1.994   3.092  17.134 -0.4066 -0.4605  1.6615
 7566SOL    HW234332   2.062   3.052  17.013  0.3707  1.4344  0.6229
 7567SOL     OW34333   4.090   0.425  17.273 -0.4536  0.0099 -0.4609
 7567SOL    HW134334   4.126   0.395  17.356  1.0909 -0.3794 -1.2744
 7567SOL    HW234335   4.127   0.364  17.210 -2.2820 -2.1133  0.5346
 7568SOL     OW34336   0.619   3.533   9.172 -0.6139  0.7430  0.8242
 7568SOL    HW134337   0.596   3.550   9.263 -2.1465 -2.3361  1.0078
 7568SOL    HW234338   0.595   3.440   9.170  0.2297  0.5561 -0.8951
 7569SOL     OW34339   1.259   0.087   6.598  0.0725 -0.0072 -0.6199
 7569SOL    HW134340   1.187   0.042   6.643  1.7554 -0.9064  1.1801
 7569SOL    HW234341   1.314   0.086   6.677 -0.8392  0.7625  0.0214
 7570SOL     OW34342   3.432   2.801   8.809 -0.0675 -0.2397 -0.1359
 7570SOL    HW134343   3.415   2.775   8.900 -0.5547 -0.2682 -0.2346
 7570SOL    HW234344   3.347   2.783   8.769  0.8713 -2.1289 -1.2809
 7571SOL     OW34345   2.098   0.596   3.019  0.0483  0.0628 -0.0056
 7571SOL    HW134346   2.040   0.671   3.021 -0.7235 -0.5263 -0.5430
 7571SOL    HW234347   2.182   0.631   3.049 -0.8793  2.1192  0.1957
 7572SOL     OW34348   2.760   3.609  15.042  0.3065  0.0443  0.4938
 7572SOL    HW134349   2.832   3.551  15.065 -0.5193 -0.5051  1.7165
 7572SOL    HW234350   2.810   3.662  14.980 -1.2059  0.1564 -0.6314
 7573SOL     OW34351   3.129   0.970   6.752 -0.5676 -0.4933  0.4178
 7573SOL    HW134352   3.225   0.965   6.753 -0.4476  1.6659 -1.2415
 7573SOL    HW234353   3.108   0.878   6.735  1.9898 -1.2944  1.5620
 7574SOL     OW34354   3.406   0.907  13.050  0.6039 -0.3657  0.1734
 7574SOL    HW134355   3.328   0.854  13.035  0.1565  1.2688 -3.3615
 7574SOL    HW234356   3.467   0.836  13.066 -0.2026 -0.6575  2.0708
 7575SOL     OW34357   3.816   0.704   6.737  0.0940 -0.2703 -0.1015
 7575SOL    HW134358   3.783   0.614   6.734 -0.1702 -0.1599 -0.4852
 7575SOL    HW234359   3.747   0.726   6.800  0.0866 -1.0513  0.1618
 7576SOL     OW34360   2.114   3.633   4.991 -0.4342  0.2250  0.3442
 7576SOL    HW134361   2.084   3.696   4.926 -1.3753  1.0665  1.5783
 7576SOL    HW234362   2.055   3.558   4.993  0.8562 -0.8332 -2.8493
 7577SOL     OW34363   2.209   3.009   8.240 -0.1326 -0.1474 -0.2638
 7577SOL    HW134364   2.224   3.100   8.215 -0.5612  0.1175  0.4558
 7577SOL    HW234365   2.226   2.965   8.157 -0.7012 -0.7831 -0.0406
 7578SOL     OW34366   0.229   3.830   1.136  0.2771  0.5423 -0.0010
 7578SOL    HW134367   0.140   3.817   1.168  0.2281  1.3564  0.2070
 7578SOL    HW234368   0.220   3.776   1.058 -0.5768 -2.4780  2.1613
 7579SOL     OW34369   2.242   0.194  13.774  0.2094 -0.2020  0.3808
 7579SOL    HW134370   2.169   0.196  13.712  0.3939 -2.1713  0.1010
 7579SOL    HW234371   2.206   0.148  13.850  0.3202  0.9159  1.1098
 7580SOL     OW34372   0.472   3.832   9.300  0.8527 -0.7633 -0.1797
 7580SOL    HW134373   0.486   3.890   9.375  1.7527  0.7124 -1.4704
 7580SOL    HW234374   0.383   3.812   9.327  0.0923  0.8112 -1.5361
 7581SOL     OW34375   3.968   0.792  12.335 -0.1253  0.1761 -0.3917
 7581SOL    HW134376   3.896   0.729  12.340  2.3417 -2.5003  1.6332
 7581SOL    HW234377   4.023   0.764  12.409 -2.3127 -2.0615  0.3622
 7582SOL     OW34378   2.816   3.835   5.667 -0.2151 -0.3286  0.2139
 7582SOL    HW134379   2.739   3.791   5.702 -0.2101  0.1593  0.8332
 7582SOL    HW234380   2.889   3.790   5.709  0.6036 -0.1646 -1.0286
 7583SOL     OW34381   2.788   3.128   5.051  0.2569  0.1716 -0.1551
 7583SOL    HW134382   2.776   3.212   5.096  0.2052 -0.6792  1.4229
 7583SOL    HW234383   2.876   3.111   5.083  0.4901 -0.6649 -1.2613
 7584SOL     OW34384   3.097   3.421  13.350  0.2335 -0.5621 -0.6497
 7584SOL    HW134385   3.097   3.343  13.405 -1.3257  0.3875  0.7145
 7584SOL    HW234386   3.140   3.390  13.270 -1.1909 -0.3389 -1.5005
 7585SOL     OW34387   0.440   1.132   5.077 -0.0386 -0.2977  0.4465
 7585SOL    HW134388   0.360   1.085   5.052  0.7885  0.2181 -3.0788
 7585SOL    HW234389   0.510   1.067   5.083 -2.5896 -3.1669 -1.0759
 7586SOL     OW34390   4.144   1.088   1.924  0.4813 -0.2219 -0.0425
 7586SOL    HW134391   4.160   1.177   1.891 -0.0449  0.0648  0.4893
 7586SOL    HW234392   4.102   1.055   1.845 -1.1316  1.3947  0.1657
 7587SOL     OW34393   4.676   1.521   1.212  0.5875  0.1304  0.1365
 7587SOL    HW134394   4.716   1.602   1.243 -0.6399  0.7969 -0.0617
 7587SOL    HW234395   0.002   1.506   1.141 -0.3937  1.2442 -0.9526
 7588SOL     OW34396   3.193   0.406   2.944 -0.7989  0.9920 -0.0879
 7588SOL    HW134397   3.285   0.398   2.969 -0.6012  2.0670 -0.4707
 7588SOL    HW234398   3.155   0.383   3.029 -1.0658  1.1968 -0.1503
 7589SOL     OW34399   0.764   3.396  14.087  0.5105  0.7088  0.0265
 7589SOL    HW134400   0.769   3.429  13.998  2.4481 -1.3324 -0.6289
 7589SOL    HW234401   0.857   3.395  14.110  0.7916 -0.9949 -1.1455
 7590SOL     OW34402   3.154   1.558   1.282  0.2614 -0.0470 -0.2424
 7590SOL    HW134403   3.091   1.610   1.232  0.3529 -1.7885 -2.1591
 7590SOL    HW234404   3.166   1.623   1.352  1.1416 -0.6345  0.1411
 7591SOL     OW34405   2.390   3.182   4.623  0.0886 -0.0309  0.0589
 7591SOL    HW134406   2.444   3.227   4.687 -1.9257  0.0487  1.6918
 7591SOL    HW234407   2.303   3.177   4.663 -0.7064 -1.9983 -1.9039
 7592SOL     OW34408   3.601   1.014  13.862 -0.2310  0.0847 -0.2831
 7592SOL    HW134409   3.536   0.989  13.928  0.8501  2.4287  1.6814
 7592SOL    HW234410   3.620   0.931  13.818  1.7621  0.5638 -0.3436
 7593SOL     OW34411   0.410   1.938   3.034  0.6247  0.2681  0.2478
 7593SOL    HW134412   0.434   1.932   3.126 -0.9959 -0.1859  0.6332
 7593SOL    HW234413   0.490   1.958   2.985 -1.0556  1.2907 -2.0833
 7594SOL     OW34414   3.859   1.331   1.969  0.0053 -0.6059 -0.2924
 7594SOL    HW134415   3.893   1.405   2.020  0.1401 -0.6658 -0.2957
 7594SOL    HW234416   3.845   1.265   2.037  0.7383  0.5331  0.9676
 7595SOL     OW34417   1.960   2.247   0.337  0.2359  0.5971  0.1705
 7595SOL    HW134418   1.920   2.253   0.424 -1.1983 -0.8649 -0.3638
 7595SOL    HW234419   1.904   2.184   0.292 -0.8364  2.2012 -0.7455
 7596SOL     OW34420   3.134   1.678   7.392 -0.5080 -0.0318 -0.2728
 7596SOL    HW134421   3.045   1.690   7.425 -0.9324 -0.4658 -1.2778
 7596SOL    HW234422   3.107   1.635   7.311 -0.2445 -2.3651  0.8686
 7597SOL     OW34423   0.666   1.467  17.500 -0.1413  0.3852 -0.2000
 7597SOL    HW134424   0.699   1.523  17.429 -0.7571  1.0658  0.0577
 7597SOL    HW234425   0.680   1.380  17.460 -0.7905  0.8665 -1.4814
 7598SOL     OW34426   2.477   3.451   5.831 -0.2090 -0.2622 -0.4271
 7598SOL    HW134427   2.459   3.427   5.740 -0.6721  1.0423 -0.6802
 7598SOL    HW234428   2.501   3.364   5.861  0.2399  1.2484  3.5969
 7599SOL     OW34429   0.855   1.332   6.367  0.1131  0.7749  0.1639
 7599SOL    HW134430   0.920   1.362   6.303  0.0552 -1.4234 -0.9209
 7599SOL    HW234431   0.786   1.298   6.310  0.0137  2.0282 -0.4469
 7600SOL     OW34432   3.499   2.224   3.442  0.0950  0.4752  0.2057
 7600SOL    HW134433   3.528   2.298   3.389  0.1976 -0.2612 -0.7607
 7600SOL    HW234434   3.445   2.174   3.381  1.2617 -0.8737  0.2624
 7601SOL     OW34435   3.988   2.501  17.429 -0.4537  0.1422 -0.3973
 7601SOL    HW134436   3.942   2.427  17.390 -0.9328  0.4408 -0.3962
 7601SOL    HW234437   3.935   2.570  17.389 -1.0891  0.2144  0.5682
 7602SOL     OW34438   0.636   0.062   5.527 -0.7123  0.1334  0.3668
 7602SOL    HW134439   0.582   4.729   5.490 -1.8138  1.4750 -0.6072
 7602SOL    HW234440   0.569   0.119   5.565 -0.0833  0.9418  0.2572
 7603SOL     OW34441   3.625   4.122   1.525 -0.7435 -0.4830  0.1916
 7603SOL    HW134442   3.643   4.039   1.569  0.5518 -0.1945  0.2100
 7603SOL    HW234443   3.669   4.182   1.585 -1.3320  0.2744 -0.1412
 7604SOL     OW34444   0.326   3.277   9.352 -0.9192 -0.2503 -0.6553
 7604SOL    HW134445   0.286   3.363   9.352  1.8792  1.0425  2.4140
 7604SOL    HW234446   0.308   3.251   9.443  3.8561 -1.0781  0.0826
 7605SOL     OW34447   0.625   0.932   5.631 -0.8717 -0.1547  0.5826
 7605SOL    HW134448   0.712   0.971   5.641 -0.6819 -0.7950  1.3882
 7605SOL    HW234449   0.582   1.002   5.581 -0.5881  0.8977  1.8301
 7606SOL     OW34450   4.678   0.155   6.245  0.0863 -0.4599 -0.1169
 7606SOL    HW134451   4.682   0.104   6.325  0.0142  1.7871  1.3207
 7606SOL    HW234452   4.731   0.107   6.182  0.1751 -1.0303  0.4009
 7607SOL     OW34453   2.173   2.550   9.373  0.1149 -0.0936 -0.4658
 7607SOL    HW134454   2.106   2.527   9.437  1.4524  0.1604  1.0234
 7607SOL    HW234455   2.120   2.607   9.317 -0.8752 -1.6641 -1.1270
 7608SOL     OW34456   2.142   2.512  14.304 -0.1120 -0.1932  0.3529
 7608SOL    HW134457   2.233   2.539  14.287  0.0672 -0.3432  1.0716
 7608SOL    HW234458   2.115   2.468  14.224  1.8536  1.1284 -1.0411
 7609SOL     OW34459   1.987   4.424  12.013 -0.2429 -0.0911  0.2503
 7609SOL    HW134460   2.006   4.410  12.105 -0.0630 -0.1622  0.2028
 7609SOL    HW234461   2.076   4.440  11.981 -0.6957  0.2611 -0.8339
 7610SOL     OW34462   1.039   2.035   1.994 -0.0605  0.2910  0.5209
 7610SOL    HW134463   0.975   2.057   2.061 -1.5699  2.2107 -1.5407
 7610SOL    HW234464   1.125   2.042   2.035 -0.5531  0.4359  1.5141
 7611SOL     OW34465   0.739   1.794  16.617  0.3015 -0.3634 -0.2473
 7611SOL    HW134466   0.723   1.725  16.552 -0.7277 -1.3389  1.0482
 7611SOL    HW234467   0.828   1.765  16.638  0.6936 -0.3699 -1.9281
 7612SOL     OW34468   3.631   1.477   5.249  0.3672  0.2117  0.3934
 7612SOL    HW134469   3.704   1.425   5.283 -0.6397 -0.4704  1.5036
 7612SOL    HW234470   3.557   1.427   5.285 -0.0674  1.9225  1.8556
 7613SOL     OW34471   1.823   0.338  17.184 -0.3592 -0.1814 -0.1710
 7613SOL    HW134472   1.788   0.260  17.226  2.5786 -1.8586 -0.7816
 7613SOL    HW234473   1.750   0.348  17.123  0.9383 -0.2715 -1.7538
 7614SOL     OW34474   0.199   3.525   3.222 -0.7709 -0.0761 -0.0311
 7614SOL    HW134475   0.197   3.503   3.129 -1.8918  1.3355 -0.3417
 7614SOL    HW234476   0.128   3.589   3.230 -0.3959  0.3601 -0.2353
 7615SOL     OW34477   1.830   0.599   5.897 -0.6262  0.2098 -0.6677
 7615SOL    HW134478   1.767   0.573   5.831 -2.0251  2.5616 -0.2753
 7615SOL    HW234479   1.891   0.658   5.851  0.9180  0.5397  1.7746
 7616SOL     OW34480   2.288   1.226   9.380  0.2250 -0.0508  0.1082
 7616SOL    HW134481   2.263   1.317   9.366  2.1806  0.0750 -2.6714
 7616SOL    HW234482   2.302   1.230   9.474  0.3951 -0.7322  0.1136
 7617SOL     OW34483   2.174   2.133   4.814 -0.0657 -0.3675  0.3373
 7617SOL    HW134484   2.261   2.171   4.827 -1.0296  1.6212  0.9827
 7617SOL    HW234485   2.180   2.052   4.763  1.9600  0.7967 -1.2698
 7618SOL     OW34486   1.933   1.542   3.268 -0.0848  0.5625  0.2015
 7618SOL    HW134487   1.851   1.494   3.266 -0.0860  0.6601 -1.8915
 7618SOL    HW234488   1.913   1.606   3.199  3.7981  1.2520 -0.3218
 7619SOL     OW34489   3.285   0.154   1.594  0.0871 -0.5488 -0.2360
 7619SOL    HW134490   3.206   0.183   1.547  0.1089  1.3032  0.8439
 7619SOL    HW234491   3.349   0.141   1.525  2.7650 -0.4063  2.2080
 7620SOL     OW34492   4.489   3.410   6.918  0.3705  0.1140  0.5385
 7620SOL    HW134493   4.444   3.338   6.875  0.1210  1.4158 -1.3866
 7620SOL    HW234494   4.576   3.372   6.932  0.2797  0.2885  1.5846
 7621SOL     OW34495   2.291   1.076   4.880  0.6639 -0.5006  0.8068
 7621SOL    HW134496   2.235   1.113   4.812 -0.2148 -0.1971  1.6913
 7621SOL    HW234497   2.227   1.025   4.930 -1.1395  1.0232  0.0717
 7622SOL     OW34498   3.325   1.913   8.993  0.3025  0.2419 -0.2384
 7622SOL    HW134499   3.268   1.843   8.960  1.4996 -1.1083  0.5714
 7622SOL    HW234500   3.277   1.984   8.950  1.2531  0.1007 -1.4997
 7623SOL     OW34501   0.422   3.235  13.418  0.5796 -0.4456 -0.0450
 7623SOL    HW134502   0.336   3.277  13.413  0.2893 -0.8697  1.2763
 7623SOL    HW234503   0.430   3.194  13.332 -0.7976 -0.5954 -0.1055
 7624SOL     OW34504   3.438   2.074   0.637 -0.5275 -0.2622  0.1945
 7624SOL    HW134505   3.470   2.031   0.558 -2.3027 -1.5986  0.1990
 7624SOL    HW234506   3.415   2.160   0.601 -1.4561 -0.7407 -0.3688
 7625SOL     OW34507   1.543   1.118   8.781 -0.3336 -0.9992  0.1062
 7625SOL    HW134508   1.612   1.181   8.799 -2.9219  0.7607  3.8006
 7625SOL    HW234509   1.555   1.108   8.686  1.7873 -3.3046  0.6110
 7626SOL     OW34510   1.564   3.718   9.302  0.0538  0.2418  0.0934
 7626SOL    HW134511   1.631   3.761   9.354  0.8867 -0.1692 -0.6200
 7626SOL    HW234512   1.602   3.742   9.217 -1.1271  1.1913 -0.1558
 7627SOL     OW34513   2.997   1.136   4.886  0.5284 -0.1855  0.2252
 7627SOL    HW134514   3.011   1.054   4.837  0.0777 -0.2729  0.2449
 7627SOL    HW234515   3.064   1.197   4.855  0.0307  0.1004 -0.2855
 7628SOL     OW34516   0.981   3.410  16.764 -0.0554 -0.3740  0.8233
 7628SOL    HW134517   1.064   3.451  16.791 -0.8455  2.3677 -0.9400
 7628SOL    HW234518   1.015   3.324  16.742 -0.3762  0.5030 -3.1031
 7629SOL     OW34519   3.314   1.684   8.069 -0.1038 -0.1624  0.0947
 7629SOL    HW134520   3.362   1.760   8.037 -0.7923  0.0834 -0.3631
 7629SOL    HW234521   3.385   1.621   8.070  0.8869  0.9602 -0.0049
 7630SOL     OW34522   0.637   1.033  16.259 -0.5470 -0.6056  0.7270
 7630SOL    HW134523   0.711   1.009  16.204 -2.2518  1.3636 -2.3727
 7630SOL    HW234524   0.678   1.032  16.346 -1.2185 -2.2366  1.0172
 7631SOL     OW34525   2.058   2.428   2.764 -0.6082 -0.1574 -0.6039
 7631SOL    HW134526   2.045   2.490   2.692 -1.6627  1.6274  1.1359
 7631SOL    HW234527   2.144   2.388   2.747 -0.4707  0.3862 -1.2034
 7632SOL     OW34528   3.078   0.954   4.068  0.6883  0.4603  0.2216
 7632SOL    HW134529   2.991   0.929   4.034 -0.0702  0.6364  2.0255
 7632SOL    HW234530   3.074   1.047   4.047  4.1292  0.2282 -1.2958
 7633SOL     OW34531   0.913   1.574   8.460  0.2010  0.0290 -0.1575
 7633SOL    HW134532   0.968   1.496   8.463 -0.6689 -0.6062 -0.5985
 7633SOL    HW234533   0.950   1.640   8.518 -0.3404 -1.3447  1.7879
 7634SOL     OW34534   1.719   0.189   5.691 -0.3528  0.1855 -0.5219
 7634SOL    HW134535   1.742   0.097   5.703  1.7344  0.7074 -0.5204
 7634SOL    HW234536   1.711   0.211   5.784 -0.5874 -0.7827 -0.3119
 7635SOL     OW34537   0.221   2.264   5.129 -0.0996  0.2477  0.3402
 7635SOL    HW134538   0.200   2.238   5.219  1.6078 -2.1286  0.0385
 7635SOL    HW234539   0.316   2.260   5.123  0.0118  1.9582  0.8465
 7636SOL     OW34540   0.056   1.856   5.422 -0.0434 -0.2980 -0.0539
 7636SOL    HW134541   0.095   1.794   5.483  2.0394  1.7684  0.7279
 7636SOL    HW234542   0.071   1.820   5.335  2.0338  0.2615  0.0776
 7637SOL     OW34543   2.418   2.740   2.375  0.3710  0.2348  0.2109
 7637SOL    HW134544   2.364   2.759   2.299  3.0743 -0.4429 -1.8845
 7637SOL    HW234545   2.442   2.648   2.363 -2.0476 -0.3509 -0.1297
 7638SOL     OW34546   2.696   2.836   0.402 -0.3605 -0.1209 -0.2697
 7638SOL    HW134547   2.764   2.884   0.354 -1.1239  1.2438  0.0333
 7638SOL    HW234548   2.708   2.753   0.355 -0.3413  1.4979 -3.1402
 7639SOL     OW34549   3.327   3.650   8.650 -0.5251 -0.4453  0.1239
 7639SOL    HW134550   3.302   3.624   8.561  0.2746  1.4040 -0.6285
 7639SOL    HW234551   3.243   3.659   8.694 -0.7197 -0.6995 -0.1916
 7640SOL     OW34552   3.889   0.583   3.337 -0.2564 -0.2673  0.0284
 7640SOL    HW134553   3.984   0.583   3.343 -0.1825 -1.4234 -1.1025
 7640SOL    HW234554   3.872   0.643   3.410  1.6484 -1.2394  1.2658
 7641SOL     OW34555   1.912   4.051   4.230  0.3764  0.8373 -0.2527
 7641SOL    HW134556   1.943   4.051   4.321  0.4365  2.5511 -0.2773
 7641SOL    HW234557   1.903   4.144   4.213  0.3943 -0.0250 -5.1047
 7642SOL     OW34558   4.674   2.444  14.353  0.6860 -0.3649 -0.0694
 7642SOL    HW134559   4.720   2.472  14.432 -0.4106  0.8351  0.1505
 7642SOL    HW234560   4.582   2.456  14.378  0.7433 -2.7350  1.3806
 7643SOL     OW34561   1.571   4.677  11.949 -0.2768  0.1252  0.5487
 7643SOL    HW134562   1.655   4.723  11.939  0.1871 -0.9867 -0.6649
 7643SOL    HW234563   1.608   4.595  11.915 -0.3100  0.4722 -0.3072
 7644SOL     OW34564   2.084   4.405   3.483  0.2285 -0.0914 -0.2170
 7644SOL    HW134565   2.018   4.335   3.484 -2.4832  2.5230  1.4956
 7644SOL    HW234566   2.025   4.481   3.483 -0.2086 -0.4309  0.6146
 7645SOL     OW34567   1.375   0.942   9.538 -0.2334  0.2932 -0.1787
 7645SOL    HW134568   1.424   0.940   9.621  1.9807 -1.6778 -1.5257
 7645SOL    HW234569   1.284   0.938   9.566  0.2339  1.3123  1.4811
 7646SOL     OW34570   0.278   1.399  12.778 -0.0563  0.0538 -0.5418
 7646SOL    HW134571   0.290   1.492  12.801 -0.2316 -0.4292  1.4784
 7646SOL    HW234572   0.369   1.372  12.790  0.5496  0.3744 -4.1570
 7647SOL     OW34573   2.026   4.198   2.317  0.1134  0.4033 -0.6153
 7647SOL    HW134574   1.963   4.187   2.388  0.9607 -1.5952 -0.1798
 7647SOL    HW234575   2.106   4.220   2.366  1.1104 -3.3307 -0.5232
 7648SOL     OW34576   1.339   3.949  11.323 -0.3067  0.2341 -0.1644
 7648SOL    HW134577   1.402   3.879  11.339 -0.5919 -0.5829 -2.6517
 7648SOL    HW234578   1.265   3.894  11.297 -0.0465 -0.3495  0.3250
 7649SOL     OW34579   3.513   4.209   9.270 -0.7798 -0.1396  0.0441
 7649SOL    HW134580   3.504   4.235   9.362 -1.4885 -0.6921  0.1263
 7649SOL    HW234581   3.563   4.128   9.279 -1.7117 -0.9664 -2.2806
 7650SOL     OW34582   2.513   3.368   2.456  0.0579 -0.2369  0.5153
 7650SOL    HW134583   2.453   3.434   2.421  0.1931  0.4163  1.5409
 7650SOL    HW234584   2.577   3.424   2.499  1.7149 -1.9421  0.3067
 7651SOL     OW34585   3.564   4.680   1.686 -0.2185  0.1259  0.0388
 7651SOL    HW134586   3.633   4.614   1.683  1.6618  2.0961 -0.0485
 7651SOL    HW234587   3.503   4.641   1.748  1.3523 -0.2731  1.3367
 7652SOL     OW34588   0.273   3.660  10.564 -0.2484  0.0776 -0.4345
 7652SOL    HW134589   0.254   3.682  10.656 -0.5367 -1.9686 -0.0026
 7652SOL    HW234590   0.217   3.724  10.521  0.4444  1.8183  1.2611
 7653SOL     OW34591   4.542   1.950   5.849  0.2094  0.0336 -0.4087
 7653SOL    HW134592   4.603   1.876   5.849 -1.1611 -1.0895  0.6748
 7653SOL    HW234593   4.558   1.979   5.759 -1.2946  1.9310 -0.0812
 7654SOL     OW34594   3.687   2.092   8.062  0.1881  0.1410  0.1147
 7654SOL    HW134595   3.740   2.170   8.079 -0.5817  0.8920 -0.9351
 7654SOL    HW234596   3.743   2.025   8.100 -1.2827 -0.1188  1.8189
 7655SOL     OW34597   1.862   4.029   8.939  0.7872 -0.4080 -0.0072
 7655SOL    HW134598   1.904   3.988   9.015 -0.1868 -0.2332  0.6296
 7655SOL    HW234599   1.796   4.077   8.990 -0.1919 -1.4343 -0.3175
 7656SOL     OW34600   3.188   4.166   7.135 -0.4228 -0.4359  0.1818
 7656SOL    HW134601   3.104   4.205   7.111  1.4444  1.9443 -2.4535
 7656SOL    HW234602   3.155   4.077   7.152  1.6472 -1.1769  0.2759
 7657SOL     OW34603   2.757   3.305   4.566  0.9698 -0.3591 -0.4737
 7657SOL    HW134604   2.707   3.265   4.495  1.3228  0.5287 -1.2112
 7657SOL    HW234605   2.842   3.285   4.527 -0.1786  0.2682 -3.2784
 7658SOL     OW34606   1.453   0.853   2.959  0.5107  0.4814  0.2574
 7658SOL    HW134607   1.480   0.875   3.048 -1.0737 -0.4380  0.9632
 7658SOL    HW234608   1.457   0.758   2.957 -0.1662  0.4526  0.5247
 7659SOL     OW34609   4.220   2.315   0.628 -0.9403  0.0388 -0.0024
 7659SOL    HW134610   4.157   2.293   0.560 -1.1658 -1.4069  0.6665
 7659SOL    HW234611   4.173   2.387   0.670 -3.1566 -0.4230 -1.6887
 7660SOL     OW34612   4.049   4.589  11.583 -0.3339 -0.5297 -0.7880
 7660SOL    HW134613   4.122   4.649  11.570 -0.5473 -0.1125 -0.0018
 7660SOL    HW234614   3.997   4.642  11.643 -0.9072  0.1484 -1.8891
 7661SOL     OW34615   0.727   3.142   7.147  0.5890  0.0444 -0.0518
 7661SOL    HW134616   0.782   3.215   7.119  1.5731  0.2243  2.2737
 7661SOL    HW234617   0.781   3.066   7.125 -0.8653 -0.7876 -0.7162
 7662SOL     OW34618   4.599   2.145   3.170  0.0683  0.1464 -0.0695
 7662SOL    HW134619   4.648   2.198   3.108 -0.9497  1.1835  0.0128
 7662SOL    HW234620   4.537   2.091   3.120  1.3581 -0.5541 -0.9092
 7663SOL     OW34621   2.227   3.378   6.421  0.0714 -0.6687 -0.6819
 7663SOL    HW134622   2.318   3.405   6.427 -0.6787  1.7744 -0.3741
 7663SOL    HW234623   2.253   3.296   6.380  3.3658  0.2497 -0.3738
 7664SOL     OW34624   1.436   0.779   3.350 -0.2256  0.1637  0.0171
 7664SOL    HW134625   1.517   0.805   3.393 -1.2936  0.7551  1.6675
 7664SOL    HW234626   1.444   0.819   3.263 -0.8421  1.0464  0.3636
 7665SOL     OW34627   0.453   1.207   7.659 -0.2250 -0.5735  0.6059
 7665SOL    HW134628   0.488   1.118   7.660  0.8761 -0.1464  0.3488
 7665SOL    HW234629   0.403   1.207   7.741 -0.1681 -2.5528  0.6493
 7666SOL     OW34630   2.941   4.336   3.849  0.0795 -0.4578  0.2434
 7666SOL    HW134631   2.985   4.255   3.825  0.4086 -0.1010 -0.3647
 7666SOL    HW234632   2.851   4.302   3.847  0.5351 -1.6540 -0.0068
 7667SOL     OW34633   1.212   1.050  12.983  0.3062  0.3870 -0.2952
 7667SOL    HW134634   1.269   0.999  13.041  1.8931  0.4927 -1.7839
 7667SOL    HW234635   1.254   1.136  12.981  1.4947 -0.1435  1.4698
 7668SOL     OW34636   1.548   0.963   9.747  0.5054  0.0512 -0.9943
 7668SOL    HW134637   1.601   0.907   9.804  1.4499  0.8428 -1.0879
 7668SOL    HW234638   1.523   1.033   9.807  0.4246 -1.1651  0.3913
 7669SOL     OW34639   1.749   1.748   6.941 -0.0349 -0.3783 -0.2554
 7669SOL    HW134640   1.696   1.689   6.995 -1.6356  0.9037 -0.4373
 7669SOL    HW234641   1.675   1.776   6.887  1.0785  2.7679 -0.1815
 7670SOL     OW34642   2.885   0.697   5.155 -0.2455 -0.0147  0.2815
 7670SOL    HW134643   2.920   0.677   5.069  0.1449 -2.5722  1.0329
 7670SOL    HW234644   2.928   0.778   5.182 -0.2893 -0.6318  2.2360
 7671SOL     OW34645   3.562   2.428   1.163  0.2804  0.3198 -0.0984
 7671SOL    HW134646   3.509   2.430   1.084  0.3172  0.2510 -0.1245
 7671SOL    HW234647   3.530   2.513   1.195 -1.2830  0.7368 -2.8545
 7672SOL     OW34648   4.198   2.093   8.642 -0.5375  0.4386  0.6059
 7672SOL    HW134649   4.132   2.044   8.690 -3.7874  3.2158 -0.9474
 7672SOL    HW234650   4.279   2.064   8.682  0.5596 -0.8183 -2.4993
 7673SOL     OW34651   2.798   2.415   4.832 -0.2551  0.1338 -0.1278
 7673SOL    HW134652   2.775   2.322   4.827  3.5028 -0.8630  0.9637
 7673SOL    HW234653   2.855   2.427   4.756  0.4666  0.2217  0.4259
 7674SOL     OW34654   4.036   0.160   7.759 -0.1980 -0.0133  0.1489
 7674SOL    HW134655   4.073   0.141   7.846 -0.8080 -0.8396  0.2311
 7674SOL    HW234656   4.079   0.245   7.749  0.4209 -0.2665  0.6176
 7675SOL     OW34657   0.432   4.441  13.644 -0.7219 -0.2105  0.0134
 7675SOL    HW134658   0.435   4.463  13.551  1.5679  1.0093  0.3483
 7675SOL    HW234659   0.509   4.385  13.655 -0.1302  0.0825 -2.5329
 7676SOL     OW34660   3.280   1.784  14.483 -0.2387  0.3538 -0.2258
 7676SOL    HW134661   3.256   1.692  14.496 -0.8862  0.3651 -1.3766
 7676SOL    HW234662   3.291   1.779  14.388  0.2771 -1.9637 -0.0482
 7677SOL     OW34663   3.379   2.384   4.100 -0.1537 -0.0004 -0.3459
 7677SOL    HW134664   3.304   2.444   4.106  0.9826  1.1237  2.3451
 7677SOL    HW234665   3.395   2.372   4.193  1.2394  0.6623 -0.5078
 7678SOL     OW34666   3.164   1.334  10.985  1.1937 -1.2582  0.2271
 7678SOL    HW134667   3.126   1.419  11.006 -2.7724 -3.6278  2.5242
 7678SOL    HW234668   3.211   1.316  11.066 -1.1108 -2.6186  1.2580
 7679SOL     OW34669   0.565   2.160   3.521  0.1300  0.6188 -0.4838
 7679SOL    HW134670   0.621   2.217   3.468 -0.5231  0.8753 -0.8933
 7679SOL    HW234671   0.518   2.223   3.574  0.9198 -0.0043  0.9550
 7680SOL     OW34672   4.736   3.294  13.761  0.8325 -0.8282 -0.4325
 7680SOL    HW134673   0.062   3.342  13.815  0.7017 -0.9994 -0.1320
 7680SOL    HW234674   0.035   3.206  13.761  0.1329 -1.1060  1.2863
 7681SOL     OW34675   3.656   1.974   0.072  0.4522 -0.0289 -0.1513
 7681SOL    HW134676   3.742   1.964   0.112 -0.0178  2.1002  1.3968
 7681SOL    HW234677   3.659   2.065   0.045 -0.8853  0.5732  1.7112
 7682SOL     OW34678   3.777   0.414   5.195 -0.9942  0.0393  0.1122
 7682SOL    HW134679   3.762   0.369   5.112 -1.9817 -0.6507  0.6639
 7682SOL    HW234680   3.848   0.472   5.167 -1.6749  0.9161  0.1784
 7683SOL     OW34681   2.527   3.817   4.375 -0.1219  0.8756  0.7704
 7683SOL    HW134682   2.432   3.808   4.384  0.0747 -1.7138  0.1349
 7683SOL    HW234683   2.556   3.788   4.462 -1.3774 -1.2049  0.5002
 7684SOL     OW34684   1.016   4.531   1.800  0.5785 -0.4191  0.0283
 7684SOL    HW134685   0.975   4.517   1.885  0.8473 -2.5453 -0.1779
 7684SOL    HW234686   0.940   4.570   1.757  0.7276 -0.7949 -0.5864
 7685SOL     OW34687   4.313   4.002   6.506 -0.0726  0.5286 -0.5093
 7685SOL    HW134688   4.356   4.070   6.557  0.6902 -0.1684 -0.2282
 7685SOL    HW234689   4.391   3.971   6.460 -0.1046  0.0503 -0.2342
 7686SOL     OW34690   0.500   4.190   5.754 -0.1867  0.0756 -0.0663
 7686SOL    HW134691   0.409   4.176   5.728 -0.5581 -0.0337  1.3310
 7686SOL    HW234692   0.540   4.191   5.667 -0.8261 -0.6328 -0.3680
 7687SOL     OW34693   0.212   1.986   8.015 -0.6633 -0.3451  0.1194
 7687SOL    HW134694   0.151   2.018   8.081 -0.6659 -0.5975  0.2373
 7687SOL    HW234695   0.232   2.070   7.973 -1.2358  0.1753  0.8889
 7688SOL     OW34696   2.358   2.567   4.335 -0.7497  0.4950  0.5113
 7688SOL    HW134697   2.343   2.620   4.257 -0.0353 -1.4708 -0.9492
 7688SOL    HW234698   2.284   2.594   4.390 -1.6410  0.2189 -0.5522
 7689SOL     OW34699   2.280   0.919  17.296 -0.6602  0.4776  1.2180
 7689SOL    HW134700   2.306   0.839  17.250  0.0516  1.5945 -0.3115
 7689SOL    HW234701   2.341   0.985  17.264  0.8847 -1.0472  1.0507
 7690SOL     OW34702   2.365   2.088   2.679 -0.0919  0.7842 -0.0671
 7690SOL    HW134703   2.322   2.026   2.620 -1.2182  1.4797  0.0165
 7690SOL    HW234704   2.317   2.168   2.655 -2.1453 -0.7926 -1.1897
 7691SOL     OW34705   0.824   0.071   9.731 -0.4539  0.0044  0.7698
 7691SOL    HW134706   0.860   0.058   9.643 -2.9667  2.0986 -0.5855
 7691SOL    HW234707   0.900   0.082   9.788 -0.7605  1.6813  0.8514
 7692SOL     OW34708   0.722   3.078   0.840 -0.0657 -0.1609  0.0553
 7692SOL    HW134709   0.704   3.081   0.746 -0.8293  2.3188  0.3008
 7692SOL    HW234710   0.815   3.100   0.829 -0.4669  0.6613 -1.7162
 7693SOL     OW34711   4.666   3.117  13.428  0.6190 -0.1448 -1.1273
 7693SOL    HW134712   4.599   3.052  13.450 -0.0871  0.5609 -1.2132
 7693SOL    HW234713   4.609   3.180  13.384 -0.6776 -0.6543 -0.1848
 7694SOL     OW34714   1.621   2.877   6.478 -0.0455 -0.0468 -0.1722
 7694SOL    HW134715   1.667   2.800   6.443  0.1195 -0.2514  0.4998
 7694SOL    HW234716   1.676   2.948   6.445 -0.7809  0.3576 -0.5379
 7695SOL     OW34717   0.027   3.533   2.604  0.0722  0.3894  0.0829
 7695SOL    HW134718   0.018   3.611   2.658 -0.9520 -0.0447  0.5448
 7695SOL    HW234719   0.074   3.567   2.528  0.3805  0.0588  0.1222
 7696SOL     OW34720   3.642   3.776   0.814 -0.2325 -0.1379 -0.4215
 7696SOL    HW134721   3.648   3.703   0.875 -0.9433 -1.3406 -1.7876
 7696SOL    HW234722   3.619   3.730   0.733 -0.7492  1.4454 -1.1754
 7697SOL     OW34723   4.212   0.770   2.698  0.5416 -0.5650  0.0190
 7697SOL    HW134724   4.257   0.837   2.749 -1.0940 -2.0017  3.3047
 7697SOL    HW234725   4.134   0.761   2.752  1.6536 -0.7879  1.5887
 7698SOL     OW34726   0.297   3.246   9.604  0.4222  0.0384  0.2398
 7698SOL    HW134727   0.279   3.321   9.661 -0.0352  0.0322  0.1008
 7698SOL    HW234728   0.206   3.217   9.604 -0.0402  1.4925 -0.9338
 7699SOL     OW34729   4.487   0.797  14.025  0.8056 -0.3378  0.2775
 7699SOL    HW134730   4.452   0.875  14.068 -1.2326 -1.3615  0.4739
 7699SOL    HW234731   4.409   0.764  13.981  1.2528 -0.8590 -0.1095
 7700SOL     OW34732   3.178   2.650   3.432  0.2803  0.0098  0.1698
 7700SOL    HW134733   3.222   2.622   3.352 -0.7648 -1.4136  0.0860
 7700SOL    HW234734   3.243   2.705   3.475  1.6435 -1.5106  0.0612
 7701SOL     OW34735   3.405   3.691   7.580  0.5700  0.2953 -0.1986
 7701SOL    HW134736   3.320   3.735   7.580  0.8277  0.7593 -1.8488
 7701SOL    HW234737   3.391   3.598   7.598  0.3758  0.3731  0.0543
 7702SOL     OW34738   0.008   4.522  12.734  0.0461  0.1955  0.1947
 7702SOL    HW134739   0.081   4.584  12.742  1.7609 -1.8506  0.5527
 7702SOL    HW234740   0.046   4.451  12.786 -0.4559 -1.2169 -1.4107
 7703SOL     OW34741   0.663   4.006   4.690 -0.0081 -0.2005  0.2257
 7703SOL    HW134742   0.593   4.024   4.752  0.7902  0.5212  0.9098
 7703SOL    HW234743   0.705   3.934   4.737 -2.3082 -0.1497  2.3581
 7704SOL     OW34744   0.414   0.767   7.988 -0.2747 -0.1236 -0.2736
 7704SOL    HW134745   0.484   0.826   8.017 -3.2682  2.8230  0.9090
 7704SOL    HW234746   0.446   0.724   7.909 -1.0020  2.0407 -1.7363
 7705SOL     OW34747   3.538   3.168  15.030  0.5897  0.0521  0.3301
 7705SOL    HW134748   3.520   3.210  14.946 -2.5132 -0.1969  0.8904
 7705SOL    HW234749   3.483   3.216  15.091 -0.1113 -1.1906  0.6775
 7706SOL     OW34750   0.753   2.609   0.932  0.4691 -0.2169  0.2418
 7706SOL    HW134751   0.731   2.560   1.011 -0.4490 -1.1596 -0.5927
 7706SOL    HW234752   0.680   2.671   0.929  0.2124 -0.6568 -2.7691
 7707SOL     OW34753   3.482   0.024   2.619 -0.6769 -0.5304  0.7471
 7707SOL    HW134754   3.559   4.724   2.577 -0.1177 -0.5376  1.7978
 7707SOL    HW234755   3.510   0.067   2.699  1.5913 -0.3115 -0.1646
 7708SOL     OW34756   0.918   0.412   5.509  0.4470 -0.6614  0.2476
 7708SOL    HW134757   0.880   0.404   5.422  2.1507 -0.5766 -0.4917
 7708SOL    HW234758   0.983   0.343   5.499  1.3102 -0.0202  1.3815
 7709SOL     OW34759   3.733   0.095   6.839 -0.1462  0.0081  0.8619
 7709SOL    HW134760   3.750   0.031   6.770 -0.1618 -1.6758  2.4207
 7709SOL    HW234761   3.641   0.106   6.816  0.3869 -0.5160 -1.4776
 7710SOL     OW34762   3.442   3.573   6.288  0.8191 -0.6508  0.7160
 7710SOL    HW134763   3.533   3.589   6.315  0.9267  0.5867 -0.3455
 7710SOL    HW234764   3.463   3.576   6.195 -0.9937  0.5953  0.3431
 7711SOL     OW34765   2.526   3.199   0.300 -0.0953 -0.0205  0.1366
 7711SOL    HW134766   2.542   3.247   0.382  0.3879 -0.5026  0.3266
 7711SOL    HW234767   2.491   3.269   0.246 -0.4333 -0.3143 -0.0209
 7712SOL     OW34768   1.852   3.158   9.837 -0.3741  0.5789  0.3379
 7712SOL    HW134769   1.844   3.090   9.903 -2.0338  0.6548  0.2092
 7712SOL    HW234770   1.790   3.224   9.869 -1.6265 -0.0427 -0.8262
 7713SOL     OW34771   2.855   4.510   9.529  0.2740  0.2741  0.1551
 7713SOL    HW134772   2.801   4.443   9.488 -1.2105  2.1656 -1.0037
 7713SOL    HW234773   2.863   4.475   9.617 -1.5087 -1.7624 -0.4786
 7714SOL     OW34774   2.807   0.891   5.860 -0.0273 -0.0364  0.3346
 7714SOL    HW134775   2.783   0.940   5.781 -1.5025 -1.6727 -0.2225
 7714SOL    HW234776   2.856   0.815   5.827 -0.0838  0.0161  0.1280
 7715SOL     OW34777   0.429   3.716   2.993 -0.2313 -0.1347  1.1232
 7715SOL    HW134778   0.442   3.645   2.930 -3.4192  1.4889 -1.3697
 7715SOL    HW234779   0.515   3.717   3.035 -0.1214 -2.1593  0.9580
 7716SOL     OW34780   0.832   1.940   9.042 -0.6459  0.1616 -0.5362
 7716SOL    HW134781   0.864   1.851   9.028  1.0335  0.7943 -0.7693
 7716SOL    HW234782   0.917   1.983   9.034 -0.0698 -1.4591 -3.1424
 7717SOL     OW34783   2.973   4.059   6.304  0.2161 -0.3273  0.0263
 7717SOL    HW134784   3.013   4.113   6.237  1.1414 -0.2270  0.6572
 7717SOL    HW234785   2.950   4.131   6.363  0.4444 -1.5481  1.6205
 7718SOL     OW34786   1.406   4.443  17.315 -0.1822  0.0682  0.2039
 7718SOL    HW134787   1.321   4.409  17.342 -0.6739  0.0017 -1.4102
 7718SOL    HW234788   1.458   4.366  17.296 -1.0369 -0.5657  0.4360
 7719SOL     OW34789   3.442   4.647   9.182  0.5405  0.3293  0.3056
 7719SOL    HW134790   3.502   4.575   9.164 -1.6050 -1.1468 -0.8948
 7719SOL    HW234791   3.365   4.597   9.208  0.1352  1.4196  1.2046
 7720SOL     OW34792   3.337   2.178   7.301 -0.1809 -0.1441 -0.1424
 7720SOL    HW134793   3.346   2.083   7.287  0.0568 -0.1096 -0.2379
 7720SOL    HW234794   3.284   2.205   7.226 -0.8662 -1.4232 -0.1156
 7721SOL     OW34795   1.653   2.669  16.003 -0.3710  0.2859 -0.0928
 7721SOL    HW134796   1.583   2.605  16.019  0.7068 -0.5302  1.3787
 7721SOL    HW234797   1.646   2.678  15.908  2.1726  0.2345 -0.2779
 7722SOL     OW34798   4.628   4.174   1.786 -0.3312 -0.2967  0.0589
 7722SOL    HW134799   4.630   4.079   1.771 -2.9278 -0.4352  0.6539
 7722SOL    HW234800   4.551   4.200   1.736  1.0188  0.5555 -1.5852
 7723SOL     OW34801   1.753   2.596   3.868  0.0000 -0.0069 -0.1278
 7723SOL    HW134802   1.727   2.666   3.928 -1.4295  0.6514 -1.5227
 7723SOL    HW234803   1.847   2.616   3.864  0.0336 -0.1486 -0.0561
 7724SOL     OW34804   4.689   1.539   3.080 -0.3260 -0.5720 -0.3702
 7724SOL    HW134805   4.728   1.468   3.131  0.5682  0.3707  0.2479
 7724SOL    HW234806   4.710   1.518   2.989  0.2951 -3.6021  0.4842
 7725SOL     OW34807   0.530   0.378   7.644  0.0964  0.0601 -0.1852
 7725SOL    HW134808   0.594   0.306   7.646 -0.3559 -0.3873 -2.6017
 7725SOL    HW234809   0.504   0.373   7.552  0.9113 -1.6660 -0.3374
 7726SOL     OW34810   0.948   2.317   4.837 -0.0022 -0.3100  0.3339
 7726SOL    HW134811   0.946   2.223   4.853 -1.5372 -0.1168  1.2599
 7726SOL    HW234812   1.039   2.340   4.819 -0.0679 -1.1389 -1.0690
 7727SOL     OW34813   2.915   2.010  16.407  0.4479  0.5149 -0.1263
 7727SOL    HW134814   2.955   1.997  16.321  0.7596 -0.6304  0.1868
 7727SOL    HW234815   2.978   1.978  16.471  0.3035 -1.4046 -0.9508
 7728SOL     OW34816   3.574   1.548  14.616  0.0491  0.3798  0.2553
 7728SOL    HW134817   3.590   1.638  14.587  2.2573  0.5927  2.1062
 7728SOL    HW234818   3.634   1.502  14.558  0.0462 -0.1606  0.6806
 7729SOL     OW34819   2.260   3.877   4.859 -0.3130 -0.0837  0.2488
 7729SOL    HW134820   2.180   3.852   4.811  1.7301 -0.0264 -3.1813
 7729SOL    HW234821   2.322   3.869   4.787 -1.1616 -2.4663 -0.2039
 7730SOL     OW34822   1.737   3.121   3.811 -0.3102  0.3739 -0.0569
 7730SOL    HW134823   1.662   3.176   3.791  0.0582  0.0471 -2.3096
 7730SOL    HW234824   1.704   3.068   3.883  0.9252 -0.8528 -0.3941
 7731SOL     OW34825   2.255   0.087   2.568  0.0357  0.1558 -0.5313
 7731SOL    HW134826   2.328   0.145   2.589 -2.0224  2.8998 -0.8831
 7731SOL    HW234827   2.233   0.063   2.658 -2.5058 -1.0285 -1.4837
 7732SOL     OW34828   4.004   0.902  15.155 -0.0366  0.0173  0.8921
 7732SOL    HW134829   4.074   0.836  15.160  2.1739  2.0613 -2.8095
 7732SOL    HW234830   3.962   0.883  15.238  2.1272 -0.2373  1.9335
 7733SOL     OW34831   0.976   4.142   0.999 -0.3296 -0.0194  0.1123
 7733SOL    HW134832   1.042   4.073   1.001 -0.7656 -0.4251  0.5728
 7733SOL    HW234833   0.976   4.155   1.094  1.2363 -3.1920  0.5378
 7734SOL     OW34834   4.549   1.697  13.348 -0.0711 -0.0370  0.2368
 7734SOL    HW134835   4.554   1.790  13.325  0.2476 -0.4725 -1.4831
 7734SOL    HW234836   4.594   1.665  13.270  0.4717  2.7522 -0.6262
 7735SOL     OW34837   4.574   3.568   3.369 -0.2802 -0.2011  0.2507
 7735SOL    HW134838   4.642   3.622   3.328 -1.9549  1.1240 -0.7660
 7735SOL    HW234839   4.542   3.617   3.445 -0.5870 -1.9845  1.2630
 7736SOL     OW34840   3.372   1.561   6.385 -0.3690 -0.4788 -0.3054
 7736SOL    HW134841   3.282   1.583   6.407 -0.7742 -3.2600  0.7237
 7736SOL    HW234842   3.355   1.543   6.293  0.1347  0.6731 -0.6272
 7737SOL     OW34843   2.187   0.872   8.372  0.6196 -0.6173  0.0215
 7737SOL    HW134844   2.121   0.940   8.364  1.7508  0.5078  0.2765
 7737SOL    HW234845   2.248   0.907   8.437 -1.1974  2.3926  0.0893
 7738SOL     OW34846   0.745   2.831   9.853 -0.1941  0.3123 -0.0751
 7738SOL    HW134847   0.772   2.885   9.926  0.0715  1.7778 -1.2548
 7738SOL    HW234848   0.803   2.870   9.787 -0.1177  0.6321  0.1870
 7739SOL     OW34849   4.092   1.606  14.502  0.0010  0.2825 -0.4565
 7739SOL    HW134850   4.179   1.629  14.470  1.5642 -0.3714  3.3386
 7739SOL    HW234851   4.086   1.671  14.572 -1.4640 -0.7110  0.3608
 7740SOL     OW34852   0.709   2.478  11.814  0.4168 -0.3426  0.6165
 7740SOL    HW134853   0.692   2.506  11.724  1.7591  0.3483  0.5782
 7740SOL    HW234854   0.747   2.394  11.789  0.9064 -0.1511  0.7155
 7741SOL     OW34855   4.342   3.965   7.927 -0.0192  0.5017 -0.3693
 7741SOL    HW134856   4.295   3.974   7.844  2.4925  0.1021 -1.8438
 7741SOL    HW234857   4.270   3.949   7.988  0.1125  0.3193 -0.2626
 7742SOL     OW34858   4.476   0.084   5.588  0.2748  0.7050  0.4872
 7742SOL    HW134859   4.555   0.137   5.573  0.6865 -0.6605 -2.2130
 7742SOL    HW234860   4.463   0.103   5.680 -0.5019 -0.5716  0.6307
 7743SOL     OW34861   4.497   4.514  11.485 -0.7811  0.2263 -0.8777
 7743SOL    HW134862   4.521   4.422  11.501  0.5286  0.6641 -0.2950
 7743SOL    HW234863   4.576   4.556  11.520 -0.8594 -0.5872  0.3063
 7744SOL     OW34864   0.600   4.085   2.390  0.0643  0.3838  0.4063
 7744SOL    HW134865   0.588   4.169   2.435 -1.7337  0.0656  0.4980
 7744SOL    HW234866   0.517   4.072   2.345  0.4447 -1.1101  0.1540
 7745SOL     OW34867   2.791   2.168   7.762  0.4510 -0.3374  0.7678
 7745SOL    HW134868   2.789   2.076   7.732  1.0888  0.4810 -1.8296
 7745SOL    HW234869   2.874   2.194   7.721  0.6132 -0.5284  0.9770
 7746SOL     OW34870   4.336   1.067   4.720  0.6252  0.1254 -0.0597
 7746SOL    HW134871   4.386   0.985   4.723  1.9334  0.9352  0.2195
 7746SOL    HW234872   4.274   1.048   4.650  0.5770  0.8555 -0.2080
 7747SOL     OW34873   2.180   1.316   1.914  0.4010  0.1000  0.7263
 7747SOL    HW134874   2.217   1.247   1.969 -1.1206  0.2236  1.9069
 7747SOL    HW234875   2.240   1.312   1.840 -0.3208  1.4350  0.0717
 7748SOL     OW34876   3.105   4.639   2.027 -0.3184 -0.2612  0.1905
 7748SOL    HW134877   3.173   4.660   1.964 -1.1851 -0.0024 -0.6577
 7748SOL    HW234878   3.027   4.664   1.977 -0.4534 -0.6309  0.2151
 7749SOL     OW34879   1.238   3.633  11.646  0.5635 -0.0412 -0.1410
 7749SOL    HW134880   1.286   3.715  11.656 -0.4304  0.6968 -1.3927
 7749SOL    HW234881   1.161   3.667  11.601  0.4471  0.8000  0.6895
 7750SOL     OW34882   4.509   2.289   8.508 -0.6116  0.0535  0.5283
 7750SOL    HW134883   4.524   2.383   8.514  1.0590 -0.0486 -1.7458
 7750SOL    HW234884   4.598   2.273   8.476 -1.0405 -0.6881 -0.2893
 7751SOL     OW34885   3.723   2.240  14.380  0.0514  0.3836 -0.0473
 7751SOL    HW134886   3.690   2.163  14.426 -1.6765  1.9889  1.3991
 7751SOL    HW234887   3.714   2.204  14.292  0.0546 -0.4037  0.2724
 7752SOL     OW34888   2.294   1.130   0.920  0.0535 -0.0613  0.7039
 7752SOL    HW134889   2.221   1.192   0.923  0.5841  0.6958 -1.7874
 7752SOL    HW234890   2.310   1.144   0.827  0.4515  0.2306  0.8146
 7753SOL     OW34891   2.464   0.104   3.767  0.1884  0.0195  0.4595
 7753SOL    HW134892   2.523   0.179   3.754 -2.5985  2.1161 -0.1047
 7753SOL    HW234893   2.379   0.134   3.734 -0.1801  1.0759  2.3167
 7754SOL     OW34894   3.201   2.428   0.244 -0.0231  0.2294 -0.0527
 7754SOL    HW134895   3.250   2.387   0.172  1.9711  0.5926  1.0785
 7754SOL    HW234896   3.202   2.518   0.211  0.4073 -0.5726 -2.1841
 7755SOL     OW34897   1.473   0.877   1.197  0.3660 -0.2001  0.2839
 7755SOL    HW134898   1.459   0.802   1.254  0.6681 -0.4302  0.0530
 7755SOL    HW234899   1.568   0.869   1.189  0.5671  0.8496  1.6434
 7756SOL     OW34900   4.562   0.955   2.635 -0.1337  0.5578 -0.6015
 7756SOL    HW134901   4.581   0.921   2.548 -0.2976 -0.8267 -0.0976
 7756SOL    HW234902   4.564   0.878   2.691 -0.3319  0.4758 -0.7097
 7757SOL     OW34903   1.862   2.240   8.879  0.1546  0.3840 -0.4357
 7757SOL    HW134904   1.780   2.195   8.859 -0.6230  1.1013  1.1540
 7757SOL    HW234905   1.931   2.190   8.836  0.4223  0.4020 -0.0211
 7758SOL     OW34906   0.269   0.185   4.999  0.2173  0.0915 -0.0451
 7758SOL    HW134907   0.224   0.265   5.027 -1.8371 -1.2558  0.5375
 7758SOL    HW234908   0.346   0.177   5.056  0.6937  1.3173 -0.5227
 7759SOL     OW34909   2.951   1.895   2.303 -0.2519 -0.0890 -0.6751
 7759SOL    HW134910   2.967   1.930   2.215 -0.0879 -1.6039 -1.2543
 7759SOL    HW234911   2.894   1.821   2.280 -0.4391 -0.2444  0.2888
 7760SOL     OW34912   2.502   0.564   2.348 -0.0727 -0.3474  0.7847
 7760SOL    HW134913   2.483   0.616   2.270 -0.7909 -1.1086  0.4422
 7760SOL    HW234914   2.576   0.515   2.312 -0.5735 -1.1139  0.7669
 7761SOL     OW34915   4.340   3.358   9.173 -0.0557  0.0615 -0.2060
 7761SOL    HW134916   4.272   3.425   9.166  0.9871  1.1974  0.7061
 7761SOL    HW234917   4.292   3.287   9.217  2.3317 -0.8344  0.9333
 7762SOL     OW34918   3.688   1.612   6.011 -0.1753  0.4045 -0.6975
 7762SOL    HW134919   3.686   1.706   6.032  1.0362  0.0178  1.1438
 7762SOL    HW234920   3.779   1.605   5.985  0.5734  1.1381  1.7066
 7763SOL     OW34921   0.548   3.301   5.299 -0.5081  0.2422 -0.1746
 7763SOL    HW134922   0.640   3.284   5.319 -0.2391 -0.8060 -2.3033
 7763SOL    HW234923   0.512   3.217   5.326 -1.6812  0.2468 -1.7262
 7764SOL     OW34924   1.112   2.036  10.314  0.2376  0.0438 -0.0721
 7764SOL    HW134925   1.060   2.075  10.244  1.6400  3.2142  0.6553
 7764SOL    HW234926   1.057   1.977  10.365  1.5480 -0.9116  0.2190
 7765SOL     OW34927   2.323   4.723   5.573  0.5475  0.2524  0.2774
 7765SOL    HW134928   2.397   4.692   5.625 -0.9664 -0.3050  2.1116
 7765SOL    HW234929   2.256   0.025   5.629 -1.4612 -1.8173 -0.6719
 7766SOL     OW34930   4.239   2.868   9.429 -0.5464 -0.0886  0.4824
 7766SOL    HW134931   4.247   2.779   9.465 -1.6086 -0.1598  0.5440
 7766SOL    HW234932   4.328   2.888   9.402 -0.7638 -0.4836 -0.5142
 7767SOL     OW34933   1.991   1.683   2.240 -0.4815 -0.0768 -0.7118
 7767SOL    HW134934   2.040   1.755   2.199  0.0273  1.0918  1.9570
 7767SOL    HW234935   2.004   1.701   2.333 -0.0861 -0.8813 -0.6047
 7768SOL     OW34936   0.730   1.293  16.334  0.0930 -0.8551  0.5740
 7768SOL    HW134937   0.714   1.241  16.255 -1.7656  0.8436 -0.1849
 7768SOL    HW234938   0.643   1.293  16.375 -0.2894 -0.0160 -0.2228
 7769SOL     OW34939   3.265   4.529   6.489  0.1360 -0.0014 -0.1060
 7769SOL    HW134940   3.345   4.496   6.448  0.1569 -0.2164  0.1078
 7769SOL    HW234941   3.208   4.451   6.488  0.7061 -0.4243  0.2022
 7770SOL     OW34942   1.044   1.360  10.468 -0.2326 -1.0616 -0.2970
 7770SOL    HW134943   0.993   1.290  10.427 -2.3550 -0.7071  1.7631
 7770SOL    HW234944   1.043   1.430  10.402  0.7352 -0.0210  0.7844
 7771SOL     OW34945   3.131   0.783   3.170  0.7768  0.4978 -0.0262
 7771SOL    HW134946   3.151   0.871   3.200  0.3422 -0.0832  1.9563
 7771SOL    HW234947   3.132   0.733   3.252 -1.4140  1.6430  0.6638
 7772SOL     OW34948   0.721   1.004   4.991  0.1357  0.4892  0.8372
 7772SOL    HW134949   0.805   1.007   5.036 -1.1986 -1.8262  3.4522
 7772SOL    HW234950   0.727   1.053   4.909  0.5802 -1.2369 -0.1561
 7773SOL     OW34951   4.718   2.311   3.530 -0.5130  0.3164  0.3321
 7773SOL    HW134952   4.702   2.386   3.473 -0.2249 -0.1684 -0.3926
 7773SOL    HW234953   4.654   2.241   3.516 -0.1153 -0.0734  0.4434
 7774SOL     OW34954   1.924   2.184  11.068  0.5350 -0.6959 -0.1113
 7774SOL    HW134955   1.889   2.249  11.129  1.9206 -0.0265 -0.0406
 7774SOL    HW234956   1.846   2.172  11.014 -1.9344 -0.9445  3.4762
 7775SOL     OW34957   0.065   3.125   8.456 -0.3274 -0.1169 -0.6738
 7775SOL    HW134958   0.136   3.188   8.449  0.3227 -0.6455  1.1412
 7775SOL    HW234959   0.009   3.170   8.520 -2.2661 -2.5858 -0.6291
 7776SOL     OW34960   4.557   0.770   7.104  0.3880  0.2607 -0.2545
 7776SOL    HW134961   4.564   0.682   7.068  0.4515  0.5317 -0.8957
 7776SOL    HW234962   4.463   0.779   7.118  1.0234  0.1168  4.1769
 7777SOL     OW34963   1.471   4.391   8.090 -0.4281 -0.1472  0.5310
 7777SOL    HW134964   1.523   4.470   8.101 -1.7093  0.6421  0.7736
 7777SOL    HW234965   1.397   4.394   8.150 -1.2555 -0.5956 -0.4415
 7778SOL     OW34966   1.323   0.061   6.281 -0.0229 -0.6855 -0.0616
 7778SOL    HW134967   1.234   0.094   6.272  0.5991  0.3557 -2.3082
 7778SOL    HW234968   1.356   0.118   6.350 -1.6953  0.9633 -0.6361
 7779SOL     OW34969   0.385   4.430  17.303  0.4627  0.1656 -0.0356
 7779SOL    HW134970   0.375   4.352  17.358 -0.0994  0.3370  0.1047
 7779SOL    HW234971   0.450   4.475  17.356  0.4673 -0.0644  0.1548
 7780SOL     OW34972   2.767   4.504   4.818  0.2269  0.6678 -0.0110
 7780SOL    HW134973   2.785   4.452   4.740  2.5903  0.1929  0.8654
 7780SOL    HW234974   2.817   4.586   4.814  1.4155 -0.0149  0.7882
 7781SOL     OW34975   4.703   2.738   9.478  0.4326 -0.6805 -0.3410
 7781SOL    HW134976   4.736   2.689   9.402 -0.5109 -1.3403 -0.3250
 7781SOL    HW234977   0.036   2.802   9.485 -0.0992 -0.1962  0.5575
 7782SOL     OW34978   3.674   4.654   3.547  0.4538  0.2168  0.8672
 7782SOL    HW134979   3.641   4.678   3.634 -0.1228  1.6583  0.2424
 7782SOL    HW234980   3.702   4.737   3.509  0.7721  0.6266  2.0022
 7783SOL     OW34981   1.259   2.960   8.780 -0.4172 -0.0401  0.3295
 7783SOL    HW134982   1.182   2.942   8.726  0.8759 -1.1430 -1.1342
 7783SOL    HW234983   1.247   2.896   8.851  0.0384 -0.5671 -0.0614
 7784SOL     OW34984   4.086   3.991   5.951 -0.0095  0.0457 -0.4424
 7784SOL    HW134985   4.010   4.038   5.986  1.2821 -0.6017  3.2866
 7784SOL    HW234986   4.050   3.903   5.939  1.6063 -0.2818 -2.8241
 7785SOL     OW34987   3.776   1.402   7.787  0.1195  0.5818  0.5900
 7785SOL    HW134988   3.704   1.373   7.730 -0.1337  0.5007  0.9490
 7785SOL    HW234989   3.807   1.314   7.810  0.9400  0.2585 -1.6555
 7786SOL     OW34990   2.284   4.316   4.667  0.0670 -0.3522  0.0015
 7786SOL    HW134991   2.346   4.275   4.607  0.0546 -3.1784  1.9539
 7786SOL    HW234992   2.343   4.382   4.703  0.1728 -0.5858  0.2496
 7787SOL     OW34993   3.663   1.843   8.920 -0.3499 -0.5855  0.0391
 7787SOL    HW134994   3.637   1.793   8.843 -0.0493  0.9380 -1.0503
 7787SOL    HW234995   3.687   1.770   8.978  0.0859 -0.7892 -0.4018
 7788SOL     OW34996   4.297   1.249   5.572 -0.4509  0.9525 -0.8978
 7788SOL    HW134997   4.322   1.157   5.578 -0.4293  1.0624  0.6355
 7788SOL    HW234998   4.346   1.291   5.643 -2.4633 -0.1101  1.1403
 7789SOL     OW34999   4.028   3.105  17.376  0.3152  0.4502  0.5875
 7789SOL    HW135000   4.079   3.076  17.301  1.2140 -1.5789  1.9751
 7789SOL    HW235001   4.046   3.199  17.383 -3.5347  1.2744 -0.5466
 7790SOL     OW35002   2.525   3.010   0.858 -0.4444  0.3029 -0.0823
 7790SOL    HW135003   2.538   2.986   0.767 -0.7748  1.2700 -0.3822
 7790SOL    HW235004   2.599   2.963   0.897 -1.8810  0.1435  2.4976
 7791SOL     OW35005   1.960   3.705  16.942 -0.3669  0.0538  0.2779
 7791SOL    HW135006   2.040   3.740  16.981 -0.6315 -1.8775  2.5165
 7791SOL    HW235007   1.932   3.778  16.887 -0.2493  0.6668  1.0369
 7792SOL     OW35008   0.448   4.639  14.305  0.2564 -0.1870  0.1112
 7792SOL    HW135009   0.502   4.581  14.358 -2.2683 -1.2042  1.5745
 7792SOL    HW235010   0.490   4.626  14.220  1.7405  0.8957  0.6858
 7793SOL     OW35011   3.051   2.624   0.034  0.1802  0.2294 -0.0081
 7793SOL    HW135012   3.043   2.537  17.742 -0.4090 -0.0142  0.6613
 7793SOL    HW235013   3.034   2.683  17.708  0.2974 -0.5495 -0.6697
 7794SOL     OW35014   1.802   1.088   4.079  0.2869  0.0944  0.4448
 7794SOL    HW135015   1.884   1.088   4.031  0.8846  1.1987  1.4529
 7794SOL    HW235016   1.794   1.180   4.103  2.4058  0.3396  0.1919
 7795SOL     OW35017   2.342   3.510  14.157  0.1599 -0.4191 -0.0365
 7795SOL    HW135018   2.283   3.439  14.132  0.4990 -0.0199 -1.9891
 7795SOL    HW235019   2.296   3.586  14.119  1.3284  0.8036  1.0045
 7796SOL     OW35020   1.860   3.013   8.422  0.1638 -0.1870 -0.1793
 7796SOL    HW135021   1.947   2.979   8.441  0.0897 -1.0772 -1.4674
 7796SOL    HW235022   1.808   2.971   8.491  1.5127  0.3499  1.1826
 7797SOL     OW35023   3.943   2.035   6.046 -0.9261  0.0319 -0.3396
 7797SOL    HW135024   4.020   2.013   5.994  0.5531 -0.2811  2.0142
 7797SOL    HW235025   3.974   2.031   6.136  0.6970  0.6197 -0.8761
 7798SOL     OW35026   3.161   2.349   8.385  0.3908 -0.2731  0.6086
 7798SOL    HW135027   3.242   2.397   8.398  0.2758 -0.1153  0.7399
 7798SOL    HW235028   3.172   2.292   8.309  1.7151  0.2173  0.4376
 7799SOL     OW35029   2.912   2.891   6.730 -0.0118 -0.3062  0.0282
 7799SOL    HW135030   2.910   2.968   6.673 -0.5800  1.1237  2.0260
 7799SOL    HW235031   2.929   2.929   6.816  0.4976  0.9929 -0.6412
 7800SOL     OW35032   0.077   2.726   5.788 -0.1646  0.0793  0.2596
 7800SOL    HW135033   0.095   2.747   5.880  2.3225 -0.3780 -0.1012
 7800SOL    HW235034   0.026   2.645   5.796  1.7433 -1.0122  1.5025
 7801SOL     OW35035   3.195   3.054   2.977 -0.5926 -0.5355 -0.4116
 7801SOL    HW135036   3.182   2.967   3.014 -1.2966 -0.7755 -1.2332
 7801SOL    HW235037   3.123   3.099   3.022  2.0193  0.7172  2.4610
 7802SOL     OW35038   4.306   3.074  17.595  0.1872  0.6523  0.6332
 7802SOL    HW135039   4.371   3.007  17.613 -0.2451  0.3874  1.2152
 7802SOL    HW235040   4.300   3.051  17.502 -1.1081 -2.0448  1.3864
 7803SOL     OW35041   2.898   3.960   2.056  0.5155  0.5341  0.5206
 7803SOL    HW135042   2.939   3.940   2.140 -0.6564 -0.1085  0.9350
 7803SOL    HW235043   2.973   3.966   1.997 -0.7386 -4.4274 -1.5594
 7804SOL     OW35044   0.519   1.339   5.209  1.3849 -0.6044  0.2799
 7804SOL    HW135045   0.543   1.397   5.138 -0.8854  0.6003  0.4832
 7804SOL    HW235046   0.487   1.261   5.164 -0.8419  0.3990  0.1197
 7805SOL     OW35047   1.090   1.173  15.528 -0.5529  0.3986 -0.4749
 7805SOL    HW135048   1.173   1.128  15.509 -0.1510 -0.2042  2.6197
 7805SOL    HW235049   1.044   1.156  15.446 -1.1532 -0.5115  0.0507
 7806SOL     OW35050   2.740   0.630   8.521 -0.0201  0.3765  0.2335
 7806SOL    HW135051   2.715   0.577   8.597 -1.7518 -1.6338 -1.7457
 7806SOL    HW235052   2.767   0.560   8.462  0.9621 -2.4753  4.0067
 7807SOL     OW35053   4.036   0.018   5.249 -0.0959  0.2667 -0.0014
 7807SOL    HW135054   4.049   0.112   5.253 -1.6399  0.3935  2.0229
 7807SOL    HW235055   3.974   0.010   5.322  1.5624  0.6699  1.4460
 7808SOL     OW35056   1.971   3.149   5.838  0.2202  0.1753  0.1145
 7808SOL    HW135057   1.906   3.203   5.884 -1.2710  0.5893 -2.4581
 7808SOL    HW235058   2.038   3.125   5.903 -0.0581  0.6093  0.5637
 7809SOL     OW35059   1.063   2.644   6.452  0.2657 -0.4232  0.4470
 7809SOL    HW135060   1.048   2.737   6.464 -1.8651 -0.5322 -1.4032
 7809SOL    HW235061   1.119   2.629   6.529  2.0738  0.8772 -0.6189
 7810SOL     OW35062   0.723   2.759   7.436  0.1713 -0.3864 -1.0992
 7810SOL    HW135063   0.631   2.752   7.460  0.0359  2.1800 -0.9114
 7810SOL    HW235064   0.721   2.850   7.408  0.2998 -0.2465 -0.6568
 7811SOL     OW35065   1.954   1.462   7.961 -0.1160  0.5286  0.3936
 7811SOL    HW135066   2.021   1.504   7.906 -1.8516  0.1592 -2.0256
 7811SOL    HW235067   1.962   1.377   7.918  1.3376 -0.9782  3.6960
 7812SOL     OW35068   2.546   3.285   3.937  0.3184  0.0371 -0.7755
 7812SOL    HW135069   2.494   3.364   3.931 -0.1796 -0.3198 -1.1169
 7812SOL    HW235070   2.602   3.311   3.863  1.0462 -0.4006 -0.3739
 7813SOL     OW35071   1.434   1.606   3.248 -0.1117 -0.1427 -0.0166
 7813SOL    HW135072   1.428   1.512   3.236 -1.5982  0.2627 -2.3639
 7813SOL    HW235073   1.515   1.618   3.199 -1.5525  1.5962 -1.9697
 7814SOL     OW35074   2.047   0.933  13.699  0.4633  0.7264  0.0654
 7814SOL    HW135075   2.002   0.925  13.783 -1.2306  0.3506 -0.8844
 7814SOL    HW235076   2.084   0.845  13.699 -3.6572 -1.0117 -1.0477
 7815SOL     OW35077   2.413   1.339   2.140  0.2702  0.3841 -0.0151
 7815SOL    HW135078   2.343   1.328   2.205  1.8635 -0.5911  1.5383
 7815SOL    HW235079   2.409   1.253   2.099 -0.8786  0.0041  0.8787
 7816SOL     OW35080   1.172   1.400   3.568 -0.7259  0.2715 -0.7557
 7816SOL    HW135081   1.229   1.330   3.601 -0.1061  0.7438 -0.8348
 7816SOL    HW235082   1.229   1.474   3.546 -0.8513  0.4290 -0.5465
 7817SOL     OW35083   0.308   2.813  12.577  0.3984 -0.0544  0.5562
 7817SOL    HW135084   0.239   2.879  12.570  0.0916 -0.5847 -1.6414
 7817SOL    HW235085   0.257   2.734  12.594  0.6836 -0.0164  1.6088
 7818SOL     OW35086   4.272   4.065   0.319  0.4547 -0.2547 -0.3572
 7818SOL    HW135087   4.332   4.059   0.245 -1.1222 -0.8804 -1.5962
 7818SOL    HW235088   4.297   4.149   0.357 -2.4176  0.8561 -0.9480
 7819SOL     OW35089   1.797   0.069  12.212  0.0904  0.0068 -0.6368
 7819SOL    HW135090   1.743   0.115  12.276  0.1894 -0.5765 -0.1324
 7819SOL    HW235091   1.805   0.129  12.138 -2.0990  2.0147  0.7612
 7820SOL     OW35092   0.649   2.066   7.206 -0.0125 -0.3187  0.1259
 7820SOL    HW135093   0.631   1.972   7.214 -1.2501 -0.0644  0.3311
 7820SOL    HW235094   0.622   2.108   7.288  0.2578 -1.5331  0.8374
 7821SOL     OW35095   1.678   0.659   8.897  0.7439 -0.1718  0.2402
 7821SOL    HW135096   1.698   0.639   8.989 -1.1847 -0.7175  0.5499
 7821SOL    HW235097   1.760   0.685   8.856  2.3417 -3.3368  1.4403
 7822SOL     OW35098   0.445   3.325  13.889  0.5812 -0.4041  0.1064
 7822SOL    HW135099   0.445   3.366  13.803 -1.6756  0.6006  0.5995
 7822SOL    HW235100   0.475   3.396  13.947  3.5460  0.0868 -2.0048
 7823SOL     OW35101   0.631   1.575  14.398 -0.2702 -0.0910 -0.0409
 7823SOL    HW135102   0.620   1.505  14.333  2.3932  0.8046 -1.4335
 7823SOL    HW235103   0.566   1.642  14.381 -0.1057 -0.6941 -2.9746
 7824SOL     OW35104   0.818   1.605  15.000  0.1451 -0.0384 -0.6246
 7824SOL    HW135105   0.833   1.677  15.061  3.8453 -0.1768 -1.3287
 7824SOL    HW235106   0.789   1.530  15.051 -1.0234  1.2786  0.6536
 7825SOL     OW35107   3.586   1.677   6.857  0.3347  0.2660  0.5268
 7825SOL    HW135108   3.652   1.642   6.797  0.1269  2.9774 -1.3254
 7825SOL    HW235109   3.533   1.599   6.868 -0.1789  0.9619  2.9174
 7826SOL     OW35110   1.248   2.499   1.649 -0.1506  0.6252  0.7123
 7826SOL    HW135111   1.344   2.499   1.650 -0.1745  0.1970  4.6256
 7826SOL    HW235112   1.225   2.529   1.737  0.8781  3.3393  0.0363
 7827SOL     OW35113   0.216   0.002   7.244  0.1715  0.0126 -0.3937
 7827SOL    HW135114   0.133   4.734   7.292 -0.4927 -1.6529 -1.7294
 7827SOL    HW235115   0.203   4.697   7.159 -1.5208 -0.2538 -0.0047
 7828SOL     OW35116   3.543   3.350   9.876  0.3596 -0.3748 -0.2446
 7828SOL    HW135117   3.582   3.429   9.839 -1.5258  0.6265 -0.1245
 7828SOL    HW235118   3.596   3.283   9.834 -0.3886 -0.7272 -0.6229
 7829SOL     OW35119   1.591   2.909   9.016  0.1081 -0.4995  0.1848
 7829SOL    HW135120   1.587   3.005   9.021  1.4640 -0.4860  1.0287
 7829SOL    HW235121   1.680   2.891   9.046  0.4207  0.2937 -0.2432
 7830SOL     OW35122   1.954   0.679   9.641 -0.1196  0.1922 -0.1700
 7830SOL    HW135123   2.024   0.739   9.615  0.1457 -0.5657 -1.2171
 7830SOL    HW235124   1.916   0.722   9.718  0.2560 -1.5628  1.0061
 7831SOL     OW35125   0.969   3.703   4.493 -0.0878  0.2740 -1.5015
 7831SOL    HW135126   0.876   3.690   4.512 -0.0564  0.0413 -1.5070
 7831SOL    HW235127   0.984   3.697   4.399 -0.8822  1.5249 -1.7031
 7832SOL     OW35128   2.157   4.521   8.757  0.1244  0.3412 -0.0901
 7832SOL    HW135129   2.238   4.525   8.707  1.6235  3.6659  2.5890
 7832SOL    HW235130   2.172   4.436   8.797  1.8673  0.9098  0.4462
 7833SOL     OW35131   0.374   1.754   8.007 -0.3753  0.5489  0.1886
 7833SOL    HW135132   0.454   1.807   8.000  0.4036 -0.6167  0.2809
 7833SOL    HW235133   0.317   1.830   8.020 -1.0005  0.2352 -0.6846
 7834SOL     OW35134   3.108   3.414   5.413  0.0197 -0.7894  0.2820
 7834SOL    HW135135   3.164   3.462   5.352 -0.6244  0.2171  0.4797
 7834SOL    HW235136   3.103   3.479   5.483 -0.0472 -0.0048 -0.4364
 7835SOL     OW35137   1.429   0.249   2.561 -0.5199 -0.7155 -0.2056
 7835SOL    HW135138   1.401   0.339   2.544 -0.2571 -1.2602 -3.5311
 7835SOL    HW235139   1.358   0.196   2.524 -0.3064 -0.8159 -0.4699
 7836SOL     OW35140   2.213   2.203   9.592  0.2338 -0.4729 -0.3059
 7836SOL    HW135141   2.305   2.228   9.584  0.1895  0.3819  1.9998
 7836SOL    HW235142   2.216   2.118   9.549  0.7614 -1.0529  0.8854
 7837SOL     OW35143   2.859   0.816  17.162 -0.4179  0.4057  0.6769
 7837SOL    HW135144   2.900   0.750  17.106  2.4309  0.9358  2.1202
 7837SOL    HW235145   2.865   0.895  17.107  1.9843 -1.6134 -1.9351
 7838SOL     OW35146   1.394   1.894   3.266  0.0471  0.6761  0.0502
 7838SOL    HW135147   1.369   1.803   3.278 -0.1448  0.5901 -0.9584
 7838SOL    HW235148   1.450   1.912   3.342  1.5288 -4.1136  0.1131
 7839SOL     OW35149   1.441   4.382   0.067 -0.0917 -0.4115  0.1820
 7839SOL    HW135150   1.355   4.346   0.088  0.3482 -1.4099  0.2818
 7839SOL    HW235151   1.480   4.305   0.026  3.8311  0.8125  1.5972
 7840SOL     OW35152   2.554   0.674  12.652 -0.1759 -0.4865 -0.4400
 7840SOL    HW135153   2.461   0.688  12.667 -0.1417  1.5276 -2.0641
 7840SOL    HW235154   2.547   0.580  12.637 -0.2413 -0.9648  2.7177
 7841SOL     OW35155   2.678   2.585   4.394 -0.8333 -0.2698  0.5584
 7841SOL    HW135156   2.714   2.534   4.322  2.1636  2.0287  0.3948
 7841SOL    HW235157   2.584   2.590   4.376 -1.2381 -1.1571  2.5003
 7842SOL     OW35158   1.100   3.581   8.096  0.3091  0.3723  0.1563
 7842SOL    HW135159   1.025   3.636   8.120  1.2278  1.0299  1.5155
 7842SOL    HW235160   1.083   3.510   8.157 -1.9847 -0.1301 -1.0536
 7843SOL     OW35161   3.661   3.483   6.513 -0.2622 -0.3806  0.6558
 7843SOL    HW135162   3.604   3.459   6.586  0.6029  0.3236  1.5646
 7843SOL    HW235163   3.652   3.399   6.469  0.2402  0.4310 -0.9789
 7844SOL     OW35164   1.955   2.514   9.532 -0.1044 -0.4409  0.3797
 7844SOL    HW135165   1.883   2.576   9.540 -0.0725 -0.6914  2.5863
 7844SOL    HW235166   1.983   2.506   9.623  1.5642 -2.6993 -0.3356
 7845SOL     OW35167   0.003   1.276  11.724 -0.0881 -0.1972 -0.6019
 7845SOL    HW135168   0.033   1.320  11.644  1.5547 -1.3034 -0.5963
 7845SOL    HW235169   4.693   1.348  11.767 -2.7658 -1.6514 -1.0838
 7846SOL     OW35170   2.450   2.882   3.829 -0.5003 -0.0306  0.2872
 7846SOL    HW135171   2.531   2.931   3.814 -0.2155 -0.6274 -0.1212
 7846SOL    HW235172   2.410   2.933   3.899  0.6582  0.0711  0.8881
 7847SOL     OW35173   1.868   3.693   7.455 -0.1751  0.4414 -0.3187
 7847SOL    HW135174   1.840   3.758   7.519  1.9408  0.4517  0.5962
 7847SOL    HW235175   1.823   3.736   7.382 -0.4323 -0.0947 -0.4793
 7848SOL     OW35176   3.873   1.080   5.180 -0.3989 -0.1139  0.3866
 7848SOL    HW135177   3.962   1.049   5.197  0.1290  1.4863  0.4568
 7848SOL    HW235178   3.835   1.000   5.143 -0.8785  0.8098 -1.1529
 7849SOL     OW35179   1.551   1.560   5.471  0.0220 -0.3792 -0.2054
 7849SOL    HW135180   1.511   1.499   5.409  1.4336 -2.2129  0.6621
 7849SOL    HW235181   1.506   1.643   5.457 -0.9741 -0.9220 -0.1989
 7850SOL     OW35182   2.049   3.997   8.073 -0.5422  0.4622 -0.2216
 7850SOL    HW135183   1.979   4.062   8.083 -1.9520 -1.4866  2.3977
 7850SOL    HW235184   2.043   4.000   7.977  0.6886  3.4432 -0.2004
 7851SOL     OW35185   3.443   0.973  12.577 -0.0006  0.3498  0.3125
 7851SOL    HW135186   3.480   1.022  12.650 -0.3262  1.7915 -0.5013
 7851SOL    HW235187   3.454   1.023  12.497 -0.6851 -0.1084 -0.0763
 7852SOL     OW35188   1.484   2.038   4.159 -0.1726  0.5231 -0.4334
 7852SOL    HW135189   1.438   2.108   4.112 -0.9699 -0.7729 -1.6031
 7852SOL    HW235190   1.419   2.030   4.229  2.0944 -0.7228  1.5264
 7853SOL     OW35191   1.572   3.751   0.473 -0.3332  0.0309 -0.4182
 7853SOL    HW135192   1.658   3.790   0.488 -1.2388  1.8164  0.1318
 7853SOL    HW235193   1.600   3.660   0.484  0.0912  0.3044  0.7216
 7854SOL     OW35194   0.991   4.616   3.883 -0.0492 -0.0822  0.2580
 7854SOL    HW135195   0.938   4.570   3.818  0.4472 -1.3977  0.7896
 7854SOL    HW235196   1.052   4.657   3.821 -1.5356  0.9647 -0.5264
 7855SOL     OW35197   1.733   0.860   9.901 -0.6933 -0.1939 -0.0863
 7855SOL    HW135198   1.736   0.868   9.996  2.7807  0.5491 -0.2437
 7855SOL    HW235199   1.819   0.895   9.878  0.6899 -3.1790  0.5688
 7856SOL     OW35200   2.362   4.674   6.647  0.1185 -0.1230 -0.4336
 7856SOL    HW135201   2.307   0.015   6.644 -0.1096 -0.3166 -1.1950
 7856SOL    HW235202   2.378   4.674   6.553  0.4675  1.5795 -0.3720
 7857SOL     OW35203   0.684   4.066   8.589  0.0233 -0.0547  0.3643
 7857SOL    HW135204   0.763   4.113   8.564 -1.0947  1.9553  0.6571
 7857SOL    HW235205   0.689   4.071   8.684  1.0962  3.5409  0.0759
 7858SOL     OW35206   4.518   4.481   8.539  0.3866  0.3362  0.3361
 7858SOL    HW135207   4.550   4.390   8.544 -0.0323  0.1400 -0.5538
 7858SOL    HW235208   4.606   4.516   8.521  1.6166 -2.7100  0.3864
 7859SOL     OW35209   3.182   2.359   3.044 -0.1036 -0.4844  0.3449
 7859SOL    HW135210   3.251   2.303   3.079  1.5353  3.8338  4.0019
 7859SOL    HW235211   3.108   2.313   3.084 -1.3970 -0.5843 -2.1363
 7860SOL     OW35212   1.775   2.286  11.830 -0.7389  0.7149 -0.0615
 7860SOL    HW135213   1.853   2.340  11.842 -0.2756 -0.1249  0.6984
 7860SOL    HW235214   1.771   2.258  11.738 -1.0220 -2.4449  0.9173
 7861SOL     OW35215   1.058   0.740  15.324 -0.0400  0.1001 -0.0360
 7861SOL    HW135216   0.972   0.783  15.330  0.5554  1.3275 -0.1688
 7861SOL    HW235217   1.105   0.768  15.403  0.6292 -1.5048  0.1355
 7862SOL     OW35218   0.778   2.627   9.126 -0.1610 -0.5664 -0.3557
 7862SOL    HW135219   0.787   2.556   9.190  0.7890  0.8408  1.0696
 7862SOL    HW235220   0.684   2.642   9.134  0.1018 -0.0094  1.8445
 7863SOL     OW35221   4.021   4.498   3.837 -0.0608  0.0620  0.0366
 7863SOL    HW135222   4.075   4.425   3.866 -1.8844 -1.1378  0.4545
 7863SOL    HW235223   4.063   4.519   3.754 -2.4847  0.2279 -1.1736
 7864SOL     OW35224   1.950   4.295   1.559 -0.1397 -0.3082  0.0911
 7864SOL    HW135225   1.984   4.368   1.611 -0.2675 -0.0508 -0.1835
 7864SOL    HW235226   1.866   4.289   1.605 -0.6207  0.9879 -0.6127
 7865SOL     OW35227   2.140   0.519   4.372  0.0777 -0.3093  0.0202
 7865SOL    HW135228   2.077   0.574   4.417  0.3057  0.4806 -0.6379
 7865SOL    HW235229   2.099   0.434   4.385  1.8225 -1.0983  0.4400
 7866SOL     OW35230   4.329   0.673  10.650  0.0540 -0.5268  0.2621
 7866SOL    HW135231   4.329   0.614  10.726  0.4412  0.2146  0.8334
 7866SOL    HW235232   4.390   0.630  10.590  1.5516  2.1020 -0.1030
 7867SOL     OW35233   1.083   4.611   7.229  0.0197 -0.3833  0.0808
 7867SOL    HW135234   1.056   4.524   7.202  0.7186 -0.2266 -1.1414
 7867SOL    HW235235   1.003   4.657   7.253  1.0609  1.1900  0.5339
 7868SOL     OW35236   2.033   1.251   7.504 -0.1553 -0.3525 -0.3515
 7868SOL    HW135237   2.113   1.300   7.521 -0.9874  0.2452  1.8764
 7868SOL    HW235238   2.062   1.170   7.547 -0.7374 -0.7607 -0.7262
 7869SOL     OW35239   0.815   2.229  11.722 -0.5918 -0.2653 -0.1373
 7869SOL    HW135240   0.830   2.158  11.660 -0.4090  0.2453 -0.6719
 7869SOL    HW235241   0.891   2.224  11.781 -1.0449 -0.5744  0.4214
 7870SOL     OW35242   2.804   4.391   5.598  0.4881 -0.0404  0.2268
 7870SOL    HW135243   2.759   4.322   5.549  2.0282 -0.9605  0.0904
 7870SOL    HW235244   2.833   4.440   5.521 -1.5806  0.2703 -0.3372
 7871SOL     OW35245   3.007   3.926   8.433 -0.2298  0.0604  0.1575
 7871SOL    HW135246   2.918   3.920   8.466 -1.0493 -0.0076 -2.0300
 7871SOL    HW235247   3.023   4.019   8.418  0.5409 -0.0218  0.4788
 7872SOL     OW35248   3.395   1.013   6.990  0.6494  0.0018  0.0198
 7872SOL    HW135249   3.390   0.958   6.913  0.5922 -1.6191  1.1830
 7872SOL    HW235250   3.389   1.100   6.951  0.3948 -0.2724 -0.5511
 7873SOL     OW35251   2.489   2.377   9.011 -0.0074  0.3717  0.2875
 7873SOL    HW135252   2.431   2.438   8.966 -2.2011 -2.0659 -0.2090
 7873SOL    HW235253   2.500   2.414   9.099 -0.5668 -2.8473  1.7502
 7874SOL     OW35254   1.133   1.793   0.298  0.0944  0.4300 -0.6075
 7874SOL    HW135255   1.189   1.800   0.375 -0.0189  0.0589 -0.4940
 7874SOL    HW235256   1.197   1.762   0.234  1.5178  0.5814  0.7305
 7875SOL     OW35257   1.705   3.010   7.456  0.4331  0.0858 -0.1718
 7875SOL    HW135258   1.732   3.090   7.411 -0.2434 -0.5488 -1.6638
 7875SOL    HW235259   1.637   2.981   7.396 -0.6954  0.3973  0.9602
 7876SOL     OW35260   2.917   1.286   9.538 -0.1819  0.0122 -0.7602
 7876SOL    HW135261   2.913   1.375   9.574  1.6456 -0.7277  1.2579
 7876SOL    HW235262   2.986   1.242   9.587 -1.2443 -1.3107 -0.4357
 7877SOL     OW35263   3.130   2.998   4.486 -0.0270  0.3141  0.4297
 7877SOL    HW135264   3.139   2.982   4.393  0.5148 -0.7632  0.6676
 7877SOL    HW235265   3.221   2.975   4.504  0.2136  0.5412 -0.5349
 7878SOL     OW35266   0.858   1.208   4.120 -0.0523  0.0948  0.3975
 7878SOL    HW135267   0.930   1.223   4.059 -1.9876 -1.0950 -2.1755
 7878SOL    HW235268   0.889   1.256   4.196 -0.6402  1.9342 -0.5132
 7879SOL     OW35269   0.176   3.521   3.752 -0.2659 -0.3062 -0.0553
 7879SOL    HW135270   0.164   3.605   3.798 -2.9770 -0.2747 -0.7939
 7879SOL    HW235271   0.187   3.456   3.820 -1.0461 -1.0144 -0.6085
 7880SOL     OW35272   0.180   1.635   8.218 -0.0744  0.3125 -0.8034
 7880SOL    HW135273   0.131   1.717   8.218  1.0380  0.9867  2.9655
 7880SOL    HW235274   0.245   1.646   8.148  1.8682  0.5098  1.0111
 7881SOL     OW35275   0.633   1.904   2.289  0.0555  0.1060  0.0503
 7881SOL    HW135276   0.555   1.910   2.345  0.4149  1.3961  0.4135
 7881SOL    HW235277   0.698   1.954   2.339  0.7870  0.9502 -1.7197
 7882SOL     OW35278   4.266   4.298   4.283 -0.6036  0.2488  0.1461
 7882SOL    HW135279   4.218   4.355   4.343 -1.3627  0.4061 -0.6181
 7882SOL    HW235280   4.330   4.360   4.248 -1.3978  1.2774  0.5257
 7883SOL     OW35281   3.771   0.863   9.289  0.3874  0.2136 -0.1109
 7883SOL    HW135282   3.682   0.861   9.326  0.5182 -0.6389  0.1654
 7883SOL    HW235283   3.820   0.856   9.371  1.9988  1.1920 -1.0017
 7884SOL     OW35284   3.088   1.986   0.535 -0.5070  0.2638  0.7107
 7884SOL    HW135285   3.136   2.004   0.454 -0.6580 -2.2351  0.0720
 7884SOL    HW235286   3.159   1.960   0.594 -2.3416  0.9040  3.1618
 7885SOL     OW35287   2.154   2.811   9.546 -0.7069 -0.3320  0.1909
 7885SOL    HW135288   2.181   2.790   9.635  0.9744  2.1059  0.2353
 7885SOL    HW235289   2.232   2.785   9.496  0.0948  1.3604  0.5609
 7886SOL     OW35290   2.290   4.312  14.244 -0.3911 -0.2823 -0.0072
 7886SOL    HW135291   2.290   4.280  14.334 -2.3563  2.0530  0.8303
 7886SOL    HW235292   2.220   4.266  14.199 -0.8757 -0.4838  0.9510
 7887SOL     OW35293   0.383   1.301   9.039 -0.1582 -0.1342  0.2813
 7887SOL    HW135294   0.312   1.263   8.988  0.1005 -0.6340  0.3016
 7887SOL    HW235295   0.452   1.239   9.063  0.9577  0.7313 -0.6928
 7888SOL     OW35296   0.167   3.165  10.591  0.3730 -0.0225  0.3993
 7888SOL    HW135297   0.078   3.188  10.617  0.1938  0.6827 -0.8253
 7888SOL    HW235298   0.210   3.249  10.573  0.5266 -0.2422 -0.2466
 7889SOL     OW35299   2.971   3.712   4.677  0.2764  0.0584  0.0974
 7889SOL    HW135300   2.936   3.800   4.664  1.9272  0.4232 -1.8813
 7889SOL    HW235301   2.942   3.675   4.593  2.1594 -1.5922  0.1920
 7890SOL     OW35302   0.449   2.942   9.769 -0.0694  0.5977 -0.1969
 7890SOL    HW135303   0.483   2.958   9.681 -0.6503 -0.7157 -0.6558
 7890SOL    HW235304   0.415   2.852   9.768 -1.0200  0.9506  3.4063
 7891SOL     OW35305   3.074   0.763  13.220  0.5427 -0.6631  0.3490
 7891SOL    HW135306   3.031   0.757  13.306  3.6436  0.2746  1.9624
 7891SOL    HW235307   3.043   0.846  13.183 -1.6353 -1.3544  0.6367
 7892SOL     OW35308   3.017   3.242   8.064 -0.3519  0.2083  0.7614
 7892SOL    HW135309   3.087   3.227   8.128 -0.2695  0.4022  0.7170
 7892SOL    HW235310   2.994   3.330   8.094  0.2684 -0.0309  1.9596
 7893SOL     OW35311   1.263   2.429   9.436 -0.2916  0.1327 -0.3461
 7893SOL    HW135312   1.358   2.441   9.428 -0.2734 -1.3132 -2.2467
 7893SOL    HW235313   1.221   2.511   9.409  1.2818  0.8376 -0.6914
 7894SOL     OW35314   1.541   4.668   2.548  0.3371 -0.1951  0.6179
 7894SOL    HW135315   1.454   4.628   2.545  1.2454 -2.1869  0.8353
 7894SOL    HW235316   1.559   4.684   2.455 -0.8644 -0.0687  0.4118
 7895SOL     OW35317   0.715   2.246   3.233 -1.0175  0.1320  0.1073
 7895SOL    HW135318   0.742   2.163   3.193  0.6770  0.2471  1.0371
 7895SOL    HW235319   0.705   2.307   3.161  2.7749  2.8728  1.8804
 7896SOL     OW35320   1.704   1.044   4.337  0.3240  0.3171  0.7169
 7896SOL    HW135321   1.725   1.033   4.245 -2.0357 -0.0581  0.2183
 7896SOL    HW235322   1.613   1.074   4.346  0.7046  1.2465  1.4398
 7897SOL     OW35323   1.793   4.510   1.744  0.2501 -0.0307  0.3684
 7897SOL    HW135324   1.753   4.542   1.663  3.9131  1.5212 -0.8514
 7897SOL    HW235325   1.887   4.506   1.726 -0.4701 -0.3604 -3.3989
 7898SOL     OW35326   4.168   3.663  10.649  0.2987  0.7508  0.1185
 7898SOL    HW135327   4.156   3.741  10.595  3.9809  0.0619 -1.7099
 7898SOL    HW235328   4.227   3.691  10.718  1.1647 -1.7455  0.3948
 7899SOL     OW35329   3.553   0.001  12.787  0.0346 -0.2483  0.2815
 7899SOL    HW135330   3.496   4.717  12.714  1.5906 -0.7273 -0.8114
 7899SOL    HW235331   3.541   4.663  12.845  2.8067 -1.5489 -0.8438
 7900SOL     OW35332   0.685   1.394   0.024 -0.1482  0.1511  0.4398
 7900SOL    HW135333   0.719   1.470   0.072  1.6388 -0.4919  0.1910
 7900SOL    HW235334   0.662   1.424  17.684 -0.8715  0.2042  0.6503
 7901SOL     OW35335   3.182   2.770  17.398 -0.1658 -0.2296  0.0193
 7901SOL    HW135336   3.095   2.777  17.438  0.3587 -0.3112  1.1946
 7901SOL    HW235337   3.212   2.861  17.405 -0.8018 -0.1044  1.2187
 7902SOL     OW35338   2.906   1.131   3.839  0.2840 -0.3662  0.4543
 7902SOL    HW135339   2.982   1.090   3.797 -0.0933 -1.0391  0.4180
 7902SOL    HW235340   2.824   1.085   3.821 -1.5259  2.6909  1.0416
 7903SOL     OW35341   2.568   0.071   7.063 -0.1521  0.4737  0.1425
 7903SOL    HW135342   2.527   0.008   7.123  0.6124 -0.5921 -0.4392
 7903SOL    HW235343   2.499   0.112   7.010 -0.8638 -0.3727  0.4087
 7904SOL     OW35344   1.870   4.621   2.882  0.2822 -1.0358 -0.2452
 7904SOL    HW135345   1.957   4.586   2.903 -0.2620 -2.3641 -0.1365
 7904SOL    HW235346   1.876   4.655   2.793 -1.2536  0.5908  0.2763
 7905SOL     OW35347   0.167   3.375   5.315  0.5736 -0.5997  0.4246
 7905SOL    HW135348   0.203   3.396   5.229  0.9698  0.2213  0.7850
 7905SOL    HW235349   0.147   3.282   5.305  0.7502 -0.6052  0.1174
 7906SOL     OW35350   1.832   4.131   6.795 -0.6278 -0.2003 -0.9022
 7906SOL    HW135351   1.814   4.156   6.885 -2.1395  0.6227 -1.4308
 7906SOL    HW235352   1.917   4.175   6.787 -0.2724 -0.4273  1.7097
 7907SOL     OW35353   0.198   0.645   2.233  0.0418  0.0113  0.4816
 7907SOL    HW135354   0.290   0.671   2.228  0.8481 -3.0876 -0.6444
 7907SOL    HW235355   0.201   0.550   2.222  2.2972  0.1605 -0.1523
 7908SOL     OW35356   0.029   1.521   7.754 -0.1103 -0.0850 -0.2973
 7908SOL    HW135357   4.725   1.569   7.826  1.8722 -1.6167  1.8790
 7908SOL    HW235358   0.120   1.526   7.784 -0.3413 -1.5780  0.6810
 7909SOL     OW35359   4.602   2.392  16.651 -0.9874  0.1820  0.1492
 7909SOL    HW135360   4.600   2.486  16.632  0.4766  0.2073  0.0878
 7909SOL    HW235361   4.691   2.364  16.630 -0.7247  1.3232 -0.2483
 7910SOL     OW35362   0.780   3.943   9.281 -0.0936 -0.0881 -0.4517
 7910SOL    HW135363   0.796   3.992   9.200  1.7063  0.6986  0.3963
 7910SOL    HW235364   0.688   3.965   9.298  0.9812  4.9122 -1.1179
 7911SOL     OW35365   4.603   2.733  13.599 -0.1577  0.4964 -0.3316
 7911SOL    HW135366   4.523   2.684  13.616  0.2599  0.0905  0.4995
 7911SOL    HW235367   4.565   2.794  13.536 -1.1977  1.5862  1.3533
 7912SOL     OW35368   1.449   4.718   4.183  0.2620 -0.0712  0.0346
 7912SOL    HW135369   1.464   4.625   4.167 -1.9263 -0.7203  1.9243
 7912SOL    HW235370   1.468   4.728   4.276 -2.1853 -0.3676  0.5497
 7913SOL     OW35371   3.648   2.724   1.064 -0.3955 -0.5039 -0.2376
 7913SOL    HW135372   3.608   2.665   1.000  0.8297 -0.8359 -0.6963
 7913SOL    HW235373   3.565   2.769   1.080  0.4775  1.2371 -0.6337
 7914SOL     OW35374   4.473   1.018  12.946 -0.4286  0.0717 -0.0959
 7914SOL    HW135375   4.503   0.952  13.008 -2.3736 -0.9554 -0.2748
 7914SOL    HW235376   4.381   0.992  12.945 -0.6272  0.7927 -0.5701
 7915SOL     OW35377   2.048   4.257   6.574  0.2047  0.4485 -0.0575
 7915SOL    HW135378   2.040   4.296   6.486 -0.5094 -1.2451 -0.7476
 7915SOL    HW235379   2.120   4.196   6.559 -0.0004 -0.0830  1.2057
 7916SOL     OW35380   3.190   0.029  14.632 -0.0994  0.0248  0.5122
 7916SOL    HW135381   3.281   0.001  14.621  0.3804  0.7156  2.6741
 7916SOL    HW235382   3.189   0.121  14.605 -1.4777  0.8385  3.4146
 7917SOL     OW35383   2.443   3.866   7.120  0.1816 -0.2405  0.1975
 7917SOL    HW135384   2.440   3.952   7.161 -2.7423  0.4859 -1.4852
 7917SOL    HW235385   2.529   3.840   7.153 -0.3911  1.9896  3.4707
 7918SOL     OW35386   4.272   2.039   4.934 -0.1885  0.0250  0.1182
 7918SOL    HW135387   4.215   1.962   4.935 -2.1988  1.5306 -0.2948
 7918SOL    HW235388   4.315   2.029   4.849  3.6712  0.6250  2.0023
 7919SOL     OW35389   4.296   2.513   3.700 -0.4525  0.2017  0.2790
 7919SOL    HW135390   4.381   2.529   3.659 -1.2037  0.6813 -1.0828
 7919SOL    HW235391   4.239   2.492   3.626  0.7603  2.2745 -1.2450
 7920SOL     OW35392   1.099   3.403   7.885 -0.2428  0.3874 -0.2563
 7920SOL    HW135393   1.184   3.360   7.896 -0.3766  0.8497  2.5859
 7920SOL    HW235394   1.108   3.479   7.943  2.3435 -1.6757  2.0596
 7921SOL     OW35395   0.567   3.880   4.125 -0.3114 -0.1958  0.1918
 7921SOL    HW135396   0.522   3.821   4.185  0.4457  0.6092  1.5658
 7921SOL    HW235397   0.543   3.965   4.163 -2.8645 -0.7549 -0.1692
 7922SOL     OW35398   1.981   3.169   8.044 -0.2430  0.9643  0.4817
 7922SOL    HW135399   2.052   3.117   8.007  0.4432  1.1706  1.5021
 7922SOL    HW235400   1.919   3.100   8.068 -1.6854  2.0053 -0.2078
 7923SOL     OW35401   2.483   0.285  11.872  0.0158 -0.5788  0.5579
 7923SOL    HW135402   2.540   0.273  11.796 -2.5951  3.6045 -2.0237
 7923SOL    HW235403   2.401   0.308  11.829  0.6414 -1.8241 -1.2923
 7924SOL     OW35404   3.651   0.931  16.761  0.0362 -0.3354  0.3374
 7924SOL    HW135405   3.701   1.009  16.785 -3.3035  1.8229  0.4487
 7924SOL    HW235406   3.695   0.917  16.677  3.4978  2.6625  1.6370
 7925SOL     OW35407   1.897   1.501   7.558  0.1905 -0.4597  0.4268
 7925SOL    HW135408   1.924   1.416   7.523  1.3154 -0.7166  1.9090
 7925SOL    HW235409   1.807   1.482   7.584  0.1533 -0.1029  0.5522
 7926SOL     OW35410   3.642   2.089   7.027  0.1287  0.4570 -0.1908
 7926SOL    HW135411   3.684   2.125   7.105  0.8349  0.0992 -0.4065
 7926SOL    HW235412   3.582   2.020   7.055  1.3136 -0.3395  0.3711
 7927SOL     OW35413   1.170   0.822   3.173  0.1387  0.0863  0.0131
 7927SOL    HW135414   1.114   0.857   3.103 -1.7430 -0.9501  0.9916
 7927SOL    HW235415   1.099   0.795   3.232  0.8873 -0.3466  0.7102
 7928SOL     OW35416   0.959   3.446   8.373  0.0844  0.4463 -0.0511
 7928SOL    HW135417   0.990   3.499   8.446  1.6952 -0.9299  0.2720
 7928SOL    HW235418   0.894   3.393   8.419 -1.8880  0.8665 -2.3654
 7929SOL     OW35419   4.600   1.236   2.630  0.0230 -0.1941 -0.2539
 7929SOL    HW135420   4.572   1.145   2.640  1.6421 -0.7091 -0.3599
 7929SOL    HW235421   4.520   1.284   2.652  0.8533  1.2991 -0.5224
 7930SOL     OW35422   3.862   0.122   9.676  0.2077 -0.1125 -0.9343
 7930SOL    HW135423   3.815   0.167   9.746  0.3674 -0.3102 -0.7008
 7930SOL    HW235424   3.860   0.031   9.704  2.1695  0.2892  0.5639
 7931SOL     OW35425   2.560   0.583   0.992 -0.2563 -0.1531 -0.2021
 7931SOL    HW135426   2.643   0.631   0.997  0.2494 -1.0957  0.3520
 7931SOL    HW235427   2.509   0.646   0.940 -0.4159 -0.2941 -0.2169
 7932SOL     OW35428   0.447   2.430   9.940 -0.1455  0.3240  0.5528
 7932SOL    HW135429   0.393   2.495   9.983  0.1692  1.8043 -1.2957
 7932SOL    HW235430   0.504   2.484   9.886 -1.3838  0.3795 -0.6747
 7933SOL     OW35431   0.610   4.287   3.748  0.1477 -0.0050 -0.0238
 7933SOL    HW135432   0.585   4.244   3.666 -0.7000  0.5118 -0.0309
 7933SOL    HW235433   0.604   4.212   3.807 -0.1076  0.3775  0.4330
 7934SOL     OW35434   1.787   1.007  13.445 -0.4636  0.1103 -0.2077
 7934SOL    HW135435   1.796   0.925  13.494  5.4523 -0.0197 -1.6097
 7934SOL    HW235436   1.802   1.071  13.514  0.6066 -0.5529  0.1722
 7935SOL     OW35437   1.137   1.307   5.355 -0.5515  0.8500  0.3330
 7935SOL    HW135438   1.158   1.267   5.271  1.8690 -0.2136  1.4549
 7935SOL    HW235439   1.172   1.246   5.419  1.0653  0.5748 -0.8335
 7936SOL     OW35440   3.367   2.341   0.471  0.0629 -0.5377 -0.4381
 7936SOL    HW135441   3.334   2.398   0.402  1.4380 -1.7643 -2.1097
 7936SOL    HW235442   3.418   2.274   0.426 -0.0517 -1.3482  0.6353
 7937SOL     OW35443   4.287   4.575   5.161  0.0467  0.2706 -0.2774
 7937SOL    HW135444   4.200   4.556   5.126 -1.2203  1.5461  2.1566
 7937SOL    HW235445   4.278   4.653   5.217 -1.4329 -0.1068  0.0149
 7938SOL     OW35446   0.143   1.497   8.448 -0.1004 -0.0145  0.2996
 7938SOL    HW135447   0.230   1.490   8.489  0.1821 -1.1645 -0.5078
 7938SOL    HW235448   0.151   1.551   8.370 -1.0609 -0.0733  0.1628
 7939SOL     OW35449   3.165   3.891   6.492  0.7493 -0.3995 -0.0416
 7939SOL    HW135450   3.117   3.885   6.410 -1.9353  1.7686  1.3639
 7939SOL    HW235451   3.183   3.984   6.507  0.5598 -0.6919  2.0510
 7940SOL     OW35452   3.928   3.037   5.576  0.3970  0.0924  0.2716
 7940SOL    HW135453   4.000   3.052   5.514  0.4375 -0.0312  0.2878
 7940SOL    HW235454   3.885   2.961   5.536 -1.7544  1.7889 -0.6263
 7941SOL     OW35455   2.838   2.066   5.138  0.1170  0.1527 -0.3181
 7941SOL    HW135456   2.834   2.154   5.099  1.6726 -0.4985 -1.9530
 7941SOL    HW235457   2.763   2.025   5.096 -0.6611 -0.4727  1.6790
 7942SOL     OW35458   2.619   3.635   8.138  0.1259  0.0562  0.1473
 7942SOL    HW135459   2.623   3.556   8.193  4.5549  1.7782  2.3196
 7942SOL    HW235460   2.610   3.698   8.209  0.3927  0.2215  0.0322
 7943SOL     OW35461   2.523   3.811   1.704  0.2363  0.2033  0.1626
 7943SOL    HW135462   2.457   3.756   1.746 -0.0860 -0.0685 -0.7152
 7943SOL    HW235463   2.598   3.817   1.763 -0.0320 -1.2149  0.6461
 7944SOL     OW35464   1.911   0.211   7.307  0.0195 -0.2548 -0.3676
 7944SOL    HW135465   1.961   0.234   7.228  1.9624  2.4757  1.6804
 7944SOL    HW235466   1.886   0.122   7.285 -0.4387 -0.3001  0.3358
 7945SOL     OW35467   1.044   2.501  17.705  1.0043  0.0499 -0.1516
 7945SOL    HW135468   1.037   2.489   0.053 -2.7581 -4.0048 -0.9434
 7945SOL    HW235469   0.950   2.519  17.701  1.0770  0.6269  0.8479
 7946SOL     OW35470   3.348   2.335   0.021 -0.0090 -0.2096  0.0078
 7946SOL    HW135471   3.433   2.336  17.724 -0.5736  1.1044 -1.0806
 7946SOL    HW235472   3.290   2.353  17.693  0.3493 -1.6866 -0.6257
 7947SOL     OW35473   0.948   0.776   8.327  0.0628 -0.6143  0.8183
 7947SOL    HW135474   0.982   0.819   8.405  0.8914 -0.0826  0.1695
 7947SOL    HW235475   0.936   0.684   8.353  0.0958 -1.6460 -2.8274
 7948SOL     OW35476   2.759   1.230   2.441 -0.2792  0.0401 -0.0225
 7948SOL    HW135477   2.796   1.145   2.466  0.2840  0.8148  1.8313
 7948SOL    HW235478   2.668   1.200   2.435  0.5652 -1.9943 -2.3107
 7949SOL     OW35479   1.968   2.163  15.238 -0.4122 -0.1090  0.0409
 7949SOL    HW135480   1.892   2.133  15.189 -0.5944 -1.3633  1.1072
 7949SOL    HW235481   1.966   2.258  15.227 -1.4475 -0.2699 -1.1948
 7950SOL     OW35482   3.483   1.274  16.553  0.0026 -0.2441  0.0255
 7950SOL    HW135483   3.459   1.251  16.642  0.1486  2.0105  0.6454
 7950SOL    HW235484   3.397   1.297  16.516 -0.4529  0.0698  1.3102
 7951SOL     OW35485   0.480   1.650   4.240 -0.0096  0.4009 -0.2910
 7951SOL    HW135486   0.561   1.700   4.241 -0.3437  0.9629 -1.1211
 7951SOL    HW235487   0.461   1.664   4.147  5.4124  0.7905 -1.3173
 7952SOL     OW35488   3.616   0.977  11.965 -0.6990  0.2045  0.3638
 7952SOL    HW135489   3.612   1.072  11.966  1.5891  0.3182 -1.0142
 7952SOL    HW235490   3.681   0.949  12.030 -1.3849 -0.0202  0.9615
 7953SOL     OW35491   3.595   3.574  15.623 -0.2014  0.3906 -0.3457
 7953SOL    HW135492   3.605   3.480  15.639 -1.0385  0.5400  1.1858
 7953SOL    HW235493   3.670   3.612  15.668 -1.1121  0.1594  1.4075
 7954SOL     OW35494   3.254   0.557  13.249  0.4327  0.3949 -0.5085
 7954SOL    HW135495   3.270   0.580  13.158  0.8280 -1.6708 -0.9711
 7954SOL    HW235496   3.180   0.615  13.267  0.6067 -0.1899  2.0771
 7955SOL     OW35497   1.399   4.194  11.174  0.5725  0.7423 -0.1256
 7955SOL    HW135498   1.357   4.119  11.217  0.2482  1.1748  0.2982
 7955SOL    HW235499   1.446   4.232  11.248  0.0926 -0.5815  0.8547
 7956SOL     OW35500   1.255   1.166   5.576  0.0891  0.1182  0.1417
 7956SOL    HW135501   1.350   1.170   5.571  0.0844 -0.9605 -0.8057
 7956SOL    HW235502   1.233   1.092   5.632  2.8376 -0.1493  0.8605
 7957SOL     OW35503   2.300   1.114   2.032  0.0842 -0.6492 -0.5098
 7957SOL    HW135504   2.358   1.044   2.061  0.4467 -0.3617 -0.5506
 7957SOL    HW235505   2.213   1.073   2.023 -0.2196 -0.1068 -0.0207
 7958SOL     OW35506   1.427   4.063   0.268  0.0518 -0.4728  0.2243
 7958SOL    HW135507   1.482   4.097   0.198  0.2617 -1.0858  0.0918
 7958SOL    HW235508   1.446   4.127   0.336 -1.7892 -0.6723  0.9188
 7959SOL     OW35509   1.880   4.432   8.875 -0.5011  0.2427 -0.0866
 7959SOL    HW135510   1.966   4.395   8.855  0.0313  2.0918 -1.2671
 7959SOL    HW235511   1.854   4.460   8.788 -0.0597 -1.0407 -0.6321
 7960SOL     OW35512   1.822   4.585   7.820 -0.0280  0.2673 -1.0767
 7960SOL    HW135513   1.884   4.513   7.828  1.6999  1.7445 -1.3885
 7960SOL    HW235514   1.740   4.535   7.817  0.1454 -0.2347  2.7112
 7961SOL     OW35515   0.495   4.151   1.883 -0.5935  0.0663 -1.0159
 7961SOL    HW135516   0.505   4.056   1.887  3.7104  0.7327  3.5253
 7961SOL    HW235517   0.580   4.173   1.921  0.1025  2.0051 -3.7495
 7962SOL     OW35518   2.752   3.342   7.821  0.1648  0.3585  0.3870
 7962SOL    HW135519   2.668   3.317   7.860  0.4610 -1.2081 -0.0138
 7962SOL    HW235520   2.802   3.263   7.842  0.0511  0.6975  1.9729
 7963SOL     OW35521   1.641   4.120   5.242  0.3012 -0.3592 -0.2553
 7963SOL    HW135522   1.561   4.088   5.283  0.5541 -0.7805 -0.0895
 7963SOL    HW235523   1.706   4.124   5.313  0.7990  2.3141 -0.8642
 7964SOL     OW35524   3.363   3.492  17.099  0.3705 -1.1975  0.1750
 7964SOL    HW135525   3.358   3.397  17.088  0.6845 -1.3566  1.4315
 7964SOL    HW235526   3.446   3.509  17.054  0.6315  0.6087  1.3365
 7965SOL     OW35527   2.183   2.953   5.355  0.2468  0.4941  0.1253
 7965SOL    HW135528   2.169   3.030   5.301  1.2532  0.1198 -0.6665
 7965SOL    HW235529   2.147   2.978   5.440 -0.7019 -2.2481  0.5444
 7966SOL     OW35530   1.949   1.775  14.439 -0.1444 -0.5515  0.4290
 7966SOL    HW135531   1.933   1.762  14.532 -2.1382 -1.7120 -0.0996
 7966SOL    HW235532   1.922   1.867  14.437 -1.5422 -1.0385 -2.4671
 7967SOL     OW35533   0.710   0.831   3.256 -0.3412  0.4655  0.2129
 7967SOL    HW135534   0.642   0.866   3.313 -0.3052 -0.0940  0.5974
 7967SOL    HW235535   0.720   0.746   3.300 -2.0057  0.3615  0.3711
 7968SOL     OW35536   2.228   3.468   7.347 -0.1990  0.1325  0.2278
 7968SOL    HW135537   2.243   3.542   7.289  0.3137 -0.7186 -0.7325
 7968SOL    HW235538   2.242   3.394   7.288 -0.0348 -1.0855  1.7976
 7969SOL     OW35539   0.524   2.167   7.454  0.0378 -0.3928 -0.2291
 7969SOL    HW135540   0.609   2.151   7.497  0.1096  1.2201  0.2453
 7969SOL    HW235541   0.463   2.165   7.528 -0.8917  3.0691 -0.9221
 7970SOL     OW35542   0.034   2.298  12.071 -0.3724 -0.3932  0.2537
 7970SOL    HW135543   0.096   2.302  11.998 -0.4978 -1.8360  0.0601
 7970SOL    HW235544   4.684   2.308  12.033  0.6067  2.5786 -1.1990
 7971SOL     OW35545   4.360   3.320  13.338 -0.4742  0.2458  1.2158
 7971SOL    HW135546   4.335   3.412  13.353  0.3873  0.8177 -0.9209
 7971SOL    HW235547   4.337   3.289  13.426 -0.7549 -2.4396  0.1607
 7972SOL     OW35548   0.957   2.407   6.434  0.4303 -0.1711  0.6153
 7972SOL    HW135549   0.983   2.499   6.430 -1.5886  0.3473 -0.6134
 7972SOL    HW235550   0.921   2.397   6.522 -1.3488 -0.3051 -0.1365
 7973SOL     OW35551   2.036   3.564   4.595  0.1281  0.2072  0.0076
 7973SOL    HW135552   2.016   3.610   4.514 -0.8829  1.7818  1.1361
 7973SOL    HW235553   2.086   3.489   4.564  0.2899 -0.9609  3.0950
 7974SOL     OW35554   3.354   4.698   8.474 -0.0406  0.2228  0.0795
 7974SOL    HW135555   3.393   4.612   8.456  2.0701  0.9484  1.2825
 7974SOL    HW235556   3.380   4.721   8.563 -2.0514  2.8127  0.0192
 7975SOL     OW35557   2.051   3.163  16.554 -0.0778 -0.0721  0.7516
 7975SOL    HW135558   2.083   3.164  16.464 -1.7704 -0.4559  0.1461
 7975SOL    HW235559   1.994   3.086  16.553 -0.7809  0.4200  2.6024
 7976SOL     OW35560   2.622   1.768   4.538 -0.1144  0.2519  0.0483
 7976SOL    HW135561   2.632   1.690   4.592 -2.2130 -1.8658 -2.6173
 7976SOL    HW235562   2.711   1.799   4.521 -0.1871 -0.6197 -1.9210
 7977SOL     OW35563   0.209   4.078   8.283 -0.5070  0.1585 -0.4577
 7977SOL    HW135564   0.129   4.115   8.321  0.1293  0.6172  0.4502
 7977SOL    HW235565   0.207   3.989   8.319  0.8785  0.3141  0.0057
 7978SOL     OW35566   0.702   0.397   7.942 -0.1909  0.1878 -0.4805
 7978SOL    HW135567   0.618   0.414   7.985  0.0975 -1.3254  0.6854
 7978SOL    HW235568   0.720   0.313   7.985 -0.9234 -0.1014 -0.7315
 7979SOL     OW35569   2.935   4.304   7.140 -0.1651  0.0334  0.3553
 7979SOL    HW135570   2.851   4.269   7.170 -0.8755 -1.0075 -2.8407
 7979SOL    HW235571   2.942   4.381   7.197 -0.0149  0.8806 -0.8196
 7980SOL     OW35572   1.004   4.010   7.562  0.4112 -0.2504 -0.3718
 7980SOL    HW135573   0.926   4.023   7.509 -0.4639  0.0738  0.9937
 7980SOL    HW235574   0.978   4.029   7.652 -0.9856 -0.5122 -0.7320
 7981SOL     OW35575   1.196   2.942   2.920  0.3449 -0.0536  0.2249
 7981SOL    HW135576   1.227   2.860   2.881  0.3618  0.0089  0.1059
 7981SOL    HW235577   1.116   2.914   2.964 -0.0235  0.1546 -0.3118
 7982SOL     OW35578   3.458   2.918   8.531  0.3311 -0.3385 -0.0252
 7982SOL    HW135579   3.377   2.962   8.504  0.7303  0.4424  0.0590
 7982SOL    HW235580   3.433   2.828   8.551 -1.9456 -0.2546 -2.3958
 7983SOL     OW35581   0.786   3.855   5.912  0.0350  0.5405  0.5475
 7983SOL    HW135582   0.778   3.791   5.842  1.2109  0.5114  0.4331
 7983SOL    HW235583   0.708   3.836   5.964  0.0641  0.6002  0.6126
 7984SOL     OW35584   0.800   2.213  14.047 -0.3223  0.1663 -0.5674
 7984SOL    HW135585   0.754   2.181  13.969  0.9885  1.2647 -1.7893
 7984SOL    HW235586   0.892   2.211  14.021 -0.2558 -0.0545 -0.3148
 7985SOL     OW35587   4.189   1.886   6.844  0.1090  0.3541  0.2165
 7985SOL    HW135588   4.097   1.889   6.871 -0.4334 -1.7117 -1.3632
 7985SOL    HW235589   4.221   1.817   6.902 -2.5221 -0.2962  0.9143
 7986SOL     OW35590   3.717   4.527   5.054 -0.0814 -0.1061 -0.0437
 7986SOL    HW135591   3.679   4.599   5.103 -0.3164  0.4455 -1.0247
 7986SOL    HW235592   3.755   4.571   4.977  1.9272  3.4891  2.9791
 7987SOL     OW35593   4.085   3.223   5.034  0.1785  0.0080  0.3123
 7987SOL    HW135594   4.054   3.215   5.124  0.5827  0.2384  0.4708
 7987SOL    HW235595   4.099   3.317   5.033  0.2848 -0.0032  1.6071
 7988SOL     OW35596   2.942   1.732   8.300  0.0052  0.3333  0.3883
 7988SOL    HW135597   2.898   1.670   8.242  0.1029  0.2896  0.3611
 7988SOL    HW235598   2.943   1.683   8.382  1.8894  2.4898  1.6597
 7989SOL     OW35599   0.027   0.663   2.751 -0.0102  0.3795  0.2869
 7989SOL    HW135600   0.020   0.627   2.663 -2.4779 -0.7833  0.9363
 7989SOL    HW235601   4.672   0.663   2.778  0.2397 -0.9371  1.1592
 7990SOL     OW35602   4.594   2.729   3.988  0.4031 -0.2683 -0.2458
 7990SOL    HW135603   4.545   2.785   3.928  2.8745  2.7178  0.5396
 7990SOL    HW235604   4.638   2.792   4.044  0.3112 -1.7948  1.5387
 7991SOL     OW35605   2.944   3.692   5.393  0.3346 -0.1934 -0.1517
 7991SOL    HW135606   3.020   3.661   5.443  0.0463 -1.1984 -0.3430
 7991SOL    HW235607   2.978   3.688   5.304 -1.2237 -0.7428 -0.7062
 7992SOL     OW35608   3.191   3.632   7.140 -0.5987  0.0055 -0.3939
 7992SOL    HW135609   3.226   3.557   7.091 -0.0079 -0.2079  0.3593
 7992SOL    HW235610   3.250   3.696   7.102  0.0210 -0.8167 -0.8209
 7993SOL     OW35611   3.689   4.421   9.204  0.6119 -0.1942  0.2111
 7993SOL    HW135612   3.738   4.432   9.285 -0.7410 -0.4099  1.0466
 7993SOL    HW235613   3.627   4.356   9.236 -0.7164  0.4578 -1.0577
 7994SOL     OW35614   3.461   0.348   8.482 -0.3978 -0.6403 -0.1474
 7994SOL    HW135615   3.538   0.297   8.507 -0.7324 -0.6720  0.8271
 7994SOL    HW235616   3.433   0.381   8.567 -2.2327  1.2003 -1.4557
 7995SOL     OW35617   2.026   0.223   4.471 -0.6234  0.0157  0.3810
 7995SOL    HW135618   1.952   0.284   4.471 -0.6352  0.0066 -1.1192
 7995SOL    HW235619   2.057   0.217   4.561 -0.0774 -0.3653  0.1639
 7996SOL     OW35620   0.316   4.367   4.559  0.2841 -0.1520 -0.3110
 7996SOL    HW135621   0.290   4.275   4.562 -0.7558  0.1028 -1.4960
 7996SOL    HW235622   0.260   4.409   4.624  0.9399 -0.1838  0.2701
 7997SOL     OW35623   0.915   0.248   4.556 -0.0529 -0.4252  0.1228
 7997SOL    HW135624   0.918   0.153   4.569 -3.0307 -0.3348  1.5255
 7997SOL    HW235625   0.859   0.279   4.627 -1.2292 -1.6466 -0.2767
 7998SOL     OW35626   3.980   4.367   9.137  0.1079  0.5435  0.3787
 7998SOL    HW135627   3.905   4.424   9.156 -1.4524 -1.5536  0.5402
 7998SOL    HW235628   4.055   4.426   9.128  1.0379 -0.6970 -0.0464
 7999SOL     OW35629   1.372   1.472   5.849 -0.0168 -0.9805  0.3841
 7999SOL    HW135630   1.461   1.482   5.814  0.0769 -1.7631  0.4007
 7999SOL    HW235631   1.327   1.460   5.766  2.1491  1.9379 -1.2230
 8000SOL     OW35632   0.901   0.618  17.044 -0.2260  0.4801  0.0156
 8000SOL    HW135633   0.880   0.553  17.111 -0.8702  0.5763 -0.0910
 8000SOL    HW235634   0.942   0.687  17.095  0.3801 -0.8381  1.3034
 8001SOL     OW35635   1.078   3.306  14.433 -0.1952 -0.1476  0.2864
 8001SOL    HW135636   1.112   3.217  14.443 -1.5490 -0.8059 -0.8922
 8001SOL    HW235637   1.128   3.349  14.502 -1.0784  0.5650  0.4946
 8002SOL     OW35638   3.889   1.384  14.925  0.0933  0.7221  0.1413
 8002SOL    HW135639   3.941   1.363  15.002 -1.2317 -2.0267  0.3131
 8002SOL    HW235640   3.905   1.478  14.925  2.0743  0.3756 -0.5673
 8003SOL     OW35641   4.562   1.517  15.026  0.1407  0.2096  0.0783
 8003SOL    HW135642   4.606   1.440  15.060  0.6335  1.0563  1.3426
 8003SOL    HW235643   4.489   1.540  15.083 -1.4958 -1.3970 -1.3674
 8004SOL     OW35644   0.701   0.662   8.811 -0.0504  0.1612  0.3339
 8004SOL    HW135645   0.718   0.727   8.880  2.2099  0.0456 -0.0891
 8004SOL    HW235646   0.784   0.673   8.765 -0.2440  1.0279  0.1912
 8005SOL     OW35647   0.013   4.411   1.837 -0.6523  0.0033  0.6753
 8005SOL    HW135648   4.687   4.462   1.888  0.8081  0.0187  2.4619
 8005SOL    HW235649   4.693   4.335   1.824  1.3651 -1.6593  1.5664
 8006SOL     OW35650   1.545   2.660   1.599  0.2307 -0.2591 -0.0148
 8006SOL    HW135651   1.639   2.674   1.595  0.1605  0.3150  0.4725
 8006SOL    HW235652   1.548   2.571   1.634 -0.3313  0.2990  1.4338
 8007SOL     OW35653   0.241   4.316   6.349  0.0685 -0.4785 -0.7208
 8007SOL    HW135654   0.279   4.399   6.321  0.9090  0.1570  2.3546
 8007SOL    HW235655   0.191   4.285   6.273 -0.5583  0.7273 -0.7882
 8008SOL     OW35656   0.397   0.841   6.354 -0.3555  0.0202 -0.4007
 8008SOL    HW135657   0.474   0.784   6.349  0.7057  1.3138  0.8933
 8008SOL    HW235658   0.364   0.824   6.266 -0.4120  1.8286 -0.7348
 8009SOL     OW35659   2.333   3.067   3.206  0.7581  0.1099 -0.4065
 8009SOL    HW135660   2.261   3.127   3.192  0.4900 -0.7638 -2.7000
 8009SOL    HW235661   2.331   3.009   3.130  2.3905  0.8776 -1.0244
 8010SOL     OW35662   2.380   1.015   3.195 -0.5575  0.2023 -0.5810
 8010SOL    HW135663   2.428   1.004   3.277 -0.0337 -0.7557 -1.0194
 8010SOL    HW235664   2.308   0.953   3.205 -1.3588  0.6584 -3.3992
 8011SOL     OW35665   4.351   4.064   9.830  0.3872 -0.2701 -0.0147
 8011SOL    HW135666   4.261   4.098   9.832 -0.5675 -2.8629  0.7521
 8011SOL    HW235667   4.346   3.973   9.800 -2.6931 -1.3586  3.8403
 8012SOL     OW35668   1.360   3.074  14.796  0.1945  0.4059  0.2254
 8012SOL    HW135669   1.415   3.021  14.738 -0.4131 -0.8791  0.8430
 8012SOL    HW235670   1.431   3.101  14.855  1.7196  2.0494 -2.3224
 8013SOL     OW35671   4.439   0.780   3.865  0.1757 -0.0881  0.5782
 8013SOL    HW135672   4.427   0.870   3.893  0.6899  0.6458 -1.5360
 8013SOL    HW235673   4.503   0.751   3.930 -0.4306  3.8175  2.8763
 8014SOL     OW35674   3.082   4.493  12.127 -0.0192 -0.5314 -0.5009
 8014SOL    HW135675   2.992   4.525  12.128  0.2083  0.1378 -2.1312
 8014SOL    HW235676   3.072   4.398  12.138  2.9118 -0.9370 -1.4165
 8015SOL     OW35677   2.769   2.902   0.997  0.0893  0.0134 -0.0157
 8015SOL    HW135678   2.690   2.857   1.028 -0.4783  0.9675 -0.0732
 8015SOL    HW235679   2.838   2.884   1.061  0.0443 -1.1076 -0.2911
 8016SOL     OW35680   3.601   0.981   3.004 -0.4241 -0.8551 -0.2895
 8016SOL    HW135681   3.522   0.935   3.032 -0.6314 -0.8430 -0.8570
 8016SOL    HW235682   3.634   0.929   2.932 -0.0940  1.3732 -1.7555
 8017SOL     OW35683   4.292   1.694  14.730 -0.0593  0.1315 -0.0100
 8017SOL    HW135684   4.344   1.620  14.698  0.1928  0.5677 -0.6017
 8017SOL    HW235685   4.342   1.725  14.806 -2.8236  2.4171  0.8971
 8018SOL     OW35686   0.496   2.056  11.839  0.6292  0.0958  0.2586
 8018SOL    HW135687   0.559   2.048  11.767  1.2651  0.4969  0.7731
 8018SOL    HW235688   0.553   2.102  11.901  1.6145  0.6856 -1.0899
 8019SOL     OW35689   2.776   2.772   7.739  0.1022  0.1100 -0.3048
 8019SOL    HW135690   2.702   2.764   7.679  0.3531  0.4045 -0.6471
 8019SOL    HW235691   2.851   2.762   7.680  0.4576 -1.3091  0.3650
 8020SOL     OW35692   0.055   1.390   4.658 -0.3517 -0.3140  0.1033
 8020SOL    HW135693   0.094   1.448   4.592  0.3094 -1.1128 -0.2201
 8020SOL    HW235694   0.106   1.406   4.737 -0.2411 -2.5302  0.4770
 8021SOL     OW35695   0.674   0.438   9.143 -0.2633  0.3967  0.6296
 8021SOL    HW135696   0.609   0.401   9.084  1.6525 -0.8248 -0.7019
 8021SOL    HW235697   0.694   0.358   9.192 -1.7228  0.9196  2.0849
 8022SOL     OW35698   1.729   2.739   8.242  0.5007 -0.0815  0.6497
 8022SOL    HW135699   1.801   2.675   8.242  1.4863  1.0371 -0.4140
 8022SOL    HW235700   1.738   2.766   8.334 -1.0272  1.4881  0.3277
 8023SOL     OW35701   3.836   2.028  14.832 -0.2446 -0.1265 -0.1316
 8023SOL    HW135702   3.915   2.032  14.779  0.3129  0.8781  0.7843
 8023SOL    HW235703   3.855   2.060  14.920  1.0457 -2.3733  0.4136
 8024SOL     OW35704   0.256   2.207   9.951 -0.2321  0.5558  0.4541
 8024SOL    HW135705   0.193   2.257   9.898  0.8218  0.2781 -1.0905
 8024SOL    HW235706   0.317   2.274   9.980  1.7125 -0.8063 -0.4684
 8025SOL     OW35707   1.686   3.509   2.628  0.1271 -0.0390  0.6102
 8025SOL    HW135708   1.774   3.546   2.619 -0.1431  0.7101  1.0590
 8025SOL    HW235709   1.717   3.420   2.611 -0.1503 -0.2228  1.0519
 8026SOL     OW35710   3.179   1.776  14.828  0.3410 -0.1386 -0.1705
 8026SOL    HW135711   3.242   1.724  14.777  2.9170  2.0197  0.7809
 8026SOL    HW235712   3.161   1.712  14.897 -0.4573 -1.2838 -1.4503
 8027SOL     OW35713   1.737   2.925   8.672 -0.2136 -0.0424  0.1677
 8027SOL    HW135714   1.744   2.849   8.615 -0.2484 -0.6572  0.9849
 8027SOL    HW235715   1.644   2.944   8.662 -0.0480  1.0247  0.5779
 8028SOL     OW35716   4.093   2.271   4.973  0.8516  0.2728  0.4657
 8028SOL    HW135717   4.152   2.199   4.954 -1.8011 -1.2930 -1.8569
 8028SOL    HW235718   4.012   2.235   5.009 -1.2495  2.7777 -1.7541
 8029SOL     OW35719   4.328   1.369   0.298 -0.1811  0.2815 -0.3761
 8029SOL    HW135720   4.344   1.321   0.216  2.5418 -2.3695  1.7071
 8029SOL    HW235721   4.357   1.300   0.358  1.4581  0.5527 -0.8481
 8030SOL     OW35722   3.879   4.143  13.106  0.1088 -0.5809 -0.0881
 8030SOL    HW135723   3.955   4.189  13.141  0.7445  0.1596 -2.4438
 8030SOL    HW235724   3.903   4.121  13.016  0.3175 -0.6332 -0.0181
 8031SOL     OW35725   1.548   3.722  16.361  0.4582  0.3399 -0.0084
 8031SOL    HW135726   1.460   3.744  16.328  0.0237 -0.8812  0.3359
 8031SOL    HW235727   1.573   3.801  16.408  2.4721 -1.9554  2.8028
 8032SOL     OW35728   2.368   3.884   2.071  0.4673  0.1916 -0.1283
 8032SOL    HW135729   2.458   3.912   2.057 -0.2534  1.6868 -1.9301
 8032SOL    HW235730   2.353   3.863   1.978  1.7272 -1.1839 -0.0164
 8033SOL     OW35731   1.058   3.165  17.400  0.1715  0.0248 -0.3048
 8033SOL    HW135732   1.018   3.225  17.337  0.1728  1.8494  1.4390
 8033SOL    HW235733   1.146   3.169  17.362  0.6205 -0.5986  0.6725
 8034SOL     OW35734   2.861   1.620  11.204 -0.4008  0.0974 -0.3300
 8034SOL    HW135735   2.780   1.664  11.178  0.1352  2.3169  1.8086
 8034SOL    HW235736   2.873   1.674  11.283 -0.1801  1.8806 -1.5804
 8035SOL     OW35737   4.473   3.142  11.237  0.0114 -0.5803 -0.3570
 8035SOL    HW135738   4.445   3.061  11.281 -3.4619  1.2862  0.8818
 8035SOL    HW235739   4.496   3.114  11.148 -1.3044  0.4772 -1.0242
 8036SOL     OW35740   3.918   3.577   5.293  0.4992  0.5298  0.0014
 8036SOL    HW135741   3.905   3.613   5.205 -1.1259  0.1821  0.1092
 8036SOL    HW235742   4.010   3.551   5.299  0.6817  0.9523 -0.8223
 8037SOL     OW35743   0.807   0.754   1.781 -0.5196  0.1728 -0.6574
 8037SOL    HW135744   0.838   0.815   1.847 -0.2706 -1.5138  0.7932
 8037SOL    HW235745   0.749   0.813   1.732  1.6817  3.4588  0.7560
 8038SOL     OW35746   2.585   2.448  14.403  0.2617 -0.2851  0.0330
 8038SOL    HW135747   2.608   2.539  14.420 -1.1991  0.0335  0.2732
 8038SOL    HW235748   2.505   2.441  14.456  1.9420  1.4060  2.8212
 8039SOL     OW35749   0.357   4.690  17.119 -0.2091 -0.7612 -0.1599
 8039SOL    HW135750   0.445   4.720  17.142 -0.8743  1.3635 -0.3515
 8039SOL    HW235751   0.374   4.603  17.085  0.4959 -0.5845 -0.2627
 8040SOL     OW35752   1.945   0.306  10.377  0.2628  0.1269  0.3649
 8040SOL    HW135753   2.028   0.258  10.373 -0.5636 -1.2476 -0.2418
 8040SOL    HW235754   1.970   0.396  10.356  0.3921 -0.1645 -0.7157
 8041SOL     OW35755   2.651   1.256   9.646 -0.1767 -0.3734  0.7262
 8041SOL    HW135756   2.606   1.209   9.575 -1.2147  0.8673  0.5638
 8041SOL    HW235757   2.743   1.250   9.620 -0.7337 -1.1624 -1.0744
 8042SOL     OW35758   3.552   2.204   3.699 -0.4320 -0.7119  0.0927
 8042SOL    HW135759   3.642   2.236   3.704 -0.1413 -1.5520  0.3476
 8042SOL    HW235760   3.544   2.220   3.605 -0.3073  2.5874  0.6418
 8043SOL     OW35761   3.184   3.479  16.209 -0.1588  0.6242  0.1901
 8043SOL    HW135762   3.251   3.412  16.223  1.1597  1.5932 -1.5100
 8043SOL    HW235763   3.127   3.433  16.147 -1.4972  1.1152  1.0496
 8044SOL     OW35764   1.476   1.076   6.988  0.1888 -0.4468 -0.0799
 8044SOL    HW135765   1.409   1.136   7.022  0.4331 -0.0736 -0.2526
 8044SOL    HW235766   1.419   1.019   6.937  0.7532 -1.1736  0.1021
 8045SOL     OW35767   0.395   3.549  15.934  0.0644  0.2883 -0.3952
 8045SOL    HW135768   0.322   3.604  15.904  1.1064  1.4754 -0.7417
 8045SOL    HW235769   0.367   3.461  15.909  1.6455 -0.4335  0.3795
 8046SOL     OW35770   2.807   2.840   4.841  0.2019 -0.1671 -0.0240
 8046SOL    HW135771   2.776   2.840   4.750  0.1044 -0.1948  0.0096
 8046SOL    HW235772   2.736   2.891   4.880 -0.3770 -0.1006 -1.1588
 8047SOL     OW35773   1.944   0.718   6.408  0.2879  0.5439 -0.0667
 8047SOL    HW135774   1.921   0.793   6.353 -0.2492  1.2359  1.1113
 8047SOL    HW235775   1.959   0.762   6.491 -1.5610 -1.5040  1.3458
 8048SOL     OW35776   2.745   3.121   6.366  0.0200 -0.1752 -0.2736
 8048SOL    HW135777   2.816   3.141   6.306 -1.9343 -0.0182 -2.5693
 8048SOL    HW235778   2.734   3.206   6.409 -1.6877  0.3432 -1.7161
 8049SOL     OW35779   1.392   3.180   5.066 -0.8815  0.5042  0.2266
 8049SOL    HW135780   1.310   3.133   5.051 -0.4834  0.2457 -1.1282
 8049SOL    HW235781   1.411   3.204   4.976 -0.7944  0.8458  0.3379
 8050SOL     OW35782   2.702   2.848   0.696 -0.0445  0.2038 -0.0768
 8050SOL    HW135783   2.790   2.874   0.724  0.5863 -0.7414 -1.1886
 8050SOL    HW235784   2.702   2.858   0.601  2.0612  0.5246 -0.0378
 8051SOL     OW35785   0.238   0.358   5.721  0.1508 -0.0992 -0.2719
 8051SOL    HW135786   0.201   0.341   5.634 -1.9235 -0.9646  0.7756
 8051SOL    HW235787   0.217   0.449   5.742  0.4549 -0.2484  0.6655
 8052SOL     OW35788   4.680   0.265   3.996 -0.1043 -0.0685 -0.3366
 8052SOL    HW135789   4.701   0.353   4.028  0.5832 -0.3607  0.0289
 8052SOL    HW235790   4.588   0.288   3.982 -0.0774 -1.3563 -2.6215
 8053SOL     OW35791   4.688   1.575   4.292 -0.6432  0.5028 -0.0896
 8053SOL    HW135792   4.625   1.543   4.356  1.3715 -0.5260  1.3606
 8053SOL    HW235793   4.698   1.669   4.310 -0.2549  0.1341  1.5971
 8054SOL     OW35794   3.439   2.481   4.807 -0.1744 -0.6119  0.8742
 8054SOL    HW135795   3.444   2.499   4.900 -0.4932 -1.3178  1.0307
 8054SOL    HW235796   3.344   2.477   4.795  0.1982  0.5693 -2.6478
 8055SOL     OW35797   2.994   3.921   8.066 -0.1762 -0.1537  0.2920
 8055SOL    HW135798   2.914   3.974   8.065 -0.4466 -0.5973 -1.1103
 8055SOL    HW235799   2.973   3.866   7.991  1.7991 -0.5385  0.0214
 8056SOL     OW35800   3.313   3.333   4.166 -0.4317 -0.2401 -0.1523
 8056SOL    HW135801   3.374   3.407   4.175  0.1659 -0.8434  0.7461
 8056SOL    HW235802   3.370   3.264   4.133 -0.1650  0.0474 -0.3006
 8057SOL     OW35803   3.058   3.965  17.033 -0.3262 -0.2091 -0.6899
 8057SOL    HW135804   3.148   3.932  17.024  0.4700  1.8540 -0.5796
 8057SOL    HW235805   3.000   3.896  17.002 -3.3279  1.9202  0.2735
 8058SOL     OW35806   2.150   0.526   6.422 -0.0187 -0.7373 -0.7633
 8058SOL    HW135807   2.152   0.539   6.517  2.1287 -1.3708 -0.7033
 8058SOL    HW235808   2.084   0.590   6.397 -1.6591 -1.7545  0.9687
 8059SOL     OW35809   2.997   0.439   6.814  0.2447  0.5620 -0.6968
 8059SOL    HW135810   3.052   0.363   6.834  0.9093  0.9455 -1.0758
 8059SOL    HW235811   2.983   0.480   6.899 -2.3884  1.7533 -1.6907
 8060SOL     OW35812   3.852   2.853   8.197  0.2203 -0.4268 -0.1267
 8060SOL    HW135813   3.838   2.848   8.292  1.1171  0.6038  0.0614
 8060SOL    HW235814   3.789   2.924   8.181  0.1816 -0.4351 -0.0174
 8061SOL     OW35815   2.570   0.420   4.069  0.4518 -0.1493  0.2115
 8061SOL    HW135816   2.527   0.369   4.137 -0.7551  1.7490  0.8678
 8061SOL    HW235817   2.519   0.500   4.074  0.5295 -0.1638  1.2853
 8062SOL     OW35818   1.491   2.504   6.550  0.2214 -0.1739  0.0437
 8062SOL    HW135819   1.520   2.515   6.460  3.7175 -1.0927  1.0354
 8062SOL    HW235820   1.478   2.410   6.553  1.0491 -0.2836  0.2110
 8063SOL     OW35821   4.437   1.891  12.035  0.2762 -0.5448  0.3057
 8063SOL    HW135822   4.381   1.873  12.110 -0.0388  2.3818  0.7819
 8063SOL    HW235823   4.380   1.956  11.994 -1.7797 -1.9057  0.9960
 8064SOL     OW35824   4.007   0.399   2.337 -0.3264 -0.3143  0.0803
 8064SOL    HW135825   4.070   0.468   2.317 -1.3952  0.6644  0.1309
 8064SOL    HW235826   3.961   0.400   2.253 -2.7995  1.9653  1.4664
 8065SOL     OW35827   3.652   2.761  13.880  0.3635  0.2081  0.8073
 8065SOL    HW135828   3.679   2.846  13.914 -0.5380  0.4436  0.9397
 8065SOL    HW235829   3.562   2.774  13.850  0.9792 -1.0048 -1.5506
 8066SOL     OW35830   2.029   4.659   9.727 -0.2855 -0.0949 -0.2228
 8066SOL    HW135831   1.985   4.728   9.679  0.7188  0.3926 -0.4543
 8066SOL    HW235832   2.096   4.636   9.663 -0.3450 -3.9639  1.0490
 8067SOL     OW35833   4.065   1.216   4.377 -0.3258  0.1715 -0.5578
 8067SOL    HW135834   4.013   1.159   4.432  0.5044  1.0577  1.1529
 8067SOL    HW235835   3.998   1.277   4.345  0.6043  0.7437 -1.4216
 8068SOL     OW35836   4.537   0.575   9.200 -0.8800  0.0921  0.0867
 8068SOL    HW135837   4.519   0.482   9.208 -1.9614  0.3210  0.2317
 8068SOL    HW235838   4.547   0.590   9.294  1.8338  0.1395 -0.1908
 8069SOL     OW35839   3.603   3.603   3.702  0.0289 -0.1007  0.4847
 8069SOL    HW135840   3.543   3.593   3.628  0.1458  2.3938  0.0603
 8069SOL    HW235841   3.679   3.548   3.686  1.2206  2.2725 -1.8951
 8070SOL     OW35842   0.362   1.868   2.417 -1.0038  0.3762 -0.0202
 8070SOL    HW135843   0.344   1.782   2.380 -3.0259  0.4188  0.8435
 8070SOL    HW235844   0.274   1.904   2.407 -1.2060 -0.7211 -2.1968
 8071SOL     OW35845   3.741   4.327   5.860  0.2152  0.0058 -0.2571
 8071SOL    HW135846   3.655   4.318   5.818 -0.5450 -0.0605  1.3388
 8071SOL    HW235847   3.746   4.421   5.841  0.7571 -0.0331 -0.2825
 8072SOL     OW35848   3.779   2.339   8.730  0.2232  0.0155  0.0608
 8072SOL    HW135849   3.843   2.384   8.676  2.1796 -2.1369  0.6133
 8072SOL    HW235850   3.806   2.377   8.814 -2.3686  0.4240  0.7266
 8073SOL     OW35851   2.724   4.487   7.269  0.0377 -0.1839 -0.3973
 8073SOL    HW135852   2.734   4.545   7.344 -2.4023 -0.3580  0.0635
 8073SOL    HW235853   2.719   4.397   7.299 -0.7273  0.6633  1.9885
 8074SOL     OW35854   4.344   3.488  10.480 -0.1306 -0.0565 -0.4996
 8074SOL    HW135855   4.279   3.523  10.541  0.0189 -1.0516  0.2165
 8074SOL    HW235856   4.322   3.395  10.478 -2.3367  0.3788  2.5345
 8075SOL     OW35857   4.035   4.663   9.405  0.2002  0.0115 -0.2634
 8075SOL    HW135858   4.058   4.622   9.488  0.0626 -0.1032 -0.2808
 8075SOL    HW235859   4.074   0.012   9.415  0.5862 -0.4241  2.0849
 8076SOL     OW35860   3.806   2.935  16.757 -0.0096  0.0759 -0.2967
 8076SOL    HW135861   3.785   3.028  16.762 -2.8187 -0.5695  0.1766
 8076SOL    HW235862   3.799   2.918  16.663 -1.1028 -3.7728  0.4600
 8077SOL     OW35863   0.767   3.010   4.779 -0.7249  0.8518  0.3132
 8077SOL    HW135864   0.808   3.065   4.712 -1.0153 -0.1853 -0.7296
 8077SOL    HW235865   0.727   2.937   4.731 -0.5385  1.5309 -0.8713
 8078SOL     OW35866   3.832   1.643   2.355  0.1935  0.0598 -0.0693
 8078SOL    HW135867   3.865   1.569   2.305 -0.7063 -2.1966  2.6616
 8078SOL    HW235868   3.805   1.707   2.289  0.2984  0.8437  0.6490
 8079SOL     OW35869   2.090   3.236   6.109 -0.0101  0.3102  0.6932
 8079SOL    HW135870   2.071   3.289   6.186 -0.3579  1.0242  0.1136
 8079SOL    HW235871   2.164   3.283   6.069  0.0333 -0.4760 -0.1714
 8080SOL     OW35872   2.987   3.446  11.597  0.2963  0.1964 -0.3201
 8080SOL    HW135873   2.976   3.474  11.688  2.1997  1.1301 -0.3797
 8080SOL    HW235874   3.054   3.379  11.606 -0.4125  0.0346  3.5724
 8081SOL     OW35875   4.297   4.655   4.880 -0.4583  0.1178  0.1713
 8081SOL    HW135876   4.322   4.609   4.960  1.0205 -2.1700 -1.6034
 8081SOL    HW235877   4.276   0.004   4.914 -0.8545  0.3780 -0.7210
 8082SOL     OW35878   2.127   0.967   6.833  0.1826 -0.1429  0.1286
 8082SOL    HW135879   2.208   0.979   6.882  1.4974 -3.2015 -1.3079
 8082SOL    HW235880   2.064   0.986   6.902 -0.2407  1.7453 -0.7776
 8083SOL     OW35881   1.363   1.008   2.488 -0.7554 -0.0530 -0.1718
 8083SOL    HW135882   1.441   0.979   2.535 -0.4024  2.5620  0.8698
 8083SOL    HW235883   1.303   1.020   2.562  0.9002 -0.8500  1.2910
 8084SOL     OW35884   2.904   3.843  14.882  0.0168  0.2187  0.4830
 8084SOL    HW135885   2.938   3.893  14.808 -0.2335 -1.1949 -0.5810
 8084SOL    HW235886   2.869   3.764  14.841  1.7276 -0.7192  0.8576
 8085SOL     OW35887   3.912   2.213   1.366  0.3484 -0.2762 -0.0484
 8085SOL    HW135888   4.005   2.227   1.349 -0.0359  1.1250 -0.9277
 8085SOL    HW235889   3.872   2.282   1.314  0.0730 -0.2370  0.2191
 8086SOL     OW35890   1.701   1.132   2.705 -0.2212 -0.0517  0.9081
 8086SOL    HW135891   1.682   1.174   2.621  0.9873 -0.3575  0.4834
 8086SOL    HW235892   1.645   1.054   2.703 -0.0961 -0.0698 -2.2758
 8087SOL     OW35893   0.514   4.603  17.478 -0.0501 -0.3315 -0.8352
 8087SOL    HW135894   0.564   4.664  17.424 -0.5800  0.8108 -0.0328
 8087SOL    HW235895   0.522   4.643  17.565 -0.5178 -0.5964 -0.6706
 8088SOL     OW35896   1.346   0.598  15.492  0.5097  0.4042  0.2292
 8088SOL    HW135897   1.409   0.555  15.550  2.1307  1.0747 -1.0481
 8088SOL    HW235898   1.371   0.556  15.410  1.7961 -0.9676  1.3182
 8089SOL     OW35899   1.787   3.057  11.087 -0.5068  0.3811  0.0286
 8089SOL    HW135900   1.799   2.994  11.157  2.2847  1.3241  0.4012
 8089SOL    HW235901   1.852   3.028  11.023 -0.3224  0.7855  0.0265
 8090SOL     OW35902   1.476   4.452  11.021  0.1311 -0.2849  0.2920
 8090SOL    HW135903   1.497   4.361  11.041 -0.2170 -0.2416  0.8667
 8090SOL    HW235904   1.429   4.471  11.102  1.3403 -0.3249  1.0057
 8091SOL     OW35905   1.487   0.601  15.994  0.2372 -0.1248 -0.1826
 8091SOL    HW135906   1.485   0.598  16.090  0.5486 -0.7221 -0.1931
 8091SOL    HW235907   1.445   0.684  15.970  1.6001  0.6597  0.1586
 8092SOL     OW35908   1.213   1.930   6.874  0.6823 -0.3975  0.2242
 8092SOL    HW135909   1.242   1.921   6.965 -2.2368  0.2709  1.2454
 8092SOL    HW235910   1.181   1.842   6.856  1.2781 -0.9291  1.7192
 8093SOL     OW35911   1.851   0.339   5.473  0.4798  0.3862  0.4591
 8093SOL    HW135912   1.824   0.280   5.544 -1.6687  0.4151 -0.3355
 8093SOL    HW235913   1.885   0.291   5.398 -2.2986  0.8869 -1.1099
 8094SOL     OW35914   2.989   3.372   4.116 -0.1797 -0.8871 -0.2695
 8094SOL    HW135915   3.013   3.463   4.098  1.0829 -1.7749 -3.0588
 8094SOL    HW235916   3.077   3.338   4.133  0.5736  0.9687 -0.5078
 8095SOL     OW35917   4.117   0.551   6.876  0.4710 -0.0450  0.7264
 8095SOL    HW135918   4.156   0.467   6.849  0.4094 -0.6974  2.6609
 8095SOL    HW235919   4.031   0.519   6.901 -0.0614  1.2236  0.5110
 8096SOL     OW35920   0.111   1.772   7.600  0.4325 -0.1694 -0.0049
 8096SOL    HW135921   0.116   1.678   7.618  1.4390 -0.3760 -1.4036
 8096SOL    HW235922   0.198   1.809   7.612 -0.2714  2.0421 -1.8830
 8097SOL     OW35923   0.737   3.133   9.392  0.3036  0.9617  0.2314
 8097SOL    HW135924   0.674   3.171   9.454 -0.0818  1.3124 -0.3719
 8097SOL    HW235925   0.817   3.145   9.442 -0.9473 -0.5221  2.5600
 8098SOL     OW35926   0.467   0.181   4.822 -0.1232  0.2673 -0.1252
 8098SOL    HW135927   0.528   0.223   4.883  1.5825  0.2064 -1.7695
 8098SOL    HW235928   0.387   0.195   4.873  0.9361  2.1707  1.0364
 8099SOL     OW35929   4.332   4.225   5.431 -0.3645  0.1717 -0.2558
 8099SOL    HW135930   4.344   4.239   5.525 -0.5882  2.0652 -0.5118
 8099SOL    HW235931   4.242   4.254   5.420  0.0045  0.9054 -1.3179
 8100SOL     OW35932   3.871   4.214   9.334  0.3153 -0.2125 -0.3761
 8100SOL    HW135933   3.919   4.250   9.259  1.8844  0.1348  0.7785
 8100SOL    HW235934   3.842   4.140   9.281  1.3513 -0.6823 -0.3042
 8101SOL     OW35935   4.419   4.557   9.426 -0.5828  0.3855 -0.1648
 8101SOL    HW135936   4.411   4.582   9.334  0.4552 -0.9066 -0.5990
 8101SOL    HW235937   4.513   4.566   9.444 -0.6095 -0.4482  0.3718
 8102SOL     OW35938   2.221   0.467   2.811 -0.1586 -0.1738  0.0934
 8102SOL    HW135939   2.147   0.468   2.751 -0.6836 -0.1623  0.7436
 8102SOL    HW235940   2.180   0.519   2.880 -0.8115 -0.2857 -0.2165
 8103SOL     OW35941   2.327   1.725  15.492  0.3515 -0.1134 -0.6718
 8103SOL    HW135942   2.331   1.708  15.586  1.0555 -0.7356 -0.8138
 8103SOL    HW235943   2.363   1.814  15.500  1.3850 -0.6240  0.3955
 8104SOL     OW35944   4.307   1.800   6.618  0.2420  0.0157  0.2521
 8104SOL    HW135945   4.236   1.837   6.566  1.0273  0.1398 -0.7419
 8104SOL    HW235946   4.271   1.834   6.700 -0.5492  0.5115 -0.2977
 8105SOL     OW35947   2.517   2.341   5.818  0.0736 -0.0992  0.2106
 8105SOL    HW135948   2.484   2.308   5.735 -1.3277 -0.4642  0.9086
 8105SOL    HW235949   2.436   2.358   5.866 -0.7959  0.8820 -1.6303
 8106SOL     OW35950   3.842   0.894  12.629 -0.7755  0.0451 -0.1823
 8106SOL    HW135951   3.897   0.824  12.593 -0.4685  0.6227 -0.8530
 8106SOL    HW235952   3.778   0.884  12.558  2.0977 -0.3796 -2.7432
 8107SOL     OW35953   2.211   4.361   9.493 -0.2233 -0.3486  0.6178
 8107SOL    HW135954   2.123   4.330   9.516 -0.0946 -0.5618  0.8275
 8107SOL    HW235955   2.273   4.291   9.514  0.7874 -0.3881 -2.4589
 8108SOL     OW35956   2.682   3.183   6.830 -0.0832 -0.5443 -0.2240
 8108SOL    HW135957   2.763   3.141   6.801 -0.5486 -0.8669 -1.0319
 8108SOL    HW235958   2.701   3.274   6.806 -1.7794 -0.1447 -0.0984
 8109SOL     OW35959   3.732   3.180   3.669  0.5825 -0.5419  0.3700
 8109SOL    HW135960   3.648   3.206   3.708  0.8457 -0.5393  0.9406
 8109SOL    HW235961   3.786   3.258   3.674 -1.6100  1.0086 -0.1996
 8110SOL     OW35962   3.251   3.649   5.203  0.2652  0.0776  0.1528
 8110SOL    HW135963   3.316   3.695   5.150  1.3683 -2.2399 -0.4707
 8110SOL    HW235964   3.183   3.716   5.205  0.8887  0.7438 -0.7628
 8111SOL     OW35965   3.855   1.662   4.435 -0.4178 -0.3245 -0.4484
 8111SOL    HW135966   3.838   1.625   4.522  0.2596 -0.2619 -0.2918
 8111SOL    HW235967   3.779   1.718   4.419  0.6796  1.0710 -0.7911
 8112SOL     OW35968   2.529   1.555  10.967  0.4694  0.4699  0.0140
 8112SOL    HW135969   2.476   1.490  11.012  3.8724 -0.9161  1.9911
 8112SOL    HW235970   2.566   1.609  11.037 -0.6465 -0.6971  1.5125
 8113SOL     OW35971   1.551   3.196   6.223  0.0028 -0.2061 -0.0772
 8113SOL    HW135972   1.498   3.229   6.295 -0.0337 -0.1683 -0.1210
 8113SOL    HW235973   1.629   3.162   6.266  0.5221  0.0597 -0.8164
 8114SOL     OW35974   2.694   0.817  13.222  0.2441 -0.0647 -1.2034
 8114SOL    HW135975   2.746   0.897  13.215  1.1333 -0.5816 -0.3718
 8114SOL    HW235976   2.659   0.832  13.309  0.0745  0.4095 -1.3538
 8115SOL     OW35977   2.821   1.999   6.826 -0.4235 -0.1325 -0.2479
 8115SOL    HW135978   2.747   1.945   6.854 -0.3723 -1.1711 -2.0788
 8115SOL    HW235979   2.772   2.077   6.799  1.5882  1.7720  1.6731
 8116SOL     OW35980   4.604   3.077   6.074  0.2197  0.2184  0.1184
 8116SOL    HW135981   4.696   3.100   6.061 -0.2511  2.8624  1.2450
 8116SOL    HW235982   4.569   3.147   6.019  0.3302  0.9372  0.9540
 8117SOL     OW35983   1.314   4.243   4.445  0.4695  0.2627  0.1357
 8117SOL    HW135984   1.299   4.338   4.440  1.4381  0.4732  1.2302
 8117SOL    HW235985   1.407   4.246   4.467  0.2785 -0.5372  1.0752
 8118SOL     OW35986   0.923   0.633   4.063  0.2027  0.5127  0.1056
 8118SOL    HW135987   0.910   0.641   3.968  2.5972  1.5181 -0.1246
 8118SOL    HW235988   0.938   0.540   4.078  2.2264  1.0769  1.4244
 8119SOL     OW35989   3.174   1.866   4.404 -0.3411 -0.1568 -0.5090
 8119SOL    HW135990   3.082   1.893   4.393 -0.2627 -0.6769 -2.4718
 8119SOL    HW235991   3.224   1.946   4.386 -2.5641  0.8290 -2.3770
 8120SOL     OW35992   3.921   2.428  17.112  0.4186 -0.1960 -0.0894
 8120SOL    HW135993   3.829   2.445  17.089  0.1023  0.7660  1.9203
 8120SOL    HW235994   3.957   2.514  17.090 -1.1350  0.1044 -1.4761
 8121SOL     OW35995   3.195   2.157  14.621  0.4231 -0.1001 -0.5683
 8121SOL    HW135996   3.254   2.195  14.556 -0.6212  0.0083 -1.4689
 8121SOL    HW235997   3.182   2.231  14.679 -0.7541 -1.6420  1.1433
 8122SOL     OW35998   3.886   3.260   2.482 -0.2406 -0.3391  0.0001
 8122SOL    HW135999   3.878   3.177   2.528 -0.4369 -0.2995  0.0352
 8122SOL    HW236000   3.794   3.279   2.467 -0.3825 -0.5190  0.6469
 8123SOL     OW36001   0.172   3.592  15.688  0.3471  0.1771 -0.7023
 8123SOL    HW136002   0.094   3.603  15.633  0.4543 -2.0695 -1.2747
 8123SOL    HW236003   0.243   3.570  15.628  0.6100  0.1357 -0.3681
 8124SOL     OW36004   0.271   2.704   8.646  0.1490 -0.2830  0.5622
 8124SOL    HW136005   0.176   2.695   8.651  0.2042 -3.2655 -3.7006
 8124SOL    HW236006   0.289   2.648   8.570 -0.2870  0.9034 -0.4220
 8125SOL     OW36007   0.116   2.406  16.540  0.6362 -0.2388 -0.0388
 8125SOL    HW136008   0.173   2.480  16.517 -1.0247  1.5145  1.4468
 8125SOL    HW236009   0.172   2.367  16.608 -0.4606 -0.9879  0.4342
 8126SOL     OW36010   1.435   2.336   5.510  0.3110 -0.2713 -0.6272
 8126SOL    HW136011   1.431   2.291   5.595 -0.6676  0.2328 -0.3983
 8126SOL    HW236012   1.436   2.261   5.451  0.4525 -0.3110 -0.5746
 8127SOL     OW36013   1.996   0.019  16.409  0.0022 -0.5480 -0.7948
 8127SOL    HW136014   1.942   0.026  16.330 -1.1282  0.1107  0.0645
 8127SOL    HW236015   1.924   0.022  16.471  0.6895 -0.3483 -0.0079
 8128SOL     OW36016   0.797   0.620  14.191  0.0342  0.0622  0.0002
 8128SOL    HW136017   0.823   0.531  14.214 -2.9572 -0.3885  1.5970
 8128SOL    HW236018   0.775   0.610  14.098  1.3103  1.1630 -0.4089
 8129SOL     OW36019   0.556   2.932   9.513 -0.9460 -0.1685 -0.7734
 8129SOL    HW136020   0.579   2.841   9.494 -0.1987 -0.1830  0.2026
 8129SOL    HW236021   0.605   2.972   9.441  1.7034 -1.2029  0.4533
 8130SOL     OW36022   2.449   1.398   5.099 -0.4461 -0.1630  0.2546
 8130SOL    HW136023   2.449   1.481   5.051 -0.3852  1.6898  3.4105
 8130SOL    HW236024   2.457   1.337   5.026 -1.1688 -0.1105  0.1331
 8131SOL     OW36025   4.524   3.875   6.398 -0.2452  0.1379  0.0425
 8131SOL    HW136026   4.612   3.904   6.426 -0.3417  0.2966  0.1838
 8131SOL    HW236027   4.514   3.936   6.325  1.2513  0.6339  0.2414
 8132SOL     OW36028   1.723   4.542   6.417 -0.3013 -0.3070  0.7330
 8132SOL    HW136029   1.694   4.633   6.412 -2.7092 -1.2762 -2.8514
 8132SOL    HW236030   1.700   4.517   6.507 -0.9498  0.1142  0.6846
 8133SOL     OW36031   4.441   4.627   8.273 -0.3023  0.2165  0.5728
 8133SOL    HW136032   4.469   4.582   8.353  0.3966 -0.3924 -0.0148
 8133SOL    HW236033   4.519   4.620   8.219 -0.5122 -0.5542  0.3669
 8134SOL     OW36034   3.857   0.582   0.302 -0.1722 -0.4888  0.6846
 8134SOL    HW136035   3.876   0.628   0.384 -1.0877  0.2936  0.4638
 8134SOL    HW236036   3.848   0.650   0.235 -0.4333 -1.5898 -0.4071
 8135SOL     OW36037   3.785   1.437  14.478  0.2596  0.2805 -0.2514
 8135SOL    HW136038   3.826   1.364  14.432 -0.9404  0.1606 -1.1311
 8135SOL    HW236039   3.795   1.507  14.414 -0.9071  0.5726 -0.1148
 8136SOL     OW36040   4.471   0.303   0.288 -0.0643  0.1821  0.5584
 8136SOL    HW136041   4.388   0.259   0.272 -0.7528  1.6585  0.0488
 8136SOL    HW236042   4.467   0.368   0.217  1.6645 -0.3845 -0.0536
 8137SOL     OW36043   2.699   4.383  15.443 -0.0172 -0.0645 -0.2458
 8137SOL    HW136044   2.645   4.305  15.456 -0.2376 -0.2874 -2.5164
 8137SOL    HW236045   2.695   4.420  15.531 -2.6325 -1.2474  0.1383
 8138SOL     OW36046   4.727   1.568   5.031  0.0799 -0.6641  0.0881
 8138SOL    HW136047   0.035   1.628   4.972  0.8470  0.2905  1.6325
 8138SOL    HW236048   0.036   1.589   5.113 -0.0044  1.0311 -0.3196
 8139SOL     OW36049   4.100   2.049   5.582  0.8062 -0.2305 -0.1173
 8139SOL    HW136050   4.166   2.085   5.641  1.6992 -2.3846  0.1628
 8139SOL    HW236051   4.115   1.956   5.594 -1.8226 -0.8037 -1.3446
 8140SOL     OW36052   2.968   2.017   2.031 -0.2926  0.2463  0.7547
 8140SOL    HW136053   2.929   1.957   1.967  1.4701 -1.4304  1.2771
 8140SOL    HW236054   2.909   2.093   2.038 -0.6467  0.0917 -0.3889
 8141SOL     OW36055   2.073   3.544  12.781  0.4677 -0.0091  0.4628
 8141SOL    HW136056   2.130   3.485  12.831  0.3745  0.1642  0.7692
 8141SOL    HW236057   2.082   3.619  12.839  0.9835  2.0520 -2.3240
 8142SOL     OW36058   4.446   2.354   6.768  0.3252  0.2953 -0.1667
 8142SOL    HW136059   4.403   2.439   6.775  0.9172  0.6388 -0.7375
 8142SOL    HW236060   4.539   2.372   6.756  0.6443 -1.0609  0.2881
 8143SOL     OW36061   4.692   0.677   7.889  0.4321  0.1797 -0.3643
 8143SOL    HW136062   4.621   0.702   7.829  2.2428  1.1774 -2.0842
 8143SOL    HW236063   0.018   0.630   7.835 -1.5560 -2.4638 -0.4171
 8144SOL     OW36064   4.500   4.456   9.010 -0.0321  0.1857  0.1902
 8144SOL    HW136065   4.426   4.396   9.004 -1.2220  1.7004 -0.1919
 8144SOL    HW236066   4.574   4.396   9.009  0.2285  0.5322 -1.4368
 8145SOL     OW36067   4.345   3.707  10.845  0.3335 -0.5332 -0.0892
 8145SOL    HW136068   4.320   3.750  10.927  0.1272  1.3982 -1.1583
 8145SOL    HW236069   4.340   3.615  10.871 -1.4135 -0.3007  0.4323
 8146SOL     OW36070   2.829   1.139   5.335  0.3725  0.2157 -0.1479
 8146SOL    HW136071   2.748   1.165   5.379 -0.9863 -1.1299 -1.8786
 8146SOL    HW236072   2.804   1.059   5.289 -1.3755  0.9929 -0.5662
 8147SOL     OW36073   2.883   3.062   3.229  0.0130  0.1312 -0.2117
 8147SOL    HW136074   2.827   2.995   3.269 -2.1564  1.7210 -0.5827
 8147SOL    HW236075   2.952   3.006   3.195  0.2065 -0.6457  1.4460
 8148SOL     OW36076   1.034   3.830   0.691  1.0536  0.6576 -0.6391
 8148SOL    HW136077   1.097   3.762   0.667 -0.1333 -1.0063  1.0274
 8148SOL    HW236078   1.093   3.905   0.678 -1.6057  2.6813 -0.9408
 8149SOL     OW36079   4.610   1.776   4.086 -0.1303  0.1592  0.4437
 8149SOL    HW136080   4.702   1.777   4.114 -0.4117 -0.2587  1.3909
 8149SOL    HW236081   4.581   1.867   4.085  0.4924  0.3913  2.0654
 8150SOL     OW36082   2.486   0.710   1.479 -0.1203  0.1301 -0.5128
 8150SOL    HW136083   2.478   0.805   1.473  0.3077  0.2189  0.3031
 8150SOL    HW236084   2.559   0.689   1.421 -0.2432  1.2993 -1.0823
 8151SOL     OW36085   0.780   4.065   6.326  0.0337  0.6739 -0.0442
 8151SOL    HW136086   0.805   3.979   6.294 -0.7029  0.0181  1.1403
 8151SOL    HW236087   0.860   4.112   6.303  0.9324 -0.3659  0.9629
 8152SOL     OW36088   3.047   2.511   7.717 -0.4334  0.2110  0.1889
 8152SOL    HW136089   3.090   2.442   7.769 -1.9082 -0.5715  0.3583
 8152SOL    HW236090   3.117   2.574   7.700 -0.7466  0.8056  1.1799
 8153SOL     OW36091   0.379   3.161   4.231 -0.3455  0.1984  0.1662
 8153SOL    HW136092   0.407   3.249   4.205  0.6609 -0.1712 -0.0070
 8153SOL    HW236093   0.428   3.098   4.179 -0.3794 -1.0801  1.6990
 8154SOL     OW36094   3.986   2.605   5.469 -0.1820  0.4245 -0.1550
 8154SOL    HW136095   3.991   2.675   5.535  0.4605  0.4984 -0.2841
 8154SOL    HW236096   4.058   2.545   5.486  0.8808  1.6716 -0.2290
 8155SOL     OW36097   3.494   3.138   7.492 -0.0478 -0.0698  0.2228
 8155SOL    HW136098   3.478   3.150   7.586 -0.8450 -0.4101  0.1359
 8155SOL    HW236099   3.420   3.082   7.468  0.3275 -0.4175 -0.1226
 8156SOL     OW36100   3.654   3.245   2.839  0.3213  0.8586  0.4493
 8156SOL    HW136101   3.560   3.261   2.828  0.3149  1.8622  2.0913
 8156SOL    HW236102   3.688   3.333   2.830 -1.1155  1.3678  0.0151
 8157SOL     OW36103   4.553   1.604   0.246 -0.6455  0.6739  0.1264
 8157SOL    HW136104   4.573   1.516   0.216 -0.1786  0.5348  0.8312
 8157SOL    HW236105   4.637   1.645   0.266 -0.4572  1.1207 -1.5980
 8158SOL     OW36106   2.680   3.401  12.701  0.0688  0.2323 -0.2415
 8158SOL    HW136107   2.767   3.439  12.692  0.5508 -0.2602  2.1572
 8158SOL    HW236108   2.696   3.340  12.773 -1.7403  0.0908  0.0329
 8159SOL     OW36109   3.814   4.454  13.379  0.3207  0.4431  0.3671
 8159SOL    HW136110   3.793   4.426  13.290 -0.9886 -1.2091  1.1721
 8159SOL    HW236111   3.735   4.508  13.387 -1.3885 -1.8150 -1.0031
 8160SOL     OW36112   2.781   1.272   6.693  0.0136 -0.1601 -0.5761
 8160SOL    HW136113   2.827   1.221   6.759  3.2689  4.0553  0.3883
 8160SOL    HW236114   2.836   1.272   6.614  1.0364 -1.1751  0.1506
 8161SOL     OW36115   0.037   2.941  10.552 -0.2276  0.2081  0.4948
 8161SOL    HW136116   0.093   3.019  10.556 -0.9172  0.7272 -0.0379
 8161SOL    HW236117   0.110   2.879  10.558 -0.7376 -0.3735  0.6040
 8162SOL     OW36118   2.964   3.091  11.146  0.2135 -0.1505 -0.1957
 8162SOL    HW136119   2.918   3.126  11.070 -1.5318 -1.1452  0.3999
 8162SOL    HW236120   2.896   3.098  11.214 -0.0240  1.2682 -0.5825
 8163SOL     OW36121   4.155   2.772   6.650  0.2345 -0.6901  0.3446
 8163SOL    HW136122   4.126   2.778   6.559 -1.4400 -0.1969  0.9061
 8163SOL    HW236123   4.146   2.864   6.676 -1.1011 -0.6006 -0.4355
 8164SOL     OW36124   4.514   0.143   7.327 -0.4094  0.1171  0.2068
 8164SOL    HW136125   4.538   0.209   7.392  1.1562  0.0920 -0.3451
 8164SOL    HW236126   4.575   0.075   7.357  2.8530  2.0494 -2.0763
 8165SOL     OW36127   1.913   4.320   7.874  0.0633  0.6147 -0.6702
 8165SOL    HW136128   2.001   4.293   7.847  0.1828 -0.6450  0.9784
 8165SOL    HW236129   1.864   4.279   7.803 -2.0546  0.1269  1.0843
 8166SOL     OW36130   2.452   0.237  12.997 -0.0282 -0.3208 -0.3431
 8166SOL    HW136131   2.459   0.300  12.925 -0.9713 -0.7601 -0.8301
 8166SOL    HW236132   2.538   0.196  12.993 -0.5187 -1.4201  0.5934
 8167SOL     OW36133   3.644   4.727   6.566 -0.5803 -0.5379 -0.1285
 8167SOL    HW136134   3.688   4.644   6.546 -1.3254 -1.1644  0.7712
 8167SOL    HW236135   3.702   0.051   6.521  0.2551 -0.0891  1.5546
 8168SOL     OW36136   3.134   0.111  17.214 -0.2634  0.4132 -0.3411
 8168SOL    HW136137   3.207   0.049  17.211  0.1266  0.8039  0.9729
 8168SOL    HW236138   3.178   0.195  17.226  0.9789  0.0397 -2.3111
 8169SOL     OW36139   3.758   1.994   4.474  0.3565  0.2279  0.0868
 8169SOL    HW136140   3.789   2.084   4.488 -0.0388  0.3786 -0.0169
 8169SOL    HW236141   3.720   1.970   4.559 -0.6225  1.4369 -0.0026
 8170SOL     OW36142   3.912   2.005   9.233  0.2005  0.3252  0.2709
 8170SOL    HW136143   3.891   2.085   9.185  0.5209  0.2492  0.0069
 8170SOL    HW236144   3.886   2.024   9.324  0.4449 -0.2491  0.4611
 8171SOL     OW36145   3.331   3.553  17.609  0.6007 -0.6808  0.6367
 8171SOL    HW136146   3.247   3.598  17.618 -0.8358 -3.1724 -0.1478
 8171SOL    HW236147   3.309   3.468  17.648 -0.4040 -0.8493 -0.2858
 8172SOL     OW36148   1.434   2.538   2.636 -0.2287 -0.2762  0.0970
 8172SOL    HW136149   1.368   2.521   2.569  0.5491 -0.6942 -0.5629
 8172SOL    HW236150   1.501   2.475   2.609 -0.5414  0.0951 -1.5055
 8173SOL     OW36151   0.672   1.844   4.248  0.5403 -0.2768  0.3262
 8173SOL    HW136152   0.683   1.882   4.334  0.0861 -1.0205  0.7209
 8173SOL    HW236153   0.627   1.916   4.203 -1.5730 -0.4873  2.1072
 8174SOL     OW36154   3.672   3.442   8.167  0.2369 -0.1808  0.0608
 8174SOL    HW136155   3.738   3.381   8.134 -0.4757  0.2583 -2.2213
 8174SOL    HW236156   3.734   3.480   8.229  0.3511 -0.3126  0.0276
 8175SOL     OW36157   2.943   3.974   3.025  0.2386 -0.0727 -0.5864
 8175SOL    HW136158   2.925   3.903   3.087 -0.2592 -1.9240 -2.8270
 8175SOL    HW236159   3.013   4.031   3.054 -1.3329  1.6923 -0.2465
 8176SOL     OW36160   0.819   3.843   2.751 -0.0601  0.1971  0.0922
 8176SOL    HW136161   0.875   3.852   2.828  0.4950 -0.5382 -0.2220
 8176SOL    HW236162   0.810   3.936   2.730 -0.7878  0.4018  1.3445
 8177SOL     OW36163   0.040   0.766  13.364  0.2217 -0.2723  0.1717
 8177SOL    HW136164   0.082   0.701  13.421 -0.4666 -0.8894 -0.0162
 8177SOL    HW236165   0.121   0.807  13.335 -0.2466 -0.2774 -1.1084
 8178SOL     OW36166   2.595   2.844   6.688 -0.1712 -0.0473 -0.2537
 8178SOL    HW136167   2.687   2.849   6.663 -0.2421 -0.9462 -0.7156
 8178SOL    HW236168   2.557   2.832   6.601 -0.0825 -2.5720  0.0463
 8179SOL     OW36169   0.588   1.473   7.288  0.2291  0.1953  0.4072
 8179SOL    HW136170   0.500   1.463   7.251  0.2549  2.9357 -0.3605
 8179SOL    HW236171   0.596   1.395   7.343 -0.1133  0.3601  0.6942
 8180SOL     OW36172   2.218   3.952  15.159 -0.0040 -0.5257  0.0474
 8180SOL    HW136173   2.312   3.972  15.164 -0.4838  1.8176 -0.2425
 8180SOL    HW236174   2.215   3.858  15.142 -0.8186 -1.1299  3.5756
 8181SOL     OW36175   3.868   2.258   2.358  0.7514  0.2051 -0.2593
 8181SOL    HW136176   3.775   2.274   2.342  0.8660  1.0809 -0.0911
 8181SOL    HW236177   3.889   2.206   2.280  0.4410  0.5113 -0.5513
 8182SOL     OW36178   2.424   0.651  14.277 -0.3063 -0.0189 -0.1072
 8182SOL    HW136179   2.504   0.612  14.243 -2.4230 -2.6248 -2.1154
 8182SOL    HW236180   2.449   0.742  14.261  0.0171 -0.3390 -1.4006
 8183SOL     OW36181   0.986   2.408   7.491  0.8284  0.2636 -0.3883
 8183SOL    HW136182   0.894   2.402   7.514  0.8599  0.7745 -0.1446
 8183SOL    HW236183   0.979   2.481   7.430 -1.5641  0.8905  0.6525
 8184SOL     OW36184   1.564   1.334   4.991  0.2897 -0.1020 -0.2346
 8184SOL    HW136185   1.603   1.344   4.904 -0.4988  2.6599 -0.2722
 8184SOL    HW236186   1.615   1.396   5.042 -1.0806 -1.8586  3.3012
 8185SOL     OW36187   4.466   2.949  13.519  0.3506 -0.5792 -0.8605
 8185SOL    HW136188   4.387   2.978  13.472  0.6918 -1.5027 -1.9992
 8185SOL    HW236189   4.438   2.971  13.608  0.4009 -0.1899 -0.9378
 8186SOL     OW36190   3.481   1.009   7.584 -0.2365  0.2525 -0.0862
 8186SOL    HW136191   3.524   0.997   7.668  1.2641 -1.5512 -1.1255
 8186SOL    HW236192   3.403   1.060   7.609  1.7590  2.6158  1.2942
 8187SOL     OW36193   4.217   1.846   9.673 -0.2485  0.0172 -0.4800
 8187SOL    HW136194   4.250   1.756   9.677 -0.2224  0.0985  1.0639
 8187SOL    HW236195   4.225   1.872   9.581  1.0718 -0.1818 -0.4278
 8188SOL     OW36196   2.320   3.216   9.436 -0.4536  0.6082  0.4284
 8188SOL    HW136197   2.395   3.194   9.491  0.1280  2.1208  0.2282
 8188SOL    HW236198   2.248   3.186   9.492 -0.9915  1.6931  0.3224
 8189SOL     OW36199   0.721   1.354   3.485 -0.2774 -0.2523  0.7397
 8189SOL    HW136200   0.787   1.362   3.417 -1.7967  2.2771 -0.4251
 8189SOL    HW236201   0.769   1.389   3.560  1.5367  1.0434 -1.0279
 8190SOL     OW36202   0.222   2.128   5.608  0.2339 -0.0863 -0.0687
 8190SOL    HW136203   0.232   2.068   5.681 -1.0094  2.6892  2.3725
 8190SOL    HW236204   0.246   2.210   5.652  0.8769  0.0413 -0.6669
 8191SOL     OW36205   3.411   3.157   1.761 -0.0829  0.3507 -0.3985
 8191SOL    HW136206   3.407   3.252   1.747 -1.1679 -0.0184 -2.4804
 8191SOL    HW236207   3.455   3.142   1.845 -0.0967 -1.8737 -0.7987
 8192SOL     OW36208   4.360   0.212   5.800 -0.0317 -0.4027 -0.2787
 8192SOL    HW136209   4.403   0.192   5.884 -1.3734 -1.2679  0.2044
 8192SOL    HW236210   4.271   0.241   5.822  0.1006 -1.0000  1.0626
 8193SOL     OW36211   1.654   1.143   9.557  0.5218  0.9351 -0.3569
 8193SOL    HW136212   1.571   1.191   9.562  0.1166  0.2177 -0.1442
 8193SOL    HW236213   1.629   1.075   9.621 -3.1919  1.8352 -0.8351
 8194SOL     OW36214   1.076   3.487   6.948 -0.6103  0.1068 -0.3389
 8194SOL    HW136215   0.992   3.453   6.978 -1.1787  0.0569 -2.0033
 8194SOL    HW236216   1.047   3.557   6.889  2.0686  0.6677 -0.9758
 8195SOL     OW36217   0.786   3.823   9.530  0.1149 -0.1842 -0.0843
 8195SOL    HW136218   0.824   3.738   9.505 -0.8088 -0.8164  0.6498
 8195SOL    HW236219   0.780   3.865   9.444  0.2035 -1.1263 -0.5566
 8196SOL     OW36220   4.285   2.215   8.402 -0.1186  0.0353 -0.0633
 8196SOL    HW136221   4.244   2.162   8.470 -0.7930  0.8132  0.1354
 8196SOL    HW236222   4.366   2.244   8.445  0.6357 -1.6216 -0.3655
 8197SOL     OW36223   4.490   2.789   9.664 -0.1369  0.0758  0.2129
 8197SOL    HW136224   4.551   2.764   9.595  0.6506  1.8727  0.2498
 8197SOL    HW236225   4.442   2.865   9.632 -3.0914 -2.2002 -0.7372
 8198SOL     OW36226   1.165   2.155   2.590  0.0818  0.4488  0.4251
 8198SOL    HW136227   1.204   2.074   2.557 -1.3443 -0.2508  0.4437
 8198SOL    HW236228   1.095   2.118   2.644  0.6952  0.8620  1.5144
 8199SOL     OW36229   1.928   2.499   5.382  0.0533  0.7069  0.4025
 8199SOL    HW136230   1.872   2.462   5.450 -0.3905 -0.0560 -0.3694
 8199SOL    HW236231   1.939   2.585   5.422  0.2348  0.8195  0.1044
 8200SOL     OW36232   3.559   4.033   7.087  0.1773  0.0334 -0.8153
 8200SOL    HW136233   3.518   4.115   7.117  2.8919  1.0706  0.1009
 8200SOL    HW236234   3.496   3.973   7.126  0.4622  0.5183  0.3893
 8201SOL     OW36235   0.341   0.326   3.691 -0.4127 -0.5136 -0.0579
 8201SOL    HW136236   0.302   0.307   3.776 -0.9320 -1.8534 -0.5963
 8201SOL    HW236237   0.431   0.295   3.706 -0.6341 -0.9439  0.3658
 8202SOL     OW36238   3.142   1.691   9.065  0.3803  0.2079 -0.1873
 8202SOL    HW136239   3.131   1.603   9.101  0.3299  1.6489  3.3657
 8202SOL    HW236240   3.077   1.725   9.127  0.3565 -3.9541  2.1063
 8203SOL     OW36241   1.525   2.513   6.988  0.0632  0.2420 -0.2314
 8203SOL    HW136242   1.517   2.437   7.046  0.0023  1.6238  1.5623
 8203SOL    HW236243   1.502   2.591   7.038 -1.1859  0.6563 -1.4483
 8204SOL     OW36244   0.146   4.715   5.227  0.0934  0.5132  0.2913
 8204SOL    HW136245   0.097   0.054   5.259 -1.9747 -1.3149  1.4739
 8204SOL    HW236246   0.131   4.716   5.133  0.7088  1.0987  0.2035
 8205SOL     OW36247   1.088   4.291  12.540  0.0372 -0.3932  0.1850
 8205SOL    HW136248   1.157   4.343  12.581  1.4578 -2.3528  0.2801
 8205SOL    HW236249   1.122   4.270  12.453  1.6377  3.2963 -0.1000
 8206SOL     OW36250   4.466   1.051   7.611  0.3874  0.1511 -0.2012
 8206SOL    HW136251   4.393   1.082   7.664 -0.2459 -0.2306 -0.8584
 8206SOL    HW236252   4.537   1.053   7.675  1.0820 -1.6712 -0.9179
 8207SOL     OW36253   3.603   1.447   4.448 -0.5783  0.6737  0.0002
 8207SOL    HW136254   3.526   1.499   4.471 -1.0386 -1.3000  3.0241
 8207SOL    HW236255   3.667   1.457   4.519 -2.3429  0.2734  1.6543
 8208SOL     OW36256   1.629   0.630   0.494 -0.6920  0.1721 -0.4141
 8208SOL    HW136257   1.692   0.561   0.471 -1.5860 -1.3429  1.7408
 8208SOL    HW236258   1.591   0.597   0.575  0.1475  0.0652 -0.0680
 8209SOL     OW36259   1.936   3.572   5.470 -0.2383 -0.4679 -0.0730
 8209SOL    HW136260   1.930   3.571   5.374  1.2197 -0.2173 -0.1668
 8209SOL    HW236261   1.929   3.479   5.491 -0.2270 -0.1315  1.3677
 8210SOL     OW36262   2.064   4.004  13.972 -0.1780  0.0419 -0.1496
 8210SOL    HW136263   2.113   4.050  13.904 -0.1631 -2.2217 -1.6775
 8210SOL    HW236264   2.055   3.914  13.939  0.1783  0.3928 -1.2095
 8211SOL     OW36265   3.619   1.479   7.090  0.1730 -0.2285  0.0075
 8211SOL    HW136266   3.687   1.534   7.050 -0.0476  0.4384  0.5701
 8211SOL    HW236267   3.658   1.467   7.176  1.4032  0.8555 -0.4033
 8212SOL     OW36268   3.920   3.141   5.989  0.0859 -0.1409 -0.1719
 8212SOL    HW136269   3.995   3.179   5.943  0.2727 -0.7257 -0.3482
 8212SOL    HW236270   3.857   3.115   5.921 -0.4275  2.8935 -0.8545
 8213SOL     OW36271   1.747   2.331   6.333  0.2057 -0.4680  0.5268
 8213SOL    HW136272   1.715   2.255   6.381  1.0560  0.3602  2.3819
 8213SOL    HW236273   1.810   2.290   6.274 -0.6138  0.3820 -0.9385
 8214SOL     OW36274   2.509   2.203   3.795 -0.6812  0.1426  0.0096
 8214SOL    HW136275   2.425   2.183   3.754 -0.0340 -1.3067 -0.5966
 8214SOL    HW236276   2.487   2.227   3.885  0.3644 -0.5298  0.4327
 8215SOL     OW36277   2.156   3.195   8.652  0.7385  0.1525 -0.7012
 8215SOL    HW136278   2.191   3.193   8.741  1.3776  1.1350 -0.9381
 8215SOL    HW236279   2.203   3.265   8.608 -0.3426  0.6437 -1.0722
 8216SOL     OW36280   4.638   2.061  12.446 -0.3777  0.4583 -0.3325
 8216SOL    HW136281   4.559   2.097  12.404 -0.4884 -0.3603 -0.8165
 8216SOL    HW236282   4.685   2.061  12.363 -0.7570 -1.3184 -0.5278
 8217SOL     OW36283   1.780   0.277   6.501  0.2518  0.1624  0.3090
 8217SOL    HW136284   1.805   0.190   6.533  1.6681 -0.0138 -1.2647
 8217SOL    HW236285   1.731   0.310   6.576  1.3616  2.8377 -0.1657
 8218SOL     OW36286   3.020   1.107   5.544 -0.7985  0.1266 -0.7230
 8218SOL    HW136287   2.969   1.084   5.466 -1.9421  0.5124 -0.0871
 8218SOL    HW236288   3.001   1.200   5.559 -0.8150  0.2173 -1.2826
 8219SOL     OW36289   2.842   3.878  12.653  0.3889  0.6513  0.1279
 8219SOL    HW136290   2.835   3.971  12.633 -0.1517  0.7112  0.6010
 8219SOL    HW236291   2.793   3.871  12.735 -1.1817  0.2217 -0.8495
 8220SOL     OW36292   2.700   2.869  16.166  0.6348 -0.1296 -0.3139
 8220SOL    HW136293   2.649   2.878  16.086  0.8021  0.5540 -0.3401
 8220SOL    HW236294   2.657   2.933  16.223  1.2654 -0.7136  0.8307
 8221SOL     OW36295   4.503   4.577  14.118  0.3465  0.0087 -0.2850
 8221SOL    HW136296   4.430   4.537  14.165  0.3134  0.4555  0.0463
 8221SOL    HW236297   4.463   4.583  14.031  1.1595 -2.0304 -0.8029
 8222SOL     OW36298   0.559   4.514   5.683  0.4128  0.0251 -0.4892
 8222SOL    HW136299   0.550   4.547   5.594  1.6022 -1.1907 -1.0505
 8222SOL    HW236300   0.518   4.428   5.683  2.2459 -0.8644 -0.3922
 8223SOL     OW36301   2.808   3.405   5.122 -0.0851 -0.0584 -0.4974
 8223SOL    HW136302   2.898   3.380   5.143  0.0914 -0.4286 -1.7083
 8223SOL    HW236303   2.814   3.498   5.101 -0.6240 -0.1188 -0.9225
 8224SOL     OW36304   0.997   4.274   1.242 -0.4933  0.0542 -0.4494
 8224SOL    HW136305   0.958   4.288   1.328 -0.1889 -3.4531  0.2632
 8224SOL    HW236306   1.090   4.293   1.258 -0.1598 -0.1366 -2.2063
 8225SOL     OW36307   3.493   1.437   3.999 -0.3379 -0.0949  0.2023
 8225SOL    HW136308   3.439   1.371   4.043 -2.3735  0.3307 -1.7016
 8225SOL    HW236309   3.544   1.473   4.071  0.5118 -0.3448 -0.2713
 8226SOL     OW36310   4.641   2.042   3.904 -0.0145  0.0332 -0.4520
 8226SOL    HW136311   4.662   2.088   3.986  0.3423 -0.8757 -0.0368
 8226SOL    HW236312   4.714   2.058   3.845  0.6374 -0.6287  0.1727
 8227SOL     OW36313   3.138   0.448  17.429 -0.5948  0.2899 -0.1445
 8227SOL    HW136314   3.135   0.384  17.358  1.6335 -0.7602  0.6825
 8227SOL    HW236315   3.071   0.511  17.402 -2.3374 -1.6544 -0.3865
 8228SOL     OW36316   1.989   1.230   6.613 -0.0813  0.3220  0.0628
 8228SOL    HW136317   2.012   1.233   6.520 -1.0475 -0.7497 -0.2120
 8228SOL    HW236318   2.036   1.151   6.640 -0.8500  0.0865  0.7107
 8229SOL     OW36319   3.386   2.546   5.065  0.3864 -0.1985 -0.9359
 8229SOL    HW136320   3.445   2.486   5.112  2.2101  2.7079  0.5167
 8229SOL    HW236321   3.331   2.586   5.132 -0.0477 -0.2461 -1.2695
 8230SOL     OW36322   1.609   3.094   4.173 -0.2387 -0.5620  0.0757
 8230SOL    HW136323   1.561   3.122   4.251  0.1788 -1.9767  0.8309
 8230SOL    HW236324   1.572   3.165   4.119  0.4056  0.8502  1.4951
 8231SOL     OW36325   0.778   0.906   2.009  0.0773 -0.2622 -0.0641
 8231SOL    HW136326   0.685   0.893   1.992 -0.0319  1.6144 -0.9001
 8231SOL    HW236327   0.783   0.912   2.104 -1.0418  0.3233 -0.0546
 8232SOL     OW36328   1.311   0.279  15.183 -0.0912  0.0244 -0.5917
 8232SOL    HW136329   1.226   0.316  15.208  0.2782 -0.0366  0.7533
 8232SOL    HW236330   1.344   0.337  15.115  0.6657 -0.1800 -0.3929
 8233SOL     OW36331   2.172   2.180  16.711 -0.3897 -0.1589  0.1414
 8233SOL    HW136332   2.122   2.099  16.723 -0.3593 -0.0322  1.0736
 8233SOL    HW236333   2.254   2.143  16.680 -1.0450 -0.3243 -1.3966
 8234SOL     OW36334   3.123   3.165  13.737 -0.6454 -0.0236  0.2062
 8234SOL    HW136335   3.047   3.188  13.790  0.8625  1.0009  1.8877
 8234SOL    HW236336   3.167   3.104  13.796  0.1250 -0.3272 -0.6801
 8235SOL     OW36337   4.307   1.685  15.532 -0.6112 -0.7814  1.1367
 8235SOL    HW136338   4.373   1.712  15.595  0.9700  0.0451 -0.8894
 8235SOL    HW236339   4.356   1.637  15.466  0.9813  0.8513  1.1270
 8236SOL     OW36340   0.494   4.262   1.072 -0.3776 -0.3238  0.0604
 8236SOL    HW136341   0.543   4.215   1.139  0.2931  1.2151  0.6437
 8236SOL    HW236342   0.438   4.190   1.043  0.2990 -0.9869  0.3924
 8237SOL     OW36343   3.915   2.668  13.802 -0.4982 -0.0671 -0.1297
 8237SOL    HW136344   3.929   2.713  13.718 -2.6268 -1.4523 -1.2258
 8237SOL    HW236345   3.827   2.695  13.829 -0.5032  0.4295 -0.6338
 8238SOL     OW36346   3.363   4.538  15.023  0.4898 -0.0942  0.5013
 8238SOL    HW136347   3.395   4.482  15.094  0.0367 -1.5706 -0.4408
 8238SOL    HW236348   3.419   4.517  14.948  0.1337  0.5635  0.0574
 8239SOL     OW36349   3.519   2.141   0.342  0.0548  0.3165  1.0400
 8239SOL    HW136350   3.464   2.111   0.269 -0.9353 -2.0906  2.7652
 8239SOL    HW236351   3.560   2.062   0.377  2.1980  1.9058  2.1247
 8240SOL     OW36352   1.337   0.326   0.059  0.1319  0.2465 -0.7630
 8240SOL    HW136353   1.296   0.240   0.067  0.7307  0.1759  1.5377
 8240SOL    HW236354   1.333   0.358   0.149 -0.7565 -1.7075 -0.1296
 8241SOL     OW36355   2.663   2.558   3.456  0.0128 -0.0109  0.4022
 8241SOL    HW136356   2.580   2.528   3.492 -0.9858  0.7281 -1.3086
 8241SOL    HW236357   2.678   2.629   3.518  0.7333 -0.5740  0.8637
 8242SOL     OW36358   3.661   3.972   9.303  0.8389 -0.6353  0.3763
 8242SOL    HW136359   3.699   3.958   9.390  0.7727  0.9060  0.6594
 8242SOL    HW236360   3.691   3.894   9.257 -1.4433 -0.5169 -1.2917
 8243SOL     OW36361   3.372   1.584  15.762  0.2384 -0.0967 -0.8095
 8243SOL    HW136362   3.425   1.600  15.684 -0.4213  0.6992 -1.0910
 8243SOL    HW236363   3.406   1.498  15.788 -2.3128 -0.6045  0.8364
 8244SOL     OW36364   0.676   4.210  10.031  0.4343 -0.3524 -0.2766
 8244SOL    HW136365   0.672   4.302  10.007  1.4470  0.0018  0.9123
 8244SOL    HW236366   0.730   4.212  10.110  0.0824  0.8695 -0.0706
 8245SOL     OW36367   0.220   4.405   3.243 -0.0223 -0.0421  0.3378
 8245SOL    HW136368   0.238   4.484   3.293 -1.4423 -0.0105  0.8034
 8245SOL    HW236369   0.288   4.400   3.176  2.2035  0.9838  2.5213
 8246SOL     OW36370   1.173   3.195   6.891 -0.3858 -0.3790 -0.0133
 8246SOL    HW136371   1.194   3.287   6.902 -0.1531 -0.3619 -0.5852
 8246SOL    HW236372   1.225   3.151   6.957  0.2580 -0.7375 -0.7628
 8247SOL     OW36373   2.294   2.431  15.025 -0.2297  0.2058 -0.3291
 8247SOL    HW136374   2.247   2.404  15.103  0.4794  0.6953  0.2703
 8247SOL    HW236375   2.290   2.526  15.023  0.9212  0.2202 -2.9070
 8248SOL     OW36376   3.713   0.374   3.701 -0.2348 -0.1970  0.2728
 8248SOL    HW136377   3.713   0.341   3.611 -6.4365  0.0493  0.2163
 8248SOL    HW236378   3.621   0.381   3.726 -0.0128 -0.1574  1.0707
 8249SOL     OW36379   4.647   1.701   5.722 -0.1097  0.3654 -0.1259
 8249SOL    HW136380   4.721   1.692   5.662 -0.1538 -2.5393  0.2722
 8249SOL    HW236381   4.659   1.616   5.763  0.3972 -0.4357 -1.9512
 8250SOL     OW36382   2.885   1.417  13.254 -0.4150 -0.5128 -0.3465
 8250SOL    HW136383   2.928   1.441  13.172 -1.3240  0.4850 -0.5326
 8250SOL    HW236384   2.808   1.474  13.251  1.0951  1.4117 -2.4913
 8251SOL     OW36385   3.924   3.680   4.478 -0.5110 -0.0908  0.1099
 8251SOL    HW136386   4.014   3.650   4.465 -0.2917  1.3174 -1.6506
 8251SOL    HW236387   3.935   3.773   4.496  0.0431  0.3018 -2.2320
 8252SOL     OW36388   0.209   1.732   4.907  0.3478  0.1279  0.5697
 8252SOL    HW136389   0.210   1.652   4.854 -0.5818  0.7881 -0.4404
 8252SOL    HW236390   0.239   1.795   4.841  0.5480 -0.2733  0.2759
 8253SOL     OW36391   0.127   4.215   2.805 -0.0546  0.5408 -0.4318
 8253SOL    HW136392   0.096   4.290   2.753 -1.0737  0.8833  0.6682
 8253SOL    HW236393   0.219   4.217   2.782 -0.4345  1.4533 -1.8810
 8254SOL     OW36394   1.424   1.428   5.278 -0.1304  0.1390  0.1211
 8254SOL    HW136395   1.419   1.348   5.224  1.3296  0.6914 -0.8432
 8254SOL    HW236396   1.333   1.449   5.297  0.6591  2.4728  1.2449
 8255SOL     OW36397   2.203   4.560   4.129  0.4742 -0.3729 -0.0308
 8255SOL    HW136398   2.158   4.495   4.183 -0.3720  0.5499  0.3693
 8255SOL    HW236399   2.252   4.605   4.197  3.1973 -1.4348 -1.2750
 8256SOL     OW36400   3.965   1.960  17.354 -0.0967  0.1732 -0.1232
 8256SOL    HW136401   4.018   1.998  17.285 -0.1322  0.6437  0.1039
 8256SOL    HW236402   4.014   1.979  17.435 -0.2747 -2.3014  0.5588
 8257SOL     OW36403   4.686   0.984   5.093 -0.1187 -0.0710  0.1942
 8257SOL    HW136404   4.701   1.074   5.122 -1.1631 -0.5841  2.3092
 8257SOL    HW236405   0.015   0.945   5.150  1.1165  0.3581 -0.9476
 8258SOL     OW36406   1.824   4.035   6.347 -0.4400  0.4182 -0.6344
 8258SOL    HW136407   1.801   3.947   6.376 -0.9914  1.0016  0.7013
 8258SOL    HW236408   1.832   4.030   6.252  0.7984  0.3963 -0.5337
 8259SOL     OW36409   3.596   1.026   3.907  0.2288 -0.0071  0.3060
 8259SOL    HW136410   3.640   1.109   3.926 -0.3571  0.3286  0.1917
 8259SOL    HW236411   3.591   1.037   3.812  0.1990 -1.1427  0.1779
 8260SOL     OW36412   4.271   4.192   7.193 -0.1312  0.3279  0.1873
 8260SOL    HW136413   4.236   4.137   7.123  0.6428  0.0470  0.0148
 8260SOL    HW236414   4.285   4.119   7.254 -1.8298 -1.7448 -1.9164
 8261SOL     OW36415   0.178   1.307   2.734 -0.5458  0.4757  0.6087
 8261SOL    HW136416   0.130   1.384   2.763  1.0964  0.9920  1.9440
 8261SOL    HW236417   0.122   1.263   2.670  1.0958 -0.6648 -0.0593
 8262SOL     OW36418   2.332   1.381  16.224  0.1291 -0.5956  0.5927
 8262SOL    HW136419   2.299   1.470  16.231 -0.6682 -0.9750  1.5432
 8262SOL    HW236420   2.374   1.379  16.138  0.6665 -1.2007  0.8722
 8263SOL     OW36421   3.283   0.296  14.542 -0.9667  0.8062  0.2739
 8263SOL    HW136422   3.278   0.359  14.470 -0.8524  0.1102 -0.3428
 8263SOL    HW236423   3.368   0.320  14.579 -0.6528 -0.5921  0.4927
 8264SOL     OW36424   2.077   2.444   3.603 -0.0328 -0.0851 -0.1012
 8264SOL    HW136425   2.139   2.500   3.650  0.3254 -1.4973  1.1363
 8264SOL    HW236426   2.104   2.362   3.646  2.9527  0.7645 -0.3793
 8265SOL     OW36427   3.223   0.006  12.456  0.3005 -0.2771  0.1771
 8265SOL    HW136428   3.275   4.677  12.501  0.6156 -0.1523 -0.0017
 8265SOL    HW236429   3.216   4.704  12.368 -1.3534 -0.2828  0.3134
 8266SOL     OW36430   4.698   0.310   2.950 -0.5539  0.0132  0.1491
 8266SOL    HW136431   4.656   0.317   3.036 -1.6411 -0.5756 -0.3352
 8266SOL    HW236432   0.022   0.384   2.956  0.2235 -0.6243 -0.0613
 8267SOL     OW36433   2.967   4.028   9.990  0.2123  1.0159 -0.7488
 8267SOL    HW136434   3.025   3.985  10.052  0.6026  0.3982 -1.5397
 8267SOL    HW236435   2.949   4.109  10.037  1.4667  0.0539  1.3572
 8268SOL     OW36436   2.756   2.753   3.722  0.6602  0.5656 -0.0609
 8268SOL    HW136437   2.734   2.829   3.775 -1.3276  0.2176 -0.3748
 8268SOL    HW236438   2.851   2.764   3.715  0.7183  0.0583 -0.0740
 8269SOL     OW36439   2.467   1.772  12.877 -0.1943  0.3569 -0.0774
 8269SOL    HW136440   2.398   1.827  12.840  0.4660 -0.3492 -2.3546
 8269SOL    HW236441   2.487   1.732  12.792  0.3800 -0.8732  0.6263
 8270SOL     OW36442   4.072   3.856  10.474  0.8002  0.0406 -0.3420
 8270SOL    HW136443   3.990   3.874  10.520  1.3126  1.6395 -0.0357
 8270SOL    HW236444   4.061   3.893  10.387 -0.3083  1.0941  0.2364
 8271SOL     OW36445   4.391   1.548  15.277  0.3930 -0.1101 -0.1307
 8271SOL    HW136446   4.395   1.465  15.324  1.1059  0.1009  0.1822
 8271SOL    HW236447   4.298   1.571  15.271  0.2304 -1.1266 -1.4528
 8272SOL     OW36448   2.122   0.029   6.952 -0.0428 -0.3461  0.1972
 8272SOL    HW136449   2.081   4.687   6.987  1.3168 -0.5014  1.4302
 8272SOL    HW236450   2.210   0.001   6.927  0.1483  0.8981 -0.5228
 8273SOL     OW36451   3.938   4.536   9.674  0.5999  0.1356 -0.5974
 8273SOL    HW136452   3.999   4.546   9.747  0.5036  1.2016 -0.6584
 8273SOL    HW236453   3.924   4.442   9.666 -1.4379  0.3379  0.5176
 8274SOL     OW36454   3.518   1.781   6.435  0.6243 -0.0996  0.6259
 8274SOL    HW136455   3.465   1.702   6.425  1.1684 -0.0052 -2.7342
 8274SOL    HW236456   3.514   1.826   6.351 -0.2895  0.5130  0.9791
 8275SOL     OW36457   1.693   0.221   4.286  0.5087  0.4068  0.6416
 8275SOL    HW136458   1.603   0.228   4.317  0.3502 -3.1883  1.0915
 8275SOL    HW236459   1.704   0.309   4.251 -1.3084  0.6590  0.7295
 8276SOL     OW36460   3.530   1.829   7.096  0.4502  0.2999  0.2078
 8276SOL    HW136461   3.602   1.800   7.152  0.6058  0.3432  0.0300
 8276SOL    HW236462   3.560   1.794   7.012 -1.2295  0.4608 -0.4567
 8277SOL     OW36463   0.188   1.207   2.986 -0.3779 -0.1081  0.0120
 8277SOL    HW136464   0.099   1.242   2.999  0.0313  1.6614 -1.9325
 8277SOL    HW236465   0.200   1.240   2.897  2.3267  0.3254  0.5550
 8278SOL     OW36466   3.629   1.312  16.332 -0.7587  0.0680  0.3239
 8278SOL    HW136467   3.579   1.302  16.413  0.3835  0.9538  1.1441
 8278SOL    HW236468   3.561   1.357  16.282  1.0219  1.8683 -0.5009
 8279SOL     OW36469   4.561   0.093  14.623 -0.2232  0.5423  0.2820
 8279SOL    HW136470   4.468   0.117  14.624  0.0932  1.7449  0.0521
 8279SOL    HW236471   4.591   0.130  14.706 -0.2977 -1.5205  1.2460
 8280SOL     OW36472   0.228   2.332   4.288  0.3293 -0.0715 -0.6058
 8280SOL    HW136473   0.230   2.346   4.382  0.8402  1.4866 -0.8492
 8280SOL    HW236474   0.173   2.405   4.258 -0.0144 -0.1159 -0.0796
 8281SOL     OW36475   3.022   0.382  14.303  0.3731 -0.2779 -0.0463
 8281SOL    HW136476   2.969   0.435  14.362 -0.1106 -0.9791  0.1521
 8281SOL    HW236477   2.990   0.296  14.331 -1.6376  0.9273  1.3209
 8282SOL     OW36478   3.209   4.441  15.389 -0.2035  0.1816 -0.4686
 8282SOL    HW136479   3.121   4.403  15.382  0.5092 -1.1511 -2.1316
 8282SOL    HW236480   3.232   4.392  15.469  2.7451 -1.4199 -2.2940
 8283SOL     OW36481   1.186   4.633   4.329  0.2885  0.6034  0.3171
 8283SOL    HW136482   1.192   4.680   4.246 -2.0712 -0.7998 -0.6345
 8283SOL    HW236483   1.092   4.641   4.344 -0.0670  0.0028 -1.6956
 8284SOL     OW36484   0.792   4.231  15.276  0.4468  0.0549 -0.0152
 8284SOL    HW136485   0.716   4.174  15.279  2.5784 -2.7105  2.5913
 8284SOL    HW236486   0.765   4.322  15.263  1.1253  0.5052  1.7029
 8285SOL     OW36487   4.425   1.171   3.574  0.0513  0.1252  0.1115
 8285SOL    HW136488   4.518   1.187   3.590  0.2139  0.2037 -0.9062
 8285SOL    HW236489   4.390   1.195   3.660 -2.2629 -0.4718 -0.6745
 8286SOL     OW36490   2.101   2.104   7.273 -0.3105 -0.0404  0.9261
 8286SOL    HW136491   2.189   2.067   7.281  0.4305  1.1546 -1.8473
 8286SOL    HW236492   2.111   2.185   7.323 -1.2239  1.0154 -0.6016
 8287SOL     OW36493   1.430   0.182  10.050  0.5580  0.1345  0.2654
 8287SOL    HW136494   1.406   0.125   9.977 -2.4671  2.3310 -0.4479
 8287SOL    HW236495   1.525   0.169  10.046  0.5271  0.4098 -1.7682
 8288SOL     OW36496   4.306   4.163  12.113  0.2087 -0.0753  0.5080
 8288SOL    HW136497   4.228   4.179  12.165 -0.3287 -0.1279 -0.2830
 8288SOL    HW236498   4.366   4.212  12.169  0.5030  1.5557 -1.2420
 8289SOL     OW36499   0.290   0.166   7.478 -0.1317  0.3513  0.0928
 8289SOL    HW136500   0.279   0.134   7.568  2.7792 -2.1468 -0.4544
 8289SOL    HW236501   0.250   0.096   7.426  0.3209  1.7081 -2.0558
 8290SOL     OW36502   0.680   0.234  16.941  0.0206 -0.2305 -0.6208
 8290SOL    HW136503   0.643   0.320  16.919  0.5881  0.2290  0.2425
 8290SOL    HW236504   0.663   0.172  16.869  2.7189 -0.6593 -0.8884
 8291SOL     OW36505   2.835   0.391   8.375 -0.3134  0.4884 -0.3214
 8291SOL    HW136506   2.862   0.312   8.329  2.4551 -0.4901  2.9672
 8291SOL    HW236507   2.743   0.373   8.394  0.4869 -3.1032  0.1216
 8292SOL     OW36508   4.182   3.904   4.227  0.5039  0.3006 -0.0879
 8292SOL    HW136509   4.101   3.867   4.191  0.5049 -0.8561  1.0639
 8292SOL    HW236510   4.244   3.911   4.155 -0.5514  1.0420 -0.9181
 8293SOL     OW36511   1.181   1.446   8.772  0.0438  0.5522  0.2325
 8293SOL    HW136512   1.271   1.472   8.787 -0.0244  0.5972  0.5658
 8293SOL    HW236513   1.174   1.421   8.679  0.2210  0.9286  0.1190
 8294SOL     OW36514   2.694   3.159   5.477  0.3456  0.2260 -0.0039
 8294SOL    HW136515   2.783   3.190   5.459  0.3291  0.2545 -0.0372
 8294SOL    HW236516   2.674   3.115   5.394  0.5455  1.2430 -0.5906
 8295SOL     OW36517   3.873   2.175   5.114  0.0238  0.0757 -0.5155
 8295SOL    HW136518   3.893   2.251   5.168  1.8800  0.3954 -1.6783
 8295SOL    HW236519   3.814   2.118   5.164  1.1876 -0.0524  0.7103
 8296SOL     OW36520   2.771   1.802   0.077  0.1855  0.5745  0.3529
 8296SOL    HW136521   2.824   1.882   0.068  0.5522  0.0204 -2.3786
 8296SOL    HW236522   2.690   1.818   0.028  0.6904 -1.1476 -1.0453
 8297SOL     OW36523   4.337   0.302   9.355  0.4478 -0.1565  0.2038
 8297SOL    HW136524   4.253   0.277   9.317  0.6719 -1.1778  0.3652
 8297SOL    HW236525   4.391   0.313   9.277  0.4585  0.2980  0.2745
 8298SOL     OW36526   3.704   3.338  14.604 -0.1574  0.1986 -0.2076
 8298SOL    HW136527   3.651   3.266  14.571  2.4095 -1.4724 -0.7448
 8298SOL    HW236528   3.724   3.310  14.693 -3.0029 -2.2131 -0.3306
 8299SOL     OW36529   2.663   3.727   9.333  0.5899  0.0424 -0.3043
 8299SOL    HW136530   2.705   3.688   9.257  0.1972 -0.1137 -0.4392
 8299SOL    HW236531   2.738   3.748   9.389  0.2810 -0.6672  0.3762
 8300SOL     OW36532   1.857   4.330   9.246 -0.7863 -0.0752  0.1633
 8300SOL    HW136533   1.797   4.286   9.186 -2.4188 -1.0813  2.5396
 8300SOL    HW236534   1.879   4.258   9.306 -0.1022  0.3018  0.3668
 8301SOL     OW36535   2.652   1.927   1.542  0.3201  0.3860 -0.0344
 8301SOL    HW136536   2.603   1.936   1.624 -1.8399 -1.5863 -1.1114
 8301SOL    HW236537   2.688   2.015   1.529  3.7534 -1.0558 -0.2601
 8302SOL     OW36538   4.699   2.699  17.547 -0.4127 -0.3894  0.0662
 8302SOL    HW136539   4.707   2.652  17.464  2.3355 -0.9623  0.6597
 8302SOL    HW236540   4.685   2.624  17.606 -1.4297 -0.5842 -0.4149
 8303SOL     OW36541   0.124   3.808  13.725  0.4964  0.8391  0.7204
 8303SOL    HW136542   0.038   3.795  13.765  0.7148  0.1993  0.9756
 8303SOL    HW236543   0.168   3.883  13.765 -0.0542  2.5398 -1.8369
 8304SOL     OW36544   0.685   0.781  14.586 -0.2164  0.7470  0.1515
 8304SOL    HW136545   0.746   0.845  14.550 -0.6959  0.7566 -0.6479
 8304SOL    HW236546   0.701   0.773  14.680 -1.8580  0.7052  0.4246
 8305SOL     OW36547   4.220   2.453   7.634 -0.0009 -0.6757  0.2514
 8305SOL    HW136548   4.138   2.420   7.596 -0.5694 -1.0432  1.7892
 8305SOL    HW236549   4.220   2.434   7.728 -0.9541  2.4507  0.8890
 8306SOL     OW36550   1.695   3.786   4.710  0.4464  0.0129  0.2523
 8306SOL    HW136551   1.639   3.798   4.787 -1.0618 -1.8201 -0.5558
 8306SOL    HW236552   1.736   3.700   4.724 -1.6421 -0.3181  4.1981
 8307SOL     OW36553   0.136   0.500   9.235  0.0468  0.2344  0.1387
 8307SOL    HW136554   0.173   0.498   9.323  0.9379 -1.3949 -0.2643
 8307SOL    HW236555   0.209   0.526   9.178  0.8911 -1.7182  0.3484
 8308SOL     OW36556   4.497   2.523   5.283  0.2013 -0.3693 -0.5542
 8308SOL    HW136557   4.508   2.590   5.215  0.5244  0.4444  0.3166
 8308SOL    HW236558   4.423   2.478   5.242  0.2131 -0.5104 -0.4204
 8309SOL     OW36559   0.575   0.396   7.178  0.1230  0.7148  0.1112
 8309SOL    HW136560   0.536   0.377   7.092  3.8432  2.3084 -1.9065
 8309SOL    HW236561   0.534   0.483   7.190  0.3297  0.7464  0.5801
 8310SOL     OW36562   2.980   2.523   0.381  0.1718 -0.0758 -0.2969
 8310SOL    HW136563   3.037   2.600   0.378  1.2198 -0.8335  0.3540
 8310SOL    HW236564   3.043   2.465   0.339  0.8845 -0.4909  1.3222
 8311SOL     OW36565   2.977   2.651   6.679 -0.0932 -0.2091  0.2298
 8311SOL    HW136566   2.934   2.734   6.701  1.4137  0.8139 -0.6580
 8311SOL    HW236567   3.001   2.680   6.590  4.2266 -0.5167  1.2777
 8312SOL     OW36568   2.421   3.960   5.050  0.3691 -0.9828  0.4091
 8312SOL    HW136569   2.348   3.951   4.988 -0.3885  2.1508  0.8272
 8312SOL    HW236570   2.474   4.029   5.011 -0.6004  1.0682  2.7675
 8313SOL     OW36571   3.390   3.930   6.868  0.1761  0.0371  0.5320
 8313SOL    HW136572   3.452   3.990   6.909  2.6555 -2.2625  0.1585
 8313SOL    HW236573   3.323   3.997   6.855 -0.9357 -1.4802 -1.6261
 8314SOL     OW36574   4.291   2.888   2.758  0.0213  0.4563 -0.4019
 8314SOL    HW136575   4.369   2.932   2.792 -0.0497  1.4078 -1.4772
 8314SOL    HW236576   4.255   2.842   2.834 -0.0861  0.3521 -0.5155
 8315SOL     OW36577   0.437   4.126   4.279  0.4341 -0.3291 -0.1840
 8315SOL    HW136578   0.381   4.129   4.356  0.1556  0.6741 -0.4283
 8315SOL    HW236579   0.518   4.106   4.326  0.1354 -0.8504  0.1123
 8316SOL     OW36580   0.804   1.427   2.615 -0.2924  0.1281 -0.2171
 8316SOL    HW136581   0.791   1.332   2.619 -1.3678  0.2308 -1.1814
 8316SOL    HW236582   0.815   1.437   2.710 -0.3620  0.4173 -0.2419
 8317SOL     OW36583   3.667   3.542   4.975 -0.1211  0.2546 -0.5522
 8317SOL    HW136584   3.638   3.605   4.908  1.0465  1.2886 -0.0670
 8317SOL    HW236585   3.742   3.590   5.009 -0.3481  0.9783 -1.0728
 8318SOL     OW36586   0.359   1.308  16.108  0.5426 -0.2988 -0.0883
 8318SOL    HW136587   0.375   1.401  16.093  0.3918 -0.1042  0.9326
 8318SOL    HW236588   0.305   1.311  16.187 -0.0341 -0.5982 -0.4742
 8319SOL     OW36589   4.684   0.559   4.132 -0.2417  0.0724 -0.2913
 8319SOL    HW136590   0.000   0.542   4.055  1.0721 -1.8550  1.0256
 8319SOL    HW236591   4.670   0.653   4.123  1.1390  0.1027 -2.0644
 8320SOL     OW36592   2.077   4.494   1.743  0.2146  0.4485  0.0332
 8320SOL    HW136593   2.096   4.582   1.711 -0.6397 -0.0401 -1.8736
 8320SOL    HW236594   2.118   4.505   1.828 -0.7119  1.1929  0.3835
 8321SOL     OW36595   3.873   1.135   7.787 -0.2176 -0.4988 -0.3312
 8321SOL    HW136596   3.851   1.089   7.867  0.8505 -1.0814 -0.3696
 8321SOL    HW236597   3.876   1.071   7.716 -0.4711  0.2641 -1.0323
 8322SOL     OW36598   4.539   1.511   6.150  0.0771  0.7305  0.8558
 8322SOL    HW136599   4.520   1.589   6.097  2.0203  1.2017  0.8256
 8322SOL    HW236600   4.465   1.455   6.129  0.5689 -0.1460  1.4663
 8323SOL     OW36601   4.421   1.713   4.993  0.1655 -0.1060  0.8048
 8323SOL    HW136602   4.422   1.618   4.994  3.0829 -0.0866 -0.8195
 8323SOL    HW236603   4.368   1.729   5.071 -0.8992  1.8613 -0.3148
 8324SOL     OW36604   3.418   0.148   5.978  0.0224 -0.4605  0.0099
 8324SOL    HW136605   3.466   0.226   5.949 -0.2282 -0.4783 -0.4669
 8324SOL    HW236606   3.468   0.133   6.058  1.5639  1.2584 -0.6320
 8325SOL     OW36607   2.376   1.707   4.404 -0.4206  0.2750 -0.1486
 8325SOL    HW136608   2.406   1.633   4.352  1.1377  0.9813 -0.2470
 8325SOL    HW236609   2.449   1.713   4.465 -0.9289 -0.6040  0.5438
 8326SOL     OW36610   2.588   3.574  13.995 -0.2425 -0.2556 -1.0027
 8326SOL    HW136611   2.509   3.554  14.045  0.1552 -1.3737 -0.8185
 8326SOL    HW236612   2.615   3.487  13.965  3.0028  1.3003 -2.5810
 8327SOL     OW36613   3.526   3.439   1.116  0.3350 -0.1645 -0.4788
 8327SOL    HW136614   3.515   3.409   1.206  1.7872 -0.6405 -0.4502
 8327SOL    HW236615   3.531   3.355   1.070 -3.3839  0.8445 -2.7185
 8328SOL     OW36616   3.508   3.187   7.779  0.0708 -0.1034 -0.3911
 8328SOL    HW136617   3.577   3.245   7.811  0.5026  0.1020 -1.7119
 8328SOL    HW236618   3.513   3.114   7.840 -0.5144  0.5664  0.4566
 8329SOL     OW36619   4.127   0.151   2.389 -0.2964  0.0521  0.1258
 8329SOL    HW136620   4.175   0.108   2.319  1.8887  2.6275  0.0547
 8329SOL    HW236621   4.103   0.240   2.364  0.3662  0.5452  1.2579
 8330SOL     OW36622   4.287   4.729  11.570 -0.2765 -0.0599  0.1217
 8330SOL    HW136623   4.373   4.694  11.595 -0.2151  0.1748  0.2368
 8330SOL    HW236624   4.296   0.080  11.606  1.1628  0.5305 -1.6654
 8331SOL     OW36625   1.302   1.086   3.632 -0.1696  0.3439  0.5456
 8331SOL    HW136626   1.288   1.006   3.682 -1.1235  0.9559  1.2575
 8331SOL    HW236627   1.244   1.076   3.556  3.0538 -1.5794 -1.6466
 8332SOL     OW36628   2.655   4.126   7.829 -0.0267 -1.1685 -0.2261
 8332SOL    HW136629   2.597   4.166   7.894  2.2274  0.3076  0.8585
 8332SOL    HW236630   2.739   4.138   7.873  0.4192 -4.3330 -0.1831
 8333SOL     OW36631   0.075   3.044   2.140  0.3913  0.8096 -0.0222
 8333SOL    HW136632   0.055   3.043   2.046  1.1974 -1.6793 -0.1780
 8333SOL    HW236633   0.018   2.971   2.164  4.4662 -1.8641  1.5515
 8334SOL     OW36634   3.352   0.584   6.098  0.4330 -0.4736 -0.1331
 8334SOL    HW136635   3.352   0.679   6.086 -2.4347  0.0274  3.9307
 8334SOL    HW236636   3.446   0.575   6.114  0.5654  0.4316 -0.4297
 8335SOL     OW36637   3.667   4.394   7.523 -0.2186  0.2363 -0.4791
 8335SOL    HW136638   3.646   4.474   7.572  1.7838  0.8335 -0.5810
 8335SOL    HW236639   3.683   4.437   7.439  0.8384  1.0601  0.1339
 8336SOL     OW36640   3.165   0.084   3.064 -0.6083 -0.2580  0.1717
 8336SOL    HW136641   3.122   0.164   3.094  2.0448  0.3035  2.4559
 8336SOL    HW236642   3.086   0.030   3.075 -1.9321  1.3085 -1.6744
 8337SOL     OW36643   4.241   3.945  17.317 -0.2075 -0.1620 -0.0520
 8337SOL    HW136644   4.174   3.900  17.367  0.0051 -0.0373  0.3404
 8337SOL    HW236645   4.323   3.949  17.366 -0.7475 -3.6516  1.1742
 8338SOL     OW36646   0.893   0.133   5.736  0.0251  0.2809 -0.1576
 8338SOL    HW136647   0.981   0.109   5.767  1.4144  2.5029 -2.4148
 8338SOL    HW236648   0.902   0.226   5.714 -1.8214 -0.4515 -3.8936
 8339SOL     OW36649   4.067   1.628   0.043  0.4364 -0.0483  0.0817
 8339SOL    HW136650   4.119   1.661   0.117 -1.4975 -0.4550  1.6252
 8339SOL    HW236651   4.043   1.542   0.078 -2.6712  0.4705 -0.7814
 8340SOL     OW36652   1.632   4.454   3.931  0.4249  0.1497 -0.1008
 8340SOL    HW136653   1.676   4.445   3.846 -1.1631 -1.8419 -0.7099
 8340SOL    HW236654   1.668   4.534   3.970 -0.5430 -1.0689  3.3069
 8341SOL     OW36655   1.162   4.205   6.370  1.2371 -0.3234 -0.2857
 8341SOL    HW136656   1.157   4.300   6.368  1.7717 -0.3182 -1.3769
 8341SOL    HW236657   1.100   4.174   6.303  1.0409 -0.2371 -0.1443
 8342SOL     OW36658   0.504   2.671   9.124  0.4441  0.2457 -0.8131
 8342SOL    HW136659   0.432   2.672   9.061 -1.7355 -2.7164  1.6113
 8342SOL    HW236660   0.459   2.711   9.198  0.2156  3.7358 -2.8372
 8343SOL     OW36661   2.399   0.331   2.985  0.4431  0.0351 -0.7817
 8343SOL    HW136662   2.320   0.384   2.983  1.8613  2.1325 -0.6596
 8343SOL    HW236663   2.399   0.312   2.891 -2.1119  0.4621 -0.8558
 8344SOL     OW36664   4.287   3.278   0.802  0.2164 -0.4634 -0.2486
 8344SOL    HW136665   4.316   3.237   0.883 -0.4376 -1.1717 -0.3834
 8344SOL    HW236666   4.371   3.322   0.787  0.7292 -1.7031 -1.0364
 8345SOL     OW36667   4.458   2.250   7.151  0.2388  0.0894  0.2546
 8345SOL    HW136668   4.440   2.179   7.212 -1.3322  0.3871  0.1520
 8345SOL    HW236669   4.506   2.213   7.077  2.6167  2.1255  0.7705
 8346SOL     OW36670   4.712   0.576   2.494  0.2938  0.1545 -0.0991
 8346SOL    HW136671   4.689   0.487   2.467 -3.5916  2.2340 -3.6392
 8346SOL    HW236672   4.651   0.630   2.443  1.4579  1.9692  0.4115
 8347SOL     OW36673   1.263   4.617  10.565 -0.3689  0.4045 -0.2526
 8347SOL    HW136674   1.191   4.611  10.628 -0.6500  1.9063 -0.4415
 8347SOL    HW236675   1.302   4.529  10.567  1.0805  1.0618  0.4237
 8348SOL     OW36676   0.496   4.332   7.339 -0.0702 -0.3651  0.2043
 8348SOL    HW136677   0.427   4.371   7.392 -0.3694 -2.6248  1.4706
 8348SOL    HW236678   0.501   4.241   7.367 -0.0937 -0.4404 -0.0359
 8349SOL     OW36679   3.767   2.222   5.743 -0.4920 -0.0052 -0.1242
 8349SOL    HW136680   3.780   2.210   5.837  1.1156 -1.1653 -0.5071
 8349SOL    HW236681   3.798   2.311   5.727 -0.8654  0.0689 -0.4605
 8350SOL     OW36682   1.969   1.874   5.116 -0.6435 -0.3439  0.0280
 8350SOL    HW136683   2.028   1.949   5.119  0.7961 -1.4797  0.2558
 8350SOL    HW236684   2.011   1.826   5.187  1.7051  0.0626 -1.1007
 8351SOL     OW36685   0.208   2.848   6.002 -0.1425  0.2038  0.0728
 8351SOL    HW136686   0.206   2.849   6.098 -1.4090 -0.6091  0.0577
 8351SOL    HW236687   0.208   2.942   5.980 -2.9602  0.0370 -0.6573
 8352SOL     OW36688   0.083   2.524   4.198 -0.0692 -0.3860 -0.5061
 8352SOL    HW136689   0.137   2.543   4.122  1.8620  1.9714  1.4700
 8352SOL    HW236690   4.733   2.517   4.159 -0.8202 -1.7239  1.3960
 8353SOL     OW36691   0.490   3.483   8.707  0.8944 -0.1185 -0.1104
 8353SOL    HW136692   0.578   3.519   8.721  0.6566  0.1908  0.5770
 8353SOL    HW236693   0.508   3.390   8.697  0.3464 -0.2993  0.6094
 8354SOL     OW36694   2.559   4.583   3.506 -0.1247  0.1502 -0.0749
 8354SOL    HW136695   2.513   4.575   3.590 -0.9980 -1.0963 -0.6756
 8354SOL    HW236696   2.609   4.663   3.520  1.0386 -0.4261 -0.9574
 8355SOL     OW36697   1.672   0.420   8.306  0.1865  0.1109 -0.2061
 8355SOL    HW136698   1.597   0.360   8.303  0.0356  0.3123 -0.4289
 8355SOL    HW236699   1.732   0.365   8.357  1.2254 -0.5123 -2.1037
 8356SOL     OW36700   1.950   0.196   5.959 -0.0953  0.0165  0.2542
 8356SOL    HW136701   1.950   0.202   6.055 -0.3282  1.2482  0.1857
 8356SOL    HW236702   1.916   0.112   5.929 -0.6300  0.0779  0.6734
 8357SOL     OW36703   2.895   2.384   8.176  0.1292  0.0272 -0.2329
 8357SOL    HW136704   2.819   2.330   8.151 -0.3825 -0.0298  1.4738
 8357SOL    HW236705   2.891   2.376   8.271 -0.3741 -0.4060 -0.2872
 8358SOL     OW36706   4.633   4.729   2.279  0.3224  0.2863 -0.1145
 8358SOL    HW136707   4.627   0.031   2.192  0.8524  0.3302 -0.1344
 8358SOL    HW236708   4.650   0.070   2.331  1.1854  0.0555 -0.0461
 8359SOL     OW36709   1.029   4.418   5.495  0.0769  0.0264 -0.2693
 8359SOL    HW136710   0.987   4.497   5.529  0.6536 -0.2889  1.1731
 8359SOL    HW236711   1.058   4.368   5.571  2.7560  0.5011 -0.9804
 8360SOL     OW36712   0.380   0.097  14.560  0.1697 -0.1006 -0.3163
 8360SOL    HW136713   0.460   0.053  14.532 -0.9248 -1.9604 -0.4688
 8360SOL    HW236714   0.356   0.146  14.481  0.2224 -1.2232 -1.0298
 8361SOL     OW36715   1.073   2.260  10.448  0.0597  0.0522 -0.0699
 8361SOL    HW136716   0.989   2.273  10.403 -1.0181 -1.0166  1.6213
 8361SOL    HW236717   1.094   2.182  10.396 -1.4929  0.0719 -0.7440
 8362SOL     OW36718   1.832   4.212   4.682  0.8754  0.4659 -0.1261
 8362SOL    HW136719   1.917   4.182   4.647  1.6909  2.2226  0.3448
 8362SOL    HW236720   1.858   4.300   4.710 -1.1684  0.7938  0.6751
 8363SOL     OW36721   3.277   4.056   2.365  0.3555 -0.0099  0.4639
 8363SOL    HW136722   3.332   4.024   2.436  0.5549  0.0798  0.3511
 8363SOL    HW236723   3.336   4.116   2.318  0.9463  0.5253  1.8838
 8364SOL     OW36724   0.990   0.721  12.633  0.5085  0.1060  0.1880
 8364SOL    HW136725   0.910   0.772  12.626  0.1172 -0.3842  1.0100
 8364SOL    HW236726   0.997   0.666  12.555  1.9850  1.6004 -0.7398
 8365SOL     OW36727   2.286   3.655  11.169 -0.3929  0.4003 -0.0626
 8365SOL    HW136728   2.310   3.629  11.258  3.4375  0.2761 -1.1642
 8365SOL    HW236729   2.255   3.576  11.124 -0.0323 -0.9457  2.0339
 8366SOL     OW36730   3.263   3.479   2.389 -0.4873  0.1819 -0.4492
 8366SOL    HW136731   3.177   3.494   2.429 -1.2853 -1.2526 -1.6678
 8366SOL    HW236732   3.324   3.470   2.462 -1.6676  0.9925  0.6447
 8367SOL     OW36733   0.538   1.009   5.885  0.0916  0.1527  0.3282
 8367SOL    HW136734   0.610   1.066   5.913  0.0734  0.8485 -1.0318
 8367SOL    HW236735   0.571   0.962   5.808 -1.0531  1.9774 -1.2568
 8368SOL     OW36736   3.775   1.419   8.193 -0.2069 -0.1173  0.3224
 8368SOL    HW136737   3.809   1.468   8.268  0.0681 -0.7790  0.6267
 8368SOL    HW236738   3.802   1.480   8.125  1.3286 -1.2069 -0.0472
 8369SOL     OW36739   0.519   3.936   9.543  0.1997  0.1748  0.1233
 8369SOL    HW136740   0.597   3.887   9.569 -0.2975 -0.2468  0.8559
 8369SOL    HW236741   0.500   3.971   9.630 -1.0545 -0.3438  0.0606
 8370SOL     OW36742   0.186   3.025   5.552  0.3031  0.6092  0.3637
 8370SOL    HW136743   0.149   2.939   5.535 -1.2412  1.3090  0.1426
 8370SOL    HW236744   0.242   3.035   5.475 -1.2220  0.0619 -0.8084
 8371SOL     OW36745   1.106   3.462  12.673 -0.5818  0.2905  0.1919
 8371SOL    HW136746   1.124   3.370  12.691  2.7674  1.1445  1.1868
 8371SOL    HW236747   1.100   3.502  12.760 -1.5990 -0.3043  0.3885
 8372SOL     OW36748   1.579   4.350  11.674 -0.3214  0.7364 -0.1161
 8372SOL    HW136749   1.661   4.300  11.677 -0.8833 -0.2719 -1.9602
 8372SOL    HW236750   1.615   4.439  11.675 -1.0090  1.0134 -0.2140
 8373SOL     OW36751   3.203   2.654   6.850  0.4692  0.0242  0.1049
 8373SOL    HW136752   3.129   2.650   6.790  1.2793 -3.4814 -0.6606
 8373SOL    HW236753   3.268   2.691   6.790  2.4790 -2.6754  0.6049
 8374SOL     OW36754   3.715   4.653   4.415  0.3213 -0.4550 -0.3723
 8374SOL    HW136755   3.702   4.574   4.363 -2.7224  0.0113 -0.3588
 8374SOL    HW236756   3.673   4.632   4.498 -0.8410 -0.2960 -0.9199
 8375SOL     OW36757   1.835   3.022   6.382  0.5514  0.1367 -0.5586
 8375SOL    HW136758   1.877   2.995   6.300  1.1009  0.7663 -0.4801
 8375SOL    HW236759   1.856   3.114   6.396 -3.4616  0.7216  1.6092
 8376SOL     OW36760   3.771   0.950   3.333  0.6365  0.1112  0.5136
 8376SOL    HW136761   3.721   0.869   3.346  0.7396  0.1755  1.3501
 8376SOL    HW236762   3.745   1.003   3.408 -1.3797 -0.4341  0.1990
 8377SOL     OW36763   4.523   1.208   4.340  0.0021  0.3143  0.1876
 8377SOL    HW136764   4.582   1.223   4.414  0.8337  0.0630 -0.4112
 8377SOL    HW236765   4.515   1.296   4.303 -1.2054  0.4150  0.6968
 8378SOL     OW36766   0.194   4.132   4.549  0.2292 -0.2200 -0.3432
 8378SOL    HW136767   0.125   4.153   4.486 -1.0874 -1.6643  0.6230
 8378SOL    HW236768   0.150   4.086   4.621 -1.7746 -3.1197 -3.4689
 8379SOL     OW36769   2.484   2.775   7.949  0.4291 -1.4894 -0.1119
 8379SOL    HW136770   2.548   2.834   7.911 -0.4167  0.1585  1.0506
 8379SOL    HW236771   2.511   2.790   8.039  1.3875 -3.9129  0.0084
 8380SOL     OW36772   0.278   1.379   2.350 -0.7334  0.6391  0.5724
 8380SOL    HW136773   0.208   1.344   2.405  0.8486  0.8107  2.6686
 8380SOL    HW236774   0.359   1.356   2.395  0.0384  2.1942  0.0067
 8381SOL     OW36775   1.261   4.276   8.770 -0.0778 -0.0535  0.5545
 8381SOL    HW136776   1.325   4.317   8.712 -0.0997 -1.2980 -0.3467
 8381SOL    HW236777   1.209   4.241   8.698 -1.6234 -1.0814  2.1519
 8382SOL     OW36778   1.931   1.531   9.064  0.2915  0.1186 -0.3622
 8382SOL    HW136779   1.919   1.441   9.095 -0.7009  0.3926  0.0497
 8382SOL    HW236780   1.912   1.586   9.140 -1.1384 -0.8669  0.0058
 8383SOL     OW36781   0.675   2.045   8.855 -0.3310  0.0301 -0.9473
 8383SOL    HW136782   0.714   1.991   8.924  0.0150  2.4527  0.7138
 8383SOL    HW236783   0.586   2.061   8.885 -1.3128 -1.9033 -2.7993
 8384SOL     OW36784   4.251   4.484   5.790  0.3810  0.1564 -0.0782
 8384SOL    HW136785   4.304   4.423   5.738 -1.4380 -1.1033 -0.4547
 8384SOL    HW236786   4.176   4.428   5.808  0.5723  0.1864  0.8078
 8385SOL     OW36787   2.662   3.541   7.094 -0.8407  0.2268  0.5991
 8385SOL    HW136788   2.632   3.552   7.184 -0.2516  1.2044  0.6812
 8385SOL    HW236789   2.748   3.584   7.102 -1.1680  0.5996  2.1511
 8386SOL     OW36790   1.224   2.287   9.658  0.3360 -0.2834  0.1369
 8386SOL    HW136791   1.192   2.333   9.581  0.4156 -0.3776  0.0482
 8386SOL    HW236792   1.318   2.298   9.641  0.3902  2.6844  2.2800
 8387SOL     OW36793   0.260   2.627   4.516  0.0169  0.3554 -0.2081
 8387SOL    HW136794   0.331   2.646   4.454 -1.1867  2.0198 -1.0728
 8387SOL    HW236795   0.276   2.533   4.517 -1.2813  0.1398  1.6327
 8388SOL     OW36796   2.956   0.199   8.836  0.2578  0.1055  0.1420
 8388SOL    HW136797   2.960   0.214   8.742  1.0086  0.8312  0.2902
 8388SOL    HW236798   2.864   0.175   8.849  0.1470 -0.0825 -1.0001
 8389SOL     OW36799   0.648   0.151   6.458  0.1595 -0.0353 -0.4427
 8389SOL    HW136800   0.576   0.213   6.444 -1.7732 -2.2941 -0.5424
 8389SOL    HW236801   0.604   0.083   6.510  0.9938  0.3244  0.7253
 8390SOL     OW36802   3.489   0.605   5.176  0.2462 -0.2187  0.3623
 8390SOL    HW136803   3.486   0.697   5.151 -0.2663 -1.2442 -3.4043
 8390SOL    HW236804   3.433   0.557   5.115 -1.2598  0.3444  1.3218
 8391SOL     OW36805   3.417   4.297  17.368 -0.3541 -0.7383 -0.4041
 8391SOL    HW136806   3.342   4.356  17.361 -0.4410 -0.5381  2.1025
 8391SOL    HW236807   3.365   4.216  17.365  2.5410 -2.6864  2.2809
 8392SOL     OW36808   1.292   2.997   4.039  0.2087 -0.6151 -0.3889
 8392SOL    HW136809   1.223   2.931   4.036 -0.7450  0.3959 -0.7672
 8392SOL    HW236810   1.292   3.026   4.130  0.8637  0.0264 -0.5926
 8393SOL     OW36811   0.037   2.642  13.769 -0.0829  0.8773  0.8071
 8393SOL    HW136812   4.710   2.679  13.709  0.9515 -0.3161 -1.0505
 8393SOL    HW236813   0.118   2.640  13.717 -2.2402 -1.5955 -2.4218
 8394SOL     OW36814   3.238   2.137   5.074  0.0108  0.1441  0.3420
 8394SOL    HW136815   3.326   2.141   5.112  0.8678 -4.3321 -1.1221
 8394SOL    HW236816   3.210   2.045   5.081  1.3414 -0.3202 -0.3403
 8395SOL     OW36817   0.008   0.346   4.773  0.4152 -0.1102 -0.1895
 8395SOL    HW136818   0.063   0.399   4.830  1.5560 -2.1557  0.6107
 8395SOL    HW236819   4.693   0.410   4.724  3.0210  2.6146  0.6121
 8396SOL     OW36820   2.101   1.958   8.016  0.6470 -0.3467 -0.6211
 8396SOL    HW136821   2.013   1.922   8.007 -0.1329  1.5599 -0.7046
 8396SOL    HW236822   2.095   2.018   8.090 -1.8527 -1.6188  0.2117
 8397SOL     OW36823   4.727   3.273  11.288  0.0636  0.6805  0.5308
 8397SOL    HW136824   4.657   3.221  11.248 -0.5701  1.6764  0.3421
 8397SOL    HW236825   0.061   3.211  11.269 -0.7588 -0.5365  1.3875
 8398SOL     OW36826   2.712   2.469   9.474 -0.1266 -0.2533  0.3769
 8398SOL    HW136827   2.620   2.447   9.456 -0.1937  0.5945 -0.3044
 8398SOL    HW236828   2.704   2.489   9.567 -0.5961 -1.2702  0.5531
 8399SOL     OW36829   1.274   1.337   9.772  0.0974  0.3892 -0.0733
 8399SOL    HW136830   1.249   1.430   9.770 -1.7308 -0.1440 -1.5609
 8399SOL    HW236831   1.192   1.298   9.802  0.0995 -0.8937 -1.7725
 8400SOL     OW36832   2.938   2.332   2.029 -0.0661 -0.0164 -0.5091
 8400SOL    HW136833   2.926   2.415   1.984  1.9348  0.3600 -0.3708
 8400SOL    HW236834   3.033   2.324   2.019 -0.0013  0.5650 -0.3318
 8401SOL     OW36835   1.721   1.496   8.527  0.1181 -0.5363  0.1385
 8401SOL    HW136836   1.766   1.564   8.477  1.0712 -1.7318 -0.6297
 8401SOL    HW236837   1.628   1.514   8.512  0.2881 -1.3759 -1.9060
 8402SOL     OW36838   3.830   2.313   8.176  0.3190 -0.4885  0.3688
 8402SOL    HW136839   3.903   2.256   8.201 -0.5433 -1.8536 -0.2190
 8402SOL    HW236840   3.883   2.385   8.140 -0.2762 -0.1370  0.2008
 8403SOL     OW36841   3.839   3.225   0.057  0.1264  0.0833 -0.0901
 8403SOL    HW136842   3.898   3.289   0.096 -0.4292  0.2589  0.4574
 8403SOL    HW236843   3.895   3.169   0.003  1.7962  1.0041  0.7055
 8404SOL     OW36844   3.204   1.494   0.263  0.0302 -0.3283 -0.8338
 8404SOL    HW136845   3.226   1.431   0.194 -2.4139 -1.4817 -0.5530
 8404SOL    HW236846   3.187   1.434   0.336 -2.7181  2.8579  1.1268
 8405SOL     OW36847   4.380   3.839  12.832 -0.0809 -0.0192  0.3001
 8405SOL    HW136848   4.451   3.857  12.894 -2.1907  0.4705  2.5398
 8405SOL    HW236849   4.333   3.922  12.836  2.1531  1.2312  0.6083
 8406SOL     OW36850   0.027   3.593   9.648  0.0812  0.2867  0.6814
 8406SOL    HW136851   4.687   3.544   9.677  1.0500 -0.5045  1.9407
 8406SOL    HW236852   4.736   3.685   9.649 -0.9467 -0.0289  0.9951
 8407SOL     OW36853   4.382   0.293  15.772 -0.1878  0.1888 -0.0629
 8407SOL    HW136854   4.318   0.330  15.711  0.9626  2.8785  0.3797
 8407SOL    HW236855   4.451   0.252  15.719 -0.3872 -1.8512  1.2640
 8408SOL     OW36856   4.312   4.424   6.751 -0.2331  0.6440 -0.1456
 8408SOL    HW136857   4.325   4.358   6.682 -0.0763  0.8612 -0.3205
 8408SOL    HW236858   4.349   4.365   6.817 -0.8767 -1.0041 -1.2363
 8409SOL     OW36859   3.655   2.084   9.379 -0.0100 -0.3932 -0.1878
 8409SOL    HW136860   3.622   2.173   9.369 -1.5695 -0.9274  0.2650
 8409SOL    HW236861   3.624   2.054   9.294  1.3763 -2.7641  0.1290
 8410SOL     OW36862   3.498   4.133  11.488  0.1693 -0.6699  0.4678
 8410SOL    HW136863   3.456   4.059  11.532  1.2056 -1.6714 -0.2582
 8410SOL    HW236864   3.591   4.118  11.500  0.2542 -2.0919 -2.0713
 8411SOL     OW36865   2.862   1.790   6.502  0.2011 -0.0555 -0.1371
 8411SOL    HW136866   2.797   1.797   6.433  1.5043 -0.8653 -1.4554
 8411SOL    HW236867   2.927   1.859   6.487  1.9125 -1.1825  2.0019
 8412SOL     OW36868   0.851   3.643  10.136 -0.4587  0.1288  0.1045
 8412SOL    HW136869   0.875   3.628  10.044  0.8970  3.0247 -0.0239
 8412SOL    HW236870   0.865   3.737  10.147  0.9647  0.0331 -0.9112
 8413SOL     OW36871   3.661   1.319  17.206  0.3358  0.4590 -0.1203
 8413SOL    HW136872   3.600   1.309  17.279  1.8214  1.4737  1.2351
 8413SOL    HW236873   3.670   1.229  17.174  0.5242  0.8160 -1.0753
 8414SOL     OW36874   0.147   4.362   6.601  0.0195 -0.1270 -0.5081
 8414SOL    HW136875   0.183   4.341   6.514  1.0081  1.2320 -0.4176
 8414SOL    HW236876   0.057   4.385   6.576  0.9800  2.4473 -1.5936
 8415SOL     OW36877   1.442   0.306   6.428 -0.3540  0.3560 -0.2889
 8415SOL    HW136878   1.358   0.347   6.407 -0.8621  0.5459  2.0892
 8415SOL    HW236879   1.505   0.366   6.389  0.8244 -0.3745  0.4970
 8416SOL     OW36880   4.686   4.153   8.332  0.5014 -0.1360  0.2349
 8416SOL    HW136881   4.624   4.147   8.260 -0.3329 -1.0206  1.0176
 8416SOL    HW236882   4.625   4.147   8.406  1.4735  1.5386  1.1790
 8417SOL     OW36883   4.366   2.932   7.236  0.6471 -0.1057  0.3557
 8417SOL    HW136884   4.334   2.841   7.229 -1.2765  0.5886  0.0493
 8417SOL    HW236885   4.432   2.927   7.305 -0.2921  0.1131  1.2635
 8418SOL     OW36886   1.381   4.083   3.152  0.2264 -0.0163  0.2328
 8418SOL    HW136887   1.370   4.147   3.222 -0.3601  0.2935 -0.1378
 8418SOL    HW236888   1.408   4.131   3.073 -0.5811 -0.5418 -0.3641
 8419SOL     OW36889   1.425   1.020   4.916 -0.2951  0.2756  0.2100
 8419SOL    HW136890   1.416   0.925   4.911  2.2178  0.0485  0.2768
 8419SOL    HW236891   1.438   1.039   5.009  0.2668  1.4391 -0.0960
 8420SOL     OW36892   2.829   4.695  12.391  0.2929  0.0912  0.1950
 8420SOL    HW136893   2.872   0.009  12.323  1.1310 -0.7942  0.0406
 8420SOL    HW236894   2.739   4.686  12.361 -0.5130  1.6248  2.1779
 8421SOL     OW36895   4.100   1.352   0.941  0.2052  0.1261  0.2556
 8421SOL    HW136896   4.185   1.337   0.900 -0.2828  0.7510 -1.0102
 8421SOL    HW236897   4.067   1.431   0.897 -0.1415  0.4174  1.0391
 8422SOL     OW36898   1.205   1.176   9.392  0.0370 -0.5932  0.5637
 8422SOL    HW136899   1.174   1.153   9.480  0.9059  1.9890  1.5596
 8422SOL    HW236900   1.192   1.094   9.345 -1.1844 -0.4658  0.6801
 8423SOL     OW36901   4.295   0.008   6.154 -0.4991  0.4356  0.1606
 8423SOL    HW136902   4.233   0.073   6.118  1.6570  2.4910  0.1854
 8423SOL    HW236903   4.308   0.043   6.241  1.6166  1.8727 -0.7451
 8424SOL     OW36904   2.113   0.901   0.950 -0.2376 -0.2031  0.1316
 8424SOL    HW136905   2.151   0.833   1.006  0.9669 -0.1713 -0.6287
 8424SOL    HW236906   2.190   0.958   0.949 -0.3869  0.0154  1.0403
 8425SOL     OW36907   1.021   2.205   3.099  0.3053 -0.0877  0.1326
 8425SOL    HW136908   0.957   2.134   3.107  0.5279 -0.3608 -0.5597
 8425SOL    HW236909   1.064   2.200   3.184 -0.2921  1.2681  0.5046
 8426SOL     OW36910   2.873   4.041  13.721  0.5398 -0.2858  0.1477
 8426SOL    HW136911   2.867   3.946  13.713 -0.7513 -0.0382 -2.1192
 8426SOL    HW236912   2.782   4.072  13.717  0.3387 -0.9180 -0.2249
 8427SOL     OW36913   3.436   1.144   9.374  0.3762  0.0475 -0.3828
 8427SOL    HW136914   3.402   1.086   9.442 -0.5949  0.0811 -0.8363
 8427SOL    HW236915   3.524   1.113   9.353 -0.1656  0.6941 -3.5480
 8428SOL     OW36916   3.009   0.152  15.239  0.8531  0.2555 -0.3265
 8428SOL    HW136917   3.030   0.059  15.246 -1.0157 -0.0841  0.6975
 8428SOL    HW236918   3.038   0.168  15.149  0.7941 -0.0660 -0.4031
 8429SOL     OW36919   2.061   0.473   5.569 -0.2510 -0.4769 -0.0500
 8429SOL    HW136920   1.987   0.414   5.555  0.7311 -1.2232 -2.0369
 8429SOL    HW236921   2.111   0.426   5.636 -1.1730  0.1926  1.1171
 8430SOL     OW36922   3.448   1.213   0.148  0.0407  0.3020  0.4291
 8430SOL    HW136923   3.507   1.279   0.112  0.5185 -0.4399 -0.1531
 8430SOL    HW236924   3.365   1.219   0.101  0.1392 -0.7798  0.1066
 8431SOL     OW36925   4.721   0.939   8.158  0.0461 -0.0575 -0.5503
 8431SOL    HW136926   0.077   0.958   8.151  0.5454 -1.1133  3.0622
 8431SOL    HW236927   4.693   0.894   8.078  0.2245 -1.4973  0.1970
 8432SOL     OW36928   4.433   0.800  14.424 -0.2229  0.2546  0.3234
 8432SOL    HW136929   4.513   0.846  14.449 -0.2043 -0.6663  1.9534
 8432SOL    HW236930   4.471   0.749  14.352 -1.8170  1.5753 -1.4525
 8433SOL     OW36931   2.576   2.045  17.493 -0.2280  0.4480 -0.2178
 8433SOL    HW136932   2.514   2.037  17.420  0.1346 -0.2155 -0.4542
 8433SOL    HW236933   2.555   2.131  17.531  1.0270  1.0467 -0.8929
 8434SOL     OW36934   3.423   0.710   3.305 -0.3668  0.2535  0.5553
 8434SOL    HW136935   3.493   0.722   3.369 -0.0235 -1.9907  0.5925
 8434SOL    HW236936   3.358   0.672   3.364  1.2138 -0.8019  1.6171
 8435SOL     OW36937   4.484   4.372   3.661 -0.0104  0.0720  0.1530
 8435SOL    HW136938   4.440   4.290   3.638  1.2744 -0.0437 -1.8824
 8435SOL    HW236939   4.539   4.391   3.585  0.0736  0.8743  0.4166
 8436SOL     OW36940   3.031   0.147  17.536  0.1511  0.0520  0.4601
 8436SOL    HW136941   2.984   0.131  17.454  2.0066 -1.3154 -0.3232
 8436SOL    HW236942   3.093   0.074  17.540 -0.9747 -0.8587  1.1662
 8437SOL     OW36943   3.474   1.206   2.896  0.4790  0.1692 -0.1868
 8437SOL    HW136944   3.436   1.179   2.812  0.6280  0.3334 -0.3074
 8437SOL    HW236945   3.514   1.125   2.927  0.7143  0.3537 -0.0172
 8438SOL     OW36946   1.764   0.721   2.455  0.4459 -0.1623  0.5818
 8438SOL    HW136947   1.739   0.711   2.363  1.5833 -1.5846  0.4335
 8438SOL    HW236948   1.849   0.677   2.459  0.8030  0.4227 -0.5076
 8439SOL     OW36949   1.132   0.475   9.116  0.2334 -0.2037  0.6782
 8439SOL    HW136950   1.205   0.536   9.130  0.6262 -0.3231 -0.8847
 8439SOL    HW236951   1.122   0.444   9.206 -1.4720  0.5783  0.7567
 8440SOL     OW36952   3.880   3.058  15.443  0.5388  0.5955 -0.5753
 8440SOL    HW136953   3.859   2.985  15.384  3.6866  0.9446 -2.1365
 8440SOL    HW236954   3.831   3.133  15.408 -1.1193 -1.3475 -2.4593
 8441SOL     OW36955   1.888   0.662  14.808 -0.0553 -0.0688 -0.1315
 8441SOL    HW136956   1.836   0.630  14.734 -0.2782  1.7637 -0.7854
 8441SOL    HW236957   1.976   0.630  14.788  0.1566  0.9694 -0.8821
 8442SOL     OW36958   2.561   4.408   9.507 -0.0381  0.7799  0.2713
 8442SOL    HW136959   2.497   4.368   9.448  1.7687  0.5476 -1.5159
 8442SOL    HW236960   2.638   4.371   9.464 -0.4423  0.2252  0.0133
 8443SOL     OW36961   3.505   2.112   5.094 -0.0488 -0.1487  0.1090
 8443SOL    HW136962   3.526   2.044   5.030 -1.3871 -0.8229  0.3873
 8443SOL    HW236963   3.567   2.079   5.159 -1.7679  1.2644  2.4554
 8444SOL     OW36964   0.087   2.250   8.150  0.0090  0.4914 -0.3453
 8444SOL    HW136965   0.067   2.343   8.138 -0.1959  0.8318  2.8101
 8444SOL    HW236966   0.167   2.250   8.096 -0.5102  1.7130 -1.1391
 8445SOL     OW36967   0.708   4.180   8.029  0.8581  0.4494 -0.0680
 8445SOL    HW136968   0.779   4.122   8.057  0.6187  0.4218  0.4920
 8445SOL    HW236969   0.643   4.140   8.087 -1.0244  0.5285 -2.1488
 8446SOL     OW36970   2.503   0.148  15.172  0.2763  0.2447  0.2421
 8446SOL    HW136971   2.587   0.161  15.128  0.2073 -1.9270 -0.5024
 8446SOL    HW236972   2.442   0.115  15.106  0.0578  2.3440 -0.6099
 8447SOL     OW36973   3.445   0.440   3.090 -0.2156 -0.1236  0.3123
 8447SOL    HW136974   3.507   0.384   3.137 -0.6574  0.6112  1.7930
 8447SOL    HW236975   3.418   0.496   3.163 -0.1310  0.0271  0.2282
 8448SOL     OW36976   2.954   2.969  10.787  0.0409  0.1046  0.2028
 8448SOL    HW136977   3.000   3.050  10.764  0.7951 -0.1020  0.9985
 8448SOL    HW236978   3.000   2.942  10.866  1.1333 -1.7421 -1.0506
 8449SOL     OW36979   2.900   3.786   7.824 -0.1592  0.0803  0.4821
 8449SOL    HW136980   2.950   3.736   7.759  0.2183 -0.3973  1.1397
 8449SOL    HW236981   2.808   3.765   7.811 -0.3935  1.0471  0.5841
 8450SOL     OW36982   3.225   2.171   2.296 -0.0584  0.0655  0.0895
 8450SOL    HW136983   3.307   2.157   2.345  0.2548 -1.0565 -0.7691
 8450SOL    HW236984   3.224   2.096   2.236  0.2903  0.0451  0.1042
 8451SOL     OW36985   3.970   4.024   5.204  0.4834  0.0528 -0.1409
 8451SOL    HW136986   3.990   4.109   5.243  2.8876 -1.9508  2.9740
 8451SOL    HW236987   3.942   3.971   5.279 -2.7116  0.9426 -0.6764
 8452SOL     OW36988   0.823   0.139   0.480 -0.1484  0.9573 -0.3480
 8452SOL    HW136989   0.877   0.186   0.417 -1.6085 -0.9921 -3.0268
 8452SOL    HW236990   0.745   0.190   0.460 -0.4831 -0.1554 -1.8837
 8453SOL     OW36991   2.348   0.612   4.884  0.6080  0.2256  0.5507
 8453SOL    HW136992   2.330   0.637   4.975 -1.9119 -0.0694  0.1105
 8453SOL    HW236993   2.348   0.697   4.839  1.0921  0.0947  0.3038
 8454SOL     OW36994   4.713   0.242   5.301 -0.3386  0.4833  0.0443
 8454SOL    HW136995   4.722   0.335   5.282  0.0508  1.2824  4.0286
 8454SOL    HW236996   0.056   0.237   5.352 -0.8299 -2.8398  0.5004
 8455SOL     OW36997   1.225   0.908   5.672 -0.1367  0.2478  0.1498
 8455SOL    HW136998   1.238   0.887   5.580  1.1517  1.1258  0.1306
 8455SOL    HW236999   1.161   0.842   5.699  0.9573 -0.3651  1.2701
 8456SOL     OW37000   0.988   4.486   8.874 -0.2244 -0.1896  0.1854
 8456SOL    HW137001   0.961   4.522   8.790  2.6104 -2.1265 -1.5414
 8456SOL    HW237002   1.059   4.423   8.860 -2.0313 -2.5765  1.6994
 8457SOL     OW37003   0.559   1.954  15.961  0.1071  0.5922 -0.2523
 8457SOL    HW137004   0.647   1.930  15.988 -0.7772 -0.2819  1.8765
 8457SOL    HW237005   0.506   1.922  16.034 -0.8556  0.5257 -0.9817
 8458SOL     OW37006   0.736   1.836  16.091  0.8204 -0.2623 -0.2515
 8458SOL    HW137007   0.749   1.772  16.021  0.9485  1.9359 -2.2378
 8458SOL    HW237008   0.685   1.781  16.150 -0.1786 -0.3411 -1.1912
 8459SOL     OW37009   1.831   4.682  17.099  0.4731 -0.4083 -0.2035
 8459SOL    HW137010   1.856   4.729  17.019 -0.8391  0.7110  0.0608
 8459SOL    HW237011   1.736   4.690  17.096  0.9439  5.1637 -0.7738
 8460SOL     OW37012   3.562   1.498   5.747  0.1365  0.2262 -0.5515
 8460SOL    HW137013   3.476   1.529   5.775 -0.9137 -1.7441 -1.5903
 8460SOL    HW237014   3.620   1.529   5.817  0.3766 -1.4595 -0.0023
 8461SOL     OW37015   2.468   4.374   7.565  0.5125 -0.2766  0.5994
 8461SOL    HW137016   2.431   4.357   7.478 -0.4131  2.6886  0.4163
 8461SOL    HW237017   2.488   4.467   7.563  0.3064 -0.2598 -0.5425
 8462SOL     OW37018   1.078   0.348   6.777 -0.0401  0.2560 -0.2750
 8462SOL    HW137019   1.081   0.418   6.842  0.6094 -0.3558  0.3465
 8462SOL    HW237020   1.167   0.314   6.788 -0.7626 -1.1885  1.0621
 8463SOL     OW37021   3.173   0.626  16.270 -0.0671 -0.5309  0.0272
 8463SOL    HW137022   3.173   0.711  16.225  1.1729 -0.6436 -0.1932
 8463SOL    HW237023   3.121   0.565  16.218 -1.8134  1.4931 -0.6135
 8464SOL     OW37024   1.180   2.620   3.815  0.6476 -0.1162 -0.6404
 8464SOL    HW137025   1.110   2.675   3.779 -0.0354 -0.2588  0.4539
 8464SOL    HW237026   1.256   2.669   3.784  1.2672 -0.4497  0.3270
 8465SOL     OW37027   0.030   1.844  10.475 -0.3678  0.0104 -0.1386
 8465SOL    HW137028   0.003   1.904  10.544  2.1695  1.0342 -0.0244
 8465SOL    HW237029   0.126   1.854  10.474  0.0081 -3.4320 -0.7928
 8466SOL     OW37030   3.619   4.701   3.898 -0.5917  0.1099  0.2750
 8466SOL    HW137031   3.662   4.616   3.910  2.0376  1.5090  0.8191
 8466SOL    HW237032   3.676   0.037   3.922  2.9384 -2.4804 -0.3132
 8467SOL     OW37033   1.558   0.589  16.280 -0.5823 -0.4443 -0.2374
 8467SOL    HW137034   1.558   0.494  16.285  2.6425 -0.5216 -1.4858
 8467SOL    HW237035   1.648   0.617  16.297 -0.5954  0.4785 -1.6080
 8468SOL     OW37036   1.735   2.508  12.920  0.0332 -0.2267 -0.2229
 8468SOL    HW137037   1.703   2.489  13.009 -1.2103 -0.7303 -0.7744
 8468SOL    HW237038   1.783   2.590  12.935 -0.7528  0.2321 -0.2162
 8469SOL     OW37039   3.751   2.823   5.473 -0.3693  0.0193  0.2804
 8469SOL    HW137040   3.692   2.897   5.458  0.0484 -0.0675 -1.8230
 8469SOL    HW237041   3.692   2.751   5.450 -0.2415  0.1041 -0.3130
 8470SOL     OW37042   2.938   0.882  17.520  0.2626 -0.3946  0.6165
 8470SOL    HW137043   2.870   0.899  17.585 -1.3904  1.8790 -1.7015
 8470SOL    HW237044   3.014   0.846  17.565  0.1272 -0.1666  1.0268
 8471SOL     OW37045   4.672   2.984   5.787 -0.3435  0.4697  0.0031
 8471SOL    HW137046   4.642   2.944   5.869 -1.4454  1.9320  0.3075
 8471SOL    HW237047   0.013   2.931   5.772 -0.5156 -0.3501  1.9962
 8472SOL     OW37048   1.935   4.005  15.363  0.2679  0.3069 -0.1434
 8472SOL    HW137049   1.978   3.956  15.433 -1.6557 -0.0433  0.8024
 8472SOL    HW237050   1.864   3.945  15.342 -1.2198  1.4440  1.5733
 8473SOL     OW37051   3.348   0.443   6.793  0.2348  0.7632  0.1488
 8473SOL    HW137052   3.335   0.474   6.882  0.6237  2.2246 -0.3061
 8473SOL    HW237053   3.292   0.365   6.793  0.1378  0.8346  0.7011
 8474SOL     OW37054   4.733   1.296  17.724  0.1577  0.3839 -0.1339
 8474SOL    HW137055   0.078   1.259   0.009  1.1908  2.0330 -0.8369
 8474SOL    HW237056   4.729   1.369   0.039  0.8000  0.3884 -0.0946
 8475SOL     OW37057   4.531   3.916   9.417  0.3532  0.3469  0.0298
 8475SOL    HW137058   4.445   3.954   9.436 -0.4420 -2.4641  2.0581
 8475SOL    HW237059   4.566   3.969   9.345  3.0254 -1.4808 -0.0315
 8476SOL     OW37060   2.858   0.259   1.801 -0.4652  0.2489 -0.0399
 8476SOL    HW137061   2.813   0.272   1.718  1.2122  1.7106 -0.7081
 8476SOL    HW237062   2.949   0.261   1.772 -0.2851  0.1331  0.5125
 8477SOL     OW37063   2.846   3.949   8.765 -0.2712  0.7151  0.5792
 8477SOL    HW137064   2.912   4.014   8.738  0.7057 -0.6724 -0.3347
 8477SOL    HW237065   2.836   3.969   8.858  0.9087  1.4880  0.5473
 8478SOL     OW37066   2.141   1.339  11.681 -0.4389  0.1188 -0.4076
 8478SOL    HW137067   2.213   1.395  11.708 -0.5264  0.7317 -1.4419
 8478SOL    HW237068   2.122   1.289  11.761  0.6291  0.1607 -0.1322
 8479SOL     OW37069   0.929   2.577  10.449  0.4177 -0.4242  0.0121
 8479SOL    HW137070   0.878   2.562  10.528 -0.6983 -0.9769 -0.8080
 8479SOL    HW237071   0.909   2.502  10.393 -0.4452 -1.5763  1.8779
 8480SOL     OW37072   1.560   1.372  12.034  0.1508 -0.2143 -0.0837
 8480SOL    HW137073   1.654   1.352  12.032  0.4077  1.0060 -0.6428
 8480SOL    HW237074   1.550   1.390  12.127  0.8457  0.6584 -0.1779
 8481SOL     OW37075   0.281   2.813  10.980 -0.2585 -0.1563  0.1544
 8481SOL    HW137076   0.286   2.881  10.913 -1.9647  0.7903  0.9763
 8481SOL    HW237077   0.298   2.851  11.066  0.8944  0.2874 -0.2827
 8482SOL     OW37078   1.705   2.248   6.028  0.3533 -0.1329  0.2944
 8482SOL    HW137079   1.664   2.200   5.956 -1.9716  2.4567 -0.1199
 8482SOL    HW237080   1.672   2.205   6.107  1.0492 -1.6406 -0.2363
 8483SOL     OW37081   4.313   1.256   9.771  0.2506 -0.4694  0.1476
 8483SOL    HW137082   4.314   1.320   9.841 -0.9366 -0.4974  0.1966
 8483SOL    HW237083   4.221   1.260   9.745 -0.1753  2.0025  2.1360
 8484SOL     OW37084   4.241   1.913   2.660 -0.3478 -0.1583 -0.0336
 8484SOL    HW137085   4.196   1.990   2.694  1.5031  1.2545 -0.7538
 8484SOL    HW237086   4.188   1.892   2.583  1.3065  1.2865 -1.5570
 8485SOL     OW37087   2.129   1.722   9.946 -0.6432 -0.8120 -0.6521
 8485SOL    HW137088   2.161   1.639   9.912  2.7258 -0.3417  1.4405
 8485SOL    HW237089   2.179   1.745  10.023 -2.2219  2.2358 -0.5348
 8486SOL     OW37090   3.667   1.817   9.785  0.6274 -0.0552 -0.5664
 8486SOL    HW137091   3.662   1.908   9.754 -2.2381  0.7226  2.1844
 8486SOL    HW237092   3.723   1.832   9.861 -0.6512  0.6684  0.2247
 8487SOL     OW37093   1.446   4.406   0.905 -0.3020 -0.2566 -0.0985
 8487SOL    HW137094   1.489   4.326   0.935 -1.3538 -1.5246 -2.0266
 8487SOL    HW237095   1.355   4.378   0.905 -0.9959  1.9389 -1.3144
 8488SOL     OW37096   3.836   1.583   8.892 -0.1545 -0.2123 -0.1539
 8488SOL    HW137097   3.918   1.535   8.888 -1.4575 -2.4565  0.2668
 8488SOL    HW237098   3.871   1.659   8.939 -1.6396  0.9157 -0.8360
 8489SOL     OW37099   3.869   2.885   7.713  0.0713  0.1904 -0.0734
 8489SOL    HW137100   3.836   2.820   7.651  0.5455  0.0090 -0.1330
 8489SOL    HW237101   3.832   2.860   7.797  0.9406  0.4841  0.3937
 8490SOL     OW37102   3.651   1.785   4.292  0.5470  0.3026 -0.0950
 8490SOL    HW137103   3.587   1.826   4.233  1.6255 -0.2713 -1.6788
 8490SOL    HW237104   3.647   1.856   4.356 -0.0866 -1.2899  1.6433
 8491SOL     OW37105   1.976   0.295  16.427  0.1677 -0.5286  0.3214
 8491SOL    HW137106   1.993   0.201  16.425 -0.9740 -0.8024  3.0814
 8491SOL    HW237107   2.064   0.318  16.459  0.7059 -0.5967 -1.0932
 8492SOL     OW37108   2.999   3.164   7.067  0.3277  0.2722 -0.1877
 8492SOL    HW137109   2.990   3.076   7.031  1.1882 -0.2432  0.8397
 8492SOL    HW237110   2.982   3.157   7.161  0.2196 -0.4252 -0.2602
 8493SOL     OW37111   4.378   2.341   9.236  0.8420  0.7092 -0.3257
 8493SOL    HW137112   4.303   2.334   9.177  0.0504  1.1121  0.6369
 8493SOL    HW237113   4.419   2.255   9.230  0.1233  0.4112 -0.9528
 8494SOL     OW37114   4.383   3.981  16.498 -0.0548  0.2989  0.0087
 8494SOL    HW137115   4.457   3.950  16.550 -2.0049 -2.2813  1.1936
 8494SOL    HW237116   4.336   4.028  16.567  0.2149 -1.5699  1.4544
 8495SOL     OW37117   3.436   4.706   7.491  0.4238  0.2680 -0.3561
 8495SOL    HW137118   3.388   0.050   7.508  2.4132  1.1038  1.2936
 8495SOL    HW237119   3.468   4.724   7.403 -0.4687  1.1275 -0.4942
 8496SOL     OW37120   1.316   4.505  11.241  0.0179  0.2271  0.5941
 8496SOL    HW137121   1.263   4.573  11.284  0.7506 -0.9944  3.4229
 8496SOL    HW237122   1.351   4.472  11.323  2.8393 -0.4130 -0.8827
 8497SOL     OW37123   4.041   3.094  15.641 -0.4299  0.2024  0.6784
 8497SOL    HW137124   3.998   3.086  15.556 -2.3247 -0.5812  1.7292
 8497SOL    HW237125   4.128   3.132  15.626  0.6025 -1.4901  2.2650
 8498SOL     OW37126   2.850   2.913  16.688 -0.3700 -0.7740 -0.1367
 8498SOL    HW137127   2.908   2.989  16.703  0.9752 -1.3268 -2.5191
 8498SOL    HW237128   2.903   2.848  16.642  1.3014  1.3853 -1.2750
 8499SOL     OW37129   4.158   4.027   2.429  0.1510  0.1636  0.4909
 8499SOL    HW137130   4.087   4.076   2.471 -0.4825 -1.6404  1.5563
 8499SOL    HW237131   4.223   4.092   2.403 -1.5754  1.5441 -0.3755
 8500SOL     OW37132   4.489   4.054   0.664 -0.0446 -0.0176 -0.2454
 8500SOL    HW137133   4.482   4.103   0.745  0.9867 -0.3532  0.0455
 8500SOL    HW237134   4.460   4.118   0.599  1.6943 -1.9112 -2.9185
 8501SOL     OW37135   3.653   1.909  12.150  0.4384  0.1378 -0.6431
 8501SOL    HW137136   3.642   1.815  12.140 -0.7722  0.0827  1.2830
 8501SOL    HW237137   3.737   1.900  12.194  0.2065 -0.0467 -0.2442
 8502SOL     OW37138   1.871   2.744  12.925  0.1912 -0.2305  0.0197
 8502SOL    HW137139   1.840   2.754  12.835  0.1016  2.0427  0.2909
 8502SOL    HW237140   1.959   2.720  12.898  0.7012  0.8506  0.7323
 8503SOL     OW37141   0.512   3.481  13.304 -0.1241 -0.3473 -0.0829
 8503SOL    HW137142   0.496   3.394  13.340  1.9393 -0.4172  0.6641
 8503SOL    HW237143   0.466   3.472  13.220  1.0428 -2.5004 -0.4980
 8504SOL     OW37144   4.386   1.764   5.616 -0.1946 -0.0373 -0.3918
 8504SOL    HW137145   4.471   1.741   5.654  1.0913 -0.7905 -3.7856
 8504SOL    HW237146   4.414   1.782   5.526 -1.0259  0.1011 -0.6206
 8505SOL     OW37147   0.246   3.824   0.658 -0.3882  0.2350  0.5549
 8505SOL    HW137148   0.159   3.861   0.674 -0.3062 -0.2369  2.1422
 8505SOL    HW237149   0.307   3.897   0.669 -3.2866  2.3454  2.5460
 8506SOL     OW37150   4.577   0.502   4.641  0.2070 -0.2618 -0.4214
 8506SOL    HW137151   4.592   0.490   4.547 -2.0555  0.3605 -0.8759
 8506SOL    HW237152   4.490   0.542   4.635  0.4746  0.6097  1.8103
 8507SOL     OW37153   3.196   4.126   4.698  0.1096  0.8861 -0.4965
 8507SOL    HW137154   3.114   4.174   4.705 -0.2875 -0.3339  3.0742
 8507SOL    HW237155   3.179   4.050   4.754  0.5787  1.7197  0.7587
 8508SOL     OW37156   1.987   0.283   0.195 -0.3167 -0.3125  0.2116
 8508SOL    HW137157   2.056   0.220   0.213 -0.4981 -0.6579 -0.3238
 8508SOL    HW237158   1.923   0.234   0.144  0.0409 -0.6063  0.0440
 8509SOL     OW37159   1.298   0.590   3.201 -0.1144  0.0094  0.3448
 8509SOL    HW137160   1.244   0.666   3.182 -1.3179 -0.2299  2.8329
 8509SOL    HW237161   1.367   0.627   3.256 -0.1574  2.0339 -0.9716
 8510SOL     OW37162   1.124   3.630   3.979  0.3341 -0.4240 -0.0072
 8510SOL    HW137163   1.074   3.712   3.972  2.8065  1.1197  0.2734
 8510SOL    HW237164   1.159   3.625   3.890  0.5908  0.1640  0.0589
 8511SOL     OW37165   2.567   2.733  14.470  0.0018  0.7374  0.5747
 8511SOL    HW137166   2.582   2.809  14.414  0.6346  0.0242 -0.2122
 8511SOL    HW237167   2.479   2.761  14.498 -1.1596 -1.9310 -0.3590
 8512SOL     OW37168   3.486   1.311   8.735 -0.0773  0.1631 -0.4852
 8512SOL    HW137169   3.537   1.341   8.810 -2.0938  0.2047  0.8561
 8512SOL    HW237170   3.451   1.231   8.774 -0.0131  0.0580 -0.6444
 8513SOL     OW37171   2.659   2.879   2.336 -0.2617 -0.1340 -0.0911
 8513SOL    HW137172   2.576   2.847   2.373 -0.5234  0.2557 -0.3487
 8513SOL    HW237173   2.662   2.966   2.376  0.1098 -0.2146  0.0543
 8514SOL     OW37174   2.713   0.058   3.319 -0.2003 -0.1575 -0.5107
 8514SOL    HW137175   2.733   4.704   3.296 -0.0441 -0.2299 -0.0858
 8514SOL    HW237176   2.640   0.068   3.259 -0.4842  1.8440  0.1939
 8515SOL     OW37177   1.858   3.326   1.701  0.1187 -0.3449 -0.2924
 8515SOL    HW137178   1.814   3.266   1.761  0.0889  0.4868  0.5040
 8515SOL    HW237179   1.911   3.368   1.768  1.4790 -1.4484 -0.6712
 8516SOL     OW37180   0.967   3.016   8.978 -0.6204 -0.0682  0.3606
 8516SOL    HW137181   1.014   2.944   8.936  0.8164 -0.1574  2.1082
 8516SOL    HW237182   0.880   2.978   8.992 -0.5960  0.0311  0.7745
 8517SOL     OW37183   4.233   3.781  10.198  0.2418  0.5684 -0.5078
 8517SOL    HW137184   4.314   3.806  10.153  0.9770 -1.1112 -0.1463
 8517SOL    HW237185   4.178   3.855  10.175  2.7147  2.3539 -0.6221
 8518SOL     OW37186   3.257   0.346   2.694  0.7094 -0.0777 -0.2507
 8518SOL    HW137187   3.326   0.407   2.667  0.2715  0.8367  0.6763
 8518SOL    HW237188   3.232   0.381   2.779 -0.3569 -0.0301 -0.5901
 8519SOL     OW37189   3.038   4.354  10.942  0.0792 -0.1307 -0.6196
 8519SOL    HW137190   3.025   4.265  10.975 -1.3615  1.3355  2.7805
 8519SOL    HW237191   2.981   4.348  10.865 -2.8954 -1.7780  1.7143
 8520SOL     OW37192   4.387   0.683   8.964  0.1266 -0.4343  0.1860
 8520SOL    HW137193   4.428   0.667   9.049 -0.5261  0.1576  0.6124
 8520SOL    HW237194   4.331   0.759   8.976  0.7683  0.0180  0.2921
 8521SOL     OW37195   1.340   3.801   6.106 -0.4414  0.0197 -0.3235
 8521SOL    HW137196   1.260   3.749   6.106  0.9279 -2.0617 -2.0026
 8521SOL    HW237197   1.401   3.744   6.060 -0.5479  0.7378 -1.3623
 8522SOL     OW37198   4.541   4.612  16.700 -0.3014 -0.1929 -0.4744
 8522SOL    HW137199   4.496   4.534  16.666 -1.8962  0.4595  0.1316
 8522SOL    HW237200   4.609   4.637  16.637 -1.1541  1.6564 -0.6679
 8523SOL     OW37201   3.880   4.642  13.579  0.1653 -0.3824 -0.2276
 8523SOL    HW137202   3.885   4.574  13.512 -0.8266 -0.8376  0.1521
 8523SOL    HW237203   3.860   4.592  13.658  0.1566  0.6372  0.4084
 8524SOL     OW37204   3.034   0.943   5.166 -0.1827  0.4558  0.7461
 8524SOL    HW137205   3.111   0.897   5.132 -2.6245 -2.3854 -1.0310
 8524SOL    HW237206   3.035   1.036   5.143 -0.1401  0.6145  1.4119
 8525SOL     OW37207   1.020   0.910   5.263  0.6746 -0.4477 -0.4262
 8525SOL    HW137208   0.953   0.979   5.266 -0.0012 -1.0788 -1.0695
 8525SOL    HW237209   1.014   0.869   5.350 -0.6853 -2.2831 -1.3834
 8526SOL     OW37210   0.964   2.115   7.213  0.7433  0.1733  0.1280
 8526SOL    HW137211   0.931   2.081   7.296 -2.0457  0.5990 -0.8155
 8526SOL    HW237212   0.886   2.105   7.159  1.1002  1.5696 -0.6520
 8527SOL     OW37213   4.134   4.296   4.004  0.0308  0.8169 -0.0118
 8527SOL    HW137214   4.145   4.336   4.091  0.4619  1.9715 -0.6036
 8527SOL    HW237215   4.103   4.208   4.023  0.5839  0.9131  1.3849
 8528SOL     OW37216   3.754   3.853  11.461  0.2068 -0.0281 -0.2171
 8528SOL    HW137217   3.701   3.844  11.540 -0.8897  0.3372 -0.9009
 8528SOL    HW237218   3.811   3.776  11.466 -0.3477 -0.4588 -0.5354
 8529SOL     OW37219   0.995   0.170  15.440  0.3591  0.1808  0.0700
 8529SOL    HW137220   1.040   0.252  15.463 -1.4565  2.0181 -3.0573
 8529SOL    HW237221   0.985   0.147  15.533 -0.3266  0.5250  0.0835
 8530SOL     OW37222   0.807   1.834   7.988  0.7484 -0.3498 -0.7964
 8530SOL    HW137223   0.763   1.860   8.069  1.1514 -1.5775 -0.1822
 8530SOL    HW237224   0.860   1.765   8.030 -0.9044 -0.1075  1.6796
 8531SOL     OW37225   0.225   4.642  17.571  0.5713  0.9873  0.9225
 8531SOL    HW137226   0.224   4.680  17.483  1.9127  0.8825  0.8679
 8531SOL    HW237227   0.317   4.619  17.579  0.6255  0.3673 -1.6261
 8532SOL     OW37228   4.608   4.180   2.498 -0.5664 -0.0417 -0.1141
 8532SOL    HW137229   4.661   4.133   2.562  0.1229 -0.2297 -0.8234
 8532SOL    HW237230   4.651   4.265   2.501  0.8657 -0.7550 -0.6498
 8533SOL     OW37231   2.222   2.554   8.310 -0.8849 -0.8273  0.1064
 8533SOL    HW137232   2.263   2.641   8.313 -2.2432 -0.1509 -1.0976
 8533SOL    HW237233   2.269   2.543   8.227 -2.8014  0.8224 -1.1929
 8534SOL     OW37234   2.241   0.443  14.242  0.1417  0.1004  0.1062
 8534SOL    HW137235   2.216   0.535  14.241 -0.4025 -0.0226  1.6764
 8534SOL    HW237236   2.328   0.455  14.279 -0.8062  1.4664  1.9137
 8535SOL     OW37237   4.498   3.131   5.629 -0.0655  0.2041 -0.3064
 8535SOL    HW137238   4.525   3.220   5.651 -0.7248  0.2178  0.4255
 8535SOL    HW237239   4.548   3.078   5.691  0.6853  1.1377 -0.1158
 8536SOL     OW37240   0.355   3.839  14.641 -0.1193  0.1215 -0.0069
 8536SOL    HW137241   0.301   3.798  14.573 -0.4257  1.5171 -0.5963
 8536SOL    HW237242   0.322   3.929  14.636  0.4703  0.2399 -1.8427
 8537SOL     OW37243   4.416   4.378   0.070 -0.1663 -0.3188 -0.2483
 8537SOL    HW137244   4.424   4.409  17.727 -1.5290 -0.5525 -0.4492
 8537SOL    HW237245   4.437   4.285   0.057 -1.7566 -0.4247 -1.9969
 8538SOL     OW37246   1.310   3.399  14.062  0.7261  0.3711  0.5967
 8538SOL    HW137247   1.361   3.474  14.091  1.6688 -0.7387  1.7685
 8538SOL    HW237248   1.296   3.408  13.967  2.2496 -1.3224  0.2203
 8539SOL     OW37249   3.560   0.368   7.462 -0.4008  0.1521  0.7812
 8539SOL    HW137250   3.583   0.436   7.525 -1.3581  1.2656 -0.0838
 8539SOL    HW237251   3.646   0.327   7.456 -1.3634 -1.7591 -0.0824
 8540SOL     OW37252   0.514   0.989   4.153  0.1356  0.3849  0.2097
 8540SOL    HW137253   0.474   0.961   4.071  0.8640 -1.8993  0.6232
 8540SOL    HW237254   0.605   0.990   4.121 -0.7907  2.0119 -2.3097
 8541SOL     OW37255   3.713   3.300   7.917 -0.0140  0.3787  0.0981
 8541SOL    HW137256   3.783   3.253   7.872  0.6158  0.2515  1.2073
 8541SOL    HW237257   3.723   3.272   8.008 -0.2723 -0.8164 -0.2456
 8542SOL     OW37258   1.377   0.201   9.313 -0.1577  0.1213 -0.1138
 8542SOL    HW137259   1.285   0.204   9.287 -0.1093  2.6824 -0.0176
 8542SOL    HW237260   1.412   0.227   9.227 -0.1458  1.1651  0.2028
 8543SOL     OW37261   1.844   4.445   5.745 -0.3719  0.2020 -0.0724
 8543SOL    HW137262   1.836   4.369   5.802  0.7056 -0.7184 -1.1350
 8543SOL    HW237263   1.751   4.468   5.736 -0.0414  1.2087 -1.0172
 8544SOL     OW37264   1.181   1.587   5.320 -0.0573  0.4856  0.3166
 8544SOL    HW137265   1.113   1.533   5.362  1.2389 -2.0841 -0.9338
 8544SOL    HW237266   1.122   1.644   5.270  1.0218  2.6429  1.4998
 8545SOL     OW37267   4.588   3.974   7.856  0.0779  0.1981  0.4292
 8545SOL    HW137268   4.499   3.984   7.889  0.3610 -0.3635  1.3678
 8545SOL    HW237269   4.576   3.960   7.762 -0.3089  0.4784  0.4385
 8546SOL     OW37270   2.654   0.206   5.364 -0.4703 -0.6418 -0.2229
 8546SOL    HW137271   2.719   0.147   5.326 -0.3662  0.6618 -2.0283
 8546SOL    HW237272   2.644   0.278   5.303  0.4866 -0.2748  0.0488
 8547SOL     OW37273   2.671   0.538   0.009 -0.5010 -0.3617  0.2094
 8547SOL    HW137274   2.736   0.608   0.003 -2.0328  0.9353 -1.4392
 8547SOL    HW237275   2.732   0.469  17.731 -0.9911 -1.9219  3.3491
 8548SOL     OW37276   3.427   1.916   4.202 -0.0687 -0.5032  0.3537
 8548SOL    HW137277   3.422   2.007   4.173 -0.6239 -0.8152 -0.5413
 8548SOL    HW237278   3.392   1.926   4.290 -2.0709 -2.1166 -0.2610
 8549SOL     OW37279   4.505   1.828  17.163  0.1170 -0.7228 -0.4367
 8549SOL    HW137280   4.553   1.911  17.162  0.2446 -0.8019 -0.8774
 8549SOL    HW237281   4.452   1.831  17.084  0.7985 -0.5729 -0.8915
 8550SOL     OW37282   0.100   3.381   4.819 -0.1140 -0.4341  0.8063
 8550SOL    HW137283   0.119   3.326   4.743 -2.0553  0.3563 -0.2563
 8550SOL    HW237284   0.024   3.333   4.852  0.3475 -1.1614  0.8057
 8551SOL     OW37285   0.821   2.405  11.198 -0.7159  0.9381  0.4465
 8551SOL    HW137286   0.882   2.478  11.209  1.9723 -0.9566 -1.8779
 8551SOL    HW237287   0.869   2.328  11.227 -1.3538  0.2492 -0.3317
 8552SOL     OW37288   3.745   0.785   3.984  0.0700  0.1244  0.1223
 8552SOL    HW137289   3.687   0.831   3.923  1.9508  0.9674 -1.0202
 8552SOL    HW237290   3.814   0.847   4.004 -0.0938  0.8903 -1.6770
 8553SOL     OW37291   2.409   4.663  16.897  0.2111  0.0999 -0.4870
 8553SOL    HW137292   2.381   4.640  16.809 -0.9510 -1.8553  0.3997
 8553SOL    HW237293   2.333   4.712  16.928 -1.0336 -1.9897 -0.2414
 8554SOL     OW37294   3.405   2.131   7.629  1.0117  0.0194  0.1607
 8554SOL    HW137295   3.358   2.075   7.691  1.0885  0.0116  0.2115
 8554SOL    HW237296   3.342   2.136   7.557  1.0109  4.2268  0.4475
 8555SOL     OW37297   3.992   0.697   7.818  0.0596 -0.2466 -0.7529
 8555SOL    HW137298   3.988   0.769   7.881 -0.6773  0.2974 -1.4188
 8555SOL    HW237299   3.907   0.705   7.776  0.9911 -3.0366 -3.1700
 8556SOL     OW37300   1.308   3.562   2.748 -0.2592  0.4615  0.2756
 8556SOL    HW137301   1.292   3.472   2.720  5.5669 -0.6550  0.6519
 8556SOL    HW237302   1.243   3.607   2.693  0.3554  3.7580  2.2342
 8557SOL     OW37303   4.425   4.661   5.924  0.2226  0.1033  1.3530
 8557SOL    HW137304   4.380   4.717   5.987  0.2039  2.4527 -0.7720
 8557SOL    HW237305   4.361   4.596   5.893 -1.9005  2.3332  1.0469
 8558SOL     OW37306   2.196   3.865   4.333  0.2684  0.2758  0.0523
 8558SOL    HW137307   2.126   3.811   4.369  2.0482 -0.3256  2.5962
 8558SOL    HW237308   2.196   3.848   4.238 -1.4202  1.9783 -0.2668
 8559SOL     OW37309   2.038   2.792   8.769  0.3682 -0.9873  0.5112
 8559SOL    HW137310   2.124   2.783   8.728 -0.1158  2.9916 -1.4242
 8559SOL    HW237311   1.979   2.812   8.696  0.1495  0.8260  1.1815
 8560SOL     OW37312   3.934   1.303   3.445 -0.3798  0.1273 -0.1658
 8560SOL    HW137313   3.855   1.356   3.441 -1.2801 -1.2886 -1.1081
 8560SOL    HW237314   3.912   1.250   3.522 -1.6836  1.7256  0.5505
 8561SOL     OW37315   3.250   1.318   5.940 -0.0772  0.0952 -0.2857
 8561SOL    HW137316   3.155   1.320   5.926  0.2216  0.7496 -2.2277
 8561SOL    HW237317   3.286   1.242   5.894 -1.9445 -1.4052  0.7116
 8562SOL     OW37318   1.117   1.119   6.149 -0.3503  0.2922 -0.3792
 8562SOL    HW137319   1.181   1.143   6.081 -1.1329 -3.0928 -2.3252
 8562SOL    HW237320   1.094   1.202   6.189  2.4983  0.2596  1.3287
 8563SOL     OW37321   3.589   1.871   4.963  0.1740 -0.2742 -0.4046
 8563SOL    HW137322   3.543   1.794   4.930 -2.8237  0.7958  1.3242
 8563SOL    HW237323   3.627   1.834   5.043  0.2795  0.9432  0.1001
 8564SOL     OW37324   2.051   4.155   6.984 -0.2721 -0.4619  0.4854
 8564SOL    HW137325   1.962   4.135   7.015 -0.9714  2.0419  0.1013
 8564SOL    HW237326   2.093   4.077   7.018  0.9672  0.1049  0.2376
 8565SOL     OW37327   1.818   1.347   4.194 -0.5985 -0.1544 -0.0108
 8565SOL    HW137328   1.812   1.417   4.258 -1.5799  0.2662 -0.5541
 8565SOL    HW237329   1.727   1.357   4.165 -0.9994 -0.1627  1.2619
 8566SOL     OW37330   0.023   2.627  14.593 -0.2635  0.0058 -0.1158
 8566SOL    HW137331   0.032   2.672  14.677 -1.2266 -1.4206  0.7738
 8566SOL    HW237332   4.679   2.577  14.608  1.3921 -2.9042 -0.7744
 8567SOL     OW37333   4.097   2.643   6.236  0.6812 -0.6007 -0.5599
 8567SOL    HW137334   4.153   2.566   6.244  0.8783 -0.3762  0.2205
 8567SOL    HW237335   4.138   2.678   6.157  0.6773  0.4973 -0.0787
 8568SOL     OW37336   4.614   4.478   6.203  0.3329 -0.4659  0.6071
 8568SOL    HW137337   4.569   4.513   6.126 -2.6354 -1.9275  1.6570
 8568SOL    HW237338   4.584   4.387   6.203  0.7141 -0.5894  0.1515
 8569SOL     OW37339   0.203   1.537  10.360  0.3207  0.2977  0.3954
 8569SOL    HW137340   0.108   1.551  10.364 -0.3133 -3.7381  0.2125
 8569SOL    HW237341   0.233   1.624  10.334 -0.9082  0.7892  0.6108
 8570SOL     OW37342   1.439   3.949   5.362  0.6189 -0.2695 -0.3580
 8570SOL    HW137343   1.343   3.942   5.365  0.5378  0.5094 -1.3185
 8570SOL    HW237344   1.468   4.008   5.432 -1.6973  1.2883 -0.7113
 8571SOL     OW37345   0.540   4.560   6.666  0.0197  0.0080 -0.0624
 8571SOL    HW137346   0.554   4.469   6.694 -1.0998  0.1847  1.0405
 8571SOL    HW237347   0.536   4.614   6.744  0.7170  0.6171 -0.4518
 8572SOL     OW37348   2.204   0.834   8.809 -0.1910  0.3783  0.2959
 8572SOL    HW137349   2.291   0.828   8.848 -0.2363  1.6020  0.5979
 8572SOL    HW237350   2.216   0.897   8.739  1.2150  2.0480  2.0345
 8573SOL     OW37351   1.381   1.079   4.665 -0.0573 -0.7548 -0.5290
 8573SOL    HW137352   1.386   1.174   4.676  0.9628 -0.9764  0.9512
 8573SOL    HW237353   1.441   1.048   4.733  1.0205  0.9034 -0.7441
 8574SOL     OW37354   2.530   3.022  12.472  0.2215  0.1286 -0.3751
 8574SOL    HW137355   2.619   3.030  12.505  0.5962  1.7537 -1.7560
 8574SOL    HW237356   2.497   2.947  12.521 -0.4258  0.5572 -0.1462
 8575SOL     OW37357   3.391   4.703  17.292  0.5942  0.0204  0.6738
 8575SOL    HW137358   3.410   4.713  17.199 -1.7584  3.3094  0.5452
 8575SOL    HW237359   3.482   4.703  17.324  0.5130  0.0116  0.9045
 8576SOL     OW37360   1.261   4.017   0.621  0.3630  0.0930  0.3758
 8576SOL    HW137361   1.214   4.083   0.569  2.2606  2.3964  1.5876
 8576SOL    HW237362   1.273   3.945   0.559 -0.5144  1.9540 -1.9720
 8577SOL     OW37363   0.298   0.062   0.203  0.0965  0.0999 -0.8430
 8577SOL    HW137364   0.233   0.065   0.274  0.4983  0.3169 -0.4844
 8577SOL    HW237365   0.356   4.730   0.235  1.7469  0.9024 -2.0934
 8578SOL     OW37366   1.251   1.262  17.373 -0.3009  0.7440  0.1957
 8578SOL    HW137367   1.338   1.283  17.405  1.2857 -1.6722 -2.5735
 8578SOL    HW237368   1.198   1.281  17.451 -0.9856  1.0359 -0.3397
 8579SOL     OW37369   0.809   4.244   5.528  0.1857  0.3819 -0.3256
 8579SOL    HW137370   0.842   4.155   5.533  0.5277  0.4793 -0.8883
 8579SOL    HW237371   0.886   4.296   5.551 -0.9379  1.5286  0.9039
 8580SOL     OW37372   0.578   2.045   5.890 -0.2502  0.7789 -0.0175
 8580SOL    HW137373   0.517   2.038   5.964 -0.9109 -0.6758 -0.7054
 8580SOL    HW237374   0.615   2.132   5.903 -0.1735  0.7125  0.2085
 8581SOL     OW37375   0.229   1.109   0.495  0.1486  0.6631  0.2287
 8581SOL    HW137376   0.249   1.184   0.439  0.6159 -0.5429 -1.2154
 8581SOL    HW237377   0.295   1.044   0.470  0.8040  0.9166  1.2570
 8582SOL     OW37378   1.883   3.052   5.136 -0.6984 -0.2271  0.5037
 8582SOL    HW137379   1.971   3.085   5.119  0.3359 -2.1942  2.0897
 8582SOL    HW237380   1.882   2.982   5.201 -0.4451 -2.6681 -2.1182
 8583SOL     OW37381   1.249   3.244   1.985 -0.2557 -0.1054  0.0781
 8583SOL    HW137382   1.157   3.247   1.961 -0.6992 -0.9941  1.6677
 8583SOL    HW237383   1.284   3.313   1.928 -1.0770  0.9510  0.8338
 8584SOL     OW37384   1.535   4.614   8.388  0.0511  0.4643 -0.5788
 8584SOL    HW137385   1.617   4.565   8.385 -2.9764 -4.6257 -0.2273
 8584SOL    HW237386   1.525   4.665   8.308  2.0447  1.5480 -0.1155
 8585SOL     OW37387   1.512   4.129   1.787  0.5106  0.6585  0.0316
 8585SOL    HW137388   1.536   4.037   1.796  1.0139  0.7258 -0.6058
 8585SOL    HW237389   1.552   4.151   1.703 -0.8689 -0.7861 -1.0042
 8586SOL     OW37390   3.641   0.658   2.534 -0.1458 -0.1383 -0.6688
 8586SOL    HW137391   3.715   0.695   2.486 -0.7452  2.5347  0.5258
 8586SOL    HW237392   3.566   0.698   2.491 -0.9889  0.4760  1.3856
 8587SOL     OW37393   1.269   0.997   8.760 -0.0911  0.0269 -0.6556
 8587SOL    HW137394   1.244   1.052   8.686  0.5110  0.5179 -0.4910
 8587SOL    HW237395   1.358   1.029   8.773 -0.1941  0.4402 -0.9358
 8588SOL     OW37396   0.147   1.796  16.275  0.1921 -0.0853 -0.1751
 8588SOL    HW137397   0.083   1.746  16.223  2.4225 -1.5413 -1.5419
 8588SOL    HW237398   0.108   1.831  16.355  3.1698  2.0561  0.3400
 8589SOL     OW37399   3.553   3.025  17.062 -0.0983 -0.4689 -0.0790
 8589SOL    HW137400   3.515   2.960  17.003  0.3940 -0.0860 -0.8074
 8589SOL    HW237401   3.577   2.977  17.141  3.1145 -1.2771 -1.5609
 8590SOL     OW37402   1.943   3.384  12.556  0.3701 -0.1877 -0.3123
 8590SOL    HW137403   2.014   3.398  12.493  1.5687 -0.1061  1.0583
 8590SOL    HW237404   1.998   3.386  12.635 -0.2726 -0.0630  0.1326
 8591SOL     OW37405   1.792   3.429   7.919 -0.3943 -0.1860  0.1693
 8591SOL    HW137406   1.848   3.426   7.997 -0.3256 -0.9248  0.0951
 8591SOL    HW237407   1.769   3.336   7.913  0.2352 -0.4638  2.0552
 8592SOL     OW37408   1.796   3.310   5.965  0.5791  0.0385  0.1406
 8592SOL    HW137409   1.712   3.353   5.947 -0.4096 -1.4572  1.2474
 8592SOL    HW237410   1.852   3.387   5.977  1.5955 -0.9019  1.3283
 8593SOL     OW37411   3.622   4.610   9.875  0.0677 -0.0378  0.3040
 8593SOL    HW137412   3.563   4.561   9.933  0.4212  1.9082  2.2843
 8593SOL    HW237413   3.684   4.538   9.861 -1.4360 -1.0521 -1.2424
 8594SOL     OW37414   3.212   1.997   5.857 -0.3386  0.2884 -0.0301
 8594SOL    HW137415   3.240   2.020   5.946  1.2702  1.5566 -0.8759
 8594SOL    HW237416   3.118   1.991   5.873  0.1425 -0.5444  2.5450
 8595SOL     OW37417   0.371   4.631  11.083  0.0328  0.0356  0.0889
 8595SOL    HW137418   0.376   4.717  11.041 -0.2378  0.3083  0.6156
 8595SOL    HW237419   0.446   4.591  11.040 -0.6460 -0.3259 -0.7561
 8596SOL     OW37420   4.327   0.348   5.424 -0.7949 -0.2029 -0.2926
 8596SOL    HW137421   4.311   0.309   5.339  0.2617  1.7864 -1.4015
 8596SOL    HW237422   4.261   0.294   5.468 -1.2246 -0.0204 -0.7100
 8597SOL     OW37423   3.983   3.310  13.120 -0.0215 -0.5589 -0.0653
 8597SOL    HW137424   4.034   3.386  13.091 -2.0638  1.2375  1.0522
 8597SOL    HW237425   3.988   3.250  13.046  3.2771  0.9096 -1.0012
 8598SOL     OW37426   1.638   1.423   7.599  0.1530  0.1226  0.3173
 8598SOL    HW137427   1.589   1.451   7.522  0.1609 -0.3756  0.1307
 8598SOL    HW237428   1.680   1.343   7.567  0.3677  0.4321 -0.1720
 8599SOL     OW37429   0.738   4.030  17.382  0.0459 -0.3105  0.1645
 8599SOL    HW137430   0.795   3.954  17.375 -0.0755 -0.1269 -2.8435
 8599SOL    HW237431   0.673   3.994  17.442  0.1447 -0.7118  0.0259
 8600SOL     OW37432   2.835   2.066   0.553 -0.0183  0.1992  0.5749
 8600SOL    HW137433   2.930   2.064   0.539 -0.1230  0.8908 -0.2426
 8600SOL    HW237434   2.835   2.077   0.648  1.6272 -1.4707  0.7692
 8601SOL     OW37435   2.650   3.727   4.602 -0.2881 -0.1980  0.1549
 8601SOL    HW137436   2.676   3.649   4.651  1.6518 -0.6192 -1.5518
 8601SOL    HW237437   2.737   3.767   4.604  0.4331 -1.8623  2.3057
 8602SOL     OW37438   2.710   4.127   4.993  0.1011 -0.0997 -0.0470
 8602SOL    HW137439   2.707   4.087   5.080 -0.6889 -1.0249 -0.5093
 8602SOL    HW237440   2.633   4.183   5.002  0.9593  0.9892  0.5382
 8603SOL     OW37441   1.011   4.168   6.169 -0.2696  0.0462  0.1012
 8603SOL    HW137442   0.993   4.093   6.114  2.7873 -0.8030  0.2437
 8603SOL    HW237443   0.965   4.235   6.118 -1.3016 -0.5161  0.3037
 8604SOL     OW37444   4.653   1.528  10.340 -0.1053  0.6548 -0.1903
 8604SOL    HW137445   4.652   1.438  10.373  1.0152  0.8278  0.2889
 8604SOL    HW237446   4.558   1.521  10.325 -0.1448 -1.8068  1.0723
 8605SOL     OW37447   2.941   1.441   3.937 -0.2585 -0.2098  0.6565
 8605SOL    HW137448   3.033   1.437   3.965 -0.9453 -2.5018  2.5434
 8605SOL    HW237449   2.928   1.532   3.963  1.4358  0.2298 -0.0478
 8606SOL     OW37450   0.200   1.877   4.660  0.0284 -0.5254 -0.0553
 8606SOL    HW137451   0.224   1.800   4.608  0.6500 -1.8636  2.2167
 8606SOL    HW237452   0.251   1.948   4.622 -0.2991 -0.0471  0.4001
 8607SOL     OW37453   1.446   0.565   2.069 -0.3766 -0.4265 -0.0784
 8607SOL    HW137454   1.383   0.618   2.019 -1.0783 -0.9281  0.2809
 8607SOL    HW237455   1.459   0.487   2.014 -2.4346 -0.4594 -0.5095
 8608SOL     OW37456   0.122   4.470  17.237 -0.0360 -0.4617  0.6472
 8608SOL    HW137457   0.214   4.446  17.232 -0.1833 -0.9947  0.5005
 8608SOL    HW237458   0.142   4.553  17.281  3.5208 -0.8393 -0.2632
 8609SOL     OW37459   3.294   3.919   6.073  0.1125  0.0313  0.1799
 8609SOL    HW137460   3.292   3.865   6.152  0.4422 -1.8071 -1.0603
 8609SOL    HW237461   3.251   3.998   6.105 -0.0142 -0.2817  0.7769
 8610SOL     OW37462   1.922   0.699  10.133  0.1529  0.4232  0.3480
 8610SOL    HW137463   1.953   0.639  10.200 -0.1804 -1.8149 -1.4932
 8610SOL    HW237464   1.880   0.631  10.080 -1.5134  2.6156 -1.1550
 8611SOL     OW37465   2.203   0.295  16.568  0.4746  0.7252 -1.1896
 8611SOL    HW137466   2.294   0.267  16.567  0.7305  1.4903  0.4509
 8611SOL    HW237467   2.208   0.379  16.614  1.8695  2.2302 -4.1120
 8612SOL     OW37468   0.875   1.820   2.723  0.4789 -0.0937  0.0995
 8612SOL    HW137469   0.845   1.817   2.632  0.1785 -1.5985  0.2577
 8612SOL    HW237470   0.964   1.790   2.708  0.4877  0.6425 -1.3408
 8613SOL     OW37471   4.530   0.861   9.398  0.9605 -0.2160 -0.7675
 8613SOL    HW137472   4.615   0.845   9.440 -0.9035 -1.4174  2.5250
 8613SOL    HW237473   4.483   0.781   9.422 -1.6259  0.7172 -2.7116
 8614SOL     OW37474   3.507   2.141   1.192  0.7719 -0.1394 -0.2605
 8614SOL    HW137475   3.508   2.125   1.097 -1.0238  0.6220 -0.4086
 8614SOL    HW237476   3.509   2.236   1.196 -0.7952 -0.2258  2.2694
 8615SOL     OW37477   0.493   3.530   1.953  0.1372  0.6598 -0.2977
 8615SOL    HW137478   0.403   3.500   1.957  0.7410 -1.1853 -0.4866
 8615SOL    HW237479   0.510   3.515   2.046  0.4658  0.1372 -0.4377
 8616SOL     OW37480   2.284   3.568   9.841 -0.2326 -0.0795 -0.7326
 8616SOL    HW137481   2.250   3.514   9.913  1.6520 -0.5767 -0.2107
 8616SOL    HW237482   2.318   3.635   9.900  2.3489 -0.4991 -1.7545
 8617SOL     OW37483   3.276   1.876   0.971  0.3346 -0.4271 -0.1670
 8617SOL    HW137484   3.266   1.885   0.877 -1.3924 -0.6546 -0.0126
 8617SOL    HW237485   3.340   1.807   0.986  0.4896  0.1067  1.7021
 8618SOL     OW37486   3.746   3.012   6.339  0.1149  0.3167 -0.0135
 8618SOL    HW137487   3.822   3.007   6.282  0.5171  1.7081  0.4006
 8618SOL    HW237488   3.719   2.921   6.349 -1.2676  0.8782  1.4727
 8619SOL     OW37489   1.186   2.436   7.921  0.6339  0.0558 -0.5224
 8619SOL    HW137490   1.192   2.527   7.893 -0.6035  0.3477  0.1761
 8619SOL    HW237491   1.279   2.414   7.927  1.2108  2.6429  0.0793
 8620SOL     OW37492   1.197   4.369   1.674  0.0529  0.5800 -0.1632
 8620SOL    HW137493   1.275   4.403   1.717  0.0402 -0.1329  0.4316
 8620SOL    HW237494   1.138   4.428   1.722  0.7756  1.4789 -0.3929
 8621SOL     OW37495   1.998   3.824   1.977 -0.6454  0.0766 -0.1012
 8621SOL    HW137496   1.992   3.764   1.902 -0.8729  0.8499 -0.7022
 8621SOL    HW237497   1.955   3.904   1.945 -0.7241  0.4321  0.9122
 8622SOL     OW37498   3.287   0.484   5.617  0.0027 -0.3578 -0.0239
 8622SOL    HW137499   3.233   0.520   5.547 -1.4849  2.3385  2.5124
 8622SOL    HW237500   3.232   0.491   5.695  0.1367  0.1095  0.0298
 8623SOL     OW37501   4.164   3.199   6.706  0.0494  0.0964  0.4670
 8623SOL    HW137502   4.125   3.164   6.626  1.6129 -1.6096  0.4472
 8623SOL    HW237503   4.158   3.128   6.770  2.6228  1.8069  2.5702
 8624SOL     OW37504   4.597   1.721   6.453  0.5383 -0.0058  0.0905
 8624SOL    HW137505   4.548   1.641   6.430 -2.4456  1.6029  0.8093
 8624SOL    HW237506   4.545   1.785   6.405  1.4800 -0.6843 -1.7974
 8625SOL     OW37507   2.942   2.745  17.542 -0.5395 -0.2261  0.1689
 8625SOL    HW137508   2.895   2.688  17.481  0.0834 -0.3843 -0.1687
 8625SOL    HW237509   2.875   2.766  17.608  0.3836  0.3533  0.9282
 8626SOL     OW37510   3.582   3.737   2.684 -0.6070  0.2793 -0.0396
 8626SOL    HW137511   3.637   3.814   2.666  0.1603 -0.3623 -0.4378
 8626SOL    HW237512   3.601   3.693   2.601 -0.7327 -0.4026  0.2945
 8627SOL     OW37513   2.297   2.008  10.227  0.0881  0.0071 -0.0531
 8627SOL    HW137514   2.279   1.994  10.320  0.2102 -0.5868 -0.1225
 8627SOL    HW237515   2.338   1.930  10.190 -1.5855 -1.2196  0.7020
 8628SOL     OW37516   0.778   0.174  10.239 -0.1112 -0.4212 -0.0573
 8628SOL    HW137517   0.813   0.222  10.314  2.2476 -1.1928 -0.6603
 8628SOL    HW237518   0.746   0.242  10.179  0.5428 -0.6138 -0.6303
 8629SOL     OW37519   3.362   1.389   9.505 -0.0094 -0.1127  0.3970
 8629SOL    HW137520   3.389   1.304   9.469  0.1597  0.1428 -0.0666
 8629SOL    HW237521   3.439   1.435   9.471 -0.6786  0.9803  0.3632
 8630SOL     OW37522   2.481   1.971   4.754 -0.5627  0.1625 -0.1586
 8630SOL    HW137523   2.506   1.962   4.662 -3.3156  0.0284 -0.9014
 8630SOL    HW237524   2.405   1.914   4.764 -0.9004  1.1485  2.9833
 8631SOL     OW37525   3.861   1.878   7.122  0.0095 -0.1145  0.4364
 8631SOL    HW137526   3.822   1.956   7.162  0.5364 -0.1624  1.0534
 8631SOL    HW237527   3.878   1.898   7.030 -0.5451  1.8373  0.7593
 8632SOL     OW37528   0.976   0.006   4.746 -0.1151 -0.0536  0.1458
 8632SOL    HW137529   0.936   4.657   4.736 -2.8990  1.1966  0.4051
 8632SOL    HW237530   0.928   0.020   4.828 -0.0437  0.2662  0.1322
 8633SOL     OW37531   3.698   1.237   1.771  0.3814 -0.1835  0.1491
 8633SOL    HW137532   3.749   1.288   1.834  0.1608 -1.7584  1.5999
 8633SOL    HW237533   3.713   1.286   1.691 -0.1573  0.5128  0.4795
 8634SOL     OW37534   1.430   4.184   6.409 -0.6553  0.3398  0.3133
 8634SOL    HW137535   1.460   4.224   6.328 -2.0578 -0.0411 -0.3864
 8634SOL    HW237536   1.334   4.189   6.401 -0.5386 -1.2588 -1.9287
 8635SOL     OW37537   1.386   4.295  14.397 -0.3789 -0.8604  0.2697
 8635SOL    HW137538   1.331   4.247  14.335 -0.4618 -0.6704  0.1964
 8635SOL    HW237539   1.353   4.385  14.393 -0.3073 -0.8142  0.6686
 8636SOL     OW37540   3.128   2.403   7.987  0.8002  0.4429  0.7647
 8636SOL    HW137541   3.052   2.421   8.042 -0.4281 -0.9193 -0.4872
 8636SOL    HW237542   3.200   2.446   8.032  1.3555 -1.2980  1.5335
 8637SOL     OW37543   2.610   0.498  15.874  0.1440 -0.4887  0.1143
 8637SOL    HW137544   2.548   0.472  15.942 -0.9709 -0.9204 -1.0739
 8637SOL    HW237545   2.596   0.445  15.796 -1.4658  1.5249 -0.9561
 8638SOL     OW37546   1.819   3.584  12.784 -0.0999 -0.6141 -0.3785
 8638SOL    HW137547   1.913   3.568  12.796 -0.0892 -1.3845 -1.5540
 8638SOL    HW237548   1.803   3.679  12.789  2.0342 -0.3053  0.5105
 8639SOL     OW37549   1.942   2.559   8.172 -0.5359 -0.2750  0.0706
 8639SOL    HW137550   1.945   2.618   8.097  0.6513 -0.1352  0.2229
 8639SOL    HW237551   1.984   2.482   8.133  0.3732  0.3488 -0.1685
 8640SOL     OW37552   1.734   4.253   5.471  0.1944  0.1224  0.6170
 8640SOL    HW137553   1.668   4.279   5.535 -1.2490  0.3400 -0.9663
 8640SOL    HW237554   1.795   4.191   5.513  0.3073 -1.6502 -2.1691
 8641SOL     OW37555   2.658   4.592   1.363 -0.1946 -0.3331 -0.0439
 8641SOL    HW137556   2.615   4.514   1.329  1.6772 -1.1587 -0.5544
 8641SOL    HW237557   2.612   4.612   1.444 -0.1810 -1.5745  0.2658
 8642SOL     OW37558   2.447   4.003   0.794  0.8958  0.3666  0.0392
 8642SOL    HW137559   2.498   4.026   0.716  2.7339 -1.4205  0.7013
 8642SOL    HW237560   2.382   4.073   0.787  2.1064  1.6520  1.5784
 8643SOL     OW37561   4.680   2.220  15.656 -0.1349 -0.7851 -0.1426
 8643SOL    HW137562   4.731   2.152  15.612  1.4686  0.1855  0.2205
 8643SOL    HW237563   4.728   2.302  15.640  0.3162 -0.5560  2.3684
 8644SOL     OW37564   1.569   3.103   1.811 -0.4480  0.2484  0.2439
 8644SOL    HW137565   1.484   3.122   1.771 -0.7641 -1.8746 -0.1085
 8644SOL    HW237566   1.557   3.008   1.812  1.4272  0.0139 -0.2987
 8645SOL     OW37567   3.098   3.406   5.085 -0.8258 -0.2954 -0.3930
 8645SOL    HW137568   3.100   3.496   5.119  1.5140 -1.2978  2.0403
 8645SOL    HW237569   3.108   3.423   4.991 -1.6943  0.0930 -0.4216
 8646SOL     OW37570   2.435   3.283   6.690  0.5298  0.1469  0.2707
 8646SOL    HW137571   2.437   3.327   6.775 -0.8605  0.5916  0.0832
 8646SOL    HW237572   2.505   3.218   6.695  0.7684  0.2763 -1.4052
 8647SOL     OW37573   4.629   3.367   5.955 -0.8599 -0.4682 -0.0419
 8647SOL    HW137574   4.577   3.389   5.877  0.9071  3.4261 -0.1230
 8647SOL    HW237575   4.707   3.422   5.944 -1.6555  0.6573  0.0290
 8648SOL     OW37576   2.003   4.661  11.528 -0.2930 -0.0318  0.7109
 8648SOL    HW137577   2.039   4.706  11.451  1.1863  1.5001  2.3001
 8648SOL    HW237578   1.962   4.584  11.488 -0.5556  0.4482  0.0462
 8649SOL     OW37579   2.309   4.529   7.797 -0.2761  0.6734  0.1582
 8649SOL    HW137580   2.347   4.448   7.831  0.3335  1.2415  0.8275
 8649SOL    HW237581   2.349   4.586   7.863 -2.9683  2.8131 -0.0687
 8650SOL     OW37582   1.408   3.616   5.029 -0.4413 -0.1005 -0.0589
 8650SOL    HW137583   1.379   3.634   5.118 -2.4098 -1.2215 -0.4820
 8650SOL    HW237584   1.320   3.622   4.991 -0.1336  1.3415 -0.5493
 8651SOL     OW37585   1.983   4.242   3.117 -0.2727  0.4154  0.2695
 8651SOL    HW137586   2.041   4.171   3.146 -2.7553 -1.7042 -0.0557
 8651SOL    HW237587   1.907   4.191   3.092  0.9850 -1.6788  0.7424
 8652SOL     OW37588   2.085   1.031   7.701  0.1389 -0.1048 -0.4979
 8652SOL    HW137589   2.165   1.070   7.737  0.6798 -0.4749 -1.3045
 8652SOL    HW237590   2.080   0.950   7.753 -0.5658  0.9852  1.1322
 8653SOL     OW37591   2.523   2.579   7.504 -0.3066  0.1397 -0.7040
 8653SOL    HW137592   2.522   2.484   7.493  2.1334 -0.0679  0.7012
 8653SOL    HW237593   2.434   2.611   7.488  0.0023  1.3704 -0.0421
 8654SOL     OW37594   4.194   3.590   5.331 -0.6519 -0.3341 -0.3940
 8654SOL    HW137595   4.269   3.611   5.276 -0.4716  1.2439  0.4551
 8654SOL    HW237596   4.187   3.495   5.320  0.4605 -0.3797 -0.6364
 8655SOL     OW37597   3.977   3.953  12.936 -0.7009 -0.3882 -0.3071
 8655SOL    HW137598   3.930   3.928  13.015 -1.0924 -1.1145 -0.7722
 8655SOL    HW237599   3.950   3.878  12.883 -3.0529  0.3996 -0.2103
 8656SOL     OW37600   1.518   0.838  16.815  0.4323  0.5635 -0.5911
 8656SOL    HW137601   1.450   0.771  16.825 -1.8545  2.7057 -1.8406
 8656SOL    HW237602   1.470   0.904  16.765  1.7743  3.1013  1.4909
 8657SOL     OW37603   2.883   0.596   1.981  0.1295 -0.0230 -0.0395
 8657SOL    HW137604   2.858   0.665   2.043 -1.8474 -1.7987  1.1107
 8657SOL    HW237605   2.890   0.516   2.032 -0.6363  0.0895  0.2470
 8658SOL     OW37606   1.675   4.638   5.358  0.2389 -0.3532  0.2891
 8658SOL    HW137607   1.623   4.716   5.340 -1.5302 -2.0533 -1.9647
 8658SOL    HW237608   1.616   4.580   5.405  0.3953 -0.0298  0.8875
 8659SOL     OW37609   3.577   2.418   6.564 -0.2921  0.4280  0.5717
 8659SOL    HW137610   3.493   2.463   6.561  0.6914  2.1958 -0.1428
 8659SOL    HW237611   3.588   2.411   6.469 -1.1076  2.0607  0.3655
 8660SOL     OW37612   0.089   0.812   3.824 -0.5380 -0.0759 -0.4492
 8660SOL    HW137613   0.136   0.892   3.802 -0.2985 -0.1137 -0.0768
 8660SOL    HW237614   0.088   0.813   3.920 -1.0693  1.6841 -0.4648
 8661SOL     OW37615   4.232   3.774   3.000  0.1716 -0.0204 -0.9559
 8661SOL    HW137616   4.197   3.728   2.923  0.0526 -1.5470  0.0034
 8661SOL    HW237617   4.322   3.741   3.002  0.1172 -0.0876  0.6045
 8662SOL     OW37618   3.834   1.088   3.700  0.6069 -0.1704 -0.1470
 8662SOL    HW137619   3.912   1.036   3.681 -0.4345 -1.5794 -0.5470
 8662SOL    HW237620   3.846   1.110   3.793  1.1531 -1.0574 -0.0063
 8663SOL     OW37621   1.622   0.322   5.966 -0.2720 -0.2189 -0.3715
 8663SOL    HW137622   1.655   0.411   5.979 -0.0537 -0.3030 -0.3670
 8663SOL    HW237623   1.530   0.348   5.957  0.1626  1.4166 -0.0619
 8664SOL     OW37624   4.436   2.059  12.278  0.3971  0.4697  0.2724
 8664SOL    HW137625   4.451   2.060  12.183 -0.9765  3.8366  0.1142
 8664SOL    HW237626   4.376   1.984  12.287  0.5459  0.7358  3.1768
 8665SOL     OW37627   4.014   4.610   2.849 -0.8606 -0.1403  0.3379
 8665SOL    HW137628   3.973   4.655   2.775  2.1369 -1.8583 -2.3681
 8665SOL    HW237629   3.978   4.661   2.921 -2.0859  0.1430 -0.4673
 8666SOL     OW37630   2.147   1.438  12.087  0.4144  0.0832 -0.4008
 8666SOL    HW137631   2.128   1.436  12.181  0.6519  0.1502 -0.3501
 8666SOL    HW237632   2.135   1.531  12.066  1.0964  0.1074 -0.6920
 8667SOL     OW37633   3.667   3.040  12.146 -0.3669 -0.0722  0.4387
 8667SOL    HW137634   3.654   3.111  12.083  1.5704  1.1986  1.4797
 8667SOL    HW237635   3.617   3.079  12.217 -0.9232 -1.0094  0.5666
 8668SOL     OW37636   2.114   1.705  14.848  0.6052 -0.0653  0.2694
 8668SOL    HW137637   2.027   1.733  14.821  0.5432  0.4889  1.0158
 8668SOL    HW237638   2.174   1.728  14.777  1.4436 -1.0972  0.6496
 8669SOL     OW37639   0.667   0.805   6.178 -0.0833  0.0256 -0.1052
 8669SOL    HW137640   0.687   0.722   6.221 -1.8293  0.7175  2.0481
 8669SOL    HW237641   0.598   0.775   6.120 -0.5585 -2.9445  1.9981
 8670SOL     OW37642   2.894   0.554   5.627  0.5253 -0.2084 -0.0302
 8670SOL    HW137643   2.823   0.494   5.606 -2.4437  3.4532 -0.5954
 8670SOL    HW237644   2.861   0.599   5.705 -0.5877  0.5840 -0.9366
 8671SOL     OW37645   4.489   4.189   0.885 -0.0628  0.2087 -0.6747
 8671SOL    HW137646   4.558   4.223   0.942  1.8917 -0.7200 -2.5177
 8671SOL    HW237647   4.423   4.257   0.892  1.1455  1.2480  0.4906
 8672SOL     OW37648   0.900   4.674   5.536  0.0431  0.3695 -0.1024
 8672SOL    HW137649   0.949   4.722   5.603  1.7674 -2.0719  0.3515
 8672SOL    HW237650   0.813   4.716   5.532 -0.4431 -0.8387 -2.1347
 8673SOL     OW37651   0.821   0.150   9.018 -0.5316 -0.1080  0.4116
 8673SOL    HW137652   0.753   0.147   8.950  0.1411  1.5590 -0.3270
 8673SOL    HW237653   0.858   0.236   8.999  0.9111 -0.9715 -0.7605
 8674SOL     OW37654   4.117   0.251   3.437  0.1620  0.2950  0.4732
 8674SOL    HW137655   4.110   0.339   3.474  1.0455  1.5070 -2.2460
 8674SOL    HW237656   4.155   0.274   3.353  1.7060 -1.6015  0.6466
 8675SOL     OW37657   3.607   2.013  14.449  0.0091 -0.3593  0.1111
 8675SOL    HW137658   3.642   1.924  14.457  2.2403  0.6138  0.9978
 8675SOL    HW237659   3.527   2.017  14.503 -0.5332  0.5188 -0.7553
 8676SOL     OW37660   1.576   1.119   5.169 -0.8072  0.6297 -0.1271
 8676SOL    HW137661   1.666   1.131   5.198 -0.5129 -0.1895 -0.6745
 8676SOL    HW237662   1.562   1.195   5.112  0.1735  1.0746  0.2264
 8677SOL     OW37663   4.050   0.532   6.139  0.2663  0.1066 -0.1916
 8677SOL    HW137664   3.963   0.507   6.107  0.8352 -0.3077 -1.3892
 8677SOL    HW237665   4.029   0.624   6.123 -1.6547 -0.0103  1.6372
 8678SOL     OW37666   4.058   0.773   6.041 -0.3517 -0.2399  0.1433
 8678SOL    HW137667   4.119   0.822   6.096 -2.2816  0.5276  1.5903
 8678SOL    HW237668   4.108   0.738   5.967 -0.7468 -0.5719  0.0359
 8679SOL     OW37669   1.908   0.519   4.812  0.1995 -0.0542  0.3603
 8679SOL    HW137670   1.847   0.575   4.859 -3.6078 -1.6884 -2.5812
 8679SOL    HW237671   1.938   0.458   4.880  0.6298  0.7825  0.9139
 8680SOL     OW37672   1.184   0.323  17.202  0.0670  0.2097 -0.3171
 8680SOL    HW137673   1.198   0.413  17.233  2.8888 -0.0340 -0.9512
 8680SOL    HW237674   1.122   0.291  17.268 -0.8829 -0.4651 -1.5420
 8681SOL     OW37675   2.267   4.165   8.179 -0.2884 -0.0538  0.2663
 8681SOL    HW137676   2.197   4.108   8.146 -0.9289  1.0962 -0.3840
 8681SOL    HW237677   2.344   4.123   8.141 -0.2143  2.8011 -2.7533
 8682SOL     OW37678   0.802   3.712   4.035 -0.4726 -0.1212  0.1786
 8682SOL    HW137679   0.758   3.684   3.954 -0.3554 -1.9995  0.7493
 8682SOL    HW237680   0.728   3.752   4.081  0.3234  2.0666 -0.4727
 8683SOL     OW37681   2.590   1.031  15.603  0.6076 -0.0083  0.1660
 8683SOL    HW137682   2.565   0.951  15.649 -2.6193 -0.0829 -1.7158
 8683SOL    HW237683   2.668   1.062  15.649 -0.5112  2.5085  0.3917
 8684SOL     OW37684   0.720   1.456   0.880 -0.7070 -0.1441  0.4458
 8684SOL    HW137685   0.715   1.434   0.787  1.0287 -0.5011  0.4428
 8684SOL    HW237686   0.763   1.541   0.875 -0.3923 -0.2449  1.5690
 8685SOL     OW37687   1.372   4.498   6.497 -0.3801  0.2338 -0.3796
 8685SOL    HW137688   1.307   4.474   6.431 -0.2731  1.3365 -0.8842
 8685SOL    HW237689   1.376   4.586   6.459  2.4263  0.5506  0.6195
 8686SOL     OW37690   1.635   0.513   3.181  0.2208 -0.6939 -0.3120
 8686SOL    HW137691   1.685   0.458   3.121  3.6298  2.6437 -0.5486
 8686SOL    HW237692   1.588   0.564   3.115  2.6036  3.1985  0.9738
 8687SOL     OW37693   3.549   2.648   3.593  0.1122  0.1518 -0.5344
 8687SOL    HW137694   3.589   2.704   3.660  1.5907  0.0122 -1.2868
 8687SOL    HW237695   3.474   2.699   3.565  0.3736  0.4573 -0.6757
 8688SOL     OW37696   1.331   1.658  12.620  0.0501 -0.0645  0.4567
 8688SOL    HW137697   1.286   1.574  12.611  0.2294  0.1161 -2.1387
 8688SOL    HW237698   1.299   1.697  12.701  1.8230  2.6873 -0.1770
 8689SOL     OW37699   1.458   1.976   3.522 -0.4856 -0.5275  0.0697
 8689SOL    HW137700   1.474   1.983   3.617 -1.1430 -0.5494  0.1826
 8689SOL    HW237701   1.544   1.998   3.487 -0.6493 -0.3343 -0.2120
 8690SOL     OW37702   2.905   0.453  11.264 -0.1237 -0.4615 -0.6441
 8690SOL    HW137703   2.900   0.495  11.178  0.7118  0.5217 -0.2126
 8690SOL    HW237704   2.833   0.389  11.260 -1.7284  1.4599 -2.5793
 8691SOL     OW37705   0.757   2.804   4.588 -0.6027  0.3445 -0.1055
 8691SOL    HW137706   0.846   2.833   4.608 -1.4395  1.5143  1.9905
 8691SOL    HW237707   0.718   2.850   4.514 -2.6927 -0.5848  0.4090
 8692SOL     OW37708   1.793   0.063  10.586 -0.1167 -0.0198 -0.3126
 8692SOL    HW137709   1.724   0.090  10.525  0.9477  0.3550 -1.3460
 8692SOL    HW237710   1.787   4.705  10.580  0.9564 -0.0699 -0.5936
 8693SOL     OW37711   3.671   0.142   9.905 -0.2509  0.2699  0.0652
 8693SOL    HW137712   3.593   0.154   9.960 -0.7471  2.9637 -1.2282
 8693SOL    HW237713   3.652   0.059   9.862 -0.1363  0.1367  0.2740
 8694SOL     OW37714   4.051   2.695   7.857 -0.0779 -0.1062  0.1190
 8694SOL    HW137715   4.110   2.644   7.802 -0.7534  0.1307 -0.8161
 8694SOL    HW237716   4.035   2.772   7.802 -0.4805 -1.2185 -1.2869
 8695SOL     OW37717   4.107   2.353   2.461 -0.2760 -0.2146  0.5557
 8695SOL    HW137718   4.020   2.325   2.432 -0.0564 -0.7894  0.4537
 8695SOL    HW237719   4.148   2.374   2.377  1.1534  0.5412  1.4448
 8696SOL     OW37720   2.290   1.268  17.026 -0.1337 -0.2378 -0.5987
 8696SOL    HW137721   2.349   1.339  17.052  1.0463 -2.2174  2.1881
 8696SOL    HW237722   2.326   1.251  16.939  0.4655 -0.1959 -0.3625
 8697SOL     OW37723   2.332   3.075  12.241 -0.2117  0.2266  0.2735
 8697SOL    HW137724   2.341   3.030  12.157  0.5155 -0.2983  0.6387
 8697SOL    HW237725   2.395   3.030  12.297 -1.1933 -1.9563 -0.3709
 8698SOL     OW37726   4.452   0.278   6.586  0.2907 -0.1747  0.1791
 8698SOL    HW137727   4.542   0.308   6.593 -0.5480  1.9131  2.0772
 8698SOL    HW237728   4.412   0.295   6.671  1.3896 -1.0942  0.8832
 8699SOL     OW37729   4.197   0.120   8.759 -0.5463  0.1069 -0.8536
 8699SOL    HW137730   4.149   0.048   8.720  2.4959 -2.4292  0.0670
 8699SOL    HW237731   4.282   0.110   8.717  0.4942  2.3981  0.6786
 8700SOL     OW37732   4.068   1.566   4.317 -0.1815  0.0972  0.7800
 8700SOL    HW137733   4.110   1.647   4.289 -0.7859  0.0082 -0.3561
 8700SOL    HW237734   3.986   1.599   4.352 -0.0374  0.7243  0.5188
 8701SOL     OW37735   2.372   1.736   5.133 -0.0950  0.4510 -0.0653
 8701SOL    HW137736   2.374   1.829   5.109 -4.2224  0.3929 -0.5575
 8701SOL    HW237737   2.305   1.735   5.201  0.3217  1.0485  0.3516
 8702SOL     OW37738   3.307   1.807  17.554  0.4411 -0.7101 -0.0084
 8702SOL    HW137739   3.221   1.795  17.515  0.7025  1.2507 -1.2005
 8702SOL    HW237740   3.297   1.768  17.641 -0.1527 -1.1734 -0.2838
 8703SOL     OW37741   2.433   2.268  17.549 -0.4608 -0.5260 -0.2323
 8703SOL    HW137742   2.382   2.215  17.610 -2.2559 -0.6468 -1.7925
 8703SOL    HW237743   2.405   2.357  17.569 -1.4838 -0.3885 -2.2664
 8704SOL     OW37744   1.390   2.207   2.380  0.1822  0.3447  0.4842
 8704SOL    HW137745   1.451   2.281   2.377  1.8245 -1.0387 -0.7613
 8704SOL    HW237746   1.415   2.160   2.459 -0.4218  0.0140  0.4735
 8705SOL     OW37747   3.820   4.247  12.297 -0.4307  0.1516 -0.0858
 8705SOL    HW137748   3.909   4.211  12.294 -0.3356  0.4107 -0.3990
 8705SOL    HW237749   3.841   4.333  12.333 -1.5203 -0.5617  2.2209
 8706SOL     OW37750   3.181   2.547  10.681 -0.1126  0.2529  0.5884
 8706SOL    HW137751   3.112   2.613  10.677  1.5596  1.7659 -2.4738
 8706SOL    HW237752   3.256   2.604  10.697 -0.0229 -0.1409  1.5999
 8707SOL     OW37753   3.355   1.985   3.379 -0.2867  0.4195 -0.9980
 8707SOL    HW137754   3.433   1.933   3.400 -0.1496  1.0312 -0.0308
 8707SOL    HW237755   3.302   1.982   3.458  1.1596  1.5141  0.0074
 8708SOL     OW37756   4.645   3.395   7.878 -0.4305 -0.2890 -0.6388
 8708SOL    HW137757   4.616   3.485   7.892  0.2352  0.1057 -1.8242
 8708SOL    HW237758   4.572   3.348   7.837 -1.0156 -1.0405  1.2586
 8709SOL     OW37759   1.332   2.909  10.494 -0.1971 -0.6419  0.4723
 8709SOL    HW137760   1.360   2.858  10.418 -1.0191  1.1917 -1.0543
 8709SOL    HW237761   1.239   2.889  10.491 -0.3979  0.3551  0.1887
 8710SOL     OW37762   0.199   2.443   3.632  0.3192 -0.1538 -0.2265
 8710SOL    HW137763   0.213   2.494   3.552 -0.6859  1.0077  0.3281
 8710SOL    HW237764   0.133   2.375   3.614 -2.2849  2.7718 -1.7837
 8711SOL     OW37765   1.237   1.990   1.496  0.6687  0.7187  0.6403
 8711SOL    HW137766   1.143   1.982   1.478  0.2727  3.7933  1.2724
 8711SOL    HW237767   1.233   1.977   1.590  0.4701 -1.3359  0.3446
 8712SOL     OW37768   1.399   1.567   8.886 -0.1760 -0.0094 -0.3623
 8712SOL    HW137769   1.422   1.501   8.951  0.2921  1.1015  0.6088
 8712SOL    HW237770   1.491   1.596   8.882 -0.1097  0.0718  1.6933
 8713SOL     OW37771   4.367   3.261   7.798  0.5407 -0.3924 -0.3953
 8713SOL    HW137772   4.380   3.315   7.720  0.6181 -1.9647 -1.4679
 8713SOL    HW237773   4.294   3.317   7.826 -1.4996 -1.6790 -3.1063
 8714SOL     OW37774   4.618   3.085  10.135 -0.3315  0.0328  0.1956
 8714SOL    HW137775   4.687   3.030  10.173  2.0438  0.2524 -3.7185
 8714SOL    HW237776   4.615   3.037  10.052 -0.9060  0.8781 -0.2717
 8715SOL     OW37777   0.610   4.443   7.988  0.0215  0.5896  0.3797
 8715SOL    HW137778   0.650   4.372   8.038  0.4882  0.8350  0.3512
 8715SOL    HW237779   0.518   4.437   8.015 -0.1722  0.2634 -0.3618
 8716SOL     OW37780   1.685   0.224   3.480  0.7304  0.4761  0.4912
 8716SOL    HW137781   1.596   0.256   3.466  0.1105 -0.0996  3.0126
 8716SOL    HW237782   1.683   0.201   3.573  0.7161  0.0613  0.3891
 8717SOL     OW37783   3.630   0.566  15.663 -0.3170 -0.2828 -0.4291
 8717SOL    HW137784   3.602   0.657  15.673 -0.1920 -0.3295  0.2884
 8717SOL    HW237785   3.662   0.548  15.751  2.1931 -0.8569 -1.4551
 8718SOL     OW37786   0.534   0.746   7.332 -0.5723  0.8010  0.1138
 8718SOL    HW137787   0.571   0.834   7.323  0.0648  0.3992 -1.0618
 8718SOL    HW237788   0.548   0.714   7.243 -0.9007 -0.6715  0.5967
 8719SOL     OW37789   4.231   1.922   3.085  0.2407 -0.6911 -0.3624
 8719SOL    HW137790   4.190   1.850   3.037 -0.5936 -0.5231  0.1070
 8719SOL    HW237791   4.292   1.955   3.019  0.0652  0.9078  0.2764
 8720SOL     OW37792   2.692   2.705   7.294  0.4458  0.5831 -0.8946
 8720SOL    HW137793   2.621   2.769   7.302 -0.6230 -0.7665  0.5875
 8720SOL    HW237794   2.655   2.631   7.344  0.4480  2.0164  1.2232
 8721SOL     OW37795   3.814   0.901   4.662 -0.2308 -0.4346 -0.1459
 8721SOL    HW137796   3.726   0.869   4.644 -0.8065 -0.1146  2.1070
 8721SOL    HW237797   3.822   0.987   4.620  0.5424 -2.1844 -3.5332
 8722SOL     OW37798   0.458   3.223   8.962 -0.0391  0.5791  0.6032
 8722SOL    HW137799   0.479   3.228   9.056 -0.2065 -0.0795  0.6729
 8722SOL    HW237800   0.374   3.268   8.964 -0.4804 -0.2106 -0.6012
 8723SOL     OW37801   0.755   1.457   4.338 -0.0837 -0.5361  0.0652
 8723SOL    HW137802   0.808   1.536   4.331 -0.3326 -0.5077 -1.3483
 8723SOL    HW237803   0.690   1.476   4.270 -1.4555 -0.2038  1.4668
 8724SOL     OW37804   1.069   2.350   5.249  0.3938  0.1605 -0.1775
 8724SOL    HW137805   1.067   2.281   5.316  0.8656  0.3693  0.0550
 8724SOL    HW237806   1.113   2.300   5.181  2.5611 -1.3091  2.2910
 8725SOL     OW37807   4.274   1.597   8.333 -0.1851  0.2393 -0.1340
 8725SOL    HW137808   4.322   1.581   8.251  1.0092  0.6741  0.4718
 8725SOL    HW237809   4.352   1.614   8.387 -0.2423 -0.1400  0.0674
 8726SOL     OW37810   1.067   2.677   7.823 -0.1034 -0.7349 -0.1421
 8726SOL    HW137811   1.014   2.624   7.763 -0.9957  0.5731 -0.5233
 8726SOL    HW237812   1.053   2.761   7.780 -1.4140 -0.5876  0.5716
 8727SOL     OW37813   4.707   4.450   3.454  0.0186  0.2502  0.5727
 8727SOL    HW137814   0.064   4.432   3.455 -0.2379 -1.0954  0.2248
 8727SOL    HW237815   4.710   4.545   3.444  1.2413  0.0075 -1.4853
 8728SOL     OW37816   1.442   4.114   8.047 -0.4435  0.6364  0.5801
 8728SOL    HW137817   1.496   4.193   8.052  0.1808  0.2901 -0.5817
 8728SOL    HW237818   1.477   4.070   7.969  0.3095  0.5557  0.9656
 8729SOL     OW37819   4.101   1.461   3.930 -0.1465 -0.3114  0.2369
 8729SOL    HW137820   4.053   1.499   3.856 -1.9682 -1.5142  0.7904
 8729SOL    HW237821   4.180   1.512   3.913 -0.6012  0.1509 -0.5283
 8730SOL     OW37822   4.583   3.786   2.332  0.0415  0.3330  0.0586
 8730SOL    HW137823   4.677   3.794   2.347 -0.2264 -2.3910  3.2219
 8730SOL    HW237824   4.564   3.830   2.249 -0.6606 -2.6041 -1.3616
 8731SOL     OW37825   2.414   2.496   3.539 -0.4544 -1.0085 -0.7016
 8731SOL    HW137826   2.394   2.435   3.610 -0.5285 -0.7436 -0.4950
 8731SOL    HW237827   2.379   2.576   3.576  0.5602 -1.4746  1.2802
 8732SOL     OW37828   3.176   4.149   6.546  0.1907 -0.1799  0.5906
 8732SOL    HW137829   3.239   4.216   6.520 -0.6521 -0.0374 -1.0606
 8732SOL    HW237830   3.085   4.175   6.534  0.2160 -0.0420  0.7003
 8733SOL     OW37831   1.698   1.595  10.567 -0.6863 -0.0765 -0.8353
 8733SOL    HW137832   1.775   1.620  10.617 -0.5540 -1.0550 -0.5451
 8733SOL    HW237833   1.679   1.673  10.515  0.5603 -0.7611 -2.3418
 8734SOL     OW37834   4.225   1.911  10.361 -0.0734 -0.0993  0.0234
 8734SOL    HW137835   4.251   1.976  10.296  0.6752  0.7489  1.1684
 8734SOL    HW237836   4.201   1.840  10.302  0.2565 -0.3459  0.1913
 8735SOL     OW37837   0.216   1.295   3.517 -0.0343 -0.1052  0.6082
 8735SOL    HW137838   0.280   1.236   3.477  1.3011  0.3895  2.0235
 8735SOL    HW237839   0.273   1.317   3.590 -2.0901 -1.0805  2.5209
 8736SOL     OW37840   0.190   2.742   5.529  0.3962  0.1999  0.1383
 8736SOL    HW137841   0.150   2.749   5.615  0.0038 -0.0001 -0.0251
 8736SOL    HW237842   0.175   2.649   5.515 -1.1000  0.7150 -1.8290
 8737SOL     OW37843   0.853   4.623   4.102 -0.0117 -0.0457 -0.2620
 8737SOL    HW137844   0.893   4.548   4.146  2.7417 -0.2850 -3.1637
 8737SOL    HW237845   0.904   4.621   4.021 -0.8898  0.4392 -0.8264
 8738SOL     OW37846   3.367   1.474   7.841 -0.2326  0.0771 -0.1704
 8738SOL    HW137847   3.439   1.492   7.901  1.0367  0.4404 -1.8052
 8738SOL    HW237848   3.382   1.546   7.781  0.0392 -1.7345 -2.2901
 8739SOL     OW37849   0.669   2.275   3.903 -0.1186  0.1139  0.3584
 8739SOL    HW137850   0.624   2.217   3.842 -0.4135  0.4224  0.2813
 8739SOL    HW237851   0.699   2.343   3.842 -2.9486  0.3414 -0.7711
 8740SOL     OW37852   4.717   2.515   4.454 -0.3165  0.4634 -0.2192
 8740SOL    HW137853   4.737   2.481   4.366  0.1521  0.9567 -0.3025
 8740SOL    HW237854   0.049   2.580   4.465 -0.2313  0.3874 -0.3148
 8741SOL     OW37855   2.658   1.927  13.496  0.6700 -0.0806 -0.2654
 8741SOL    HW137856   2.745   1.889  13.483  0.1109 -0.9059 -1.5116
 8741SOL    HW237857   2.608   1.847  13.509 -0.5374  0.4064 -1.9904
 8742SOL     OW37858   0.226   2.843   0.592  0.5381 -0.0230 -0.2730
 8742SOL    HW137859   0.320   2.830   0.576  1.2370  2.8605  1.4191
 8742SOL    HW237860   0.203   2.933   0.569  2.9045  0.7297  0.2715
 8743SOL     OW37861   4.152   2.482   6.643  0.2953 -0.7858  0.0824
 8743SOL    HW137862   4.241   2.507   6.667  0.4333 -1.6701  0.5181
 8743SOL    HW237863   4.099   2.559   6.664  1.0653 -0.8623  2.2610
 8744SOL     OW37864   1.586   1.871   7.987 -0.2989  0.4832 -0.4216
 8744SOL    HW137865   1.582   1.834   7.899  0.6586 -0.0685 -0.2392
 8744SOL    HW237866   1.592   1.962   7.957  1.2453  0.3218 -0.6345
 8745SOL     OW37867   1.072   0.109  15.722 -0.1540 -0.2317 -0.0827
 8745SOL    HW137868   1.153   0.153  15.746 -0.8794  0.4559  1.0611
 8745SOL    HW237869   1.111   0.023  15.704 -0.2726 -0.2457 -0.2798
 8746SOL     OW37870   1.438   1.384   4.417 -0.4265  0.4175  0.9135
 8746SOL    HW137871   1.358   1.399   4.367  0.2023 -1.2036 -0.5885
 8746SOL    HW237872   1.513   1.422   4.372  0.4265 -0.3795  1.6484
 8747SOL     OW37873   4.360   0.980   5.470 -0.3861 -0.2844 -0.2844
 8747SOL    HW137874   4.390   0.942   5.388 -2.9855 -0.3297 -1.2074
 8747SOL    HW237875   4.294   0.919   5.502  0.2057  0.3644  2.2345
 8748SOL     OW37876   1.358   0.664   7.470  0.5756  0.4528  0.4903
 8748SOL    HW137877   1.266   0.638   7.469  1.4594 -2.7177  1.6361
 8748SOL    HW237878   1.393   0.579   7.497  1.3388 -0.2020 -2.5796
 8749SOL     OW37879   4.416   0.353   3.937 -0.0930 -0.0280  0.3984
 8749SOL    HW137880   4.365   0.415   3.989  0.6521  0.6083  0.3646
 8749SOL    HW237881   4.340   0.303   3.906  0.9276 -0.1447 -1.8692
 8750SOL     OW37882   3.016   0.248   8.566 -0.1280  0.0463  0.3341
 8750SOL    HW137883   2.958   0.291   8.503  0.2114  2.1493  1.4366
 8750SOL    HW237884   3.101   0.275   8.529 -0.2705 -1.6980 -1.2781
 8751SOL     OW37885   1.412   0.434  14.988 -0.1701  0.5061  0.7053
 8751SOL    HW137886   1.324   0.467  14.966 -0.2955 -0.7556 -0.6376
 8751SOL    HW237887   1.422   0.370  14.918 -1.0654  1.2145 -0.0782
 8752SOL     OW37888   3.049   4.300  10.094  0.0166 -0.3861  0.5046
 8752SOL    HW137889   2.977   4.286  10.155 -0.9152  1.5522 -0.1486
 8752SOL    HW237890   3.120   4.279  10.155  0.3291 -2.1384 -0.4688
 8753SOL     OW37891   4.391   3.597   6.723 -0.0629 -0.0221 -0.2726
 8753SOL    HW137892   4.306   3.574   6.760  0.6635  1.3327  2.2658
 8753SOL    HW237893   4.437   3.526   6.768 -0.4182  0.4074  0.7712
 8754SOL     OW37894   3.184   2.668  14.717  0.2289 -0.5372 -0.2321
 8754SOL    HW137895   3.165   2.606  14.647  4.1671 -1.3436 -0.6092
 8754SOL    HW237896   3.202   2.610  14.791  0.0451  0.2301  0.4121
 8755SOL     OW37897   1.631   1.515   6.086  0.3432 -0.0694  0.1992
 8755SOL    HW137898   1.657   1.423   6.075  1.0273  0.2655 -1.0086
 8755SOL    HW237899   1.659   1.536   6.175  1.3842  1.1383 -0.3970
 8756SOL     OW37900   3.106   2.305   5.273  0.2628 -0.1386 -0.2509
 8756SOL    HW137901   3.185   2.286   5.223  1.1977 -0.9569  1.5371
 8756SOL    HW237902   3.048   2.277   5.203 -0.8933 -1.0002  1.0448
 8757SOL     OW37903   1.836   0.698   3.139 -0.0754 -0.0615  0.5642
 8757SOL    HW137904   1.752   0.652   3.135  0.0064 -0.4680  3.5339
 8757SOL    HW237905   1.858   0.706   3.232  0.8634  0.9910  0.2562
 8758SOL     OW37906   1.247   4.358  15.345  0.3565 -0.4830 -0.1054
 8758SOL    HW137907   1.296   4.350  15.426  0.6154  2.8837  0.0601
 8758SOL    HW237908   1.295   4.435  15.315 -3.6588  0.6686 -3.6551
 8759SOL     OW37909   1.299   0.267   6.945  0.2023  0.1959  0.1209
 8759SOL    HW137910   1.312   0.191   6.889  0.2151  0.5241 -0.3255
 8759SOL    HW237911   1.283   0.223   7.029 -2.1861  1.6000  0.4053
 8760SOL     OW37912   4.286   0.127   6.417 -0.3259 -0.0206 -0.5194
 8760SOL    HW137913   4.343   0.184   6.469  1.4931 -0.6310 -1.8555
 8760SOL    HW237914   4.270   0.055   6.479 -1.2517  0.0645 -0.6507
 8761SOL     OW37915   1.714   3.841  12.352  0.6899  0.2063 -0.3630
 8761SOL    HW137916   1.696   3.824  12.260  1.1193 -2.2210  0.0249
 8761SOL    HW237917   1.799   3.883  12.339  0.4353  0.3023 -1.6833
 8762SOL     OW37918   0.854   2.361   6.725  0.1532 -0.5512 -0.1964
 8762SOL    HW137919   0.836   2.432   6.787  1.6170 -1.2021  0.9716
 8762SOL    HW237920   0.932   2.328   6.769  0.2462  1.0963  0.8474
 8763SOL     OW37921   2.162   1.458   4.720  0.3841  0.4934 -0.4736
 8763SOL    HW137922   2.136   1.505   4.799  1.6185  3.0136 -1.5685
 8763SOL    HW237923   2.257   1.463   4.733  0.8347  2.6507 -4.6062
 8764SOL     OW37924   1.116   4.403  17.668 -0.2741  0.1089 -0.4492
 8764SOL    HW137925   1.116   4.344  17.743  2.1427 -1.6142 -1.8134
 8764SOL    HW237926   1.136   4.347  17.593  1.7311 -0.0347  0.1948
 8765SOL     OW37927   0.736   4.354  11.107  0.3231  0.2998 -0.8288
 8765SOL    HW137928   0.715   4.381  11.196  0.7663  1.1380 -0.9814
 8765SOL    HW237929   0.781   4.435  11.083 -0.0194 -0.2604 -3.4225
 8766SOL     OW37930   4.678   2.748   3.677 -0.4847 -0.1823  0.0416
 8766SOL    HW137931   4.606   2.789   3.724  0.8584 -1.3660  3.0851
 8766SOL    HW237932   0.015   2.770   3.733  0.4010 -1.6704 -0.5316
 8767SOL     OW37933   3.465   0.321   4.374 -0.2190 -0.3550  0.3025
 8767SOL    HW137934   3.509   0.376   4.309 -1.1389 -1.1759 -1.0108
 8767SOL    HW237935   3.491   0.243   4.325 -0.0583  0.2149 -0.5114
 8768SOL     OW37936   1.795   3.501   1.223 -0.2560  0.1189  0.5184
 8768SOL    HW137937   1.774   3.434   1.287 -1.1677  1.0999  1.2448
 8768SOL    HW237938   1.857   3.554   1.273  2.0054  1.5973 -3.7976
 8769SOL     OW37939   4.396   4.639  13.870  0.3426  0.4461 -0.0842
 8769SOL    HW137940   4.306   4.617  13.895  0.2792  0.9406  0.1113
 8769SOL    HW237941   4.386   4.686  13.787 -1.5016 -0.4854 -0.3851
 8770SOL     OW37942   4.416   1.165  17.254 -0.3920  0.0043  0.2918
 8770SOL    HW137943   4.478   1.106  17.211 -0.1723 -0.1168  0.7675
 8770SOL    HW237944   4.455   1.252  17.253 -0.0694 -0.1474 -0.1780
 8771SOL     OW37945   0.021   1.083  12.129  0.1866 -0.0753  0.3678
 8771SOL    HW137946   4.724   1.003  12.168  0.2076 -0.2928 -0.0506
 8771SOL    HW237947   4.682   1.103  12.075  0.7673 -1.9733 -1.1459
 8772SOL     OW37948   4.263   0.438  12.837 -0.1310  0.3428 -0.1663
 8772SOL    HW137949   4.343   0.479  12.805  0.6735 -1.0668  0.0150
 8772SOL    HW237950   4.289   0.377  12.906 -1.6271  1.1798  1.1240
 8773SOL     OW37951   1.145   3.471  12.381 -0.5049 -0.0203  0.4362
 8773SOL    HW137952   1.142   3.478  12.476  0.8488  0.8172  0.4092
 8773SOL    HW237953   1.055   3.442  12.363 -0.3389 -1.1719  1.4498
 8774SOL     OW37954   0.530   2.945   8.970 -0.7997 -0.0828 -0.1184
 8774SOL    HW137955   0.618   2.923   9.001 -1.2145 -0.6453  0.6549
 8774SOL    HW237956   0.512   3.038   8.989  2.5935  0.7698 -1.0927
 8775SOL     OW37957   0.474   0.759   2.144 -0.4246  0.0487  0.8174
 8775SOL    HW137958   0.480   0.789   2.054 -0.5334 -0.7324  0.5451
 8775SOL    HW237959   0.424   0.835   2.174 -0.5429  0.1519  0.3488
 8776SOL     OW37960   1.345   0.438   6.183  0.1215 -0.4472  0.3086
 8776SOL    HW137961   1.388   0.436   6.098 -1.2930  1.1257 -0.4500
 8776SOL    HW237962   1.312   0.528   6.184  0.1675 -0.4543  2.9023
 8777SOL     OW37963   0.905   2.963   7.018 -0.2219  0.0594  0.5194
 8777SOL    HW137964   0.885   2.869   7.012  2.9621 -0.6679  1.3332
 8777SOL    HW237965   0.991   2.963   7.061  0.2656 -1.0737 -0.4391
 8778SOL     OW37966   2.698   0.771  17.405 -0.2348  0.3862 -0.4303
 8778SOL    HW137967   2.727   0.754  17.316  0.7111 -1.6338  0.2569
 8778SOL    HW237968   2.731   0.861  17.406 -2.0142  1.0453 -0.5206
 8779SOL     OW37969   0.928   4.704   3.503 -0.0241  0.0266  0.1244
 8779SOL    HW137970   0.924   4.700   3.407  3.4554  0.9038 -0.0335
 8779SOL    HW237971   0.961   4.616   3.521 -0.4597 -0.5118 -1.7356
 8780SOL     OW37972   1.399   0.346   5.024  0.4212 -0.2778 -0.3762
 8780SOL    HW137973   1.395   0.375   5.115 -1.3167  2.1042 -1.1962
 8780SOL    HW237974   1.358   0.260   5.020  0.4499 -0.2963 -0.2795
 8781SOL     OW37975   2.632   1.778   7.335  0.6177 -0.0612 -0.2796
 8781SOL    HW137976   2.662   1.856   7.289  1.1182 -0.6312 -0.9167
 8781SOL    HW237977   2.550   1.764   7.287  0.0763  0.7536  0.3991
 8782SOL     OW37978   4.033   4.218   3.649  0.0728 -0.2429  0.3948
 8782SOL    HW137979   3.985   4.301   3.646  0.5662  0.0366  0.3510
 8782SOL    HW237980   4.068   4.211   3.560  1.1945 -0.6756  0.8712
 8783SOL     OW37981   0.360   3.783   4.281  1.1311  0.0201 -0.1478
 8783SOL    HW137982   0.310   3.725   4.338  1.7860 -0.4727 -0.0739
 8783SOL    HW237983   0.297   3.855   4.279  3.4524  2.0965  0.6223
 8784SOL     OW37984   1.769   0.163   4.729  0.5975  0.2763 -0.4671
 8784SOL    HW137985   1.713   0.209   4.792  4.0717  1.8784  1.4555
 8784SOL    HW237986   1.701   0.126   4.674 -0.6782 -0.8798  1.8872
 8785SOL     OW37987   0.476   2.512   7.515  0.2777 -0.3482 -0.6617
 8785SOL    HW137988   0.527   2.436   7.546  0.2351 -1.1200 -2.4860
 8785SOL    HW237989   0.388   2.476   7.508 -0.9153  2.2939  0.8073
 8786SOL     OW37990   2.999   1.291   3.075  0.1211  0.3831 -0.1139
 8786SOL    HW137991   2.958   1.282   2.989  1.3120 -0.9732 -0.5473
 8786SOL    HW237992   3.089   1.305   3.045 -0.2126  1.6278 -0.5171
 8787SOL     OW37993   1.480   3.218   8.081 -0.1742 -0.7210  0.2995
 8787SOL    HW137994   1.514   3.158   8.148 -0.3540 -0.6679  0.4394
 8787SOL    HW237995   1.461   3.297   8.131 -0.7533  0.0752 -1.2054
 8788SOL     OW37996   0.214   0.868   9.142 -0.1915 -0.1816 -0.2447
 8788SOL    HW137997   0.287   0.807   9.136  0.8448  1.0904 -0.7395
 8788SOL    HW237998   0.169   0.854   9.058 -0.6475  0.3589 -0.0926
 8789SOL     OW37999   1.232   1.810   3.960 -0.1407 -0.3237  0.1178
 8789SOL    HW138000   1.256   1.737   3.902 -1.6857  0.4133 -1.4546
 8789SOL    HW238001   1.215   1.876   3.893  1.9601 -0.6715 -0.7541
 8790SOL     OW38002   1.437   1.151   1.778  0.1172 -0.3014 -0.6613
 8790SOL    HW138003   1.497   1.145   1.852 -0.5159 -0.0504 -0.1207
 8790SOL    HW238004   1.446   1.072   1.724  2.8231 -0.3115 -0.1679
 8791SOL     OW38005   0.747   0.599   2.086 -0.2005  0.2075 -0.0798
 8791SOL    HW138006   0.677   0.634   2.031 -2.0610  0.0364  2.1537
 8791SOL    HW238007   0.713   0.513   2.112 -0.1470  0.7710  1.8746
 8792SOL     OW38008   4.163   0.110  15.717 -0.3368 -0.2708 -0.2688
 8792SOL    HW138009   4.175   0.194  15.671  1.0218 -0.3621 -0.0822
 8792SOL    HW238010   4.068   0.113  15.733 -0.7498 -0.0147 -2.6717
 8793SOL     OW38011   2.136   1.687   5.258  0.1809  0.6539  0.0374
 8793SOL    HW138012   2.131   1.644   5.343 -0.1866 -0.1106 -0.3607
 8793SOL    HW238013   2.138   1.616   5.193  1.9973 -1.5088  2.4942
 8794SOL     OW38014   1.370   2.687   9.055  0.1423 -1.0241 -0.1312
 8794SOL    HW138015   1.374   2.600   9.015 -1.2380  1.0181 -4.6852
 8794SOL    HW238016   1.450   2.724   9.019 -0.9080  0.5709 -0.8236
 8795SOL     OW38017   0.424   0.929  11.428  0.0492 -0.2996  0.6056
 8795SOL    HW138018   0.496   0.990  11.410  0.0944 -0.4448  0.3009
 8795SOL    HW238019   0.421   0.873  11.350 -1.2043  0.5028  0.0756
 8796SOL     OW38020   3.846   0.792  10.858  0.1730  0.0426 -0.4854
 8796SOL    HW138021   3.764   0.766  10.814 -0.6179  0.1628  0.9217
 8796SOL    HW238022   3.905   0.741  10.802  1.1837 -2.0297  2.4969
 8797SOL     OW38023   3.555   0.824   9.444  0.0273  0.3434  0.0853
 8797SOL    HW138024   3.498   0.882   9.495 -1.2528  0.1833 -1.1743
 8797SOL    HW238025   3.509   0.745   9.471  1.9053 -0.3767  1.1317
 8798SOL     OW38026   1.504   0.349  14.092  0.3323  0.5278  0.1043
 8798SOL    HW138027   1.560   0.335  14.169 -0.8639  2.1746  1.2936
 8798SOL    HW238028   1.444   0.274  14.088  0.3155  0.3649  3.3781
 8799SOL     OW38029   3.274   2.636  10.351 -0.1792  0.6726 -0.3549
 8799SOL    HW138030   3.337   2.666  10.285  0.8302  0.2137  0.4079
 8799SOL    HW238031   3.264   2.715  10.404 -0.8562 -0.7336  1.6107
 8800SOL     OW38032   4.536   1.416   0.490  0.1581  0.0757 -0.0268
 8800SOL    HW138033   4.492   1.426   0.406 -0.2133  1.7860  0.3904
 8800SOL    HW238034   4.578   1.330   0.479  1.8939  1.0948 -1.2329
 8801SOL     OW38035   2.597   1.811   2.349 -0.9240 -0.0782 -0.8036
 8801SOL    HW138036   2.667   1.760   2.309 -1.7183 -1.0597 -0.9555
 8801SOL    HW238037   2.604   1.775   2.438  0.6057  0.0907 -0.8650
 8802SOL     OW38038   1.395   3.839   2.121  0.1925  0.1593 -0.0655
 8802SOL    HW138039   1.428   3.911   2.176  0.1457  3.1631 -3.9916
 8802SOL    HW238040   1.460   3.845   2.051  1.1323  1.9484  0.9657
 8803SOL     OW38041   1.611   2.049   6.511  0.0111  0.6891  0.8532
 8803SOL    HW138042   1.609   1.961   6.547 -0.2166 -0.0961 -1.0535
 8803SOL    HW238043   1.690   2.076   6.558  1.3845 -0.2490 -0.8916
 8804SOL     OW38044   4.267   4.013  16.804 -0.1791 -0.2697  0.0082
 8804SOL    HW138045   4.223   4.095  16.781  1.1282  0.2426 -0.6636
 8804SOL    HW238046   4.227   3.949  16.745  2.3823 -1.9728  0.1331
 8805SOL     OW38047   1.325   0.120   8.810 -0.5344 -0.1178 -0.4126
 8805SOL    HW138048   1.252   0.092   8.755  0.4831  1.4273 -2.5778
 8805SOL    HW238049   1.381   0.042   8.808  0.3108  0.4537  0.5411
 8806SOL     OW38050   3.492   3.308   5.426  0.2583 -0.1629 -0.4978
 8806SOL    HW138051   3.483   3.354   5.343  0.8717  0.0987 -0.4195
 8806SOL    HW238052   3.579   3.335   5.456  0.9845 -0.2126 -2.5472
 8807SOL     OW38053   0.175   3.051  15.419 -0.5691 -0.2448 -0.3795
 8807SOL    HW138054   0.251   3.017  15.468  1.6265  0.7766 -3.0936
 8807SOL    HW238055   0.130   2.974  15.384  0.9808 -0.4918 -1.8218
 8808SOL     OW38056   0.078   1.144   5.915 -0.3269 -0.7830 -0.2102
 8808SOL    HW138057   0.135   1.195   5.856 -1.9159 -0.7958 -1.7512
 8808SOL    HW238058   0.069   1.057   5.875  3.3935 -1.0880 -0.3762
 8809SOL     OW38059   4.268   1.168   8.894 -0.2437  0.3120 -0.2874
 8809SOL    HW138060   4.351   1.119   8.898 -0.4386  0.0914  0.9517
 8809SOL    HW238061   4.297   1.220   8.819  0.8791  1.1321  0.7024
 8810SOL     OW38062   0.897   1.089   6.952  0.4028  0.1738 -0.0147
 8810SOL    HW138063   0.879   1.087   6.858  0.5939 -2.6304  0.0308
 8810SOL    HW238064   0.817   1.122   6.992  0.2652 -0.4188  0.1841
 8811SOL     OW38065   3.916   0.933  17.657 -0.1834 -0.0253  0.0111
 8811SOL    HW138066   3.946   1.024  17.655  0.8693 -0.4313 -3.0676
 8811SOL    HW238067   3.942   0.912  17.568  1.7202  1.5834  0.1838
 8812SOL     OW38068   1.065   4.545   3.072  0.3358  0.0779  0.0756
 8812SOL    HW138069   1.149   4.524   3.114  0.9224  2.0991 -0.0945
 8812SOL    HW238070   1.045   4.454   3.049  1.2543 -0.1993  0.3844
 8813SOL     OW38071   0.163   4.260   8.056 -0.6222 -0.3183  0.0012
 8813SOL    HW138072   0.150   4.196   7.986  4.7062 -1.0617 -0.3670
 8813SOL    HW238073   0.168   4.214   8.140  0.1449  2.2826  1.3953
 8814SOL     OW38074   2.668   2.106  11.278  0.0758 -0.4969  0.4482
 8814SOL    HW138075   2.742   2.080  11.223 -1.4311 -3.3117 -0.2529
 8814SOL    HW238076   2.597   2.111  11.213  0.9733  0.8309 -0.4397
 8815SOL     OW38077   2.549   3.265   5.138 -0.2791 -0.2639 -0.3061
 8815SOL    HW138078   2.486   3.290   5.206  0.2370  0.7313 -0.1881
 8815SOL    HW238079   2.616   3.334   5.148 -0.0689 -0.2298 -2.0839
 8816SOL     OW38080   0.722   3.577   8.269 -0.0358 -0.0891  0.0060
 8816SOL    HW138081   0.736   3.656   8.217 -0.4343 -0.0632 -0.0616
 8816SOL    HW238082   0.808   3.553   8.305 -0.0719 -0.1268  0.0675
 8817SOL     OW38083   0.535   0.935   3.464  0.2827  0.0113 -0.3444
 8817SOL    HW138084   0.518   1.019   3.422 -2.9842 -0.7441 -0.5376
 8817SOL    HW238085   0.457   0.888   3.435 -0.8313  2.6120 -1.4778
 8818SOL     OW38086   2.030   3.949   1.445 -0.7521 -0.0787 -0.1754
 8818SOL    HW138087   1.942   3.912   1.449 -0.8117  0.0671 -0.1325
 8818SOL    HW238088   2.069   3.876   1.397  0.2783  0.8451 -0.7447
 8819SOL     OW38089   0.956   3.098   8.564 -0.3814  0.0166  0.0199
 8819SOL    HW138090   1.047   3.127   8.553 -0.6733  1.3262  1.1832
 8819SOL    HW238091   0.960   3.012   8.606  0.8701 -0.1251 -0.3955
 8820SOL     OW38092   3.182   1.344   6.547  0.0350  0.2198  0.5976
 8820SOL    HW138093   3.243   1.334   6.475 -1.1739  1.9799 -0.6732
 8820SOL    HW238094   3.172   1.438   6.562 -2.9963  0.1942 -1.2369
 8821SOL     OW38095   2.171   4.522   6.201  0.3812  0.1655  0.1029
 8821SOL    HW138096   2.170   4.443   6.256  3.1865  0.4479  0.5385
 8821SOL    HW238097   2.077   4.531   6.184  0.7050  3.0877 -0.0232
 8822SOL     OW38098   1.566   4.545   9.036 -0.6505  0.3170 -0.0677
 8822SOL    HW138099   1.628   4.474   9.020 -1.0000 -0.2471  1.1214
 8822SOL    HW238100   1.572   4.595   8.955 -1.7169 -0.5484 -0.6982
 8823SOL     OW38101   3.617   3.602   6.875  0.5015 -0.2972 -0.1408
 8823SOL    HW138102   3.592   3.517   6.912  1.6717  0.8857  3.3614
 8823SOL    HW238103   3.528   3.631   6.855  0.2279  0.3361  1.9523
 8824SOL     OW38104   4.390   1.794   9.940 -0.3543  0.3234 -0.9485
 8824SOL    HW138105   4.466   1.827   9.891 -1.1880  1.1010 -1.7119
 8824SOL    HW238106   4.318   1.803   9.879 -0.3848  1.4319 -0.7465
 8825SOL     OW38107   1.020   2.133   4.113 -0.1776 -0.0429 -0.0234
 8825SOL    HW138108   1.072   2.213   4.106  1.3154 -0.9185  1.2029
 8825SOL    HW238109   0.989   2.132   4.203 -0.3268 -1.4591 -0.0832
 8826SOL     OW38110   3.775   4.468   1.228 -0.0398 -0.3859  0.1034
 8826SOL    HW138111   3.762   4.374   1.224 -1.2088 -0.2863  1.2000
 8826SOL    HW238112   3.689   4.501   1.200 -0.5746 -1.6731  0.2208
 8827SOL     OW38113   4.613   3.715   9.892  0.4351 -0.1277  0.3673
 8827SOL    HW138114   4.632   3.757   9.808  0.8571  1.1633  1.1032
 8827SOL    HW238115   4.694   3.737   9.938 -0.1185  3.3575 -0.2788
 8828SOL     OW38116   1.271   1.198   7.244  0.1955  0.0134 -0.0275
 8828SOL    HW138117   1.199   1.257   7.265  0.8002  1.4710 -2.0117
 8828SOL    HW238118   1.232   1.119   7.281 -1.8363  0.5524 -1.0359
 8829SOL     OW38119   3.358   0.297   1.979 -0.4609 -0.4467  0.5073
 8829SOL    HW138120   3.354   0.380   1.932  0.3871 -0.6393  0.0892
 8829SOL    HW238121   3.451   0.278   1.968  0.0300  1.2699  1.7463
 8830SOL     OW38122   3.443   2.787   6.666  0.5687  0.0024  0.0766
 8830SOL    HW138123   3.453   2.697   6.636 -0.6423  0.5578 -1.9731
 8830SOL    HW238124   3.381   2.832   6.609  0.6962 -3.1486 -2.5287
 8831SOL     OW38125   0.954   0.430  10.003 -0.7797  0.5025 -0.3545
 8831SOL    HW138126   1.049   0.416   9.999 -0.8909 -0.2161 -0.4439
 8831SOL    HW238127   0.952   0.504  10.064 -0.0914 -0.1261  0.4430
 8832SOL     OW38128   2.261   3.018   6.587  0.1140 -0.1212 -0.1328
 8832SOL    HW138129   2.330   3.080   6.611  1.3937 -0.9306 -1.6143
 8832SOL    HW238130   2.250   3.049   6.497 -2.9458 -0.8385  0.0042
 8833SOL     OW38131   2.490   0.498   0.643  0.2980  0.1715 -0.1464
 8833SOL    HW138132   2.405   0.543   0.650  0.1192 -0.3934  1.2982
 8833SOL    HW238133   2.462   0.410   0.619  0.1497  0.0364  0.5085
 8834SOL     OW38134   3.910   4.599   3.309 -0.4105  0.4153 -0.0632
 8834SOL    HW138135   3.914   4.673   3.370  1.9208  0.5766 -0.4285
 8834SOL    HW238136   3.887   4.650   3.231  2.7450  0.9168 -0.6304
 8835SOL     OW38137   1.805   1.738   3.970  0.3483  0.0039  0.8685
 8835SOL    HW138138   1.719   1.760   3.935  0.2579  1.0705  1.7679
 8835SOL    HW238139   1.853   1.682   3.909 -1.7372 -0.3621 -0.4320
 8836SOL     OW38140   1.562   0.660   9.852  0.6218  0.1612 -0.0924
 8836SOL    HW138141   1.626   0.730   9.850  0.1429  0.5976 -0.0723
 8836SOL    HW238142   1.623   0.601   9.896  0.8469 -0.4099 -1.1598
 8837SOL     OW38143   2.651   2.037   7.250 -0.1220  0.4345  0.2346
 8837SOL    HW138144   2.575   2.092   7.236 -0.3965 -0.0538 -0.2144
 8837SOL    HW238145   2.716   2.091   7.205  0.0387 -0.7851 -0.9999
 8838SOL     OW38146   0.943   0.906   2.843 -0.3728 -0.0962  0.0023
 8838SOL    HW138147   0.908   0.890   2.931  2.6049  3.2851  1.7978
 8838SOL    HW238148   0.940   1.002   2.836  1.4312 -0.0408  0.1103
 8839SOL     OW38149   3.115   3.143   5.140  0.3704  0.4885  0.4097
 8839SOL    HW138150   3.189   3.119   5.085  1.4978 -0.1374  2.1816
 8839SOL    HW238151   3.117   3.233   5.107  0.0508  0.7092  0.9842
 8840SOL     OW38152   1.131   0.280  13.820  0.6666 -0.6616  0.1259
 8840SOL    HW138153   1.127   0.306  13.728  0.9454  2.2694  0.9597
 8840SOL    HW238154   1.092   0.192  13.818 -2.7234  0.8233 -0.2700
 8841SOL     OW38155   0.144   3.002   2.625 -0.3332 -0.3072 -0.1522
 8841SOL    HW138156   0.154   2.952   2.706  0.2394  2.5027  1.5082
 8841SOL    HW238157   0.087   3.075   2.649 -0.1123 -1.2731  3.2332
 8842SOL     OW38158   1.095   1.925   5.969  0.2342  0.2262 -0.4191
 8842SOL    HW138159   1.036   1.983   6.018  0.2750 -0.8014  0.8503
 8842SOL    HW238160   1.040   1.852   5.939  1.1226 -0.3031 -0.7588
 8843SOL     OW38161   0.470   1.749   6.127  0.3430  0.3243  0.3453
 8843SOL    HW138162   0.549   1.698   6.110 -1.5140 -1.9524 -1.5123
 8843SOL    HW238163   0.519   1.830   6.144  0.1796  1.0227 -2.4898
 8844SOL     OW38164   3.445   3.092  11.898 -0.1041  0.1512 -0.7356
 8844SOL    HW138165   3.391   3.170  11.910  2.4940  1.8980 -0.3414
 8844SOL    HW238166   3.533   3.128  11.884 -0.3869  1.1585  0.0650
 8845SOL     OW38167   3.571   0.234   4.630  0.0593  0.2817  0.6788
 8845SOL    HW138168   3.656   0.199   4.601  0.8234  0.6250  2.4722
 8845SOL    HW238169   3.570   0.329   4.617 -1.6241  0.0981 -0.4232
 8846SOL     OW38170   3.483   0.723   8.386  0.3195  0.5460  0.1888
 8846SOL    HW138171   3.552   0.742   8.450  1.4911 -1.6560 -0.4401
 8846SOL    HW238172   3.520   0.650   8.337 -0.7223 -0.2710  0.6328
 8847SOL     OW38173   3.662   4.112   6.741  0.3617 -0.3374 -0.1184
 8847SOL    HW138174   3.634   4.186   6.796  0.2116 -2.3444  2.5267
 8847SOL    HW238175   3.696   4.152   6.662  0.7010 -0.0941  0.1485
 8848SOL     OW38176   3.091   0.767   4.553  0.1310 -0.2775 -0.5494
 8848SOL    HW138177   3.121   0.797   4.467 -1.2738 -0.8287 -1.2230
 8848SOL    HW238178   3.115   0.675   4.550  1.1962  0.0096 -0.7731
 8849SOL     OW38179   2.574   0.195   4.248 -0.0364  0.3171  0.2714
 8849SOL    HW138180   2.664   0.177   4.278 -0.7131 -0.5420  1.7889
 8849SOL    HW238181   2.519   0.189   4.326 -0.7920 -0.1366 -0.3053
 8850SOL     OW38182   4.441   0.527  13.691 -0.0942  1.1492  1.1252
 8850SOL    HW138183   4.471   0.551  13.779 -1.5459  0.1359  1.8936
 8850SOL    HW238184   4.485   0.594  13.638  2.7435 -1.8797 -0.3649
 8851SOL     OW38185   3.909   3.631   1.268  0.1314 -0.5367  0.1159
 8851SOL    HW138186   3.890   3.709   1.217 -0.0658 -0.3970  0.4004
 8851SOL    HW238187   4.004   3.632   1.277  0.2366 -0.8212 -0.9753
 8852SOL     OW38188   2.745   3.907   0.139 -0.4334 -0.3708  0.1405
 8852SOL    HW138189   2.730   3.930   0.231  1.0303  1.7551 -0.1521
 8852SOL    HW238190   2.807   3.835   0.151  0.6586  0.5325 -0.0124
 8853SOL     OW38191   3.090   3.758  13.143 -0.2437 -0.2314 -0.2430
 8853SOL    HW138192   3.007   3.802  13.160 -0.7089 -1.5629  0.9896
 8853SOL    HW238193   3.142   3.783  13.220 -0.2328  3.2163 -1.3754
 8854SOL     OW38194   3.499   1.920   6.193 -0.0522 -0.5466  0.2087
 8854SOL    HW138195   3.474   1.989   6.132 -1.6114 -1.7826 -0.5618
 8854SOL    HW238196   3.585   1.895   6.159  0.2671 -0.8817  1.2606
 8855SOL     OW38197   3.150   2.154  16.943  0.7509 -0.3312 -0.9211
 8855SOL    HW138198   3.201   2.166  17.024  1.0503  1.6707 -1.3980
 8855SOL    HW238199   3.152   2.063  16.914 -0.4388 -0.0789 -1.7686
 8856SOL     OW38200   1.840   3.149   4.077  0.3129 -0.6511 -0.1133
 8856SOL    HW138201   1.816   3.237   4.051  4.0656  0.1163 -0.9091
 8856SOL    HW238202   1.753   3.123   4.109 -0.2016 -0.2923 -1.2495
 8857SOL     OW38203   3.758   3.197  14.844 -0.0265 -0.3863 -0.3018
 8857SOL    HW138204   3.678   3.180  14.894  2.2977 -0.5089  3.3259
 8857SOL    HW238205   3.819   3.153  14.902 -1.0707 -1.1330  0.2273
 8858SOL     OW38206   2.542   0.469   3.181 -0.0106  0.1560  0.6630
 8858SOL    HW138207   2.488   0.416   3.123  1.6829 -0.1126 -0.6817
 8858SOL    HW238208   2.535   0.557   3.142  1.1281  0.4860  1.1946
 8859SOL     OW38209   1.768   4.603   4.101  0.0408  0.2555  0.1300
 8859SOL    HW138210   1.842   4.542   4.105 -0.6583 -0.6036 -0.0761
 8859SOL    HW238211   1.765   4.626   4.194 -0.7214 -2.4206  0.7434
 8860SOL     OW38212   3.459   0.596   6.611 -0.4754  0.0986 -0.2629
 8860SOL    HW138213   3.375   0.594   6.564  0.3938 -1.9083 -1.7419
 8860SOL    HW238214   3.433   0.527   6.671  0.0394 -2.2390 -2.7297
 8861SOL     OW38215   2.560   1.319  10.141  0.1910 -0.1276 -0.3389
 8861SOL    HW138216   2.626   1.284  10.081  1.8852 -0.1133  1.5238
 8861SOL    HW238217   2.556   1.411  10.116 -1.5397 -0.0076  0.4099
 8862SOL     OW38218   1.363   4.342   3.881  0.4319  0.4082  0.7339
 8862SOL    HW138219   1.437   4.396   3.910  0.8817  2.5640 -4.4674
 8862SOL    HW238220   1.316   4.328   3.963 -0.0193 -0.3486  0.3433
 8863SOL     OW38221   3.210   1.349  11.868  0.2750  0.1875  0.2976
 8863SOL    HW138222   3.273   1.277  11.879  0.4519  0.5086  1.3989
 8863SOL    HW238223   3.220   1.386  11.781 -2.2372  1.8530  0.7401
 8864SOL     OW38224   1.057   4.359   0.652  0.0789 -0.3160  0.0273
 8864SOL    HW138225   1.032   4.441   0.696  0.2203 -0.9373  1.2491
 8864SOL    HW238226   0.982   4.303   0.671  0.7951 -1.3718 -0.2789
 8865SOL     OW38227   1.335   4.653   8.566 -0.0024  0.0768  0.0743
 8865SOL    HW138228   1.354   0.008   8.553 -2.5172  0.9123  2.4526
 8865SOL    HW238229   1.385   4.618   8.491  0.9068  1.3941  0.0599
 8866SOL     OW38230   4.357   3.299   5.304  0.2463  0.2886 -0.2808
 8866SOL    HW138231   4.449   3.314   5.323  0.0327 -1.7834  2.5260
 8866SOL    HW238232   4.366   3.298   5.209 -1.1523  0.8054 -0.4210
 8867SOL     OW38233   1.358   1.903  15.731 -0.2384  0.0350 -0.7967
 8867SOL    HW138234   1.376   1.957  15.654 -1.1652  0.0428 -1.0168
 8867SOL    HW238235   1.286   1.849  15.697  0.2487 -0.3754 -1.1771
 8868SOL     OW38236   2.984   4.401   2.505  0.0016 -0.5748  0.1127
 8868SOL    HW138237   3.004   4.322   2.454 -0.4105  0.5496 -1.8003
 8868SOL    HW238238   2.978   4.461   2.430  0.1316  1.7529  1.9853
 8869SOL     OW38239   1.002   3.321  17.155  0.0948 -0.7727  0.0812
 8869SOL    HW138240   0.956   3.375  17.090  0.6562 -0.7308 -0.2840
 8869SOL    HW238241   1.045   3.255  17.100  3.4976  0.3024  1.4568
 8870SOL     OW38242   4.308   1.704   6.987  0.2397  0.2927 -0.3585
 8870SOL    HW138243   4.271   1.661   7.065 -2.4050  2.7586 -0.2200
 8870SOL    HW238244   4.393   1.731   7.022 -0.6898  2.4003  0.3226
 8871SOL     OW38245   0.148   0.898   8.880  0.4200 -0.3469  0.0831
 8871SOL    HW138246   0.082   0.839   8.844 -1.8143  3.6137 -2.3081
 8871SOL    HW238247   0.227   0.871   8.834  0.5694  1.3505 -0.6484
 8872SOL     OW38248   3.212   2.487  14.916  0.3291  0.0635 -0.1843
 8872SOL    HW138249   3.266   2.409  14.902 -0.4332 -0.1459 -1.9390
 8872SOL    HW238250   3.179   2.462  15.002 -0.1953  2.1967  0.2253
 8873SOL     OW38251   2.199   0.731   0.417  0.2754  0.0180  0.2351
 8873SOL    HW138252   2.160   0.671   0.353 -1.3037  1.2649  0.0268
 8873SOL    HW238253   2.115   0.770   0.441 -0.2147  0.4321 -2.1605
 8874SOL     OW38254   2.379   3.639   4.562 -0.2988 -0.0238  0.4723
 8874SOL    HW138255   2.457   3.680   4.599  1.0317 -0.2244 -2.1315
 8874SOL    HW238256   2.347   3.591   4.638  0.3986 -1.8066 -0.3600
 8875SOL     OW38257   1.041   3.366  14.144 -0.2056  0.0942 -0.3956
 8875SOL    HW138258   1.025   3.334  14.233 -0.6164  1.5643  0.0515
 8875SOL    HW238259   1.135   3.379  14.132 -0.1931 -0.8457 -1.3378
 8876SOL     OW38260   2.821   4.180   3.471  0.2273 -0.3133  0.1573
 8876SOL    HW138261   2.742   4.230   3.489 -0.0048 -0.0045 -1.7292
 8876SOL    HW238262   2.795   4.143   3.386 -1.1335  0.5881  0.1910
 8877SOL     OW38263   4.180   4.002   7.022 -0.3951  0.0801  0.1656
 8877SOL    HW138264   4.222   3.921   6.993 -0.3480  0.2243 -0.1696
 8877SOL    HW238265   4.101   4.014   6.970 -0.2261 -2.4029 -0.6383
 8878SOL     OW38266   1.368   2.715   3.409 -0.1443 -0.4097  0.1869
 8878SOL    HW138267   1.346   2.629   3.373 -0.2333 -0.1526 -0.3876
 8878SOL    HW238268   1.385   2.763   3.327 -2.1887 -0.0781 -0.0439
 8879SOL     OW38269   2.171   1.505   2.951 -0.8043 -0.3861 -0.6199
 8879SOL    HW138270   2.171   1.414   2.983 -0.6814 -0.2211 -0.1454
 8879SOL    HW238271   2.182   1.480   2.859  0.0318  0.3993 -0.7244
 8880SOL     OW38272   1.655   2.160   5.643 -0.3592 -0.4249  0.3226
 8880SOL    HW138273   1.668   2.091   5.708  0.3727 -0.0721  0.5526
 8880SOL    HW238274   1.611   2.104   5.579  3.7677 -2.3036 -0.8729
 8881SOL     OW38275   1.478   1.543  11.725  0.1802 -0.3681  0.2121
 8881SOL    HW138276   1.503   1.451  11.726  0.6243 -0.2481 -0.3843
 8881SOL    HW238277   1.562   1.589  11.722 -0.3186  0.4917 -0.6465
 8882SOL     OW38278   3.582   3.967   1.138 -0.6598  0.3270 -0.2334
 8882SOL    HW138279   3.540   3.992   1.056  1.5483 -1.2367 -1.8378
 8882SOL    HW238280   3.566   3.873   1.139  0.8110  0.0696  0.1317
 8883SOL     OW38281   3.556   0.820  15.710 -0.2663  0.1326 -0.4089
 8883SOL    HW138282   3.556   0.897  15.653 -0.5560  0.5971  0.2107
 8883SOL    HW238283   3.464   0.809  15.734 -0.2046 -1.6350 -1.0445
 8884SOL     OW38284   1.159   2.540   6.691 -0.0415  0.3457 -0.1642
 8884SOL    HW138285   1.249   2.532   6.722 -0.4278  0.9163  1.1099
 8884SOL    HW238286   1.112   2.490   6.758  0.2882  1.9650  1.2734
 8885SOL     OW38287   2.740   2.589   3.035 -0.3807 -0.0169  0.2381
 8885SOL    HW138288   2.748   2.493   3.042 -0.0145 -0.0482 -0.6763
 8885SOL    HW238289   2.796   2.623   3.104 -1.7935  4.5979 -0.8873
 8886SOL     OW38290   4.209   2.394   6.274  0.7064 -0.1294  0.2144
 8886SOL    HW138291   4.282   2.387   6.336 -0.1759 -1.6130  1.1045
 8886SOL    HW238292   4.142   2.337   6.312  0.8857 -0.0879  0.5927
 8887SOL     OW38293   4.382   2.084   2.441 -0.0282  0.0462  0.6556
 8887SOL    HW138294   4.381   2.019   2.370  0.8525  1.2059 -0.4130
 8887SOL    HW238295   4.306   2.061   2.495  0.3804  0.3979  1.3770
 8888SOL     OW38296   0.613   4.418   9.427  0.6329 -0.1139 -0.5142
 8888SOL    HW138297   0.551   4.345   9.427  1.9301 -1.2097  0.5905
 8888SOL    HW238298   0.563   4.494   9.399 -0.1026 -1.5331 -2.9758
 8889SOL     OW38299   0.767   0.573  16.833  0.1481  0.6455 -0.0594
 8889SOL    HW138300   0.722   0.655  16.814  0.2576  0.5876 -0.5571
 8889SOL    HW238301   0.804   0.590  16.920  2.0675  0.1834 -0.7761
 8890SOL     OW38302   0.858   2.010   6.258 -0.0775 -0.2536 -0.3660
 8890SOL    HW138303   0.923   2.078   6.238 -0.7486  0.3148 -0.5997
 8890SOL    HW238304   0.923   1.939   6.265  0.3098  0.0134 -1.2148
 8891SOL     OW38305   0.179   4.064   3.034 -0.2344  0.3503 -0.0956
 8891SOL    HW138306   0.175   4.111   2.951 -2.8226 -1.0376 -0.7843
 8891SOL    HW238307   0.129   4.112   3.100 -0.3691  2.0052 -1.4228
 8892SOL     OW38308   0.332   3.553   4.636 -0.5232  0.5060 -0.1322
 8892SOL    HW138309   0.360   3.561   4.727 -2.6582 -1.9501  0.7581
 8892SOL    HW238310   0.310   3.460   4.631 -0.6929  0.5171  0.4010
 8893SOL     OW38311   0.832   3.197   6.135 -0.5626 -0.0934  0.3823
 8893SOL    HW138312   0.925   3.178   6.128 -0.5985 -0.5141  1.0604
 8893SOL    HW238313   0.797   3.121   6.088  0.0513 -1.4683  2.1581
 8894SOL     OW38314   2.789   1.285   4.936  0.3071 -0.4568 -0.2839
 8894SOL    HW138315   2.856   1.217   4.929 -0.8239 -1.8725  2.4054
 8894SOL    HW238316   2.710   1.234   4.919  0.5306 -0.6942 -0.6139
 8895SOL     OW38317   0.936   0.996   1.647 -0.3244  0.8167 -0.4716
 8895SOL    HW138318   1.018   1.035   1.675  0.8270 -1.5502 -0.5581
 8895SOL    HW238319   0.962   0.906   1.668  1.4386  1.3338 -0.4537
 8896SOL     OW38320   1.697   1.308   8.029 -0.0933 -0.3000 -0.0486
 8896SOL    HW138321   1.710   1.216   8.051 -0.5756 -0.3852 -0.1212
 8896SOL    HW238322   1.790   1.331   8.023 -0.0485 -0.3480  0.5220
 8897SOL     OW38323   1.194   3.035  12.564 -0.1307 -0.4929 -0.4383
 8897SOL    HW138324   1.122   2.982  12.528 -1.9329  0.5828  1.5712
 8897SOL    HW238325   1.137   3.084  12.623  0.3888  0.7718 -0.9796
 8898SOL     OW38326   4.127   4.013  15.096  0.2423 -0.0988 -0.7565
 8898SOL    HW138327   4.046   4.047  15.134  0.8469 -0.0225  0.4857
 8898SOL    HW238328   4.188   4.087  15.095  1.0354 -0.7239  0.4285
 8899SOL     OW38329   3.755   4.630   9.034 -0.8715  0.3533 -0.1158
 8899SOL    HW138330   3.739   4.551   9.086  0.2407 -0.8613 -1.6030
 8899SOL    HW238331   3.696   4.622   8.959 -1.3765 -3.8834  0.7425
 8900SOL     OW38332   3.657   1.570   9.655  0.0163  0.3818 -0.3564
 8900SOL    HW138333   3.678   1.646   9.710 -0.8948 -0.6550  1.4274
 8900SOL    HW238334   3.599   1.613   9.592 -0.3054  1.3143  0.5609
 8901SOL     OW38335   3.763   0.536  15.890 -0.1566  0.2964 -0.0835
 8901SOL    HW138336   3.856   0.511  15.892 -0.4622 -0.8462  0.0425
 8901SOL    HW238337   3.726   0.454  15.924  0.1038 -0.1521 -0.8657
 8902SOL     OW38338   1.726   1.540   9.720 -0.2333 -0.6219 -0.4027
 8902SOL    HW138339   1.657   1.541   9.786  0.0798  2.2660 -0.1486
 8902SOL    HW238340   1.714   1.627   9.683 -0.0960  0.7801  2.9202
 8903SOL     OW38341   2.884   1.620   5.295 -0.1788  0.0796  0.3059
 8903SOL    HW138342   2.796   1.639   5.263  0.7882 -2.3527 -3.7688
 8903SOL    HW238343   2.895   1.531   5.262  2.7547  1.1155 -1.5457
 8904SOL     OW38344   4.245   3.520   2.130 -0.0420 -0.1273  0.0459
 8904SOL    HW138345   4.167   3.567   2.102  0.5217  1.6083  1.3481
 8904SOL    HW238346   4.243   3.532   2.225  2.1144  1.6863 -0.1365
 8905SOL     OW38347   4.595   1.863   2.940  0.1585 -0.0569  0.0718
 8905SOL    HW138348   4.592   1.779   2.895 -2.4279  0.9992 -1.7501
 8905SOL    HW238349   4.630   1.923   2.874 -2.4491 -1.4642 -2.5782
 8906SOL     OW38350   0.615   0.228  14.174  0.0627  0.2216  0.2830
 8906SOL    HW138351   0.632   0.165  14.244  0.9770 -0.2281 -0.3480
 8906SOL    HW238352   0.694   0.282  14.179  0.7565 -0.6594 -1.4742
 8907SOL     OW38353   3.595   2.031   2.933  0.9852 -0.0876  0.2939
 8907SOL    HW138354   3.620   2.004   2.845  1.4720  0.5137  0.2412
 8907SOL    HW238355   3.596   2.127   2.930 -1.6126 -0.1134 -1.0987
 8908SOL     OW38356   0.759   0.912   7.892  0.0782 -0.4883 -1.1273
 8908SOL    HW138357   0.777   0.821   7.866 -0.9215 -0.4849 -1.8432
 8908SOL    HW238358   0.839   0.942   7.934 -0.2023 -0.5942 -0.5029
 8909SOL     OW38359   1.743   0.688   4.920  0.5404  0.3153  0.1180
 8909SOL    HW138360   1.653   0.659   4.934  0.8071  0.0550  1.3580
 8909SOL    HW238361   1.753   0.749   4.993 -2.7191  1.7168 -0.5865
 8910SOL     OW38362   0.454   2.648   5.570  0.1057  0.3957  0.0158
 8910SOL    HW138363   0.456   2.696   5.653 -3.5254  0.7431 -0.1096
 8910SOL    HW238364   0.364   2.671   5.548  0.1267 -1.8782 -2.4429
 8911SOL     OW38365   1.379   2.388   4.466 -0.2988  0.8225  0.4241
 8911SOL    HW138366   1.451   2.342   4.423  1.0026  0.6659  2.7760
 8911SOL    HW238367   1.431   2.449   4.519  2.2582  1.3838 -2.7140
 8912SOL     OW38368   1.377   2.261   8.853 -0.1450  0.2518 -0.4229
 8912SOL    HW138369   1.466   2.237   8.878 -0.2150 -1.3179 -1.7549
 8912SOL    HW238370   1.384   2.288   8.761  2.0517  0.2652 -0.2556
 8913SOL     OW38371   1.619   2.126   8.866  0.8013  0.8196  0.8145
 8913SOL    HW138372   1.674   2.073   8.923  1.0592  1.9082  1.5708
 8913SOL    HW238373   1.578   2.059   8.811  0.3005  1.8560 -0.0781
 8914SOL     OW38374   3.212   2.918   4.233 -0.3772 -0.0470 -0.2365
 8914SOL    HW138375   3.307   2.921   4.237 -0.4624  0.7440  1.2790
 8914SOL    HW238376   3.193   2.892   4.143  2.3416  1.0696 -1.1093
 8915SOL     OW38377   3.040   1.763  17.427  0.0533  0.4145  0.4872
 8915SOL    HW138378   2.948   1.737  17.422  0.0851 -0.1981  3.0774
 8915SOL    HW238379   3.070   1.699  17.362 -0.3086  0.6495  0.0887
 8916SOL     OW38380   2.744   4.490  14.404  0.3657 -0.0785  0.5173
 8916SOL    HW138381   2.707   4.576  14.388  0.5008  0.0550  0.9016
 8916SOL    HW238382   2.801   4.490  14.481  1.6824  0.1818 -0.4537
 8917SOL     OW38383   4.453   2.536   6.113  0.0412 -0.1504  0.5693
 8917SOL    HW138384   4.398   2.611   6.132 -2.1359 -1.7480  0.6381
 8917SOL    HW238385   4.450   2.538   6.018  0.7025  0.2946  0.5579
 8918SOL     OW38386   0.950   2.532  15.873  0.1850 -0.1771 -0.2153
 8918SOL    HW138387   0.933   2.588  15.949  1.5843 -0.0086 -0.0194
 8918SOL    HW238388   0.981   2.602  15.815 -0.8812  0.1733 -0.3673
 8919SOL     OW38389   2.849   4.416   2.745  0.0933 -0.2050 -0.1094
 8919SOL    HW138390   2.818   4.326   2.757  0.4064 -0.2513  0.3637
 8919SOL    HW238391   2.888   4.412   2.658  0.3923  1.2796 -0.0418
 8920SOL     OW38392   4.389   0.796   5.776  0.1798 -0.2672 -0.1862
 8920SOL    HW138393   4.351   0.875   5.815  1.1103  0.3922 -0.6121
 8920SOL    HW238394   4.354   0.804   5.687 -0.1290 -1.3791 -0.1601
 8921SOL     OW38395   1.692   3.989   8.729  0.2690  0.2020 -0.4567
 8921SOL    HW138396   1.747   4.005   8.806 -2.4251  0.9132  1.3151
 8921SOL    HW238397   1.660   4.078   8.714  1.0648  0.7269  0.9558
 8922SOL     OW38398   3.639   0.553   2.914  0.8332 -0.2909 -0.1281
 8922SOL    HW138399   3.565   0.559   2.975  1.5913 -0.3575  0.8080
 8922SOL    HW238400   3.600   0.510   2.838  0.5051  1.4188 -0.9405
 8923SOL     OW38401   1.170   0.007   3.742  0.2089 -0.3846  0.8361
 8923SOL    HW138402   1.265   0.009   3.755  0.0054  0.3307  2.1724
 8923SOL    HW238403   1.163   4.733   3.647  2.3594  0.5946  0.5447
 8924SOL     OW38404   3.007   1.641   7.762  0.1769  0.3865 -0.2737
 8924SOL    HW138405   3.092   1.683   7.774  0.3099 -0.4786  1.7779
 8924SOL    HW238406   2.939   1.705   7.782 -0.5339 -0.3872 -0.2443
 8925SOL     OW38407   1.911   0.824   9.184  0.0414  1.0049 -0.1406
 8925SOL    HW138408   1.866   0.740   9.172  0.0198  1.0650 -0.4786
 8925SOL    HW238409   1.853   0.867   9.246 -3.8195 -0.8693 -2.4784
 8926SOL     OW38410   1.107   3.215   5.336  0.8258 -0.5786  0.4387
 8926SOL    HW138411   1.201   3.218   5.351  0.9032  0.7189 -0.3416
 8926SOL    HW238412   1.094   3.122   5.357 -1.3718 -0.1829  0.8278
 8927SOL     OW38413   4.398   3.714   5.172  0.8427  0.4294 -0.6531
 8927SOL    HW138414   4.405   3.760   5.088 -1.1918  1.4350 -0.2728
 8927SOL    HW238415   4.402   3.793   5.227  1.8480 -1.0017  1.3024
 8928SOL     OW38416   2.486   4.037   3.173 -0.5272 -0.0588  0.6389
 8928SOL    HW138417   2.577   4.065   3.178 -0.2569 -1.0238  1.2780
 8928SOL    HW238418   2.496   3.944   3.151  0.3198 -0.1969  1.6023
 8929SOL     OW38419   3.626   1.613  12.099 -0.2234  0.0833 -0.4083
 8929SOL    HW138420   3.655   1.598  12.189 -1.8527 -0.5961  0.0053
 8929SOL    HW238421   3.700   1.573  12.055  0.9685  1.7937  0.0632
 8930SOL     OW38422   3.771   4.520   6.236 -0.0012  0.6260 -0.2223
 8930SOL    HW138423   3.788   4.535   6.329 -1.7194  0.5837  0.1003
 8930SOL    HW238424   3.853   4.473   6.220  0.5164  1.4302  0.0712
 8931SOL     OW38425   0.867   3.844   6.189  0.4516  0.4099  0.4863
 8931SOL    HW138426   0.951   3.798   6.183  0.9397  1.3535  0.1334
 8931SOL    HW238427   0.816   3.800   6.121  2.0223 -0.3703 -0.1950
 8932SOL     OW38428   1.655   2.308   3.242  0.0691 -0.0146 -0.1678
 8932SOL    HW138429   1.685   2.329   3.331  0.2797 -1.3941  0.0881
 8932SOL    HW238430   1.571   2.268   3.263  1.2152 -0.6366  3.3556
 8933SOL     OW38431   1.525   0.904   2.706 -0.0632 -0.2431 -0.1993
 8933SOL    HW138432   1.547   0.812   2.698 -0.3668 -0.0133 -3.9191
 8933SOL    HW238433   1.522   0.913   2.801  1.2206 -0.9700 -0.0966
 8934SOL     OW38434   3.434   0.093   7.809  0.2685  0.1795  0.0567
 8934SOL    HW138435   3.405   0.137   7.730 -2.6294 -1.4071  0.2645
 8934SOL    HW238436   3.528   0.113   7.805  0.4128 -0.7701 -0.9758
 8935SOL     OW38437   0.151   2.971  12.846 -0.3760  0.1563  0.3420
 8935SOL    HW138438   0.239   2.994  12.876 -0.7349  1.4803  0.3812
 8935SOL    HW238439   0.116   2.942  12.931 -1.3781 -2.3698 -0.9504
 8936SOL     OW38440   2.820   0.052   2.876  0.1701  0.3318 -0.2240
 8936SOL    HW138441   2.866   0.026   2.955 -0.7682 -3.1972 -0.8390
 8936SOL    HW238442   2.801   0.143   2.897 -2.8550  0.5495 -3.7228
 8937SOL     OW38443   3.463   1.395  12.094 -0.1753  0.0807  0.2672
 8937SOL    HW138444   3.491   1.487  12.100  0.1026  0.0977 -1.4743
 8937SOL    HW238445   3.525   1.350  12.037 -0.8742 -1.2636  0.5620
 8938SOL     OW38446   1.527   2.860   1.238 -0.0120  0.3324 -0.2405
 8938SOL    HW138447   1.570   2.779   1.211  0.3160 -0.1391  1.6938
 8938SOL    HW238448   1.437   2.828   1.245  0.6806 -1.3880  0.9097
 8939SOL     OW38449   2.626   2.690  12.015  0.2056  0.6014  0.1807
 8939SOL    HW138450   2.580   2.734  12.087 -0.1586  1.6955 -0.7151
 8939SOL    HW238451   2.715   2.702  12.048  0.5177  2.0056 -1.1783
 8940SOL     OW38452   0.995   4.681  16.695  0.1209 -0.2589  0.3127
 8940SOL    HW138453   0.962   4.703  16.782 -2.8722 -0.8092 -0.6752
 8940SOL    HW238454   1.057   4.616  16.727  0.3603 -0.3947 -0.4162
 8941SOL     OW38455   2.589   4.087   6.042  0.1760  0.4605  0.0263
 8941SOL    HW138456   2.597   4.044   5.957  0.1122  1.6844 -0.6096
 8941SOL    HW238457   2.650   4.034   6.092 -1.4530 -1.8790 -0.4452
 8942SOL     OW38458   0.889   0.987   4.329  0.1111 -0.5161 -0.2046
 8942SOL    HW138459   0.829   0.915   4.309 -1.0279  0.2714  0.3928
 8942SOL    HW238460   0.876   1.043   4.252  0.4837 -0.0032  0.1083
 8943SOL     OW38461   1.868   0.895   2.961 -0.0913 -0.6388  0.0457
 8943SOL    HW138462   1.904   0.851   2.884 -0.8471  0.9150 -1.1914
 8943SOL    HW238463   1.841   0.822   3.017 -0.0201  0.4354  1.4984
 8944SOL     OW38464   4.059   2.551   4.544  0.7775  0.0612  0.1026
 8944SOL    HW138465   4.017   2.512   4.621  1.0028  2.4707  1.4474
 8944SOL    HW238466   4.110   2.627   4.573  0.0708  0.4161  0.3977
 8945SOL     OW38467   0.878   4.340   5.981  0.0236 -0.0670  0.2239
 8945SOL    HW138468   0.807   4.276   5.972  1.8141 -2.0676  0.4178
 8945SOL    HW238469   0.851   4.389   5.903  1.8754  0.2378 -0.2102
 8946SOL     OW38470   3.858   2.844   4.054  0.1993 -0.0700  0.3085
 8946SOL    HW138471   3.947   2.861   4.023  0.0535  3.3082  1.7884
 8946SOL    HW238472   3.857   2.754   4.022  0.0532 -0.4653  1.4183
 8947SOL     OW38473   0.206   4.225   3.757  0.3789 -0.0812 -0.2387
 8947SOL    HW138474   0.255   4.233   3.675  1.9080  1.8705  0.8519
 8947SOL    HW238475   0.123   4.194   3.723 -0.5075  2.1136 -0.0958
 8948SOL     OW38476   0.719   1.973   8.515 -0.2222 -0.4982 -0.1504
 8948SOL    HW138477   0.812   1.991   8.500 -0.4231  0.9943  0.4770
 8948SOL    HW238478   0.720   1.916   8.592 -2.3661  1.7779  1.5463
 8949SOL     OW38479   3.371   3.475   5.732 -0.3542  0.1211  0.3240
 8949SOL    HW138480   3.369   3.379   5.723  3.1834 -0.0364  1.0820
 8949SOL    HW238481   3.304   3.479   5.799 -0.1485 -2.2531  0.6757
 8950SOL     OW38482   1.310   1.820   1.961  0.2142  0.3272 -0.0704
 8950SOL    HW138483   1.229   1.775   1.985  0.0457 -0.2821 -1.7589
 8950SOL    HW238484   1.377   1.777   2.014 -0.8651  0.2171  1.1937
 8951SOL     OW38485   3.405   0.497  13.546 -0.0246  0.8725 -0.1888
 8951SOL    HW138486   3.384   0.538  13.462 -1.3437 -1.0144 -0.7756
 8951SOL    HW238487   3.317   0.472  13.574 -1.2349  3.5165 -1.7252
 8952SOL     OW38488   3.001   0.192   2.515  0.0971 -0.3022  0.1063
 8952SOL    HW138489   2.952   0.167   2.436 -1.1194 -0.1587  0.8102
 8952SOL    HW238490   2.991   0.111   2.565 -2.1273  1.3122  2.2658
 8953SOL     OW38491   0.341   2.150   2.268 -0.2130  0.1638  0.0395
 8953SOL    HW138492   0.262   2.186   2.228  0.5373 -0.6598 -2.1374
 8953SOL    HW238493   0.346   2.057   2.243  0.8969 -0.6139  3.1478
 8954SOL     OW38494   2.575   3.933   2.824 -0.0642 -0.0226 -0.5105
 8954SOL    HW138495   2.500   3.993   2.821 -1.0995 -1.4010 -2.4858
 8954SOL    HW238496   2.583   3.896   2.912  0.2314 -1.8735 -1.3149
 8955SOL     OW38497   2.838   0.766   1.665  0.7988  0.1152  0.3270
 8955SOL    HW138498   2.907   0.769   1.599 -0.6561 -0.2260 -1.1878
 8955SOL    HW238499   2.811   0.675   1.653  3.2241 -0.4735 -0.6077
 8956SOL     OW38500   0.866   1.369   3.247  0.1816  0.0502 -0.2271
 8956SOL    HW138501   0.953   1.336   3.267  1.3701  3.1604 -0.3385
 8956SOL    HW238502   0.829   1.292   3.203 -1.3217  0.6177  0.0164
 8957SOL     OW38503   4.311   3.317   7.261  0.0068 -0.0145  0.1635
 8957SOL    HW138504   4.267   3.308   7.346  1.3079  1.6336  1.0007
 8957SOL    HW238505   4.241   3.302   7.197 -0.4091  1.9103  0.1769
 8958SOL     OW38506   1.667   1.670   2.310  0.0624 -0.0301  0.2690
 8958SOL    HW138507   1.739   1.713   2.356 -1.7084  1.9455  1.2193
 8958SOL    HW238508   1.629   1.623   2.384  0.0336 -0.6777 -0.1683
 8959SOL     OW38509   2.907   4.239   6.482  0.0432  0.2145  0.1371
 8959SOL    HW138510   2.895   4.333   6.489 -0.0108  0.3675 -2.0391
 8959SOL    HW238511   2.852   4.215   6.556  1.6395 -2.4274  0.4909
 8960SOL     OW38512   1.321   2.956   8.403  0.0139  0.4477 -0.0339
 8960SOL    HW138513   1.300   2.972   8.311 -0.1679 -0.8727 -0.2171
 8960SOL    HW238514   1.276   3.032   8.441  0.8171  0.4145  0.9774
 8961SOL     OW38515   3.472   1.936  16.817 -0.6381  0.2740 -0.0901
 8961SOL    HW138516   3.529   1.877  16.769 -1.5821  0.0007 -0.8660
 8961SOL    HW238517   3.427   1.991  16.753  3.3140  1.5068 -1.8043
 8962SOL     OW38518   2.677   4.171   1.910  0.2536 -0.3012  0.6134
 8962SOL    HW138519   2.729   4.161   1.830 -0.1938  0.6589  0.2080
 8962SOL    HW238520   2.646   4.083   1.930 -2.0561  0.5706  0.8962
 8963SOL     OW38521   3.781   0.305   8.262 -0.2621  0.0235  0.0355
 8963SOL    HW138522   3.870   0.283   8.288  0.1359  2.4948  0.6898
 8963SOL    HW238523   3.739   0.219   8.253  0.4823 -0.3074 -0.2968
 8964SOL     OW38524   3.858   3.249   7.586 -0.0108  0.5820 -0.4276
 8964SOL    HW138525   3.793   3.317   7.597  1.1782  1.9148 -1.6069
 8964SOL    HW238526   3.887   3.272   7.498  2.2563 -0.3962  0.0563
 8965SOL     OW38527   3.603   2.742  12.214  0.0454 -0.0046 -0.2725
 8965SOL    HW138528   3.508   2.732  12.218 -0.0398  0.3854 -1.4379
 8965SOL    HW238529   3.642   2.742  12.302 -0.2228 -2.0154 -0.1408
 8966SOL     OW38530   0.663   0.132  15.638  0.9475 -0.0577 -0.1667
 8966SOL    HW138531   0.649   0.038  15.630  0.2572 -0.0057  0.4516
 8966SOL    HW238532   0.604   0.162  15.569 -0.2634  0.7781  1.1969
 8967SOL     OW38533   2.216   0.851   1.435 -0.0941  0.4936  0.0517
 8967SOL    HW138534   2.282   0.867   1.368 -0.0250 -1.9802 -0.4703
 8967SOL    HW238535   2.247   0.913   1.500  0.2708  0.5982 -0.2242
 8968SOL     OW38536   1.739   2.386   1.838  0.2584 -0.6952  0.4760
 8968SOL    HW138537   1.736   2.337   1.755 -1.5184 -1.1628  0.8175
 8968SOL    HW238538   1.824   2.358   1.873  0.3790 -1.2992 -0.2939
 8969SOL     OW38539   4.624   2.168   6.388  0.0132  0.3082 -0.4711
 8969SOL    HW138540   4.547   2.223   6.404 -0.2549 -0.4635  0.9601
 8969SOL    HW238541   4.670   2.175   6.472  0.8215 -3.1832 -0.6101
 8970SOL     OW38542   4.687   4.019  10.143 -0.4699  1.1002  0.2362
 8970SOL    HW138543   4.660   4.067  10.221  0.7309  1.6502  0.3158
 8970SOL    HW238544   0.021   3.965  10.178 -1.0567  0.7798  0.9370
 8971SOL     OW38545   3.597   4.257   5.405  0.1568  0.5405  0.0289
 8971SOL    HW138546   3.656   4.331   5.390  0.3339  0.3489 -0.2379
 8971SOL    HW238547   3.644   4.217   5.478  0.2387  2.2486  0.9152
 8972SOL     OW38548   4.274   0.207   7.440 -0.1904  0.1505 -0.1153
 8972SOL    HW138549   4.364   0.187   7.412 -0.9599 -0.8847 -1.8414
 8972SOL    HW238550   4.298   0.232   7.529 -1.6477 -1.1875  0.6275
 8973SOL     OW38551   0.206   1.963   8.370 -0.3423  0.0380  0.0076
 8973SOL    HW138552   0.200   2.049   8.330  1.6955  0.6566  1.0210
 8973SOL    HW238553   0.294   1.948   8.404 -0.0688  2.4782  0.3840
 8974SOL     OW38554   0.100   0.351   0.260  0.1590 -0.5715  0.2956
 8974SOL    HW138555   0.074   0.440   0.234 -1.0929 -0.5421  1.6359
 8974SOL    HW238556   0.032   0.335   0.325 -0.0744  1.2032  0.4998
 8975SOL     OW38557   1.066   2.970   5.428 -0.2765  0.4713  0.1970
 8975SOL    HW138558   1.136   2.912   5.396  1.6474  0.3408  4.7612
 8975SOL    HW238559   0.987   2.919   5.409  0.3218 -0.2823 -0.2989
 8976SOL     OW38560   3.855   2.807  13.578  0.1374  0.1706  0.1280
 8976SOL    HW138561   3.774   2.761  13.557 -0.9055  2.2519 -0.4568
 8976SOL    HW238562   3.900   2.816  13.494  0.5564  0.5512  0.3890
 8977SOL     OW38563   3.166   2.297   4.845 -0.0767  0.7696 -0.7507
 8977SOL    HW138564   3.216   2.250   4.912 -1.4803  1.1602  0.5765
 8977SOL    HW238565   3.222   2.283   4.769  4.1666  1.5897  2.2154
 8978SOL     OW38566   1.621   4.276   8.716 -0.4007 -0.1512  0.0481
 8978SOL    HW138567   1.668   4.359   8.706  0.5082 -0.1609  4.2121
 8978SOL    HW238568   1.562   4.281   8.641  0.1677 -1.2897 -0.4665
 8979SOL     OW38569   4.226   1.711   6.261 -0.9043  0.2303  0.5129
 8979SOL    HW138570   4.299   1.702   6.321 -0.9039 -1.4305  0.2486
 8979SOL    HW238571   4.230   1.807   6.262  1.4226  0.1129  1.1167
 8980SOL     OW38572   3.270   1.006  10.970 -0.2020  0.4467 -0.4747
 8980SOL    HW138573   3.298   1.061  10.897 -0.3755 -0.5427 -1.2914
 8980SOL    HW238574   3.339   1.016  11.036  0.1699 -0.1393 -0.7703
 8981SOL     OW38575   3.888   0.799  15.393  0.0067 -0.5721  0.2409
 8981SOL    HW138576   3.850   0.799  15.480  0.1116  1.5137  0.2692
 8981SOL    HW238577   3.848   0.716  15.366  0.8022 -0.5245 -1.0980
 8982SOL     OW38578   3.431   4.682   5.800  0.0028  0.5235  0.0450
 8982SOL    HW138579   3.425   0.007   5.873  1.8678  0.6025  0.1219
 8982SOL    HW238580   3.361   4.716   5.744 -0.1302 -0.0130 -0.1119
 8983SOL     OW38581   2.137   3.569   3.363  0.0186 -0.0608 -0.0373
 8983SOL    HW138582   2.228   3.539   3.372  0.2598  0.4140 -0.8320
 8983SOL    HW238583   2.115   3.566   3.456 -0.6611 -2.1641 -0.2635
 8984SOL     OW38584   0.412   0.580   0.836  0.4522  0.1799  0.3140
 8984SOL    HW138585   0.493   0.531   0.819  0.2338 -0.4626  1.1218
 8984SOL    HW238586   0.450   0.662   0.868  0.3458  0.7870 -1.1199
 8985SOL     OW38587   3.419   2.434  13.277  0.2625  1.1002  0.0587
 8985SOL    HW138588   3.473   2.362  13.246  1.8341  2.5291 -0.5586
 8985SOL    HW238589   3.340   2.405  13.231 -0.4632  1.5136  1.0478
 8986SOL     OW38590   0.413   2.009   8.888 -0.4124  0.1582 -0.6301
 8986SOL    HW138591   0.428   1.989   8.980  0.9308 -1.2518 -1.1570
 8986SOL    HW238592   0.367   1.930   8.860  0.8106  0.0365 -2.2978
 8987SOL     OW38593   1.610   3.790   5.973  0.1243 -0.0408  0.1797
 8987SOL    HW138594   1.668   3.805   6.047  1.0122 -1.2458 -0.2678
 8987SOL    HW238595   1.595   3.878   5.939  1.7416 -0.2922 -1.1945
 8988SOL     OW38596   4.209   3.897   5.558  0.6198 -0.3780  0.4127
 8988SOL    HW138597   4.129   3.947   5.545  1.4726  0.8150 -0.1835
 8988SOL    HW238598   4.219   3.853   5.473 -1.1329  2.0673 -1.0522
 8989SOL     OW38599   0.177   1.958   7.111 -0.1510 -0.0146 -0.3605
 8989SOL    HW138600   0.201   2.022   7.178  2.4696 -1.2863 -0.0963
 8989SOL    HW238601   0.148   1.896   7.177 -1.1603  1.1067  0.2564
 8990SOL     OW38602   4.382   4.421  10.937  0.8794 -0.3454 -0.2272
 8990SOL    HW138603   4.289   4.439  10.949  0.7827 -0.9925 -0.0445
 8990SOL    HW238604   4.407   4.375  11.017  2.4971  0.4697 -0.2723
 8991SOL     OW38605   3.893   0.176   2.193 -0.0200 -0.2220  0.7936
 8991SOL    HW138606   3.914   0.165   2.285 -0.2150 -0.7895  0.7720
 8991SOL    HW238607   3.799   0.159   2.201 -0.1350 -0.5261 -1.1502
 8992SOL     OW38608   3.101   3.928   7.212  0.3313 -0.2440 -0.0982
 8992SOL    HW138609   3.046   3.912   7.136  1.3640  1.4911 -1.2097
 8992SOL    HW238610   3.026   3.942   7.269 -0.2716  0.1744 -0.9946
 8993SOL     OW38611   0.967   1.813  11.635 -0.1132  0.2183 -0.2951
 8993SOL    HW138612   1.028   1.834  11.705  0.6740 -0.7382 -0.6971
 8993SOL    HW238613   1.026   1.775  11.570 -0.8634  2.2812 -2.1923
 8994SOL     OW38614   4.397   4.503   4.173 -0.2127  0.2312  0.1085
 8994SOL    HW138615   4.342   4.551   4.111  0.3214 -1.4551 -1.6935
 8994SOL    HW238616   4.428   4.574   4.228  0.1870 -1.5485  2.1694
 8995SOL     OW38617   1.052   2.201   9.322 -0.7665  0.3445 -0.0248
 8995SOL    HW138618   1.103   2.213   9.242 -1.9551  2.3244 -0.4997
 8995SOL    HW238619   1.128   2.199   9.380 -0.9519  0.7473  0.2331
 8996SOL     OW38620   3.259   0.687   7.528  0.0961  0.0434 -0.5812
 8996SOL    HW138621   3.172   0.718   7.503  0.8768  2.0490 -0.7769
 8996SOL    HW238622   3.253   0.713   7.620 -0.4303  0.2511 -0.6710
 8997SOL     OW38623   0.544   0.518   5.143  0.0368  0.1042 -0.6045
 8997SOL    HW138624   0.606   0.555   5.206 -1.2692  1.0128  0.1327
 8997SOL    HW238625   0.461   0.536   5.186 -0.2963 -2.8552 -0.0011
 8998SOL     OW38626   4.154   0.044   6.713 -0.6119  0.2102 -0.0217
 8998SOL    HW138627   4.227   0.104   6.725 -0.7283  0.6097 -1.3525
 8998SOL    HW238628   4.076   0.091   6.742 -0.3305 -0.5116  1.9605
 8999SOL     OW38629   0.811   0.453   6.761  0.1318  0.4146 -0.6011
 8999SOL    HW138630   0.872   0.415   6.825 -1.6293  0.3235  1.0196
 8999SOL    HW238631   0.848   0.403   6.688 -0.4165  0.5467 -0.9737
 9000SOL     OW38632   1.124   3.195   6.442  0.0270 -0.2429  0.0930
 9000SOL    HW138633   1.098   3.243   6.521  0.5662 -0.2953  0.3029
 9000SOL    HW238634   1.209   3.231   6.417  0.6623 -0.7589  1.5345
 9001SOL     OW38635   2.762   0.140   8.129 -0.2314  0.0654 -0.1487
 9001SOL    HW138636   2.851   0.148   8.162  0.3550 -2.0286 -1.2289
 9001SOL    HW238637   2.731   0.230   8.143 -0.7932 -0.0671 -0.5068
 9002SOL     OW38638   0.212   0.693  17.449  0.1811 -0.5121  0.5119
 9002SOL    HW138639   0.248   0.759  17.508  2.8060 -0.3094 -1.3256
 9002SOL    HW238640   0.286   0.638  17.424  1.8746  2.6879 -1.5940
 9003SOL     OW38641   1.783   4.612   9.340  0.5579 -0.6802 -0.1299
 9003SOL    HW138642   1.689   4.632   9.333  0.1989 -1.6326  2.0809
 9003SOL    HW238643   1.796   4.551   9.267  0.4089 -0.2287 -0.5346
 9004SOL     OW38644   3.824   1.062   4.249  0.0099 -0.0080  0.4148
 9004SOL    HW138645   3.879   1.021   4.181 -1.3576 -1.6292  0.2883
 9004SOL    HW238646   3.803   1.144   4.204 -1.5598 -0.5939  0.0769
 9005SOL     OW38647   1.307   3.622   7.062 -0.3145  0.0021  0.4993
 9005SOL    HW138648   1.356   3.545   7.033 -1.1698 -0.5698  0.5542
 9005SOL    HW238649   1.220   3.591   7.035  0.6780 -2.7348  0.4093
 9006SOL     OW38650   2.764   0.869   8.943  0.3719 -0.1888 -0.5254
 9006SOL    HW138651   2.776   0.796   9.004  0.2771  0.1215 -0.1347
 9006SOL    HW238652   2.835   0.851   8.880  1.0889  0.4432  0.0977
 9007SOL     OW38653   1.995   2.968   6.158 -0.1193  0.2680 -0.0469
 9007SOL    HW138654   2.040   3.046   6.126 -1.4116  1.0628  0.0991
 9007SOL    HW238655   2.023   2.907   6.089  2.7446 -0.5746  1.8575
 9008SOL     OW38656   2.039   3.999  16.953 -0.4782  0.0175 -0.5316
 9008SOL    HW138657   2.111   3.936  16.960 -2.0392 -1.4109  2.5019
 9008SOL    HW238658   2.049   4.033  16.864 -1.0394 -2.2368 -1.4368
 9009SOL     OW38659   0.344   1.413   1.785  0.4076 -0.5304  0.0018
 9009SOL    HW138660   0.292   1.388   1.861  0.9077  1.8104  1.1323
 9009SOL    HW238661   0.286   1.365   1.727  0.3694 -0.3805 -0.0835
 9010SOL     OW38662   1.192   3.265  11.909  0.3628 -0.6829  0.4674
 9010SOL    HW138663   1.141   3.343  11.931  2.2911  0.3807  1.2145
 9010SOL    HW238664   1.209   3.279  11.815 -0.6392  0.6278  0.4852
 9011SOL     OW38665   2.775   3.579   7.659 -0.1640 -0.0236 -0.0929
 9011SOL    HW138666   2.698   3.625   7.691  1.3407  1.7588  0.9599
 9011SOL    HW238667   2.765   3.499   7.711  0.3837 -0.6361 -0.9263
 9012SOL     OW38668   1.933   3.709  10.652  0.7599 -0.2136  0.2294
 9012SOL    HW138669   1.923   3.684  10.744  1.2524  1.1938  0.6667
 9012SOL    HW238670   1.918   3.802  10.663 -1.1788 -0.3340 -1.4875
 9013SOL     OW38671   1.140   2.289   7.671 -0.3973  0.3216  0.4662
 9013SOL    HW138672   1.088   2.325   7.599  0.7454 -1.3143 -1.1837
 9013SOL    HW238673   1.115   2.347   7.743  1.4305 -0.1785  1.5189
 9014SOL     OW38674   1.700   0.188  10.081 -0.0080  0.0072 -0.9593
 9014SOL    HW138675   1.753   0.111  10.060 -1.0324 -1.3133  1.2682
 9014SOL    HW238676   1.745   0.259  10.034  1.3100 -1.1819 -1.4907
 9015SOL     OW38677   4.231   1.138  11.360 -0.2007 -0.3995  0.2129
 9015SOL    HW138678   4.241   1.059  11.413 -0.5848  0.4475  1.5483
 9015SOL    HW238679   4.222   1.200  11.432 -2.5666 -0.7399  0.2217
 9016SOL     OW38680   2.788   2.655  12.477  0.1607 -0.5172  0.9011
 9016SOL    HW138681   2.803   2.706  12.397  1.2631 -0.5896  1.0635
 9016SOL    HW238682   2.694   2.637  12.470  0.1149 -0.1770  0.6412
 9017SOL     OW38683   3.626   3.888  11.067 -0.2014 -0.4593 -0.6061
 9017SOL    HW138684   3.678   3.808  11.075 -0.0665 -0.2602  0.4392
 9017SOL    HW238685   3.689   3.956  11.091 -0.5976 -0.0890 -0.6213
 9018SOL     OW38686   1.803   1.431   7.254 -0.2046  0.1250 -0.4127
 9018SOL    HW138687   1.713   1.448   7.284  0.3883  2.3837  0.1108
 9018SOL    HW238688   1.852   1.481   7.320 -0.1602 -0.6516  0.1354
 9019SOL     OW38689   2.896   1.751   2.643 -0.0421  0.2468  0.2097
 9019SOL    HW138690   2.836   1.821   2.669  0.1402  0.3380  0.3847
 9019SOL    HW238691   2.833   1.681   2.626  1.3204 -0.1696 -3.1076
 9020SOL     OW38692   2.765   1.632   1.054 -0.4995 -0.1936 -0.5068
 9020SOL    HW138693   2.778   1.540   1.031  0.3664 -0.1402 -0.2346
 9020SOL    HW238694   2.802   1.677   0.978 -0.6863 -0.1810 -0.5904
 9021SOL     OW38695   3.834   1.347  16.933 -0.0450  0.0601 -0.2114
 9021SOL    HW138696   3.780   1.359  17.011  0.6594  0.1954  0.2546
 9021SOL    HW238697   3.862   1.438  16.926 -0.1036  0.0679 -0.3333
 9022SOL     OW38698   0.132   3.466   7.701 -0.3813 -0.1349  0.1567
 9022SOL    HW138699   0.082   3.406   7.757  0.8911 -1.0654  0.2902
 9022SOL    HW238700   0.070   3.540   7.705  0.9863  1.1292 -2.3357
 9023SOL     OW38701   0.556   4.618   3.511 -0.0332  0.2740 -0.3462
 9023SOL    HW138702   0.519   4.657   3.591  0.1652  1.0428 -0.6250
 9023SOL    HW238703   0.597   4.694   3.470 -0.2808 -0.7669 -2.4988
 9024SOL     OW38704   0.944   2.659  12.484 -0.3749  0.3140 -0.2457
 9024SOL    HW138705   1.024   2.618  12.517 -0.7376  0.5879  0.9691
 9024SOL    HW238706   0.956   2.746  12.523  0.2478  0.9117 -1.7824
 9025SOL     OW38707   3.876   4.175   4.410 -0.2227  0.2447 -0.3978
 9025SOL    HW138708   3.873   4.265   4.443  0.1243 -0.8191  2.5304
 9025SOL    HW238709   3.949   4.144   4.463  0.3664  0.0424 -1.3180
 9026SOL     OW38710   2.253   3.640   9.600 -0.2339 -0.1072  0.0900
 9026SOL    HW138711   2.320   3.584   9.560 -0.6683 -0.0514 -0.7060
 9026SOL    HW238712   2.266   3.612   9.691 -1.2691  1.9733  0.8655
 9027SOL     OW38713   4.273   0.820   3.255  0.1540  0.4964 -0.3045
 9027SOL    HW138714   4.324   0.766   3.315  1.5709  1.8199 -0.3111
 9027SOL    HW238715   4.344   0.869   3.214  2.3012 -2.5639 -0.1941
 9028SOL     OW38716   0.981   2.726   9.377 -0.1725  0.1731  0.0980
 9028SOL    HW138717   1.042   2.776   9.323 -0.0126  0.9808  1.0121
 9028SOL    HW238718   1.004   2.640   9.343  0.9712  0.3680  0.3895
 9029SOL     OW38719   1.364   0.368   4.089  0.0692 -0.3803  0.5061
 9029SOL    HW138720   1.359   0.447   4.036 -0.1489 -0.3566  0.5642
 9029SOL    HW238721   1.413   0.410   4.160  2.1170 -0.9715 -0.5581
 9030SOL     OW38722   3.822   0.796   5.490  0.3825  0.3080 -0.3935
 9030SOL    HW138723   3.842   0.839   5.573 -0.9573  1.0104 -0.4358
 9030SOL    HW238724   3.799   0.709   5.523 -1.3178  0.4053 -1.3490
 9031SOL     OW38725   3.821   3.953   9.885  0.1313  0.3521 -0.1730
 9031SOL    HW138726   3.787   3.959   9.796 -0.8536  0.1890  0.1965
 9031SOL    HW238727   3.741   3.962   9.936 -0.0631 -1.8680 -0.0909
 9032SOL     OW38728   2.469   3.817  11.968  0.1844 -0.0499  0.4813
 9032SOL    HW138729   2.448   3.839  12.059 -3.6689  2.5993 -1.0286
 9032SOL    HW238730   2.393   3.759  11.966 -1.0006  1.5982 -1.7905
 9033SOL     OW38731   4.468   3.846  10.074  0.3390 -0.5172  0.0251
 9033SOL    HW138732   4.513   3.804  10.000  1.3702 -2.2401  1.6326
 9033SOL    HW238733   4.533   3.908  10.108  1.2351 -0.8057 -1.1258
 9034SOL     OW38734   3.971   2.071  16.916  0.4505 -0.5854 -0.6217
 9034SOL    HW138735   3.878   2.067  16.939  0.3494  0.5503 -0.8601
 9034SOL    HW238736   3.976   1.994  16.859 -0.8939 -0.9353 -0.2646
 9035SOL     OW38737   3.579   4.689   4.704 -0.4944  0.5270 -0.0099
 9035SOL    HW138738   3.562   0.035   4.659  1.1656  0.7317 -0.2625
 9035SOL    HW238739   3.491   4.651   4.705  0.5208 -1.7541  2.3023
 9036SOL     OW38740   0.697   2.179   8.146 -0.7789  0.3756 -0.0403
 9036SOL    HW138741   0.723   2.217   8.230 -0.4010 -0.8502  0.3881
 9036SOL    HW238742   0.776   2.189   8.092 -0.8351  0.7213 -0.0581
 9037SOL     OW38743   2.692   1.338   7.874  0.2324 -0.4205  0.5684
 9037SOL    HW138744   2.664   1.423   7.841  0.4757 -0.3071  0.6565
 9037SOL    HW238745   2.636   1.329   7.951  0.2516  1.3052  0.7834
 9038SOL     OW38746   1.347   1.695   0.159  0.7018 -0.2885  0.4971
 9038SOL    HW138747   1.389   1.628   0.105  0.0459 -0.5490  0.3101
 9038SOL    HW238748   1.318   1.747   0.084  0.5822  0.3022  0.9523
 9039SOL     OW38749   2.678   0.346  16.198 -0.4140 -0.1031 -0.4883
 9039SOL    HW138750   2.706   0.295  16.274 -1.1922  0.4237  0.1467
 9039SOL    HW238751   2.628   0.280  16.150 -0.6253 -1.1070  1.0891
 9040SOL     OW38752   2.320   0.593  16.689  0.4765 -0.3435 -0.1942
 9040SOL    HW138753   2.224   0.594  16.697  0.5133  1.5675 -0.0413
 9040SOL    HW238754   2.345   0.662  16.750 -0.6946  1.2608 -1.5163
 9041SOL     OW38755   3.898   0.025   8.558 -0.0141  0.2087  0.1651
 9041SOL    HW138756   3.927   0.037   8.648 -2.8840 -1.5454  1.3147
 9041SOL    HW238757   3.909   4.668   8.551 -1.4588  0.2042 -2.3508
 9042SOL     OW38758   2.868   1.667   7.434 -0.3925 -0.1358  0.2534
 9042SOL    HW138759   2.788   1.712   7.404 -1.2119 -1.4162  0.4971
 9042SOL    HW238760   2.829   1.580   7.444 -1.3160  0.2775  0.2991
 9043SOL     OW38761   1.093   2.014   7.688 -0.1177  0.0796 -0.5492
 9043SOL    HW138762   1.127   2.103   7.684  0.7221 -0.2120 -0.0918
 9043SOL    HW238763   1.162   1.963   7.731 -1.6730 -1.5208  0.0572
 9044SOL     OW38764   3.489   3.585   6.015 -0.3931 -0.2054 -0.5136
 9044SOL    HW138765   3.493   3.664   5.961 -0.3918  1.1575  1.4358
 9044SOL    HW238766   3.530   3.526   5.953  3.0781  1.2203  0.4235
 9045SOL     OW38767   2.164   4.479   5.364  0.1570 -0.7661 -0.6433
 9045SOL    HW138768   2.073   4.448   5.355 -0.5071  1.2291 -0.7235
 9045SOL    HW238769   2.212   4.427   5.299  0.1019 -0.4114 -0.9626
 9046SOL     OW38770   4.043   1.193   5.950  0.3317  0.1661  0.5634
 9046SOL    HW138771   3.967   1.248   5.934 -0.4594 -1.0939  0.0588
 9046SOL    HW238772   4.056   1.194   6.045 -1.6353  1.2311  0.8155
 9047SOL     OW38773   1.657   4.003   4.074  0.1741 -0.2912 -0.7142
 9047SOL    HW138774   1.649   4.044   4.159  0.1993 -4.1551  1.1663
 9047SOL    HW238775   1.566   3.997   4.043  0.0144 -0.3799 -0.2255
 9048SOL     OW38776   3.068   0.341  10.112 -0.3124  0.0433 -0.2270
 9048SOL    HW138777   3.002   0.387  10.061 -1.0791 -1.1358 -0.2951
 9048SOL    HW238778   3.134   0.316  10.047  0.7429 -0.8048  1.1624
 9049SOL     OW38779   0.606   4.385  16.309 -0.0534 -0.0824  0.3150
 9049SOL    HW138780   0.636   4.343  16.389  2.5598  0.7730 -0.1930
 9049SOL    HW238781   0.664   4.461  16.316 -0.9183  0.7603 -1.5040
 9050SOL     OW38782   2.859   1.324   0.508 -0.2587 -0.7167 -0.2281
 9050SOL    HW138783   2.887   1.299   0.420 -0.5976 -0.3839 -0.4268
 9050SOL    HW238784   2.860   1.237   0.549 -0.3851  0.0249  1.3608
 9051SOL     OW38785   4.715   2.953  10.829 -0.3339  0.3214 -0.2547
 9051SOL    HW138786   4.707   2.965  10.735 -1.3341 -0.0674 -0.2226
 9051SOL    HW238787   0.008   2.863  10.831 -0.3264  0.3093 -1.0135
 9052SOL     OW38788   3.122   1.894  15.131 -0.0368 -0.1060  0.2617
 9052SOL    HW138789   3.054   1.866  15.070 -0.2325  1.1622 -0.0938
 9052SOL    HW238790   3.087   1.982  15.146  2.2789  0.5665  1.7979
 9053SOL     OW38791   1.151   3.252   5.884 -0.0800  1.1116  0.5745
 9053SOL    HW138792   1.118   3.190   5.819  1.2907  1.3980 -0.3956
 9053SOL    HW238793   1.135   3.202   5.964 -0.9481 -1.5262 -1.2596
 9054SOL     OW38794   3.664   1.041   2.640  0.3454 -0.5642  0.1916
 9054SOL    HW138795   3.705   0.983   2.705 -0.7147 -0.2895  1.1069
 9054SOL    HW238796   3.570   1.030   2.658  0.1950  2.3516  1.0560
 9055SOL     OW38797   3.933   2.913  17.168  0.4704  0.0844  0.3260
 9055SOL    HW138798   3.915   2.994  17.119  3.7905 -0.7648 -2.2713
 9055SOL    HW238799   3.887   2.851  17.111  0.1311 -0.5401  1.2909
 9056SOL     OW38800   1.010   2.841  12.846  0.3219  1.0011  0.3962
 9056SOL    HW138801   1.034   2.749  12.836  1.9293  1.4117  0.5829
 9056SOL    HW238802   0.995   2.844  12.941  1.0818  1.2563  0.5092
 9057SOL     OW38803   4.722   0.257   8.654 -0.3052 -0.0726  0.2895
 9057SOL    HW138804   0.059   0.207   8.621 -0.8391 -0.4373 -0.3776
 9057SOL    HW238805   4.650   0.195   8.643  2.4865 -3.3552  0.4257
 9058SOL     OW38806   1.894   1.381   1.956  0.1488  0.5059 -0.0620
 9058SOL    HW138807   1.918   1.472   1.937 -0.6083  0.6594 -0.3085
 9058SOL    HW238808   1.982   1.345   1.954  0.3616  0.9944  0.3832
 9059SOL     OW38809   3.622   3.878  10.217 -0.2405  0.0284 -0.5651
 9059SOL    HW138810   3.622   3.920  10.130 -2.5275  1.1657 -0.0281
 9059SOL    HW238811   3.645   3.958  10.264 -1.3459  0.6857 -1.1262
 9060SOL     OW38812   2.685   3.268  10.812  0.0211  0.5986 -0.1313
 9060SOL    HW138813   2.596   3.232  10.817 -0.7081  2.2605 -1.1424
 9060SOL    HW238814   2.660   3.356  10.782  0.7434  0.4160 -1.2651
 9061SOL     OW38815   4.585   3.833   4.308  0.3087  0.3243  0.0145
 9061SOL    HW138816   4.520   3.764   4.300  1.3983 -0.6356 -0.5537
 9061SOL    HW238817   4.564   3.897   4.240 -0.4261 -1.8553 -1.8223
 9062SOL     OW38818   0.912   3.257  10.284 -0.1785 -0.4494 -0.3151
 9062SOL    HW138819   0.982   3.232  10.223  1.9824  1.4486  1.4085
 9062SOL    HW238820   0.943   3.346  10.299 -0.1243 -0.0769 -2.6542
 9063SOL     OW38821   4.568   0.636   5.916  0.1899  0.0207  0.0146
 9063SOL    HW138822   4.558   0.671   6.004  3.4579 -0.5658  0.6463
 9063SOL    HW238823   4.503   0.687   5.869  0.0220 -0.0471  0.1760
 9064SOL     OW38824   1.492   2.400   1.379 -1.1684  0.0025 -0.2716
 9064SOL    HW138825   1.479   2.457   1.455 -4.7541 -1.1912  0.0064
 9064SOL    HW238826   1.447   2.320   1.405 -1.4273  0.1825 -0.1633
 9065SOL     OW38827   0.097   1.499   9.114 -0.3513 -0.9722  0.1555
 9065SOL    HW138828   0.125   1.424   9.166  2.8224 -0.5594 -0.9450
 9065SOL    HW238829   0.004   1.479   9.102 -0.2618 -1.4706  0.2916
 9066SOL     OW38830   0.435   4.046   7.390  0.5679  0.0020 -0.4426
 9066SOL    HW138831   0.519   4.004   7.411 -0.2081 -1.6402 -0.6118
 9066SOL    HW238832   0.422   4.011   7.301 -2.5681 -1.3535  0.5344
 9067SOL     OW38833   0.636   1.228   2.224 -0.1259  0.3126 -0.2602
 9067SOL    HW138834   0.590   1.160   2.175  0.5980 -1.5840  1.7025
 9067SOL    HW238835   0.657   1.188   2.308 -0.7430 -1.2833 -0.8834
 9068SOL     OW38836   1.086   1.515  11.709  0.5027 -0.1142 -0.0003
 9068SOL    HW138837   1.051   1.514  11.620  0.3389 -1.7849  0.0844
 9068SOL    HW238838   1.010   1.528  11.766  0.3824 -0.7332 -0.0212
 9069SOL     OW38839   2.598   1.197   5.484  0.1841 -0.5454  0.1516
 9069SOL    HW138840   2.565   1.144   5.556 -0.7490  1.6840  1.3861
 9069SOL    HW238841   2.520   1.252   5.472 -0.2751 -1.4705 -1.1322
 9070SOL     OW38842   0.367   0.315   8.436 -0.1463  0.4049 -0.1354
 9070SOL    HW138843   0.401   0.374   8.369 -1.0029 -0.3726 -1.2521
 9070SOL    HW238844   0.329   0.387   8.486 -0.7545  0.2390 -0.3562
 9071SOL     OW38845   1.375   0.049   9.810  0.6922 -0.1962 -0.3554
 9071SOL    HW138846   1.410   0.072   9.724 -2.1581  1.6223 -1.0226
 9071SOL    HW238847   1.357   4.692   9.803 -2.3364  0.5455 -2.5523
 9072SOL     OW38848   2.245   0.627   7.003  0.7556  0.6039 -0.0579
 9072SOL    HW138849   2.262   0.720   7.012  0.2357  0.3937  3.1437
 9072SOL    HW238850   2.279   0.589   7.084  2.5490 -1.9031 -1.9486
 9073SOL     OW38851   1.042   4.158   7.820 -0.0412  0.4063 -0.3528
 9073SOL    HW138852   0.996   4.185   7.900  0.9735 -1.8646  1.0005
 9073SOL    HW238853   1.093   4.239   7.808 -1.0714  1.0554 -0.3630
 9074SOL     OW38854   3.578   1.619   2.014  0.2998 -0.5160  0.0239
 9074SOL    HW138855   3.614   1.646   1.929  1.0853  0.0358  0.5270
 9074SOL    HW238856   3.488   1.649   2.018  0.6386  0.4087  0.8755
 9075SOL     OW38857   3.691   4.013   6.090  0.4200 -0.4381 -0.0465
 9075SOL    HW138858   3.611   3.996   6.141 -0.6277 -0.4933 -1.7257
 9075SOL    HW238859   3.677   3.952   6.018 -1.2330 -0.4992  0.3270
 9076SOL     OW38860   2.066   4.033  11.902  0.6042  0.4035 -0.6177
 9076SOL    HW138861   2.084   4.074  11.987  0.7298 -2.0318  0.5334
 9076SOL    HW238862   2.004   3.967  11.932  1.2991  0.4254  0.8731
 9077SOL     OW38863   2.565   2.006   1.796  0.5459  0.0760 -0.8275
 9077SOL    HW138864   2.487   2.061   1.787  1.2140  0.8431 -1.9030
 9077SOL    HW238865   2.632   2.069   1.821  0.0068  0.0789  0.6260
 9078SOL     OW38866   3.419   2.062   1.960  0.3145 -0.4189  0.0032
 9078SOL    HW138867   3.492   2.072   2.022 -0.0034 -0.0487  0.3173
 9078SOL    HW238868   3.467   2.045   1.879  0.2689  3.1521 -0.7433
 9079SOL     OW38869   0.255   3.147   3.020 -0.1091  0.1575 -0.2059
 9079SOL    HW138870   0.208   3.088   3.079 -0.2410  0.5215  0.0558
 9079SOL    HW238871   0.272   3.095   2.942 -0.1168  0.3179 -0.3148
 9080SOL     OW38872   0.546   0.328  13.928 -0.8441  0.0830  0.8125
 9080SOL    HW138873   0.467   0.278  13.907 -2.2103  2.7554 -0.4228
 9080SOL    HW238874   0.563   0.284  14.011 -0.2139 -0.7849  0.2198
 9081SOL     OW38875   3.409   1.953  14.645 -0.1256  0.0042  0.5102
 9081SOL    HW138876   3.368   1.885  14.591 -0.7835 -2.1560  3.7558
 9081SOL    HW238877   3.335   2.014  14.646  0.1070  0.2297  2.4163
 9082SOL     OW38878   1.442   4.377  10.627  0.5989  0.1673 -0.0782
 9082SOL    HW138879   1.446   4.457  10.680 -0.1830  0.2533 -0.1420
 9082SOL    HW238880   1.533   4.364  10.600  0.1228  1.0287 -2.0903
 9083SOL     OW38881   0.364   3.990   3.458 -0.0810 -1.0771  0.6526
 9083SOL    HW138882   0.392   3.901   3.438  1.4326 -0.7452  1.3019
 9083SOL    HW238883   0.443   4.042   3.441 -0.2895 -0.7891  0.5724
 9084SOL     OW38884   1.254   3.248   3.949 -0.5398 -0.8517  0.1277
 9084SOL    HW138885   1.317   3.290   3.891 -2.7233  1.4787 -0.5878
 9084SOL    HW238886   1.291   3.160   3.958 -0.1485 -0.7764 -0.7509
 9085SOL     OW38887   4.026   4.362   3.173 -0.0082 -0.4598 -0.2579
 9085SOL    HW138888   3.974   4.428   3.219 -0.9461 -2.3079  1.3373
 9085SOL    HW238889   3.966   4.342   3.101  1.1033  0.2470 -1.3862
 9086SOL     OW38890   1.940   4.453   4.757  0.4862 -0.7843  0.0861
 9086SOL    HW138891   1.905   4.541   4.772  2.5631  0.2377 -1.1647
 9086SOL    HW238892   1.985   4.441   4.840  1.5538 -1.5438 -0.6032
 9087SOL     OW38893   4.216   0.344   8.003  0.3222  0.1295 -0.0518
 9087SOL    HW138894   4.203   0.390   7.921 -0.1646  0.7865  0.3952
 9087SOL    HW238895   4.194   0.415   8.063 -0.6190 -1.5712  1.6336
 9088SOL     OW38896   0.613   2.291   6.005 -0.1633  0.3319 -0.3324
 9088SOL    HW138897   0.548   2.345   5.961  0.7057  2.2586  0.7784
 9088SOL    HW238898   0.628   2.353   6.076  1.2769  0.0983 -0.4285
 9089SOL     OW38899   3.638   3.276   6.311 -0.4212 -0.2138 -0.3966
 9089SOL    HW138900   3.693   3.318   6.245 -2.8740  1.3208 -1.4270
 9089SOL    HW238901   3.646   3.184   6.285 -0.5340 -0.3621  0.1104
 9090SOL     OW38902   3.198   3.149   2.397  0.6037 -0.3061  0.4539
 9090SOL    HW138903   3.196   3.244   2.410 -1.6352 -0.1819 -0.8384
 9090SOL    HW238904   3.108   3.134   2.369  1.2159 -2.7297 -0.2457
 9091SOL     OW38905   2.326   1.285   9.639 -0.0959 -0.2474  0.0865
 9091SOL    HW138906   2.380   1.362   9.654  1.8809 -1.8183  1.0404
 9091SOL    HW238907   2.337   1.230   9.716 -0.7986 -0.8688 -0.2557
 9092SOL     OW38908   2.295   1.279  10.099  0.3506  0.0534 -0.0168
 9092SOL    HW138909   2.256   1.241  10.178  0.7623  0.3805  0.3429
 9092SOL    HW238910   2.387   1.289  10.126  0.1130  0.3529  0.6656
 9093SOL     OW38911   2.355   3.343   5.334 -0.7911  0.1978  1.0607
 9093SOL    HW138912   2.265   3.335   5.365 -1.1977  0.8344  0.0649
 9093SOL    HW238913   2.365   3.437   5.314  1.4052 -0.1489  0.5673
 9094SOL     OW38914   2.534   3.548   7.332  0.0009  0.0722 -0.3033
 9094SOL    HW138915   2.523   3.601   7.411  3.2829  0.3874 -0.0408
 9094SOL    HW238916   2.479   3.473   7.352  0.2764  0.1461  0.7402
 9095SOL     OW38917   0.275   1.609  11.586 -0.2852 -0.3493  0.0760
 9095SOL    HW138918   0.337   1.657  11.640 -1.6509  3.3144 -1.5926
 9095SOL    HW238919   0.247   1.680  11.528  1.1919  0.2398  0.1058
 9096SOL     OW38920   0.421   1.352   7.069  0.5763 -0.3272 -0.9508
 9096SOL    HW138921   0.478   1.425   7.042 -2.6446  1.7647 -2.0889
 9096SOL    HW238922   0.338   1.375   7.028  0.7371  2.7858  0.4420
 9097SOL     OW38923   3.738   1.143   7.108  0.5935 -0.0367 -0.3142
 9097SOL    HW138924   3.719   1.112   7.019  1.3850 -0.9294 -0.1759
 9097SOL    HW238925   3.661   1.194   7.131  2.1748  2.5556 -0.8433
 9098SOL     OW38926   4.036   1.022   2.590  0.5692  0.0182 -0.6081
 9098SOL    HW138927   3.969   1.037   2.524 -0.6952 -0.5235  0.5393
 9098SOL    HW238928   4.104   0.991   2.530  0.1337 -1.7627 -0.1812
 9099SOL     OW38929   1.218   3.497  16.878  0.3036 -0.0029  0.0386
 9099SOL    HW138930   1.235   3.517  16.970 -0.5258 -2.3522  0.7077
 9099SOL    HW238931   1.305   3.499  16.838 -0.2240 -0.9153 -1.1748
 9100SOL     OW38932   2.136   3.293   9.949 -0.0646  0.3017  0.1774
 9100SOL    HW138933   2.110   3.201   9.953  1.4863 -0.1952 -1.0898
 9100SOL    HW238934   2.086   3.309   9.868  1.8351 -0.1659 -1.0828
 9101SOL     OW38935   4.721   0.277   6.607  0.6192  0.3438  0.0076
 9101SOL    HW138936   0.059   0.251   6.554 -0.6801 -2.2615 -0.5671
 9101SOL    HW238937   4.714   0.193   6.652 -0.6022  0.3909 -0.0693
 9102SOL     OW38938   2.565   1.912   5.537 -0.3325  0.5931  0.3825
 9102SOL    HW138939   2.501   1.964   5.490 -0.3230 -0.6598 -1.0152
 9102SOL    HW238940   2.647   1.936   5.495 -1.4601  0.4000 -1.8764
 9103SOL     OW38941   3.376   2.703  14.269 -0.4262 -0.1198 -0.0676
 9103SOL    HW138942   3.399   2.652  14.346  0.1157 -1.5626 -1.1775
 9103SOL    HW238943   3.281   2.693  14.271 -0.2573 -0.7826  3.8191
 9104SOL     OW38944   4.600   1.882   7.627  0.0792 -0.3859 -0.3099
 9104SOL    HW138945   4.689   1.846   7.626  0.8765  1.5465  0.0520
 9104SOL    HW238946   4.570   1.845   7.544 -0.1451  3.1481 -1.7971
 9105SOL     OW38947   3.453   0.260   7.054 -0.1972  0.2606  0.1355
 9105SOL    HW138948   3.418   0.247   6.966  1.7028  1.7492 -0.8304
 9105SOL    HW238949   3.537   0.299   7.033 -0.1412 -0.5900 -1.1548
 9106SOL     OW38950   2.922   3.764   2.420 -0.3679  0.3037 -0.1086
 9106SOL    HW138951   2.883   3.771   2.508 -2.1543 -1.4367 -0.7526
 9106SOL    HW238952   2.862   3.706   2.373 -0.1139 -0.1400  0.1170
 9107SOL     OW38953   2.560   1.644   4.047  0.5955 -0.4843  0.1566
 9107SOL    HW138954   2.526   1.731   4.026  1.8719  0.3694  1.7101
 9107SOL    HW238955   2.490   1.592   4.088 -0.9605  1.0804 -0.4996
 9108SOL     OW38956   3.035   1.745  10.386  0.6841  0.1529 -0.6551
 9108SOL    HW138957   2.951   1.788  10.400  0.9967  0.7939 -0.7478
 9108SOL    HW238958   3.087   1.821  10.358  1.9889 -0.2083  0.8101
 9109SOL     OW38959   4.234   0.769   9.478  0.0247  0.1734 -0.0138
 9109SOL    HW138960   4.223   0.763   9.573 -2.4539  2.4902 -0.1742
 9109SOL    HW238961   4.282   0.687   9.462 -0.1350 -0.0579  0.6748
 9110SOL     OW38962   2.734   0.741   1.329 -0.7667 -0.0889  0.3102
 9110SOL    HW138963   2.818   0.734   1.284 -0.3235 -0.6902  1.2257
 9110SOL    HW238964   2.749   0.822   1.377 -0.9398 -0.1465  0.4641
 9111SOL     OW38965   4.124   1.932  15.480  0.2062  1.0316 -0.2332
 9111SOL    HW138966   4.149   2.012  15.526  0.3037  0.6911  0.3002
 9111SOL    HW238967   4.198   1.871  15.477 -0.2257  0.4794  0.4027
 9112SOL     OW38968   2.469   1.377   5.819 -0.0036  0.5384  0.0256
 9112SOL    HW138969   2.532   1.450   5.820  1.0001 -0.3445  2.5671
 9112SOL    HW238970   2.385   1.422   5.817  0.0833  0.6529 -0.9125
 9113SOL     OW38971   3.152   3.305  17.633 -0.1625  0.0224 -0.2727
 9113SOL    HW138972   3.148   3.297  17.538 -0.8236 -2.0606 -0.0677
 9113SOL    HW238973   3.102   3.228  17.660 -1.3766  0.3858 -1.5618
 9114SOL     OW38974   1.201   3.973   8.604 -0.1215  0.3165  0.8518
 9114SOL    HW138975   1.236   3.902   8.659  1.8722 -0.5047 -1.4655
 9114SOL    HW238976   1.246   3.949   8.523 -0.2187  0.4955  0.7471
 9115SOL     OW38977   2.025   0.030   8.714 -0.1286  0.0419 -0.1830
 9115SOL    HW138978   2.086   4.695   8.726 -1.6915 -1.2686 -0.0800
 9115SOL    HW238979   2.080   0.104   8.740 -2.2521  1.3029  0.8133
 9116SOL     OW38980   2.122   1.197  11.927  0.1603 -0.3332 -0.1341
 9116SOL    HW138981   2.132   1.269  11.990  0.1263 -1.5629  1.2818
 9116SOL    HW238982   2.087   1.129  11.985 -0.6255 -0.1890 -0.4390
 9117SOL     OW38983   0.113   2.432   1.603  0.2864 -0.3775  0.0648
 9117SOL    HW138984   0.182   2.453   1.541 -2.5045  2.0231 -2.2658
 9117SOL    HW238985   0.060   2.507   1.576  0.4955 -0.0814  0.4691
 9118SOL     OW38986   4.474   2.363   8.075 -0.0770 -0.5643  0.1683
 9118SOL    HW138987   4.537   2.400   8.137 -0.6631 -0.3256  0.6178
 9118SOL    HW238988   4.410   2.322   8.133  0.1758  0.5344  1.2161
 9119SOL     OW38989   1.670   3.956  16.536  0.0962  0.3686  0.2619
 9119SOL    HW138990   1.612   4.032  16.531 -1.8407 -1.2400 -1.8434
 9119SOL    HW238991   1.744   3.993  16.487  1.0653  1.0362  2.2446
 9120SOL     OW38992   2.680   1.222   1.358  0.2225 -0.5758  0.1390
 9120SOL    HW138993   2.738   1.220   1.281  0.8968 -2.4922  0.7084
 9120SOL    HW238994   2.719   1.149   1.406 -1.8168 -2.4149 -1.0107
 9121SOL     OW38995   0.063   3.862   7.627  0.0074  0.5759 -0.6444
 9121SOL    HW138996   0.149   3.843   7.663  0.2598  0.8368 -1.1079
 9121SOL    HW238997   0.079   3.951   7.596 -1.5714  0.6815 -1.1883
 9122SOL     OW38998   1.517   4.636  16.856  0.4620  0.1289  0.2491
 9122SOL    HW138999   1.585   4.571  16.837  1.0300  0.9172 -0.4402
 9122SOL    HW239000   1.482   4.614  16.942  1.5869 -0.0410  0.6720
 9123SOL     OW39001   1.119   3.459  15.911 -0.5007 -0.1030 -0.5615
 9123SOL    HW139002   1.205   3.498  15.895 -0.3384 -0.2176  0.0262
 9123SOL    HW239003   1.112   3.486  16.003  0.9934 -1.2933 -0.1061
 9124SOL     OW39004   3.442   3.655  15.411  0.1443  0.3990 -0.1537
 9124SOL    HW139005   3.493   3.626  15.487  0.9870  0.0557 -0.8454
 9124SOL    HW239006   3.358   3.630  15.449  0.3663 -0.9967 -0.5878
 9125SOL     OW39007   1.432   3.886  16.125 -0.4057  0.3732 -0.2706
 9125SOL    HW139008   1.354   3.877  16.070 -1.2355  0.1149  0.9266
 9125SOL    HW239009   1.430   3.975  16.162 -1.8469  1.1022 -2.0740
 9126SOL     OW39010   2.925   2.963   2.838 -0.4274 -0.1973  0.1484
 9126SOL    HW139011   2.953   2.932   2.924 -2.1643 -1.6075  0.2058
 9126SOL    HW239012   2.876   2.889   2.800 -1.7323  1.2239 -0.9064
 9127SOL     OW39013   1.765   3.444   3.504 -0.3075 -0.0251 -0.0751
 9127SOL    HW139014   1.802   3.385   3.570  0.6121 -1.1987 -1.6538
 9127SOL    HW239015   1.677   3.410   3.485  0.4963 -0.1549 -3.6205
 9128SOL     OW39016   3.090   4.706   5.880 -0.4948 -0.6556  0.2542
 9128SOL    HW139017   3.030   4.642   5.844 -1.6202  2.1834 -2.9377
 9128SOL    HW239018   3.099   4.672   5.969  0.1808 -1.6180 -0.1838
 9129SOL     OW39019   3.051   0.834  15.266 -0.6804 -0.1438 -0.2755
 9129SOL    HW139020   3.053   0.863  15.175 -1.9128  1.7564  0.3097
 9129SOL    HW239021   3.005   0.750  15.259  2.3889 -1.8020 -0.6569
 9130SOL     OW39022   4.224   2.064   9.170  0.3132  0.0112 -0.0484
 9130SOL    HW139023   4.166   2.093   9.240  0.9392 -1.3675  1.0359
 9130SOL    HW239024   4.221   1.968   9.171  1.2074 -0.0219 -0.6588
 9131SOL     OW39025   4.235   3.156   9.305  0.0289 -0.3670  0.1060
 9131SOL    HW139026   4.233   3.082   9.365  1.1649 -1.5778 -1.3758
 9131SOL    HW239027   4.145   3.190   9.310  0.7458  1.8009 -1.5307
 9132SOL     OW39028   3.216   0.985   0.434  0.0483 -0.1767  0.4598
 9132SOL    HW139029   3.123   0.969   0.448  0.2802 -1.1880  0.8697
 9132SOL    HW239030   3.214   0.989   0.338 -1.1057  2.4534  0.5929
 9133SOL     OW39031   0.408   4.516   5.920  0.0514  0.0191  0.5588
 9133SOL    HW139032   0.320   4.501   5.884 -0.2816  2.2819  0.4336
 9133SOL    HW239033   0.451   4.560   5.847 -1.3457  0.5026  0.0309
 9134SOL     OW39034   4.025   0.993   1.715  0.5395  0.3270 -0.4039
 9134SOL    HW139035   4.008   1.044   1.636  1.0974 -1.0075 -1.3902
 9134SOL    HW239036   3.944   0.941   1.719  0.2813  0.8328  1.1231
 9135SOL     OW39037   3.236   0.476   1.267  0.4581 -0.3008  0.1305
 9135SOL    HW139038   3.254   0.560   1.224  0.1731 -0.4479 -0.2753
 9135SOL    HW239039   3.326   0.449   1.289  1.3543  0.8153 -2.1387
 9136SOL     OW39040   1.042   1.702   5.646 -0.0288  0.0926 -0.2987
 9136SOL    HW139041   0.994   1.655   5.578  1.4691 -0.4957 -0.9596
 9136SOL    HW239042   0.979   1.748   5.702  2.0870  1.8886  0.5742
 9137SOL     OW39043   3.388   0.412   5.013  0.0946 -0.2867 -0.0886
 9137SOL    HW139044   3.466   0.434   4.962  0.0995  1.0077  0.4639
 9137SOL    HW239045   3.324   0.453   4.955  0.8600 -0.8422 -1.3110
 9138SOL     OW39046   1.144   1.923  11.816 -0.0734 -0.2152 -0.2645
 9138SOL    HW139047   1.232   1.958  11.830 -0.1956  0.8244 -2.1105
 9138SOL    HW239048   1.082   1.989  11.846 -0.6822 -1.4720  1.2400
 9139SOL     OW39049   3.123   0.784  12.146 -0.5219 -0.4326 -0.7439
 9139SOL    HW139050   3.176   0.863  12.161 -0.5677 -0.4843 -0.3220
 9139SOL    HW239051   3.060   0.787  12.218 -0.3025  1.9660 -0.6447
 9140SOL     OW39052   4.027   2.813   9.274 -0.2654 -0.6385  0.0313
 9140SOL    HW139053   4.104   2.845   9.321 -2.2448  3.5923  0.4419
 9140SOL    HW239054   4.023   2.722   9.303 -0.0078 -0.0647  1.8892
 9141SOL     OW39055   0.849   3.545   5.131  0.1333 -0.0858 -0.4828
 9141SOL    HW139056   0.782   3.610   5.109 -1.2172 -0.4547  2.5746
 9141SOL    HW239057   0.803   3.461   5.132  0.1119 -0.0893 -1.2740
 9142SOL     OW39058   0.014   4.671   7.412 -0.0182  0.0861 -0.0904
 9142SOL    HW139059   0.010   4.578   7.388  1.4632  0.0211 -0.1158
 9142SOL    HW239060   4.723   4.664   7.503  2.2504 -1.2749  0.5011
 9143SOL     OW39061   1.532   3.466   2.325  0.2259 -0.3950 -0.0983
 9143SOL    HW139062   1.605   3.414   2.292  1.1096  0.9337 -0.2330
 9143SOL    HW239063   1.504   3.403   2.391 -0.8524  0.0702 -0.1082
 9144SOL     OW39064   2.138   3.605   5.648 -0.2306 -0.0224 -0.1297
 9144SOL    HW139065   2.150   3.515   5.679 -2.1489 -0.1770  0.1749
 9144SOL    HW239066   2.101   3.601   5.559 -0.5630 -0.9251  0.0460
 9145SOL     OW39067   3.882   0.748   9.847 -0.2818 -0.6074 -0.5461
 9145SOL    HW139068   3.880   0.652   9.857 -0.2391 -0.8217 -2.4656
 9145SOL    HW239069   3.894   0.773   9.938  1.2784  0.1881 -0.9680
 9146SOL     OW39070   0.847   2.125   2.757  0.2840  0.8878  0.3542
 9146SOL    HW139071   0.800   2.048   2.790  0.3026  1.0662  0.8051
 9146SOL    HW239072   0.933   2.112   2.796  1.6570  1.9499 -2.3388
 9147SOL     OW39073   3.558   3.117   8.705  0.0628  0.0583 -0.6232
 9147SOL    HW139074   3.565   3.028   8.670  0.7091 -0.3746  0.6014
 9147SOL    HW239075   3.463   3.118   8.720  0.1696  2.0047 -0.1971
 9148SOL     OW39076   2.549   3.621  16.757 -0.0272 -0.2314 -0.0508
 9148SOL    HW139077   2.527   3.652  16.845  2.7691  1.6317 -0.0243
 9148SOL    HW239078   2.617   3.555  16.771  2.4349  2.5492  1.0635
 9149SOL     OW39079   3.539   1.307   0.980 -0.5081  0.2953  0.2943
 9149SOL    HW139080   3.490   1.369   1.034 -0.2407  0.1612  0.6849
 9149SOL    HW239081   3.585   1.253   1.044 -0.7797 -0.8549 -0.4782
 9150SOL     OW39082   2.277   0.245   0.203 -0.0600  0.0649 -0.0101
 9150SOL    HW139083   2.280   0.323   0.258 -1.8422  0.5761 -0.6409
 9150SOL    HW239084   2.248   0.276   0.117 -1.9628 -0.6099  0.4040
 9151SOL     OW39085   1.363   3.972   7.276  0.7753  0.3575  0.0227
 9151SOL    HW139086   1.424   3.986   7.204 -1.4135  0.0429 -1.9252
 9151SOL    HW239087   1.275   3.984   7.240  0.6685  0.8398  0.4404
 9152SOL     OW39088   2.348   2.763   5.077  0.2097  0.1189 -0.0719
 9152SOL    HW139089   2.328   2.805   5.161  0.6901 -0.4553  0.3329
 9152SOL    HW239090   2.440   2.737   5.089  0.4587  0.7641 -0.5865
 9153SOL     OW39091   0.842   1.814  10.277 -0.1217  0.1809 -0.1717
 9153SOL    HW139092   0.894   1.815  10.197 -0.2005 -2.7104 -0.2518
 9153SOL    HW239093   0.750   1.819  10.253 -0.1172 -2.4970 -0.7926
 9154SOL     OW39094   4.599   4.374   8.070 -0.0261  0.5548  0.5440
 9154SOL    HW139095   4.694   4.369   8.069 -0.1707 -1.6337 -1.5089
 9154SOL    HW239096   4.584   4.287   8.108  1.9376  0.1381  0.3343
 9155SOL     OW39097   1.382   3.284   1.114  0.3270 -0.6501 -0.1178
 9155SOL    HW139098   1.443   3.286   1.039 -1.1861 -1.1593 -1.3625
 9155SOL    HW239099   1.380   3.193   1.144 -2.8726 -0.6989 -0.5056
 9156SOL     OW39100   0.484   1.421  13.710 -0.0546  0.5854  0.5787
 9156SOL    HW139101   0.443   1.343  13.674 -1.2591  0.5061  2.1085
 9156SOL    HW239102   0.463   1.488  13.645 -2.6491  0.6268  1.4397
 9157SOL     OW39103   4.108   2.458   8.206  0.3702  0.1808  0.7292
 9157SOL    HW139104   4.122   2.520   8.278  0.8690 -0.7143  1.4016
 9157SOL    HW239105   4.037   2.502   8.159  0.7667  0.1917  0.1517
 9158SOL     OW39106   3.805   2.662  17.300  0.3169 -0.9429  0.2341
 9158SOL    HW139107   3.730   2.673  17.242 -0.2748  0.2087  1.2076
 9158SOL    HW239108   3.849   2.747  17.290 -0.5680 -0.6064 -0.6464
 9159SOL     OW39109   0.869   1.559  15.856  0.0272  0.1374 -0.4685
 9159SOL    HW139110   0.899   1.509  15.780  2.1355 -0.0541  0.4806
 9159SOL    HW239111   0.957   1.580  15.888 -0.3378  0.9792 -0.0074
 9160SOL     OW39112   3.979   0.876  10.326  0.5103 -0.6062 -0.1591
 9160SOL    HW139113   4.051   0.876  10.389 -0.4130 -0.1280  0.8914
 9160SOL    HW239114   3.905   0.895  10.384 -0.2867  1.3136 -1.8161
 9161SOL     OW39115   3.524   1.250   8.466 -0.4455 -0.2168  0.2110
 9161SOL    HW139116   3.558   1.166   8.495  1.1547 -0.2001 -1.5589
 9161SOL    HW239117   3.554   1.306   8.538 -2.0327  0.1531  0.5935
 9162SOL     OW39118   3.651   1.756   1.781 -0.1413  0.4781  0.1820
 9162SOL    HW139119   3.717   1.809   1.826 -1.5729  0.2778  2.5125
 9162SOL    HW239120   3.633   1.799   1.697 -1.9142 -0.3622  0.1370
 9163SOL     OW39121   4.043   2.982  13.411  0.6456 -0.5909 -0.4619
 9163SOL    HW139122   4.111   2.945  13.355  0.3321 -1.7458 -0.0662
 9163SOL    HW239123   4.083   3.045  13.471  0.3606 -1.5128  0.7029
 9164SOL     OW39124   0.259   1.261   9.435  0.2661 -0.0632  1.3322
 9164SOL    HW139125   0.230   1.177   9.399  0.1462  1.2940 -1.7204
 9164SOL    HW239126   0.184   1.314   9.407  2.5517  1.6998 -1.4593
 9165SOL     OW39127   2.870   2.893   4.471 -0.2304 -0.2060 -0.1360
 9165SOL    HW139128   2.877   2.886   4.375 -0.6759  0.2978 -0.2042
 9165SOL    HW239129   2.959   2.917   4.497 -0.2631 -0.1410 -0.0839
 9166SOL     OW39130   1.573   1.333  10.200  0.8739  0.5391 -0.2695
 9166SOL    HW139131   1.654   1.319  10.150  1.5033  1.6494  0.4603
 9166SOL    HW239132   1.613   1.337  10.286  1.3334 -0.0552 -0.4514
 9167SOL     OW39133   1.968   3.440   8.118  0.3443  0.2556 -0.2356
 9167SOL    HW139134   1.980   3.447   8.213 -2.2803  1.1675  0.0302
 9167SOL    HW239135   1.991   3.349   8.096 -1.5396 -0.3820  0.4553
 9168SOL     OW39136   0.489   2.877   3.628  0.2472 -0.2067 -0.1072
 9168SOL    HW139137   0.471   2.784   3.616 -1.8665  0.0248  1.3468
 9168SOL    HW239138   0.585   2.886   3.632  0.2874 -1.2123  1.1521
 9169SOL     OW39139   4.414   2.594   2.978  0.3592 -0.4238 -0.2990
 9169SOL    HW139140   4.489   2.638   2.937  0.4363 -0.7951 -0.5597
 9169SOL    HW239141   4.419   2.639   3.062  0.6348 -0.3567 -0.3529
 9170SOL     OW39142   4.479   3.544   7.166 -0.8592  0.4349  0.5167
 9170SOL    HW139143   4.489   3.507   7.078  0.9461  1.3558  0.3245
 9170SOL    HW239144   4.417   3.474   7.185  0.1512 -0.3526  0.9129
 9171SOL     OW39145   2.952   4.338  15.372 -0.3679 -0.4027 -0.5123
 9171SOL    HW139146   2.863   4.368  15.387 -0.4434 -2.1569  2.5606
 9171SOL    HW239147   2.952   4.302  15.284 -3.2163 -1.5650 -0.0250
 9172SOL     OW39148   2.865   4.651   6.742 -0.1655 -0.0509 -0.1930
 9172SOL    HW139149   2.780   4.695   6.742  1.6391  3.5037 -1.4105
 9172SOL    HW239150   2.885   4.656   6.835 -0.0177 -0.8336 -0.1796
 9173SOL     OW39151   0.288   3.634   8.615 -0.5734 -0.2783  0.1661
 9173SOL    HW139152   0.327   3.690   8.549  0.3419 -0.3619  0.6430
 9173SOL    HW239153   0.360   3.573   8.632 -1.6213 -1.3996  0.6159
 9174SOL     OW39154   0.732   0.938   7.372  0.0579 -0.0297  0.4885
 9174SOL    HW139155   0.712   1.028   7.397 -0.3917 -0.0016  0.0034
 9174SOL    HW239156   0.809   0.945   7.316  0.7709 -0.8507  1.3598
 9175SOL     OW39157   0.661   4.029   4.397  0.1036 -0.1322  0.0634
 9175SOL    HW139158   0.744   4.057   4.361 -0.6424 -1.0024 -2.3022
 9175SOL    HW239159   0.670   4.052   4.490 -1.1949 -2.0396  0.6868
 9176SOL     OW39160   3.617   2.862   2.411 -0.2184  0.2728 -0.5040
 9176SOL    HW139161   3.628   2.929   2.344 -0.3288 -0.3540 -1.1393
 9176SOL    HW239162   3.554   2.922   2.450 -0.3812  0.2391 -0.7184
 9177SOL     OW39163   2.356   0.802   1.150  0.4588  0.0927 -0.0787
 9177SOL    HW139164   2.347   0.711   1.122  0.4157 -0.1619  0.7729
 9177SOL    HW239165   2.413   0.845   1.086  1.0219 -2.2872 -1.2066
 9178SOL     OW39166   2.896   4.133   9.586 -0.1139  0.3736  0.2190
 9178SOL    HW139167   2.901   4.048   9.630  2.9638  1.0298  1.1107
 9178SOL    HW239168   2.939   4.192   9.648  1.7088  0.9768 -1.6179
 9179SOL     OW39169   4.591   1.456  12.169 -0.0797  0.7833  0.0205
 9179SOL    HW139170   4.540   1.533  12.143  0.0501  0.9129  0.1440
 9179SOL    HW239171   4.544   1.420  12.244  1.0486  0.9356  0.8181
 9180SOL     OW39172   0.441   0.091   5.904 -0.1611  0.5806 -0.2988
 9180SOL    HW139173   0.519   0.057   5.947  1.1214  0.6895 -2.5630
 9180SOL    HW239174   0.474   0.084   5.814  0.3716 -1.0484  0.0223
 9181SOL     OW39175   0.183   0.488   2.883 -0.1091 -0.3980 -0.1887
 9181SOL    HW139176   0.136   0.550   2.826 -1.2357 -0.6774  0.4258
 9181SOL    HW239177   0.229   0.550   2.939  1.5346 -0.0794 -1.8851
 9182SOL     OW39178   1.956   1.055   9.014 -0.5133 -0.1591  0.3550
 9182SOL    HW139179   1.900   0.977   9.018  0.1264 -0.5642  1.4929
 9182SOL    HW239180   2.014   1.025   9.084 -0.0499 -0.3613 -0.1093
 9183SOL     OW39181   1.266   3.730   0.954  0.1355 -0.1817  0.2033
 9183SOL    HW139182   1.355   3.697   0.962 -0.6189 -2.1340  0.6733
 9183SOL    HW239183   1.234   3.652   0.908  0.4049 -0.3881  0.3651
 9184SOL     OW39184   3.135   1.618   5.652 -0.0994  0.0096  0.1176
 9184SOL    HW139185   3.210   1.657   5.698 -0.9697 -1.1084  2.4930
 9184SOL    HW239186   3.068   1.659   5.706 -2.0248 -0.8481 -1.6523
 9185SOL     OW39187   3.698   1.199   1.161  0.2044 -0.0572  0.4257
 9185SOL    HW139188   3.731   1.151   1.084 -1.1860 -2.3371  1.2549
 9185SOL    HW239189   3.778   1.245   1.186  1.5383 -1.4922 -1.1792
 9186SOL     OW39190   2.133   1.028   9.235 -0.3368 -0.6949  0.1407
 9186SOL    HW139191   2.191   1.081   9.288 -2.4811  1.0786  0.7294
 9186SOL    HW239192   2.093   0.977   9.306  1.3838  0.4317  1.9025
 9187SOL     OW39193   3.737   1.161   4.508  0.3285  0.5310 -0.1207
 9187SOL    HW139194   3.773   1.126   4.426  0.5783 -2.1465  1.1338
 9187SOL    HW239195   3.744   1.256   4.498 -0.5981  0.6946  0.8728
 9188SOL     OW39196   0.049   1.557   7.184 -0.0257  0.9615  0.2383
 9188SOL    HW139197   0.051   1.637   7.237  0.2117  0.5779  0.8131
 9188SOL    HW239198   0.073   1.495   7.253  4.5654  2.0800 -0.3473
 9189SOL     OW39199   3.800   3.383   9.059 -0.2349 -0.4670 -0.2080
 9189SOL    HW139200   3.885   3.348   9.086 -0.4472  1.4122  2.8679
 9189SOL    HW239201   3.791   3.321   8.987 -0.4881 -0.3402 -0.2835
 9190SOL     OW39202   2.558   2.557   9.202 -0.8085 -0.2709 -0.1554
 9190SOL    HW139203   2.559   2.591   9.291 -1.0451 -0.3366 -0.1280
 9190SOL    HW239204   2.648   2.553   9.169 -0.2407 -1.1352  1.4983
 9191SOL     OW39205   1.553   1.926   8.701  0.5878  0.3810  0.2562
 9191SOL    HW139206   1.484   1.860   8.695 -0.7926  1.6684  2.0542
 9191SOL    HW239207   1.568   1.951   8.610  0.1397 -0.4888 -0.0573
 9192SOL     OW39208   3.869   0.486  12.010  0.3224  0.3811 -0.3122
 9192SOL    HW139209   3.864   0.508  12.103 -2.9086 -0.1462 -0.3508
 9192SOL    HW239210   3.777   0.464  11.997  0.2316  1.0813 -0.9151
 9193SOL     OW39211   2.976   3.515   6.525  0.0673 -0.0972 -0.3158
 9193SOL    HW139212   2.984   3.590   6.583  2.2268 -0.4844 -0.1391
 9193SOL    HW239213   3.056   3.464   6.538  0.5124  0.4907 -0.7746
 9194SOL     OW39214   4.497   0.950   0.772  0.3597  0.0314 -0.1098
 9194SOL    HW139215   4.503   1.006   0.849  1.3401 -0.1241 -0.0647
 9194SOL    HW239216   4.591   0.941   0.754  0.3240 -1.8950  0.6468
 9195SOL     OW39217   4.043   1.956  13.777  0.0579  0.2761 -0.0142
 9195SOL    HW139218   4.042   1.890  13.707 -0.0387 -0.9498  1.1340
 9195SOL    HW239219   3.969   1.917  13.823  1.7462 -3.0522 -0.1130
 9196SOL     OW39220   0.123   4.625   7.013  0.1919  0.3126 -0.6237
 9196SOL    HW139221   0.031   4.601   7.022  0.3133  0.0168 -0.1441
 9196SOL    HW239222   0.125   4.689   6.942 -0.8968  0.0723 -0.8759
 9197SOL     OW39223   1.212   3.991  16.599 -0.8811 -0.0489  0.4796
 9197SOL    HW139224   1.192   3.907  16.640 -0.4260  0.9396  2.7045
 9197SOL    HW239225   1.130   3.999  16.549 -0.9586 -0.9500  0.4613
 9198SOL     OW39226   3.560   0.303   1.789 -0.3945  0.1652 -0.3724
 9198SOL    HW139227   3.640   0.280   1.836 -0.4383 -1.9211 -1.3325
 9198SOL    HW239228   3.557   0.233   1.724  0.9711 -2.1657  2.0800
 9199SOL     OW39229   3.963   0.958   4.043  0.5686  0.1828 -0.1146
 9199SOL    HW139230   3.996   1.036   3.998  0.2918  0.8253  0.7878
 9199SOL    HW239231   4.046   0.917   4.069  1.3600  2.2971  0.7626
 9200SOL     OW39232   0.721   3.602   6.366 -0.4886  0.0018 -0.0666
 9200SOL    HW139233   0.797   3.581   6.311  0.8179  0.8945  1.4136
 9200SOL    HW239234   0.649   3.597   6.303 -0.9535 -1.6876  0.5979
 9201SOL     OW39235   1.488   0.636   8.546 -0.0870 -0.1290 -0.8921
 9201SOL    HW139236   1.558   0.573   8.564  1.0110  1.1451 -0.7044
 9201SOL    HW239237   1.493   0.691   8.624 -1.5338  0.6704 -1.3728
 9202SOL     OW39238   4.344   2.843   5.309 -0.2898  0.1054 -0.0436
 9202SOL    HW139239   4.356   2.907   5.239 -2.8459 -1.5927 -2.0324
 9202SOL    HW239240   4.348   2.760   5.262 -0.4135  0.8616 -1.3820
 9203SOL     OW39241   4.017   2.950  10.666  0.2704 -0.1786 -0.2384
 9203SOL    HW139242   4.067   2.993  10.735  1.3659 -0.4116 -0.8811
 9203SOL    HW239243   4.018   3.013  10.594 -0.6450  0.7409  0.5563
 9204SOL     OW39244   2.904   2.486  14.788  0.5389 -0.4234  0.0283
 9204SOL    HW139245   2.842   2.418  14.817 -1.9222  1.3064 -1.2466
 9204SOL    HW239246   2.924   2.523  14.875  2.4399 -0.7376 -0.2695
 9205SOL     OW39247   4.472   3.413   7.604  0.2144 -0.1522 -0.3660
 9205SOL    HW139248   4.530   3.486   7.628  1.6354 -1.0407 -1.1121
 9205SOL    HW239249   4.418   3.437   7.529  2.3488 -0.8274 -2.1069
 9206SOL     OW39250   1.444   3.253   8.716  0.1984 -0.3939 -0.2432
 9206SOL    HW139251   1.518   3.276   8.659  0.0911  0.1757 -0.1525
 9206SOL    HW239252   1.449   3.162   8.686  0.4492  0.2859 -2.2623
 9207SOL     OW39253   0.073   3.857   8.437 -0.1927  0.5690  0.3226
 9207SOL    HW139254   0.084   3.786   8.374  2.2046  1.0022  0.2500
 9207SOL    HW239255   0.120   3.812   8.507 -0.0462  1.0051  0.5025
 9208SOL     OW39256   1.702   3.689   4.347  0.1823 -0.2870  0.3610
 9208SOL    HW139257   1.659   3.684   4.261  1.5506  2.3133 -0.4975
 9208SOL    HW239258   1.686   3.603   4.384 -2.8093 -0.7628 -2.0648
 9209SOL     OW39259   3.557   0.425   0.518  0.0399 -0.3600  0.2363
 9209SOL    HW139260   3.573   0.396   0.429 -0.6592  3.1321 -1.0289
 9209SOL    HW239261   3.465   0.451   0.519  0.5400  1.3894  3.0653
 9210SOL     OW39262   3.886   3.268   8.144  0.7050  0.0643  0.0501
 9210SOL    HW139263   3.939   3.346   8.160 -0.5319  1.0748 -0.7528
 9210SOL    HW239264   3.953   3.221   8.095  1.6464  1.8008 -0.3502
 9211SOL     OW39265   1.698   1.277   6.650 -0.4092 -0.9162  0.2187
 9211SOL    HW139266   1.652   1.205   6.694 -0.0917 -1.0375  0.3515
 9211SOL    HW239267   1.785   1.238   6.642 -0.6592 -1.6601  1.0428
 9212SOL     OW39268   0.510   3.487   6.164  0.0344 -0.1005 -0.0476
 9212SOL    HW139269   0.578   3.480   6.098  0.7896  0.5195  0.6681
 9212SOL    HW239270   0.448   3.543   6.117 -1.2462  0.0661  1.7804
 9213SOL     OW39271   4.335   4.596   6.520  0.6498 -0.3201 -0.3577
 9213SOL    HW139272   4.263   4.533   6.518  0.6246 -0.3518  1.3169
 9213SOL    HW239273   4.356   4.591   6.613 -3.2612  1.1753  0.5687
 9214SOL     OW39274   3.886   0.459   2.090 -0.2562  0.5426 -0.2517
 9214SOL    HW139275   3.802   0.503   2.078 -1.2983 -1.5157 -0.5233
 9214SOL    HW239276   3.885   0.373   2.048 -1.3850 -0.3224  1.5450
 9215SOL     OW39277   4.374   3.067   7.006  0.6742  0.2752 -0.4035
 9215SOL    HW139278   4.375   3.030   7.094  0.2634 -2.4753 -1.5480
 9215SOL    HW239279   4.307   3.134   7.021  1.3717  0.6534  0.9597
 9216SOL     OW39280   2.982   0.072   7.683  0.1786  0.3021 -0.3092
 9216SOL    HW139281   3.001   0.108   7.769  0.1070  2.0384 -1.0232
 9216SOL    HW239282   2.964   0.147   7.625 -2.0860 -0.9105 -1.2013
 9217SOL     OW39283   4.172   0.511   3.979  0.6463 -0.2318 -0.4144
 9217SOL    HW139284   4.112   0.560   4.035  1.3264  0.9497 -0.7169
 9217SOL    HW239285   4.126   0.427   3.990  0.1342  0.0413 -0.4779
 9218SOL     OW39286   3.883   4.367   8.161  0.0463 -0.2939  0.3677
 9218SOL    HW139287   3.849   4.374   8.072 -2.0406  0.2875  1.1939
 9218SOL    HW239288   3.804   4.373   8.215 -0.3821 -1.2349 -0.1490
 9219SOL     OW39289   3.593   2.048   3.960 -0.7144 -0.3949 -0.4670
 9219SOL    HW139290   3.628   2.132   3.989  0.7069 -0.6530 -1.4442
 9219SOL    HW239291   3.661   1.985   3.983  0.7636  1.1541 -0.6279
 9220SOL     OW39292   2.710   0.481   6.145  0.2203 -0.1240 -0.4142
 9220SOL    HW139293   2.785   0.428   6.173 -1.3697 -2.1624  0.0370
 9220SOL    HW239294   2.710   0.555   6.204 -0.7692  0.9482 -1.7742
 9221SOL     OW39295   0.249   2.766  10.652  0.5487 -0.5228 -0.3073
 9221SOL    HW139296   0.328   2.818  10.663 -0.3094  0.6712  0.2524
 9221SOL    HW239297   0.278   2.693  10.707  0.8861  1.1918  1.8120
 9222SOL     OW39298   1.283   1.193   5.946  0.1964 -0.7670  0.4560
 9222SOL    HW139299   1.354   1.131   5.929  0.5402  0.2369 -1.7285
 9222SOL    HW239300   1.329   1.273   5.970 -0.7975  0.7887 -2.8007
 9223SOL     OW39301   0.154   3.279  13.456  0.1242 -0.3159  0.1744
 9223SOL    HW139302   0.104   3.356  13.485 -1.0445 -1.9166  2.3704
 9223SOL    HW239303   0.091   3.210  13.477  0.1650 -0.0222  1.2454
 9224SOL     OW39304   3.901   1.002  10.096  0.9984  0.5910  0.1424
 9224SOL    HW139305   3.931   0.948  10.169  0.7385  0.3558  0.0740
 9224SOL    HW239306   3.857   1.079  10.133  2.2570  1.1198  0.5565
 9225SOL     OW39307   4.120   4.208   3.384 -0.1198 -0.1402 -0.2088
 9225SOL    HW139308   4.135   4.133   3.326  4.0197 -1.8640  3.1103
 9225SOL    HW239309   4.101   4.273   3.316 -1.2666 -1.4521 -1.1429
 9226SOL     OW39310   3.411   0.859   6.761 -0.3600  0.8179 -0.0055
 9226SOL    HW139311   3.380   0.769   6.755 -1.1316  1.1402 -0.9389
 9226SOL    HW239312   3.448   0.883   6.676 -0.7371 -1.1189 -0.7192
 9227SOL     OW39313   2.397   0.761   6.648  0.1894  0.3006  0.0953
 9227SOL    HW139314   2.339   0.690   6.676 -1.1998  1.7830  1.0128
 9227SOL    HW239315   2.410   0.733   6.557  0.2698  0.4747  0.0534
 9228SOL     OW39316   3.465   1.671  15.508 -0.4734 -0.3702 -0.2067
 9228SOL    HW139317   3.413   1.699  15.432  0.2686  0.6226 -0.3569
 9228SOL    HW239318   3.549   1.659  15.463  0.6837  0.3475  1.7907
 9229SOL     OW39319   3.205   3.377   4.411  0.7675  0.2636 -0.4910
 9229SOL    HW139320   3.249   3.344   4.333  0.3700 -0.7299 -0.2899
 9229SOL    HW239321   3.228   3.312   4.478 -2.0185 -0.7481 -0.4900
 9230SOL     OW39322   3.935   2.140   2.125 -0.6998  0.2573  0.7729
 9230SOL    HW139323   3.955   2.068   2.066  2.3638  1.0138  0.8990
 9230SOL    HW239324   4.004   2.205   2.109 -0.3694 -0.3352 -0.1623
 9231SOL     OW39325   3.756   3.794   6.589  0.0638  0.7307  0.7118
 9231SOL    HW139326   3.784   3.770   6.677  1.4150 -1.2083 -0.2420
 9231SOL    HW239327   3.662   3.807   6.600 -0.1479 -0.3658  0.1507
 9232SOL     OW39328   1.774   3.848   1.487 -0.2040  0.0003  0.0683
 9232SOL    HW139329   1.709   3.892   1.431  0.5818 -0.6384 -1.3331
 9232SOL    HW239330   1.706   3.799   1.533 -1.6571  1.9455  0.0551
 9233SOL     OW39331   4.059   1.006   6.626  0.1153  0.2269 -0.8184
 9233SOL    HW139332   4.094   0.930   6.672 -0.0470  0.3216 -0.5439
 9233SOL    HW239333   4.032   0.955   6.550 -1.1088 -0.1639 -0.1173
 9234SOL     OW39334   1.909   1.805  11.861  0.3523 -0.2174  0.1217
 9234SOL    HW139335   1.879   1.885  11.904 -3.4236 -0.5780 -1.8768
 9234SOL    HW239336   1.876   1.813  11.772 -0.4526 -2.3639  0.2088
 9235SOL     OW39337   1.716   1.303   2.900  0.3795  0.1213  0.0579
 9235SOL    HW139338   1.736   1.236   2.834 -1.6912  0.7337 -1.1808
 9235SOL    HW239339   1.621   1.308   2.894  0.6999  2.8507 -2.5388
 9236SOL     OW39340   2.842   1.579   9.102  0.5528 -0.4086 -0.2247
 9236SOL    HW139341   2.828   1.514   9.171  1.1229 -0.2250  0.0674
 9236SOL    HW239342   2.827   1.660   9.151 -0.8460 -0.1868 -1.0482
 9237SOL     OW39343   0.338   2.956   4.397 -0.1577  0.1871 -0.0415
 9237SOL    HW139344   0.363   3.031   4.344  1.5411 -0.0449  0.4271
 9237SOL    HW239345   0.371   2.877   4.354  0.2666 -0.0684  0.7473
 9238SOL     OW39346   2.470   2.815   1.938  0.2199  0.3325 -0.2684
 9238SOL    HW139347   2.458   2.896   1.988  1.6723 -0.4194  1.3206
 9238SOL    HW239348   2.547   2.776   1.980 -1.1452 -0.9257  1.0712
 9239SOL     OW39349   1.274   4.041   5.978  0.1220  0.3659  0.8446
 9239SOL    HW139350   1.197   4.006   5.932  0.5551 -1.5896  1.6095
 9239SOL    HW239351   1.300   3.967   6.032 -0.9834 -0.2733  0.4987
 9240SOL     OW39352   4.045   3.356   5.495 -0.1238 -0.3626  0.9207
 9240SOL    HW139353   4.034   3.303   5.417  0.4181 -1.1469  1.3738
 9240SOL    HW239354   3.961   3.402   5.490  0.1603  0.2160  1.3665
 9241SOL     OW39355   4.675   3.854   9.664 -0.1651  0.2551  0.0774
 9241SOL    HW139356   4.638   3.890   9.583  0.5349  0.7384 -0.0234
 9241SOL    HW239357   4.713   3.930   9.707  0.0970  0.3908 -0.3936
 9242SOL     OW39358   4.435   1.363   8.274 -0.1270  0.4610  0.2856
 9242SOL    HW139359   4.506   1.414   8.237  0.6819 -0.6235  0.3519
 9242SOL    HW239360   4.492   1.315   8.334  3.1395  0.6785 -2.6552
 9243SOL     OW39361   3.710   3.942   2.605  0.6045 -0.1044 -0.1708
 9243SOL    HW139362   3.768   3.990   2.665 -0.6635  0.3362  0.7126
 9243SOL    HW239363   3.712   4.001   2.529 -0.2619 -1.7507 -1.4861
 9244SOL     OW39364   4.533   3.424   9.930  0.1362 -0.7431  0.1759
 9244SOL    HW139365   4.546   3.517   9.914  0.8816 -0.4928  2.2633
 9244SOL    HW239366   4.489   3.430  10.014 -0.1258  0.7957 -0.0793
 9245SOL     OW39367   3.833   2.048   8.761  0.1646  0.2394 -0.0069
 9245SOL    HW139368   3.805   2.137   8.741  0.4921 -0.2721 -2.7136
 9245SOL    HW239369   3.769   2.016   8.826 -0.7801  2.2182  0.0274
 9246SOL     OW39370   1.257   0.854  15.686 -0.1119  0.3615  0.0341
 9246SOL    HW139371   1.307   0.817  15.613  1.7069  3.3330 -0.2311
 9246SOL    HW239372   1.335   0.878  15.736  0.8387  0.2765 -1.3936
 9247SOL     OW39373   4.471   3.268  15.742  0.0212 -0.5336  0.3056
 9247SOL    HW139374   4.492   3.349  15.696  0.8624 -0.2102  1.2727
 9247SOL    HW239375   4.376   3.270  15.732  0.3646 -0.3248 -2.9667
 9248SOL     OW39376   3.588   0.115   8.278  0.2211 -0.6038 -0.3959
 9248SOL    HW139377   3.655   0.047   8.275  0.3750 -0.4648 -0.0529
 9248SOL    HW239378   3.529   0.060   8.329  0.6097 -0.4007  0.2766
 9249SOL     OW39379   4.368   2.182   3.630  0.6177 -0.2154  0.2489
 9249SOL    HW139380   4.429   2.108   3.637  1.9639  0.7769 -1.1042
 9249SOL    HW239381   4.355   2.213   3.719  0.7106  1.6637 -0.4069
 9250SOL     OW39382   0.982   2.294   8.527 -0.2125 -0.2379 -0.4255
 9250SOL    HW139383   0.894   2.330   8.536  0.2034  0.8525 -0.7128
 9250SOL    HW239384   1.029   2.295   8.611 -0.3781 -1.2918 -0.3154
 9251SOL     OW39385   0.539   1.209   4.412 -0.3935  0.3514  0.3241
 9251SOL    HW139386   0.618   1.160   4.435  0.0267  1.2433  0.7623
 9251SOL    HW239387   0.508   1.162   4.334 -0.2856  1.7858 -0.5810
 9252SOL     OW39388   3.112   0.855   1.919  0.5507  0.2254  0.2115
 9252SOL    HW139389   3.163   0.908   1.857  0.1854  2.2307  1.6417
 9252SOL    HW239390   3.083   0.924   1.977 -0.3321  0.8461 -0.9743
 9253SOL     OW39391   1.478   0.900   2.100 -0.2904 -0.1608  0.2883
 9253SOL    HW139392   1.511   0.854   2.178  1.6173 -1.4269 -1.2635
 9253SOL    HW239393   1.458   0.980   2.148  0.6772  0.2213  0.0490
 9254SOL     OW39394   4.187   1.497   1.846  0.0870 -0.3403  0.4530
 9254SOL    HW139395   4.203   1.585   1.880 -0.9126  0.3630 -0.9368
 9254SOL    HW239396   4.275   1.468   1.824  1.0833  2.3529  0.8589
 9255SOL     OW39397   4.449   1.784   6.035  0.0319 -0.5798 -0.3842
 9255SOL    HW139398   4.482   1.860   5.988  2.2347 -0.3541  1.5333
 9255SOL    HW239399   4.372   1.756   5.985 -1.4396  1.9851  0.4358
 9256SOL     OW39400   3.136   3.571   7.902  0.4001 -0.3255  0.5059
 9256SOL    HW139401   3.118   3.584   7.809  0.4503  1.5809  0.7686
 9256SOL    HW239402   3.089   3.491   7.928  0.7027 -0.7384 -0.2223
 9257SOL     OW39403   1.978   2.458   8.596 -0.8743  0.5367 -0.4963
 9257SOL    HW139404   2.068   2.454   8.627 -1.9597  1.0710  2.6912
 9257SOL    HW239405   1.979   2.540   8.546 -1.5392  0.2561 -0.9837
 9258SOL     OW39406   3.713   3.993   7.484  0.2111 -0.1756  0.2372
 9258SOL    HW139407   3.735   3.925   7.420  0.1611 -0.9578  1.0454
 9258SOL    HW239408   3.705   4.075   7.436  0.4156 -1.0750 -1.3365
 9259SOL     OW39409   1.275   2.928   8.107  0.6122  0.2595  0.3983
 9259SOL    HW139410   1.293   2.953   8.016 -2.1679  0.7723  0.0194
 9259SOL    HW239411   1.358   2.887   8.133 -0.5425 -0.0559  3.4805
 9260SOL     OW39412   2.240   2.101  15.168  0.1110 -0.3905 -0.2445
 9260SOL    HW139413   2.150   2.125  15.193  0.4176  2.0604 -1.4943
 9260SOL    HW239414   2.217   2.035  15.103 -1.0078 -0.4600  0.2096
 9261SOL     OW39415   3.546   4.506  11.684 -0.3014  0.0089 -0.6779
 9261SOL    HW139416   3.577   4.505  11.774 -1.2795 -1.3968 -0.3584
 9261SOL    HW239417   3.604   4.576  11.654  2.8211 -2.3431 -0.2367
 9262SOL     OW39418   0.781   3.067  10.457 -0.2952 -0.5819  0.3262
 9262SOL    HW139419   0.760   3.104  10.543 -1.7233 -0.6746  0.0299
 9262SOL    HW239420   0.828   3.130  10.403 -0.5107 -0.0607  0.7502
 9263SOL     OW39421   2.346   2.239   7.492  0.5685 -0.3386 -0.0636
 9263SOL    HW139422   2.279   2.194   7.544  0.7006 -1.8253 -1.1963
 9263SOL    HW239423   2.388   2.282   7.566 -0.8187  0.1898  0.4116
 9264SOL     OW39424   0.387   1.493   9.259  0.2117  0.1537 -0.0707
 9264SOL    HW139425   0.387   1.445   9.341 -0.5186  1.2106  0.5562
 9264SOL    HW239426   0.376   1.425   9.192 -1.1246 -1.5872  1.9341
 9265SOL     OW39427   3.394   2.166   4.678 -0.2491 -0.3497  0.0394
 9265SOL    HW139428   3.393   2.082   4.724 -2.3095 -0.5632 -0.3627
 9265SOL    HW239429   3.469   2.212   4.716 -0.8134  0.8620 -0.3004
 9266SOL     OW39430   2.842   4.184  13.361  0.0969 -0.3394 -0.2834
 9266SOL    HW139431   2.767   4.195  13.419 -0.0613  0.4814 -0.6600
 9266SOL    HW239432   2.863   4.275  13.341  1.2731 -1.0019 -2.1017
 9267SOL     OW39433   3.099   4.717   3.455  0.0840 -0.2229  0.4537
 9267SOL    HW139434   3.055   4.632   3.447  1.2772 -0.9363  1.3754
 9267SOL    HW239435   3.179   4.681   3.494  1.7894  1.4591 -1.5161
 9268SOL     OW39436   1.033   0.712   5.748  0.2432  0.5468  0.3262
 9268SOL    HW139437   1.085   0.688   5.824 -0.9362  0.1680  1.0222
 9268SOL    HW239438   0.943   0.696   5.777  0.4049  0.8327  0.9917
 9269SOL     OW39439   0.331   2.826   2.527  0.1502 -0.2143 -0.6732
 9269SOL    HW139440   0.265   2.758   2.515 -0.0936 -0.0429 -0.2902
 9269SOL    HW239441   0.277   2.888   2.575  1.1752 -1.2194  1.7593
 9270SOL     OW39442   0.224   4.662  12.618  0.5914  0.2882 -0.2117
 9270SOL    HW139443   0.299   4.637  12.564  0.3935  1.8247 -1.1853
 9270SOL    HW239444   0.248   0.002  12.669  2.2945 -0.1412 -0.3664
 9271SOL     OW39445   4.284   0.496  15.936 -0.4788 -0.5498 -0.1850
 9271SOL    HW139446   4.324   0.425  15.886  0.6307 -0.9103  1.2386
 9271SOL    HW239447   4.315   0.466  16.021 -2.6010 -1.8638  0.1337
 9272SOL     OW39448   0.379   3.730  12.093  0.2907  0.2836  0.4615
 9272SOL    HW139449   0.372   3.651  12.039  0.0923  0.3384  0.4109
 9272SOL    HW239450   0.296   3.722  12.140  1.3582 -0.6454  2.2204
 9273SOL     OW39451   0.157   1.802  11.426  0.0061 -0.4011 -0.9364
 9273SOL    HW139452   0.111   1.868  11.477  1.4060  0.3944 -0.7151
 9273SOL    HW239453   0.084   1.781  11.368 -0.4377 -0.7389 -0.2526
 9274SOL     OW39454   0.870   1.305   5.045  0.1634  0.6121  0.5518
 9274SOL    HW139455   0.813   1.344   4.979  3.2865  1.4952 -1.6257
 9274SOL    HW239456   0.926   1.382   5.058 -0.6268  0.8836  2.4001
 9275SOL     OW39457   0.451   3.134  13.669  0.2930 -0.5822 -0.0608
 9275SOL    HW139458   0.438   3.153  13.576 -1.0292 -1.5044 -0.0638
 9275SOL    HW239459   0.462   3.222  13.705  2.0010 -0.0579 -1.8439
 9276SOL     OW39460   1.507   0.833   8.763  0.0042  0.0609  0.1711
 9276SOL    HW139461   1.551   0.916   8.746  0.4455 -0.3588 -0.7454
 9276SOL    HW239462   1.566   0.802   8.831  0.3851  0.4850  0.0333
 9277SOL     OW39463   3.756   1.855   8.196  0.1669 -0.1579 -0.2427
 9277SOL    HW139464   3.707   1.786   8.240 -0.5792  0.7343  0.3493
 9277SOL    HW239465   3.793   1.806   8.123 -0.2789  1.4189 -1.5462
 9278SOL     OW39466   1.648   3.796   5.246  0.4695  0.2741 -0.2786
 9278SOL    HW139467   1.717   3.847   5.290 -0.2784 -0.3342  1.5931
 9278SOL    HW239468   1.573   3.852   5.266 -0.2956 -0.9801  0.3571
 9279SOL     OW39469   1.048   2.098   7.994 -0.7766 -0.3716  0.6420
 9279SOL    HW139470   1.139   2.077   7.971 -0.9989  0.6377 -1.1673
 9279SOL    HW239471   1.061   2.193   8.002 -0.7423 -0.3452  0.2905
 9280SOL     OW39472   2.822   3.705   7.378 -0.2151 -0.7874 -0.1679
 9280SOL    HW139473   2.855   3.744   7.459 -0.5823  0.5870 -0.6654
 9280SOL    HW239474   2.797   3.620   7.414 -1.7999 -0.3079 -0.1049
 9281SOL     OW39475   3.922   1.889   0.006 -0.6179  0.1028  0.0865
 9281SOL    HW139476   3.943   1.796  17.745 -0.5781  0.0706  0.5775
 9281SOL    HW239477   3.980   1.936  17.694  1.9015 -1.1035  1.5725
 9282SOL     OW39478   0.617   0.710  11.988 -0.1047  0.0092 -0.2322
 9282SOL    HW139479   0.667   0.777  11.941 -0.6239  0.4152 -0.2151
 9282SOL    HW239480   0.588   0.751  12.069 -0.0252 -0.9080  0.2583
 9283SOL     OW39481   2.382   0.732   3.025  0.7555 -0.1209 -0.3704
 9283SOL    HW139482   2.473   0.756   3.045  0.8819 -1.2488  0.4434
 9283SOL    HW239483   2.344   0.725   3.112  1.0709 -1.5420 -0.3493
 9284SOL     OW39484   1.071   3.014   9.228 -0.4541  0.0053 -0.2399
 9284SOL    HW139485   1.050   3.023   9.135 -1.2106 -0.1878 -0.0910
 9284SOL    HW239486   1.115   2.929   9.224 -0.0560  0.2282 -0.5135
 9285SOL     OW39487   2.137   0.412   0.429 -0.7334 -0.1651 -0.0428
 9285SOL    HW139488   2.057   0.392   0.477 -0.7547 -0.6690 -0.2871
 9285SOL    HW239489   2.193   0.339   0.453  0.2680  0.6967  0.2398
 9286SOL     OW39490   3.373   0.710   1.601  0.6156  0.0481  0.7478
 9286SOL    HW139491   3.379   0.615   1.611  1.6130  0.1453  1.0707
 9286SOL    HW239492   3.460   0.746   1.584  0.8961 -0.4419  1.1479
 9287SOL     OW39493   3.963   3.580   7.381 -0.5923 -0.5823 -0.0267
 9287SOL    HW139494   3.926   3.662   7.350 -0.6190  0.6461  3.2241
 9287SOL    HW239495   3.885   3.527   7.393 -1.0386 -0.1935 -1.2950
 9288SOL     OW39496   4.333   4.425  11.739  0.3666  0.4017 -0.2284
 9288SOL    HW139497   4.273   4.475  11.684  1.2170  0.9659 -0.6472
 9288SOL    HW239498   4.405   4.407  11.679 -0.2290 -2.3628 -0.1393
 9289SOL     OW39499   2.930   1.771   3.272  0.1101 -0.0134 -0.2754
 9289SOL    HW139500   2.902   1.796   3.185 -0.8385 -1.4595 -0.3900
 9289SOL    HW239501   2.941   1.677   3.257  0.9947 -0.0579  0.6413
 9290SOL     OW39502   4.326   3.289  10.153  0.0889  0.1965 -0.1749
 9290SOL    HW139503   4.291   3.259  10.237  0.0844  2.3779  0.6078
 9290SOL    HW239504   4.398   3.228  10.137  2.4043  3.1519 -0.9718
 9291SOL     OW39505   1.634   1.544   0.403  0.1883 -0.0076 -0.1012
 9291SOL    HW139506   1.606   1.453   0.399  0.7097 -0.2438  1.8553
 9291SOL    HW239507   1.729   1.542   0.404  0.1692 -0.1151  1.6784
 9292SOL     OW39508   3.588   3.147   6.809  0.6281 -0.4936  0.0134
 9292SOL    HW139509   3.579   3.052   6.814 -0.7254 -0.4523 -1.5194
 9292SOL    HW239510   3.675   3.149   6.769  1.1608 -2.0380  1.0959
 9293SOL     OW39511   1.071   1.690  11.966  0.0680 -0.3587  0.0230
 9293SOL    HW139512   1.070   1.744  12.045  1.2153 -0.4899  0.1333
 9293SOL    HW239513   1.118   1.751  11.909 -0.5094 -0.6020 -0.7144
 9294SOL     OW39514   2.803   3.222   0.605  0.0909 -0.0872 -0.1448
 9294SOL    HW139515   2.808   3.137   0.649  2.7869 -0.0434 -0.3471
 9294SOL    HW239516   2.844   3.207   0.520  1.0380 -1.4817  0.5462
 9295SOL     OW39517   2.243   3.700   6.124 -0.0985 -0.3297 -0.7728
 9295SOL    HW139518   2.290   3.716   6.206  1.1256  0.4292 -1.6408
 9295SOL    HW239519   2.155   3.692   6.161  0.0572 -0.5399 -0.4443
 9296SOL     OW39520   1.725   2.741   9.346  0.2348  0.0437 -0.5782
 9296SOL    HW139521   1.747   2.720   9.437 -0.7339 -0.8740 -0.5616
 9296SOL    HW239522   1.693   2.831   9.344  0.6564  0.1587 -2.0656
 9297SOL     OW39523   2.485   0.335   6.133 -0.1141 -0.2913 -0.4575
 9297SOL    HW139524   2.457   0.354   6.043  0.1285 -0.5013 -0.5784
 9297SOL    HW239525   2.577   0.349   6.112 -0.6871  0.7210 -2.3737
 9298SOL     OW39526   2.093   4.176  15.174  0.4887 -0.7546 -0.6983
 9298SOL    HW139527   2.032   4.150  15.242  0.2046 -0.8661 -0.9970
 9298SOL    HW239528   2.127   4.089  15.154 -1.2855 -0.6793 -4.0202
 9299SOL     OW39529   0.113   2.333   9.223  0.6818  0.2378  0.3657
 9299SOL    HW139530   0.141   2.377   9.143 -1.1287  0.8942  0.0806
 9299SOL    HW239531   0.022   2.308   9.203  0.9974  1.0628 -2.0942
 9300SOL     OW39532   2.383   0.219   8.664  0.7966 -0.3931 -0.2466
 9300SOL    HW139533   2.305   0.218   8.720  0.7790  0.4868 -0.2600
 9300SOL    HW239534   2.369   0.300   8.615 -1.6679 -0.9874 -0.5444
 9301SOL     OW39535   0.830   4.522   3.319 -0.0558  0.0124  0.1956
 9301SOL    HW139536   0.753   4.473   3.346 -0.9477  0.2616 -1.9023
 9301SOL    HW239537   0.885   4.445   3.302  0.1629  0.4964 -1.3194
 9302SOL     OW39538   1.257   3.069   4.290 -0.3194 -0.1245  0.5040
 9302SOL    HW139539   1.271   3.036   4.379  1.4479 -2.6903 -0.7319
 9302SOL    HW239540   1.298   3.155   4.297 -0.7502  0.2550 -1.6439
 9303SOL     OW39541   1.545   0.549  15.697 -0.2802  0.4446  0.6449
 9303SOL    HW139542   1.544   0.543  15.793  2.0192 -0.5673  0.5957
 9303SOL    HW239543   1.513   0.460  15.680  3.0599 -0.6689  0.3220
 9304SOL     OW39544   0.333   1.595   3.759 -0.6489 -0.3743  0.0504
 9304SOL    HW139545   0.349   1.609   3.852  2.4326  0.8795 -0.6563
 9304SOL    HW239546   0.402   1.530   3.741 -0.5017 -0.4892  1.0373
 9305SOL     OW39547   2.752   2.225   1.830  0.4660  0.0449  0.1016
 9305SOL    HW139548   2.687   2.274   1.880  1.8135  1.2889  0.6148
 9305SOL    HW239549   2.826   2.240   1.888  2.0307 -0.0838 -1.8546
 9306SOL     OW39550   2.166   1.598   6.147  0.0956 -0.0334  0.4681
 9306SOL    HW139551   2.232   1.660   6.178  0.7103 -0.1187 -0.6512
 9306SOL    HW239552   2.215   1.518   6.164  1.1420 -0.0204 -2.4398
 9307SOL     OW39553   2.323   3.409   8.540  0.3686 -0.5029 -0.0925
 9307SOL    HW139554   2.318   3.497   8.579  0.2332 -0.0227 -1.2113
 9307SOL    HW239555   2.412   3.386   8.568 -0.7625  0.4359  4.2818
 9308SOL     OW39556   4.045   1.987   4.396 -0.6458 -1.0915  0.6676
 9308SOL    HW139557   4.083   1.940   4.470  1.4985 -1.9519 -0.9718
 9308SOL    HW239558   3.957   1.993   4.434 -0.8495 -0.0518  0.0337
 9309SOL     OW39559   0.230   0.913   5.523  0.1539 -0.5050 -0.0649
 9309SOL    HW139560   0.253   0.998   5.484 -1.0778 -1.2676 -2.4400
 9309SOL    HW239561   0.222   0.943   5.614 -2.4037 -2.8406  0.4860
 9310SOL     OW39562   4.161   2.593   7.278  0.1201 -0.4395  0.4530
 9310SOL    HW139563   4.070   2.594   7.250  0.1985  2.3702  0.3213
 9310SOL    HW239564   4.162   2.513   7.331  0.8499 -0.2922  0.6644
 9311SOL     OW39565   0.897   3.675   2.955  0.4187 -0.0486 -0.4454
 9311SOL    HW139566   0.863   3.693   2.868 -0.4742 -0.3725 -0.1578
 9311SOL    HW239567   0.899   3.580   2.968 -1.0562 -0.3860 -2.7442
 9312SOL     OW39568   0.180   1.925   2.169 -0.0422  0.5881  0.1562
 9312SOL    HW139569   0.244   1.861   2.140 -0.2656  0.2014  0.5001
 9312SOL    HW239570   0.182   1.993   2.102 -1.4932  1.1455  0.6564
 9313SOL     OW39571   2.872   3.923   9.049  0.0183 -0.2592  0.6412
 9313SOL    HW139572   2.943   3.892   9.105  2.2623 -3.0345 -3.7807
 9313SOL    HW239573   2.821   3.844   9.030  0.0236 -1.1349  4.1962
 9314SOL     OW39574   3.675   1.600  12.397 -0.1297  0.5388 -0.1126
 9314SOL    HW139575   3.598   1.650  12.420 -1.3273 -0.7893 -1.2223
 9314SOL    HW239576   3.644   1.515  12.428 -0.0382  0.7741  0.6321
 9315SOL     OW39577   1.250   4.433   9.351 -0.5806  0.3603  0.5239
 9315SOL    HW139578   1.222   4.342   9.360 -0.2508  0.1154 -0.8511
 9315SOL    HW239579   1.295   4.427   9.267  1.2700 -0.7405  1.6168
 9316SOL     OW39580   1.746   0.662   8.396 -0.3912  0.0800  1.0335
 9316SOL    HW139581   1.657   0.697   8.406  0.0445  1.6755 -0.5197
 9316SOL    HW239582   1.727   0.569   8.388  0.6164 -0.0189 -0.2952
 9317SOL     OW39583   0.990   2.515   6.073  0.1951  0.8970  0.1501
 9317SOL    HW139584   1.077   2.553   6.085 -0.7397  2.2608  2.5100
 9317SOL    HW239585   0.994   2.512   5.977  2.0597 -0.0404  0.2448
 9318SOL     OW39586   0.269   4.086   6.524  0.2649  0.4239 -0.0221
 9318SOL    HW139587   0.316   4.146   6.583  2.6221  0.3169 -1.7753
 9318SOL    HW239588   0.265   4.143   6.447  0.6113  1.6821  0.8868
 9319SOL     OW39589   1.809   1.446   3.915  0.6066 -0.3626 -0.1783
 9319SOL    HW139590   1.823   1.403   3.999 -1.2048 -2.0398 -0.7460
 9319SOL    HW239591   1.890   1.432   3.866  1.9826  3.2431  1.0845
 9320SOL     OW39592   4.699   2.769   0.500 -0.2480  0.2533  0.0449
 9320SOL    HW139593   0.046   2.765   0.545 -2.2223 -0.9076  3.6510
 9320SOL    HW239594   4.732   2.747   0.413 -0.3738  1.6891 -0.3570
 9321SOL     OW39595   1.598   4.632   6.948 -0.0015 -0.3458 -0.5841
 9321SOL    HW139596   1.623   4.569   6.880 -0.6078 -0.9449 -0.2482
 9321SOL    HW239597   1.671   4.693   6.936 -0.3494  0.1352 -0.2371
 9322SOL     OW39598   0.642   0.299  13.256  0.3429 -0.3553  0.1703
 9322SOL    HW139599   0.736   0.305  13.272  0.1834 -0.2790  1.0784
 9322SOL    HW239600   0.606   0.340  13.335  1.4370  1.0334 -0.0591
 9323SOL     OW39601   1.228   4.446   6.764  0.3819  0.4951  0.4071
 9323SOL    HW139602   1.265   4.368   6.723  0.1931 -0.5606  2.2174
 9323SOL    HW239603   1.300   4.506   6.748 -0.0865  0.3260 -2.2872
 9324SOL     OW39604   1.121   1.384   8.471  0.1864 -0.2912  0.3576
 9324SOL    HW139605   1.182   1.311   8.468  0.0026 -0.4674  0.9765
 9324SOL    HW239606   1.173   1.461   8.451 -1.4015  1.0305  1.3328
 9325SOL     OW39607   0.827   3.299   5.289 -0.4888  0.3661 -0.5446
 9325SOL    HW139608   0.874   3.381   5.304 -0.2955  0.3325 -0.9647
 9325SOL    HW239609   0.900   3.238   5.274  0.1614  0.5599  1.8823
 9326SOL     OW39610   2.777   0.294  11.982 -0.6200 -0.4101  0.1706
 9326SOL    HW139611   2.783   0.292  11.887  2.3642  1.3203  0.3085
 9326SOL    HW239612   2.720   0.370  11.987 -0.5713 -0.4921  2.1949
 9327SOL     OW39613   3.034   1.635  16.541  0.1718  0.1397  0.2754
 9327SOL    HW139614   3.069   1.724  16.532 -0.0299  0.3961  2.0238
 9327SOL    HW239615   3.019   1.609  16.450  3.6055  0.6630 -0.4679
 9328SOL     OW39616   0.961   3.562  13.914  0.8083 -0.2132  0.6867
 9328SOL    HW139617   0.989   3.555  14.005  0.8825  3.7057  0.9690
 9328SOL    HW239618   0.948   3.469  13.893 -0.3997  0.2952 -0.8072
 9329SOL     OW39619   1.179   3.851   1.567  0.0094 -0.4398 -0.5115
 9329SOL    HW139620   1.259   3.810   1.537 -0.9960 -2.5227 -0.3614
 9329SOL    HW239621   1.205   3.918   1.630 -0.2662 -0.4102 -0.4252
 9330SOL     OW39622   1.812   2.667   1.611 -0.1322  0.1245 -0.3891
 9330SOL    HW139623   1.831   2.579   1.579  0.9073 -0.1750  1.0567
 9330SOL    HW239624   1.860   2.676   1.694  1.6085 -1.0729 -1.2684
 9331SOL     OW39625   0.783   3.693   3.378  0.4366 -0.6460  0.3921
 9331SOL    HW139626   0.766   3.787   3.367 -1.8350 -1.1927 -0.7923
 9331SOL    HW239627   0.747   3.662   3.295  1.3321 -0.6521  0.0077
 9332SOL     OW39628   1.295   3.651   3.363  0.1279  0.2594  0.2112
 9332SOL    HW139629   1.342   3.734   3.351 -0.2736  0.5542  0.7224
 9332SOL    HW239630   1.254   3.645   3.276  0.4838 -1.5657  0.1545
 9333SOL     OW39631   2.219   3.804  16.969  0.2517 -0.1451 -0.0059
 9333SOL    HW139632   2.259   3.780  16.886 -1.1355 -0.4380 -0.5859
 9333SOL    HW239633   2.295   3.827  17.023  0.4547  1.1266 -0.8353
 9334SOL     OW39634   1.411   3.249  13.036  0.7578  0.9865 -0.9217
 9334SOL    HW139635   1.356   3.188  13.084  2.2501  0.6909  0.4048
 9334SOL    HW239636   1.469   3.187  12.991  0.7548 -0.1695  0.6888
 9335SOL     OW39637   1.278   2.441   0.107  0.1044  0.1641  0.1755
 9335SOL    HW139638   1.295   2.350   0.080 -2.7010 -0.3893  0.3437
 9335SOL    HW239639   1.239   2.466   0.023 -0.7523 -1.8457 -0.0344
 9336SOL     OW39640   0.277   0.932   6.726  0.4422 -0.6526 -0.3363
 9336SOL    HW139641   0.255   0.991   6.798  2.4867 -0.6086  0.2594
 9336SOL    HW239642   0.273   0.992   6.652 -2.3363 -0.4739 -0.0330
 9337SOL     OW39643   2.871   4.179   0.666  0.8461 -0.0049 -0.3804
 9337SOL    HW139644   2.965   4.195   0.669  0.4676  2.3387 -0.7072
 9337SOL    HW239645   2.852   4.180   0.760  2.1137  1.5499 -0.1348
 9338SOL     OW39646   2.464   1.026  10.313 -0.1097  0.2277 -0.2673
 9338SOL    HW139647   2.417   1.022  10.396  0.9165  0.6252  0.3313
 9338SOL    HW239648   2.515   1.105  10.327  1.7441 -0.7272 -1.6949
 9339SOL     OW39649   0.364   4.387   8.347  0.2159  0.3092 -0.0113
 9339SOL    HW139650   0.446   4.409   8.393  0.5000  0.0362 -0.3836
 9339SOL    HW239651   0.325   4.329   8.412 -1.5887  0.2212 -1.1866
 9340SOL     OW39652   2.302   2.777   0.916  0.4866 -0.2551 -0.1584
 9340SOL    HW139653   2.263   2.774   1.003 -1.0019  2.0624 -0.7339
 9340SOL    HW239654   2.373   2.839   0.927  0.2430  0.0197 -0.1429
 9341SOL     OW39655   0.544   3.109  14.107 -0.0792  0.4225 -0.1259
 9341SOL    HW139656   0.547   3.158  14.025 -1.0030  0.8187  0.0848
 9341SOL    HW239657   0.501   3.161  14.175 -2.4822  1.2885 -2.3007
 9342SOL     OW39658   2.698   3.420  16.881  0.3057  0.4204  0.1505
 9342SOL    HW139659   2.779   3.371  16.868  0.1295 -0.4652  2.2716
 9342SOL    HW239660   2.703   3.449  16.972  0.4100  2.0483 -0.3712
 9343SOL     OW39661   0.493   2.382   7.007  0.1872 -0.0111  0.1657
 9343SOL    HW139662   0.408   2.364   6.966 -0.2688  1.8422  0.3178
 9343SOL    HW239663   0.472   2.351   7.095  0.2079 -0.1881  0.1087
 9344SOL     OW39664   0.498   0.311   8.966  0.2485 -0.0417  0.0064
 9344SOL    HW139665   0.493   0.218   8.946  1.9860 -0.5142  1.7974
 9344SOL    HW239666   0.417   0.322   9.016  0.5802  3.1133 -0.1058
 9345SOL     OW39667   0.584   3.438  10.478 -0.4821  0.6819  0.0699
 9345SOL    HW139668   0.567   3.379  10.404  0.2039 -0.2266  0.6344
 9345SOL    HW239669   0.664   3.483  10.451  0.6291 -0.2738  1.7578
 9346SOL     OW39670   2.499   2.674   9.460 -0.3704 -0.2386  0.2659
 9346SOL    HW139671   2.528   2.699   9.548 -1.1125  1.1279  0.1182
 9346SOL    HW239672   2.483   2.581   9.477 -0.9595  0.2439  2.3694
 9347SOL     OW39673   3.338   3.671   6.892 -0.4059 -0.2938 -0.3641
 9347SOL    HW139674   3.366   3.762   6.892  1.7038 -0.9399 -0.8310
 9347SOL    HW239675   3.325   3.656   6.799 -1.0225  2.8150 -0.7558
 9348SOL     OW39676   2.422   0.908   7.708 -0.0630 -0.4798 -0.1381
 9348SOL    HW139677   2.378   0.925   7.624 -1.8365 -0.2958  0.8344
 9348SOL    HW239678   2.380   0.968   7.769 -0.6476 -0.9712 -0.0478
 9349SOL     OW39679   2.119   3.074  14.950 -0.2083 -0.2286 -0.2775
 9349SOL    HW139680   2.182   3.066  15.023  0.5840 -1.3644 -1.0865
 9349SOL    HW239681   2.032   3.087  14.987 -0.3494  0.1651 -0.7495
 9350SOL     OW39682   0.926   3.119   7.943  0.3971 -0.3063  0.0890
 9350SOL    HW139683   0.835   3.146   7.952  0.4127  0.5329 -2.4591
 9350SOL    HW239684   0.956   3.125   8.034 -1.2116 -2.4310  0.7567
 9351SOL     OW39685   0.994   3.679   4.227 -0.2318 -0.6515  0.0663
 9351SOL    HW139686   1.048   3.619   4.174  0.9101 -0.8338  1.4424
 9351SOL    HW239687   0.923   3.678   4.162  1.1298  2.3768 -1.4735
 9352SOL     OW39688   4.717   1.011   4.755  0.2951 -0.2418 -0.1474
 9352SOL    HW139689   4.635   1.007   4.804  0.5363 -1.9764  0.1096
 9352SOL    HW239690   0.035   1.068   4.810 -1.6053  0.9804  0.5066
 9353SOL     OW39691   3.648   2.291   4.756 -0.4034 -0.4280  0.2447
 9353SOL    HW139692   3.694   2.329   4.830  2.9577 -1.5962 -1.2663
 9353SOL    HW239693   3.591   2.368   4.749  1.0750  0.3225 -3.4855
 9354SOL     OW39694   2.005   4.108   9.442  0.3205  0.0205 -0.0252
 9354SOL    HW139695   1.944   4.138   9.509  0.4356 -0.9909  0.5367
 9354SOL    HW239696   2.078   4.067   9.489 -0.3337 -1.6216 -0.4342
 9355SOL     OW39697   1.434   1.763   7.235 -0.0691 -0.0348  0.3025
 9355SOL    HW139698   1.370   1.737   7.169  0.0816 -0.9807  0.5161
 9355SOL    HW239699   1.391   1.840   7.270  1.0614 -0.2871  2.2384
 9356SOL     OW39700   2.079   1.341  13.622 -0.2380 -0.2677  0.8195
 9356SOL    HW139701   2.127   1.342  13.540 -0.2447  2.2154  0.8473
 9356SOL    HW239702   2.028   1.422  13.616  1.3859  0.6465 -0.3278
 9357SOL     OW39703   0.166   0.143   6.847 -0.0579  0.2880 -0.0247
 9357SOL    HW139704   0.101   0.091   6.800  0.6730 -0.8379  0.1932
 9357SOL    HW239705   0.167   0.229   6.806  0.2401  0.1053 -0.3971
 9358SOL     OW39706   3.058   4.055  11.002  0.5370  0.0524 -0.3904
 9358SOL    HW139707   3.135   4.003  10.979  0.0769 -0.7225 -0.1584
 9358SOL    HW239708   3.087   4.092  11.086 -1.1966 -0.5799  0.4809
 9359SOL     OW39709   2.829   0.952   1.914 -0.2865 -0.2660 -0.0567
 9359SOL    HW139710   2.890   0.879   1.926  1.5824  1.2458 -0.5823
 9359SOL    HW239711   2.830   0.950   1.819  0.3792  1.3180 -0.0716
 9360SOL     OW39712   4.168   1.216   3.111 -0.2468  0.5319 -0.5141
 9360SOL    HW139713   4.209   1.184   3.191 -0.0077  0.9402 -0.4731
 9360SOL    HW239714   4.105   1.144   3.105 -0.3703  0.7485 -2.0093
 9361SOL     OW39715   4.039   1.896   8.420 -0.3814  0.2969  0.1583
 9361SOL    HW139716   3.964   1.953   8.403 -1.8626 -1.2082  1.7269
 9361SOL    HW239717   4.023   1.872   8.511  1.2194 -0.6889  0.1684
 9362SOL     OW39718   1.055   2.529   4.183  0.2474 -0.5266 -0.3973
 9362SOL    HW139719   1.051   2.560   4.274 -1.4502 -3.1475  0.4227
 9362SOL    HW239720   0.974   2.566   4.148  0.1361  0.3599  0.8016
 9363SOL     OW39721   3.006   4.597   8.107 -0.5138 -0.3394  0.3776
 9363SOL    HW139722   2.969   4.617   8.021 -1.1344  2.9331  1.3788
 9363SOL    HW239723   3.093   4.636   8.109  0.4274 -2.3775 -1.4696
 9364SOL     OW39724   1.087   2.283   1.869  0.6651  0.4863  0.2773
 9364SOL    HW139725   1.013   2.329   1.909  0.4756  0.0647  0.4093
 9364SOL    HW239726   1.070   2.202   1.917 -0.3580  1.2017  1.1268
 9365SOL     OW39727   4.333   4.045   6.205  0.3808 -0.0155  0.2256
 9365SOL    HW139728   4.367   4.133   6.226  2.0978 -0.5240 -0.4480
 9365SOL    HW239729   4.385   4.023   6.128 -1.8170 -0.6332 -1.0942
 9366SOL     OW39730   1.809   4.116   4.950 -0.2723 -0.0983  0.3933
 9366SOL    HW139731   1.829   4.139   4.860 -1.3663  0.0717  0.1925
 9366SOL    HW239732   1.721   4.152   4.961  0.3418  1.0508  1.5110
 9367SOL     OW39733   3.394   0.866   6.077 -0.4488  0.4125  0.2154
 9367SOL    HW139734   3.324   0.908   6.127  0.7266 -0.1066  2.2651
 9367SOL    HW239735   3.377   0.909   5.993  0.6420 -0.9668 -0.7119
 9368SOL     OW39736   3.728   3.420  12.786 -0.2701  0.0067 -0.4592
 9368SOL    HW139737   3.685   3.505  12.778 -0.9735 -0.1822  1.3363
 9368SOL    HW239738   3.817   3.447  12.812  0.2199 -0.6980 -1.3975
 9369SOL     OW39739   4.085   2.205  13.677 -0.1140  0.1366 -0.2932
 9369SOL    HW139740   4.176   2.207  13.647 -0.3411 -1.5008 -1.0795
 9369SOL    HW239741   4.081   2.117  13.713  0.1312  0.8394  1.4361
 9370SOL     OW39742   0.214   0.772   2.502 -0.4250  0.4459  0.3142
 9370SOL    HW139743   0.173   0.723   2.573 -1.0609 -0.2216 -0.5207
 9370SOL    HW239744   0.179   0.738   2.420  1.9740 -2.5092  0.5014
 9371SOL     OW39745   4.126   1.781   8.190  0.1954 -0.4534 -0.2054
 9371SOL    HW139746   4.115   1.853   8.252  0.1590 -1.5307  1.0303
 9371SOL    HW239747   4.208   1.744   8.222  0.4302 -0.4075 -0.7489
 9372SOL     OW39748   2.009   3.227   5.452 -0.0773 -0.1343 -0.4132
 9372SOL    HW139749   2.028   3.144   5.496  0.9648  0.7947  0.8741
 9372SOL    HW239750   1.914   3.213   5.445 -0.3072 -0.0460  2.3967
 9373SOL     OW39751   2.846   3.778   9.542  0.2330  0.5168 -0.0082
 9373SOL    HW139752   2.774   3.769   9.604 -0.8413 -2.6649 -1.7405
 9373SOL    HW239753   2.918   3.808   9.597 -0.6601 -1.4709  2.2471
 9374SOL     OW39754   3.103   2.909  15.013  0.3989  0.4598  0.4430
 9374SOL    HW139755   3.018   2.941  14.981  2.0209  1.7774 -2.5032
 9374SOL    HW239756   3.116   2.979  15.077  0.9600 -0.6662  1.5557
 9375SOL     OW39757   1.591   4.246  17.221  0.1647  0.3056 -0.3659
 9375SOL    HW139758   1.662   4.204  17.172  0.5064  0.4698 -0.0158
 9375SOL    HW239759   1.516   4.190  17.201  0.9940 -0.9413 -0.0021
 9376SOL     OW39760   4.537   3.584  13.462 -0.2157  0.5764 -0.2743
 9376SOL    HW139761   4.460   3.548  13.417  0.1610  0.0478 -0.4912
 9376SOL    HW239762   4.503   3.661  13.508 -2.9469 -0.2549 -0.8765
 9377SOL     OW39763   3.235   0.225   8.404  0.4445 -0.1165 -0.1820
 9377SOL    HW139764   3.308   0.285   8.420  0.5537 -0.2117 -0.3132
 9377SOL    HW239765   3.272   0.137   8.414 -2.2062 -1.1668  0.4517
 9378SOL     OW39766   3.270   3.688   6.624  0.5403  0.0823 -0.1593
 9378SOL    HW139767   3.257   3.617   6.561  0.6010 -0.7030  0.7232
 9378SOL    HW239768   3.246   3.767   6.576  2.1810 -0.1881 -1.4398
 9379SOL     OW39769   1.396   1.870   5.792 -0.5521 -0.8851 -0.4748
 9379SOL    HW139770   1.317   1.921   5.776  0.6081 -0.4127 -4.5708
 9379SOL    HW239771   1.357   1.809   5.855  0.6806  0.6427  1.7763
 9380SOL     OW39772   0.285   1.516  16.376 -0.2464  0.3590  0.4175
 9380SOL    HW139773   0.236   1.577  16.432 -1.7867  0.7363 -1.3509
 9380SOL    HW239774   0.275   1.561  16.293  0.1190  0.6503  0.5343
 9381SOL     OW39775   1.720   4.391   2.774 -0.3729  0.7066 -0.2731
 9381SOL    HW139776   1.804   4.353   2.748 -2.2768 -2.2815 -2.1253
 9381SOL    HW239777   1.751   4.460   2.832  0.5827 -0.6853  0.8879
 9382SOL     OW39778   1.479   0.621   0.277  0.1983  0.0660 -0.7387
 9382SOL    HW139779   1.528   0.623   0.359 -0.3426 -2.6661 -0.3237
 9382SOL    HW239780   1.546   0.615   0.209  0.8872  1.1192 -0.1350
 9383SOL     OW39781   2.253   0.989  16.830 -0.2785 -0.4062 -0.5783
 9383SOL    HW139782   2.168   0.945  16.833  0.2069 -1.1965  1.7112
 9383SOL    HW239783   2.231   1.060  16.771  0.5751  0.0358 -0.3629
 9384SOL     OW39784   3.779   0.282   7.692 -0.3610  0.4817  0.1980
 9384SOL    HW139785   3.842   0.216   7.664 -0.6233 -0.1271  1.0483
 9384SOL    HW239786   3.835   0.357   7.673 -0.6954  0.3141 -1.4434
 9385SOL     OW39787   1.006   1.557  15.370  0.0359 -0.0668  0.1361
 9385SOL    HW139788   0.970   1.616  15.303 -0.4090  0.6445  0.9981
 9385SOL    HW239789   1.052   1.488  15.323  0.1010  0.4117 -0.5036
 9386SOL     OW39790   0.674   3.099   1.212 -0.0951 -0.8804  0.6265
 9386SOL    HW139791   0.693   3.005   1.207  0.1884 -0.7292 -1.1612
 9386SOL    HW239792   0.684   3.112   1.306 -0.2234  1.2400  0.3558
 9387SOL     OW39793   2.658   4.080   6.549  0.0615  0.1449  0.0253
 9387SOL    HW139794   2.616   4.153   6.504 -0.1690 -1.3619 -2.1877
 9387SOL    HW239795   2.687   4.024   6.477  0.8430  1.4723 -0.7048
 9388SOL     OW39796   0.343   0.953  15.963 -0.5803  0.3449  0.0465
 9388SOL    HW139797   0.418   0.961  15.903  0.6026 -1.7157  1.2669
 9388SOL    HW239798   0.369   0.999  16.042 -1.1506 -1.3500  1.2211
 9389SOL     OW39799   0.278   1.500   4.769 -0.4004 -0.0213  0.0660
 9389SOL    HW139800   0.342   1.475   4.703 -0.7309 -1.5108  0.3189
 9389SOL    HW239801   0.298   1.447   4.845  0.1406 -0.9284 -0.7052
 9390SOL     OW39802   0.109   0.618  16.480  0.0826  0.2391 -0.2570
 9390SOL    HW139803   0.065   0.703  16.468 -0.2672  0.2460  1.0943
 9390SOL    HW239804   0.151   0.624  16.565 -0.4472 -0.9260  0.0832
 9391SOL     OW39805   0.937   2.692   1.960  0.6644 -0.0373 -0.1159
 9391SOL    HW139806   0.941   2.725   1.870 -0.3654 -0.4802 -0.3270
 9391SOL    HW239807   0.938   2.772   2.012 -1.1335 -0.2490  0.2379
 9392SOL     OW39808   2.276   0.902   9.733  0.1670  0.1234 -0.0130
 9392SOL    HW139809   2.223   0.864   9.803 -0.3708  1.8767  0.5259
 9392SOL    HW239810   2.340   0.955   9.780  1.0964  0.1705 -1.3113
 9393SOL     OW39811   0.721   1.167   3.072  0.0464 -0.6387  0.8083
 9393SOL    HW139812   0.630   1.185   3.093  0.1638 -1.9314  2.4685
 9393SOL    HW239813   0.708   1.081   3.034 -0.1085  0.0660 -0.7181
 9394SOL     OW39814   2.628   2.229  14.552 -0.2961  0.3743  0.1803
 9394SOL    HW139815   2.643   2.311  14.504  0.6882 -0.1852 -0.4518
 9394SOL    HW239816   2.532   2.231  14.550 -0.3487 -1.2683  1.9176
 9395SOL     OW39817   2.482   4.210   9.323  0.0717 -0.0387 -0.1292
 9395SOL    HW139818   2.545   4.137   9.321  0.9157  0.6955 -0.3770
 9395SOL    HW239819   2.411   4.174   9.376  1.2832 -1.9458  0.1901
 9396SOL     OW39820   4.586   3.875   4.976  0.6885  0.4174 -0.7887
 9396SOL    HW139821   4.646   3.920   5.036 -0.8319  0.4379  0.7429
 9396SOL    HW239822   4.634   3.793   4.961  0.1678 -0.0068 -0.1543
 9397SOL     OW39823   0.190   4.728  17.324 -0.4303 -0.0429  0.4599
 9397SOL    HW139824   0.145   0.047  17.260  0.3293 -0.5181 -0.4887
 9397SOL    HW239825   0.266   4.703  17.271  2.0416  1.4557  3.2940
 9398SOL     OW39826   3.294   0.134   4.537  0.1672  0.4642  0.3419
 9398SOL    HW139827   3.377   0.180   4.553 -0.4888  0.8216  2.8013
 9398SOL    HW239828   3.268   0.194   4.467 -1.7290  0.0606  0.6807
 9399SOL     OW39829   4.419   1.006   7.288 -0.6132 -0.0330  0.1693
 9399SOL    HW139830   4.422   0.932   7.347 -0.3802 -0.4823 -0.4032
 9399SOL    HW239831   4.325   1.021   7.281 -0.5636 -1.1449 -2.7011
 9400SOL     OW39832   3.707   0.592  16.257 -0.4163 -0.1009 -0.5034
 9400SOL    HW139833   3.724   0.560  16.168 -0.9918  2.3220 -1.4980
 9400SOL    HW239834   3.796   0.589  16.291 -1.0504 -0.7516  1.0755
 9401SOL     OW39835   0.439   3.315   1.729 -0.1935 -0.3526  0.0677
 9401SOL    HW139836   0.398   3.259   1.662 -0.3569 -0.4630  0.2566
 9401SOL    HW239837   0.385   3.394   1.726 -1.4296 -1.2355 -1.4835
 9402SOL     OW39838   2.022   2.335  16.244 -0.0322  0.6559 -0.2382
 9402SOL    HW139839   2.092   2.342  16.309  0.1523  0.4905 -0.4170
 9402SOL    HW239840   2.057   2.397  16.181  0.5631  0.7427  0.1803
 9403SOL     OW39841   1.342   1.404   1.895 -0.5351 -0.1830  0.5729
 9403SOL    HW139842   1.375   1.318   1.869  2.7258  1.8056 -1.8211
 9403SOL    HW239843   1.248   1.389   1.886 -0.2718 -0.7179 -1.2877
 9404SOL     OW39844   0.491   0.656   7.739 -0.6907  0.1988  0.0791
 9404SOL    HW139845   0.433   0.582   7.760 -1.3181  0.3287 -1.1380
 9404SOL    HW239846   0.507   0.644   7.645 -0.6178  2.0925 -0.1495
 9405SOL     OW39847   3.275   3.183   7.140 -0.1697 -0.0822  0.4515
 9405SOL    HW139848   3.206   3.196   7.075 -1.3706 -1.1557  1.4994
 9405SOL    HW239849   3.278   3.088   7.154  0.4915 -0.3082 -1.2743
 9406SOL     OW39850   1.240   0.044   3.247  0.6736 -0.3135 -0.3387
 9406SOL    HW139851   1.252   4.711   3.311 -2.8601 -1.5904 -1.0944
 9406SOL    HW239852   1.265   4.737   3.165  0.0297  1.1945 -1.3564
 9407SOL     OW39853   1.434   1.977   5.512  0.3140 -0.3451  0.3535
 9407SOL    HW139854   1.382   1.901   5.487 -2.0933  1.6420 -0.7834
 9407SOL    HW239855   1.400   1.992   5.600  3.6476  0.3147  1.5199
 9408SOL     OW39856   4.235   0.648   6.621 -0.0290  1.3741  0.4516
 9408SOL    HW139857   4.150   0.660   6.578 -0.4330 -1.3731  0.4643
 9408SOL    HW239858   4.288   0.642   6.542 -2.3715 -0.8089 -0.9618
 9409SOL     OW39859   0.201   4.267  13.661 -0.2514 -0.1432  0.3844
 9409SOL    HW139860   0.276   4.327  13.658 -1.2031  1.0022 -0.7542
 9409SOL    HW239861   0.147   4.315  13.723  0.6297  2.7582 -1.0851
 9410SOL     OW39862   3.393   4.252   7.781 -0.0953 -0.0313 -0.4101
 9410SOL    HW139863   3.357   4.286   7.699  1.5293 -3.0985 -2.3820
 9410SOL    HW239864   3.486   4.243   7.758  0.2686  2.0087  0.2051
 9411SOL     OW39865   4.392   1.960   4.429  0.2266  0.0960  0.9186
 9411SOL    HW139866   4.317   1.961   4.489 -1.7580 -0.4884 -1.5105
 9411SOL    HW239867   4.412   2.053   4.414 -0.6462  0.2390  0.5991
 9412SOL     OW39868   2.825   1.225   7.635 -0.5839  0.4025 -0.1547
 9412SOL    HW139869   2.792   1.262   7.716  0.8795 -0.6691  0.9341
 9412SOL    HW239870   2.903   1.278   7.623 -0.9059  0.6899 -0.9881
 9413SOL     OW39871   4.113   3.781   6.870 -0.2631  0.7282 -0.0477
 9413SOL    HW139872   4.077   3.797   6.783 -0.3966 -0.1929 -0.1607
 9413SOL    HW239873   4.125   3.686   6.867  1.3308  0.9481 -0.5936
 9414SOL     OW39874   3.806   2.127   7.259 -0.4973 -0.1326  0.5200
 9414SOL    HW139875   3.860   2.205   7.267 -3.0858  1.8757 -1.4951
 9414SOL    HW239876   3.751   2.123   7.337  0.6454 -0.6625  1.2893
 9415SOL     OW39877   2.300   2.457   2.575 -0.0569 -0.0023 -0.2594
 9415SOL    HW139878   2.237   2.393   2.543  0.3793  0.0941 -1.3135
 9415SOL    HW239879   2.389   2.425   2.558  0.3473  1.3209 -0.6173
 9416SOL     OW39880   2.898   2.413   7.074 -0.0898  0.4544 -0.3611
 9416SOL    HW139881   2.827   2.450   7.021 -2.3147 -0.2219  2.0974
 9416SOL    HW239882   2.856   2.384   7.155  1.3577  1.7003  0.8202
 9417SOL     OW39883   4.021   4.131   5.599  0.5440 -0.2465 -0.1679
 9417SOL    HW139884   3.999   4.174   5.517 -0.8196 -1.7654 -0.5775
 9417SOL    HW239885   4.043   4.199   5.664 -0.9067  1.6669 -1.7111
 9418SOL     OW39886   1.534   2.421   2.198  0.2608  0.1172  0.3349
 9418SOL    HW139887   1.516   2.491   2.261 -1.3636  1.5894 -1.7685
 9418SOL    HW239888   1.469   2.426   2.128 -0.0319 -0.7196  0.5384
 9419SOL     OW39889   4.129   4.413   6.464 -0.0281 -0.0110  0.5422
 9419SOL    HW139890   4.075   4.440   6.390 -1.0773 -1.0868  0.9060
 9419SOL    HW239891   4.105   4.322   6.482  3.3769 -1.0131 -0.0045
 9420SOL     OW39892   3.362   4.335  13.064  0.1138 -0.5309 -0.5883
 9420SOL    HW139893   3.401   4.285  13.135 -0.9015 -2.3426 -1.3103
 9420SOL    HW239894   3.269   4.328  13.084  0.5113 -0.5831  1.2069
 9421SOL     OW39895   1.214   1.821  10.583 -0.5119  0.3670  0.0096
 9421SOL    HW139896   1.120   1.834  10.566 -0.4370  1.4779  0.4396
 9421SOL    HW239897   1.243   1.796  10.496  0.3159 -0.7909  0.6178
 9422SOL     OW39898   2.686   1.306   4.049  0.4174  0.6335  0.0199
 9422SOL    HW139899   2.637   1.322   3.968  2.3478 -0.3846 -1.3582
 9422SOL    HW239900   2.777   1.311   4.018  0.3816 -2.8464 -0.6025
 9423SOL     OW39901   3.255   1.319   3.005 -0.0537  0.0122 -0.0169
 9423SOL    HW139902   3.333   1.274   2.973 -1.7658 -0.8922 -2.8673
 9423SOL    HW239903   3.259   1.400   2.955 -0.8588  0.6144  0.8848
 9424SOL     OW39904   2.694   3.614   3.353  0.4382 -0.7426 -0.3671
 9424SOL    HW139905   2.614   3.662   3.378  0.7650 -2.0202  3.0857
 9424SOL    HW239906   2.701   3.555   3.427 -0.0970  0.9999  1.0803
 9425SOL     OW39907   0.120   4.693   4.952  0.4405 -0.6793  0.0017
 9425SOL    HW139908   0.165   0.039   4.963  0.2581 -0.9447  2.6846
 9425SOL    HW239909   0.086   4.709   4.864 -3.3452  0.4597  1.6988
 9426SOL     OW39910   3.551   4.295   9.846  0.2293  0.2409 -0.7024
 9426SOL    HW139911   3.646   4.306   9.853  0.7377 -2.7711 -2.8359
 9426SOL    HW239912   3.528   4.346   9.924 -1.2573 -2.5451  0.6963
 9427SOL     OW39913   1.546   2.677   7.368  0.1831  0.0467 -0.3729
 9427SOL    HW139914   1.465   2.643   7.329 -0.3644 -0.5104  1.2453
 9427SOL    HW239915   1.528   2.662   7.461 -0.2829  0.9452 -0.3071
 9428SOL     OW39916   0.121   2.447   5.542 -0.3419  0.2770 -0.0902
 9428SOL    HW139917   0.177   2.455   5.464 -1.7623 -0.0497 -1.1379
 9428SOL    HW239918   0.041   2.402   5.513  1.7286 -2.1576 -2.0408
 9429SOL     OW39919   4.546   1.264   4.849 -0.1160  0.1504  0.3024
 9429SOL    HW139920   4.502   1.229   4.772  2.0252  0.6996 -1.1563
 9429SOL    HW239921   4.477   1.321   4.883 -0.3900 -0.5693  0.9587
 9430SOL     OW39922   3.141   1.776  16.235 -0.1485  0.1448 -0.1355
 9430SOL    HW139923   3.062   1.722  16.245 -0.0059 -0.6792 -3.3477
 9430SOL    HW239924   3.203   1.722  16.284 -0.7636 -0.9204 -0.5242
 9431SOL     OW39925   2.183   1.404   3.271 -0.0063  0.4577  0.0535
 9431SOL    HW139926   2.098   1.441   3.245  0.3523  1.3108  0.0966
 9431SOL    HW239927   2.200   1.454   3.351 -0.3996  1.2970 -0.3855
 9432SOL     OW39928   3.176   0.282  12.097  0.2908 -0.4269 -0.0304
 9432SOL    HW139929   3.213   0.370  12.097 -0.9492  0.1044  0.8615
 9432SOL    HW239930   3.172   0.262  12.003  1.5048 -2.1351  0.2971
 9433SOL     OW39931   2.221   4.412   4.392  0.5534  0.2882 -0.0645
 9433SOL    HW139932   2.220   4.326   4.350 -0.3696  0.1003  0.3522
 9433SOL    HW239933   2.199   4.395   4.484  1.6788 -1.0782 -0.0472
 9434SOL     OW39934   1.750   1.898   3.083  0.2051  0.5843 -0.2425
 9434SOL    HW139935   1.828   1.846   3.062  1.2365  2.4578 -1.0056
 9434SOL    HW239936   1.789   1.985   3.091  1.4108 -0.0254  0.5664
 9435SOL     OW39937   4.391   3.540  12.888  0.0648  0.7582 -0.4489
 9435SOL    HW139938   4.467   3.496  12.851  0.0552  1.0124 -0.7723
 9435SOL    HW239939   4.416   3.633  12.888  1.3317  0.4101  0.3447
 9436SOL     OW39940   0.276   4.519   3.791 -0.2271  0.3448  0.1741
 9436SOL    HW139941   0.222   4.440   3.786  0.2625  0.0783 -0.9277
 9436SOL    HW239942   0.223   4.574   3.848  0.2226 -0.3917  1.2835
 9437SOL     OW39943   0.326   3.604   2.630  0.1818  0.1118 -0.3209
 9437SOL    HW139944   0.339   3.693   2.661 -1.8482 -0.8451  3.2219
 9437SOL    HW239945   0.354   3.549   2.703 -0.3808  1.1929  0.7057
 9438SOL     OW39946   1.957   0.939   5.544 -0.4080  0.0576 -0.5770
 9438SOL    HW139947   2.014   1.015   5.556  1.1886 -0.9561 -1.7139
 9438SOL    HW239948   1.880   0.963   5.596  0.1138 -1.9670  1.1504
 9439SOL     OW39949   1.866   0.794  16.656 -0.3361  0.5624 -0.0436
 9439SOL    HW139950   1.802   0.828  16.593 -0.4191  0.7985  0.1707
 9439SOL    HW239951   1.868   0.861  16.724 -1.7245  3.1039 -2.4535
 9440SOL     OW39952   2.846   1.151   3.292 -0.4703  1.1221  0.3881
 9440SOL    HW139953   2.880   1.192   3.371  0.5011  1.1746 -0.0607
 9440SOL    HW239954   2.904   1.192   3.228 -2.1796  0.1467 -1.8150
 9441SOL     OW39955   0.326   3.612   5.754 -0.4062  0.3429 -0.4864
 9441SOL    HW139956   0.416   3.628   5.726  0.4953 -0.2063  2.1205
 9441SOL    HW239957   0.280   3.606   5.670 -0.2935  0.2854 -0.5441
 9442SOL     OW39958   0.100   0.705  15.175  0.0532  0.6142  0.1912
 9442SOL    HW139959   0.187   0.673  15.200 -0.4449  1.3949  3.0101
 9442SOL    HW239960   0.114   0.792  15.139  0.7125 -0.2200 -1.5598
 9443SOL     OW39961   2.686   0.877   2.340  0.8630 -0.5015  0.0473
 9443SOL    HW139962   2.717   0.787   2.354 -1.0517 -1.8445 -4.3804
 9443SOL    HW239963   2.746   0.894   2.268  0.8518 -1.1582 -0.1185
 9444SOL     OW39964   2.522   2.980  10.412  0.1318  0.1770  0.1096
 9444SOL    HW139965   2.493   2.994  10.322 -1.3997  1.7444  0.8633
 9444SOL    HW239966   2.496   2.889  10.425 -0.8939  0.2517 -1.5251
 9445SOL     OW39967   2.996   2.256   6.041  0.2656 -0.0235  0.1831
 9445SOL    HW139968   2.914   2.278   5.997  0.1453 -0.8848 -0.0271
 9445SOL    HW239969   3.050   2.270   5.964 -1.7488 -0.4629 -1.3180
 9446SOL     OW39970   1.488   3.238   5.601 -0.4492  0.0233 -0.1684
 9446SOL    HW139971   1.466   3.283   5.682 -3.1216  1.9100 -1.9356
 9446SOL    HW239972   1.419   3.172   5.598 -1.3206  0.8661  1.1540
 9447SOL     OW39973   3.465   3.850   3.280 -0.7841 -0.2544 -0.2997
 9447SOL    HW139974   3.399   3.810   3.224  0.6041 -1.8066 -0.8089
 9447SOL    HW239975   3.525   3.882   3.213  1.9893 -1.8904  1.4084
 9448SOL     OW39976   1.816   3.453   4.192 -0.4520  0.4175  0.2083
 9448SOL    HW139977   1.824   3.481   4.101 -2.2202 -0.2539 -0.1611
 9448SOL    HW239978   1.889   3.507   4.222 -0.1020 -1.2710  2.4292
 9449SOL     OW39979   3.359   4.487   7.087  0.3807 -0.5917  0.7804
 9449SOL    HW139980   3.265   4.472   7.091  0.0985  0.8193 -0.6544
 9449SOL    HW239981   3.357   4.582   7.073 -0.0617 -0.6800  0.2612
 9450SOL     OW39982   4.306   2.995   5.085 -0.0101  0.7004 -0.7230
 9450SOL    HW139983   4.305   2.944   5.004  2.6537 -1.2744  0.4782
 9450SOL    HW239984   4.304   3.080   5.042 -1.7067 -0.4261 -2.8261
 9451SOL     OW39985   3.272   2.935   6.503  0.0091  0.1313 -0.1101
 9451SOL    HW139986   3.226   2.920   6.421 -2.1853  1.8870  0.7881
 9451SOL    HW239987   3.279   3.029   6.519  3.0495  0.1814 -1.5870
 9452SOL     OW39988   0.027   4.653   2.696 -0.7108  0.4377  0.5126
 9452SOL    HW139989   0.029   4.699   2.780  1.2596  3.1316 -1.0257
 9452SOL    HW239990   4.677   4.615   2.701 -0.1952 -0.3617  4.0391
 9453SOL     OW39991   2.739   1.078  13.293  0.2787  0.0987 -0.3740
 9453SOL    HW139992   2.735   1.102  13.385 -0.1502  0.6839 -0.5425
 9453SOL    HW239993   2.795   1.149  13.259  0.3653  0.0430 -0.3485
 9454SOL     OW39994   0.926   3.163  11.821 -0.0296  0.5029 -0.6187
 9454SOL    HW139995   0.993   3.144  11.887 -0.0174  0.8538 -0.5351
 9454SOL    HW239996   0.972   3.141  11.740  1.3958 -0.4760  0.4517
 9455SOL     OW39997   1.817   2.925   6.853 -0.4120 -0.5108  0.3161
 9455SOL    HW139998   1.729   2.923   6.815 -0.5532 -0.5952  0.6453
 9455SOL    HW239999   1.849   3.014   6.840  0.2178 -0.8683 -0.5359
 9456SOL     OW40000   4.326   0.139   7.721 -0.3155 -0.5662 -0.2368
 9456SOL    HW140001   4.380   0.212   7.753  0.9682 -1.5288 -0.1982
 9456SOL    HW240002   4.361   0.062   7.765 -1.3923 -0.7893  0.2140
 9457SOL     OW40003   3.325   0.471   7.364 -0.2814  0.2260  0.1701
 9457SOL    HW140004   3.304   0.549   7.415  0.8989 -0.0883  1.1524
 9457SOL    HW240005   3.400   0.437   7.412 -0.2848  0.5919  0.4314
 9458SOL     OW40006   0.334   4.604   9.016  0.2505  0.3175  0.4310
 9458SOL    HW140007   0.375   4.608   9.103 -1.8275 -0.8420  1.4700
 9458SOL    HW240008   0.356   4.516   8.985  0.3135  0.5541 -0.1781
 9459SOL     OW40009   1.052   0.037  15.205  0.0509 -0.1318 -0.5052
 9459SOL    HW140010   0.968   4.732  15.221 -0.0722  1.4012  3.1408
 9459SOL    HW240011   1.059   0.084  15.288  1.3949 -1.3602  0.0832
 9460SOL     OW40012   2.488   1.761   0.398  0.0965  0.6700 -0.8076
 9460SOL    HW140013   2.533   1.845   0.403 -1.2272  1.4074 -1.1498
 9460SOL    HW240014   2.569   1.712   0.382 -1.2272 -1.2487 -1.6558
 9461SOL     OW40015   0.035   3.223   9.957 -0.4896 -0.0009  0.3406
 9461SOL    HW140016   4.707   3.182  10.014 -0.1402 -0.2020  0.5927
 9461SOL    HW240017   4.726   3.304   9.934  2.4094  1.1926 -1.2165
 9462SOL     OW40018   3.776   4.498  13.823  0.6222  0.0048  0.0419
 9462SOL    HW140019   3.815   4.419  13.861  2.2697  0.9580  0.3307
 9462SOL    HW240020   3.740   4.539  13.901  0.2596  1.0365 -0.6752
 9463SOL     OW40021   0.019   4.679  16.902  0.1427 -0.6066  0.1145
 9463SOL    HW140022   4.674   4.669  16.854 -0.0581  0.7616  0.1935
 9463SOL    HW240023   0.078   4.608  16.876 -0.7375 -1.0561 -0.6553
 9464SOL     OW40024   3.745   1.299   2.595 -0.3014 -0.5707  0.0983
 9464SOL    HW140025   3.692   1.220   2.580 -0.3356 -0.0051 -2.7994
 9464SOL    HW240026   3.783   1.283   2.681 -0.7669 -0.1971  0.3760
 9465SOL     OW40027   3.083   1.602   6.382 -0.1095  0.1092  0.2513
 9465SOL    HW140028   3.017   1.654   6.427 -0.2014  1.5262 -1.5506
 9465SOL    HW240029   3.047   1.513   6.387  1.1535 -0.4260 -0.0014
 9466SOL     OW40030   0.762   0.029   3.706 -0.0511 -0.7217  0.4056
 9466SOL    HW140031   0.709   0.099   3.667  2.2705  0.0757 -1.2733
 9466SOL    HW240032   0.827   0.020   3.637  0.3238  0.8950  0.5405
 9467SOL     OW40033   2.678   0.569   5.880 -0.5847 -0.1789  0.0865
 9467SOL    HW140034   2.666   0.572   5.975 -0.3386  0.8546  0.0779
 9467SOL    HW240035   2.652   0.479   5.857  1.1286 -0.3119 -1.2623
 9468SOL     OW40036   2.173   3.251   7.143 -0.4811  0.2453  0.4255
 9468SOL    HW140037   2.153   3.226   7.053 -1.8999 -1.1930  1.1212
 9468SOL    HW240038   2.140   3.176   7.193  2.6873 -2.2012 -1.1787
 9469SOL     OW40039   3.005   1.908   5.599 -0.1974 -0.0456 -0.3695
 9469SOL    HW140040   2.956   1.919   5.681 -0.4484  1.4256 -0.7244
 9469SOL    HW240041   2.989   1.992   5.558  0.8961 -0.0823 -0.8532
 9470SOL     OW40042   4.160   0.377  10.656 -0.5195  0.1702  0.5186
 9470SOL    HW140043   4.163   0.283  10.642 -0.6742 -0.0181  1.7584
 9470SOL    HW240044   4.135   0.394  10.565  1.6595  1.3455  0.1196
 9471SOL     OW40045   2.933   3.251  10.913  0.1263  0.5469  0.1834
 9471SOL    HW140046   2.842   3.262  10.886 -1.0454 -0.4933  3.6072
 9471SOL    HW240047   2.971   3.211  10.835 -0.2586 -0.1461  0.3515
 9472SOL     OW40048   4.629   4.631   6.426  0.3310  0.3663  0.0886
 9472SOL    HW140049   4.540   4.619   6.457  0.3603  1.6285  0.7054
 9472SOL    HW240050   4.624   4.569   6.354  1.8067 -0.0982  0.3871
 9473SOL     OW40051   1.053   0.814   2.485 -0.5697  0.4171 -0.3791
 9473SOL    HW140052   1.121   0.871   2.522 -0.0253 -1.3225  1.3202
 9473SOL    HW240053   1.034   0.757   2.560  0.0143  1.0099  0.2208
 9474SOL     OW40054   0.588   0.649   7.089  0.3939 -0.8534  0.0302
 9474SOL    HW140055   0.682   0.655   7.070  0.7184  2.5664  2.8248
 9474SOL    HW240056   0.557   0.692   7.009  1.0403  0.2089  0.3553
 9475SOL     OW40057   0.895   1.225   0.938 -0.0183  0.3464 -0.0092
 9475SOL    HW140058   0.848   1.306   0.959 -1.5108 -0.1877 -1.2324
 9475SOL    HW240059   0.877   1.219   0.844 -0.4490  1.4438 -0.0065
 9476SOL     OW40060   2.211   4.173   0.267  0.5557  0.0661 -0.0850
 9476SOL    HW140061   2.246   4.255   0.303 -0.1531  0.4537 -0.2700
 9476SOL    HW240062   2.234   4.186   0.176  0.0848 -0.1796 -0.2386
 9477SOL     OW40063   4.474   3.987   7.598  0.3514 -0.3812 -0.2220
 9477SOL    HW140064   4.490   4.012   7.508  1.8374 -1.2449 -0.2015
 9477SOL    HW240065   4.387   4.025   7.609 -0.1891 -1.5923 -0.3081
 9478SOL     OW40066   1.947   1.761   7.499  0.0648 -0.0834  0.1281
 9478SOL    HW140067   2.039   1.761   7.472  0.1946  0.2656  0.5610
 9478SOL    HW240068   1.924   1.672   7.525 -1.2919  0.3241  0.3580
 9479SOL     OW40069   3.611   0.689  16.885 -0.2523 -0.2973 -0.7928
 9479SOL    HW140070   3.535   0.727  16.929 -0.2247 -0.6646 -0.4201
 9479SOL    HW240071   3.664   0.765  16.862  0.5439  0.0270  2.0491
 9480SOL     OW40072   2.175   4.038   6.056 -0.5076  0.0633  0.2639
 9480SOL    HW140073   2.211   4.002   6.137 -1.3608 -2.2588 -0.3912
 9480SOL    HW240074   2.242   4.004   5.997 -0.5895  1.6376 -0.7346
 9481SOL     OW40075   3.385   2.696   4.279 -0.3471  0.1750 -0.3643
 9481SOL    HW140076   3.420   2.644   4.351  0.1533  1.4014  0.2839
 9481SOL    HW240077   3.425   2.663   4.199  0.6532  0.0021  0.2086
 9482SOL     OW40078   4.154   0.809   5.588 -0.4374 -0.3424 -0.2106
 9482SOL    HW140079   4.088   0.791   5.654 -0.6593  0.2607 -0.2719
 9482SOL    HW240080   4.123   0.753   5.517 -0.0543  1.8390 -2.1185
 9483SOL     OW40081   2.427   1.315   9.051  0.1604  0.1446  0.6618
 9483SOL    HW140082   2.393   1.227   9.038  0.9849 -0.5101  2.9362
 9483SOL    HW240083   2.498   1.311   8.987  0.3003  0.1085  0.8186
 9484SOL     OW40084   4.596   0.387   2.300  0.6416 -0.0048  0.5066
 9484SOL    HW140085   4.657   0.330   2.253  0.2607 -0.6116  0.7379
 9484SOL    HW240086   4.513   0.338   2.297  2.1683 -2.4374 -2.3216
 9485SOL     OW40087   0.777   1.845  16.890  0.4152  0.1612  0.4607
 9485SOL    HW140088   0.764   1.837  16.796 -0.3909 -0.9365  0.6703
 9485SOL    HW240089   0.809   1.936  16.891  1.3942 -0.1688 -0.5315
 9486SOL     OW40090   0.537   3.216   8.463  0.2756  0.7595 -0.4764
 9486SOL    HW140091   0.478   3.143   8.481 -0.1422  1.1781 -0.1422
 9486SOL    HW240092   0.562   3.197   8.373  0.6940  2.8572 -0.8176
 9487SOL     OW40093   0.567   4.190  13.694 -0.2032 -0.3186 -0.2978
 9487SOL    HW140094   0.570   4.167  13.601 -1.4384 -0.5999 -0.2739
 9487SOL    HW240095   0.640   4.136  13.724 -0.0238  0.4740  0.6640
 9488SOL     OW40096   3.039   1.599   2.207 -0.7822 -0.0710  0.1071
 9488SOL    HW140097   3.003   1.555   2.284 -1.1951  1.1012  0.5817
 9488SOL    HW240098   3.132   1.576   2.214 -0.6815 -0.1951 -1.6467
 9489SOL     OW40099   2.133   2.328   6.617  0.3611 -0.1369  0.1740
 9489SOL    HW140100   2.079   2.249   6.614 -0.9000  0.7187  0.2135
 9489SOL    HW240101   2.064   2.390   6.642  0.6828  0.7291 -1.0857
 9490SOL     OW40102   1.645   2.766   4.071  0.5260 -0.3482 -0.3630
 9490SOL    HW140103   1.654   2.823   4.147 -1.0509  0.6341 -0.9046
 9490SOL    HW240104   1.601   2.824   4.009 -1.3929 -1.7359 -0.3025
 9491SOL     OW40105   2.391   4.496  14.097  0.3364  0.3849 -0.3463
 9491SOL    HW140106   2.363   4.430  14.161  2.4246  0.4974  0.6658
 9491SOL    HW240107   2.334   4.570  14.120  0.9368  0.9375 -0.6337
 9492SOL     OW40108   0.791   1.338  13.554  0.1301  0.1568 -0.4796
 9492SOL    HW140109   0.822   1.310  13.640 -0.0291  1.1798 -0.0880
 9492SOL    HW240110   0.867   1.379  13.514  0.5086 -0.6808 -0.6249
 9493SOL     OW40111   3.106   3.777   3.353  0.0403  0.2540  0.1294
 9493SOL    HW140112   3.165   3.849   3.329 -0.8067  0.4467 -1.3455
 9493SOL    HW240113   3.046   3.767   3.279 -0.7364 -1.9317  1.0563
 9494SOL     OW40114   0.261   3.656   9.016 -0.6893  0.1694 -0.7578
 9494SOL    HW140115   0.247   3.715   9.091  0.3001  1.3793 -1.5369
 9494SOL    HW240116   0.351   3.671   8.989 -0.2496 -2.4397 -0.7886
 9495SOL     OW40117   0.796   1.208  12.831 -0.1968  0.2493  0.0157
 9495SOL    HW140118   0.761   1.119  12.822 -0.0510  0.0567  1.3415
 9495SOL    HW240119   0.888   1.183  12.823 -0.2519 -0.2685  1.0436
 9496SOL     OW40120   1.308   0.727   9.908  0.1987 -0.1696 -0.0072
 9496SOL    HW140121   1.289   0.698   9.997  0.4308  2.0567  0.7797
 9496SOL    HW240122   1.399   0.703   9.888  0.2806 -1.5557  2.0302
 9497SOL     OW40123   3.678   1.049   6.848  0.4153  0.0645  0.0968
 9497SOL    HW140124   3.691   0.957   6.825 -1.1883  0.3800 -2.1367
 9497SOL    HW240125   3.704   1.099   6.771  1.5353 -0.1170  0.3625
 9498SOL     OW40126   4.368   1.340  13.963 -0.1131 -0.9839  0.8152
 9498SOL    HW140127   4.282   1.375  13.985 -0.1781  1.0752 -2.6993
 9498SOL    HW240128   4.390   1.379  13.878 -0.2365 -0.6077  0.9559
 9499SOL     OW40129   4.613   1.114   0.115 -0.1429  0.1903 -0.3052
 9499SOL    HW140130   4.519   1.112   0.098 -0.4457  0.5088  1.2813
 9499SOL    HW240131   4.647   1.178   0.053  1.6408 -0.9000 -0.4512
 9500SOL     OW40132   0.325   4.470   8.103 -0.0824 -0.9748 -0.2824
 9500SOL    HW140133   0.254   4.412   8.076  0.7357 -2.3184  0.4126
 9500SOL    HW240134   0.334   4.449   8.196  1.9371 -0.9165 -0.4485
 9501SOL     OW40135   2.189   0.766  14.153 -0.2058 -0.0724 -0.8601
 9501SOL    HW140136   2.266   0.737  14.202 -0.2770 -1.9007 -1.8207
 9501SOL    HW240137   2.220   0.757  14.062  2.3427  0.9837 -0.1015
 9502SOL     OW40138   1.424   0.981  14.714 -0.2219  0.1930  0.6622
 9502SOL    HW140139   1.478   0.909  14.745 -2.4047 -1.6569  0.1465
 9502SOL    HW240140   1.465   1.001  14.630 -0.3555  2.5997  1.1646
 9503SOL     OW40141   1.725   2.625   2.864  0.2156  0.5738  0.4146
 9503SOL    HW140142   1.772   2.660   2.789 -1.7023  1.7969 -0.2358
 9503SOL    HW240143   1.796   2.588   2.917 -0.3891 -0.8895  0.1941
 9504SOL     OW40144   4.036   0.216   8.374  0.2934  0.0929 -0.1751
 9504SOL    HW140145   4.012   0.139   8.425  2.1631 -0.6453 -0.4241
 9504SOL    HW240146   4.060   0.175   8.291  0.9066  0.2427 -0.0734
 9505SOL     OW40147   0.546   3.992  10.302  0.2122 -0.3674 -0.2937
 9505SOL    HW140148   0.629   4.037  10.316 -0.1847  0.0604  0.6859
 9505SOL    HW240149   0.542   3.914  10.357  1.3619  1.6680  2.6312
 9506SOL     OW40150   4.155   1.742   2.873  0.1008 -0.0974  0.6982
 9506SOL    HW140151   4.136   1.661   2.825  0.6967 -0.2518  0.7201
 9506SOL    HW240152   4.195   1.789   2.800  2.6573  0.8071  2.6939
 9507SOL     OW40153   0.156   2.931   3.173  0.1242 -0.0528 -0.3639
 9507SOL    HW140154   0.099   2.901   3.244  1.1858 -0.0515  0.4947
 9507SOL    HW240155   0.239   2.885   3.190  0.8892  1.7543  0.7988
 9508SOL     OW40156   1.355   2.359   1.951 -0.1239  0.0485  0.4851
 9508SOL    HW140157   1.362   2.278   2.000  0.4100  0.6117  1.3494
 9508SOL    HW240158   1.265   2.352   1.922  0.6612 -5.4270 -0.5382
 9509SOL     OW40159   2.678   3.427   8.349 -0.2085  0.1568 -0.6985
 9509SOL    HW140160   2.707   3.505   8.397  1.7841 -1.5317  0.8603
 9509SOL    HW240161   2.657   3.374   8.426  0.1803  1.7837  0.5436
 9510SOL     OW40162   1.681   3.136   4.491 -0.1066 -0.2462  0.2459
 9510SOL    HW140163   1.671   3.119   4.585 -1.9297  2.1089  0.4855
 9510SOL    HW240164   1.732   3.058   4.470  0.2329  0.0839 -0.1569
 9511SOL     OW40165   1.582   1.901   4.556 -1.0980 -0.6877 -0.3702
 9511SOL    HW140166   1.517   1.965   4.587 -0.2041 -0.4021  0.9395
 9511SOL    HW240167   1.658   1.959   4.559 -1.4638 -0.1629 -1.2318
 9512SOL     OW40168   4.441   2.083   8.754 -0.6896 -0.0581 -0.3778
 9512SOL    HW140169   4.477   2.118   8.673  1.4724  0.8900  0.9822
 9512SOL    HW240170   4.510   2.095   8.820 -2.7042  0.3100  1.6810
 9513SOL     OW40171   4.389   2.662   7.156 -0.0987 -0.1001  0.3356
 9513SOL    HW140172   4.305   2.640   7.196 -0.0885 -0.2164  0.2941
 9513SOL    HW240173   4.441   2.589   7.188 -1.5627 -2.4952 -2.6911
 9514SOL     OW40174   2.940   2.121  15.257 -0.0403  0.0625 -0.1922
 9514SOL    HW140175   2.876   2.169  15.204  0.3417 -1.0701 -1.6840
 9514SOL    HW240176   2.884   2.067  15.312 -0.6117  1.2724  0.4181
 9515SOL     OW40177   0.336   4.314   1.581  0.8023  0.3263 -0.6248
 9515SOL    HW140178   0.299   4.261   1.652  0.2417  0.1857 -1.0236
 9515SOL    HW240179   0.426   4.316   1.612 -0.7315  0.2534  3.8685
 9516SOL     OW40180   2.127   2.080   5.176  0.7477  0.0916  0.0708
 9516SOL    HW140181   2.131   2.121   5.263 -1.5014  0.0735  0.1784
 9516SOL    HW240182   2.075   2.150   5.137 -1.4647  0.8526  4.4021
 9517SOL     OW40183   0.590   2.268   2.077  0.5269 -0.2528 -0.1579
 9517SOL    HW140184   0.537   2.330   2.027  1.0320  1.2984  1.1935
 9517SOL    HW240185   0.570   2.292   2.168  0.2596  1.1671 -0.5837
 9518SOL     OW40186   0.798   3.869  10.709 -0.1426  0.0526  0.0485
 9518SOL    HW140187   0.869   3.805  10.702  0.3431  0.5540  0.3731
 9518SOL    HW240188   0.829   3.919  10.784  1.8061 -2.0104  0.6257
 9519SOL     OW40189   3.403   1.132   2.086  0.9640  0.1345 -0.0114
 9519SOL    HW140190   3.384   1.199   2.020  0.4232 -0.3164 -0.3124
 9519SOL    HW240191   3.473   1.078   2.048  0.4517 -1.1637  0.8711
 9520SOL     OW40192   1.083   1.553  10.236 -0.2139 -0.2274  0.0365
 9520SOL    HW140193   0.994   1.566  10.266 -0.4523 -0.6687 -0.4761
 9520SOL    HW240194   1.093   1.628  10.178  0.1504  1.7941  2.7188
 9521SOL     OW40195   1.489   1.265   6.462 -0.4344  0.3012  0.4477
 9521SOL    HW140196   1.468   1.207   6.535 -1.2941  0.1421  0.0721
 9521SOL    HW240197   1.572   1.290   6.503 -0.7328  1.3306  0.4449
 9522SOL     OW40198   1.707   1.426   3.192 -0.4273  0.5016  0.1485
 9522SOL    HW140199   1.718   1.380   3.109 -0.4370 -1.0487  1.0092
 9522SOL    HW240200   1.652   1.361   3.236  0.2229 -0.5434 -0.6032
 9523SOL     OW40201   3.495   1.701   0.987 -0.0435  0.3909  0.0503
 9523SOL    HW140202   3.549   1.652   0.925  0.3629  0.6045  0.2369
 9523SOL    HW240203   3.555   1.742   1.049  0.8394 -0.2198 -0.3955
 9524SOL     OW40204   1.769   3.134   2.843 -0.1109 -0.2171  0.1578
 9524SOL    HW140205   1.693   3.184   2.813  0.5685  1.2625  0.9260
 9524SOL    HW240206   1.831   3.200   2.874  0.5748 -0.8793  0.2061
 9525SOL     OW40207   0.725   3.283   2.622 -0.1299  0.0525 -0.0956
 9525SOL    HW140208   0.637   3.246   2.619 -0.0049 -0.4715  2.1571
 9525SOL    HW240209   0.706   3.373   2.650 -1.7954  0.2038 -1.7765
 9526SOL     OW40210   3.596   1.172  11.724  0.6124 -0.4543 -0.1925
 9526SOL    HW140211   3.625   1.081  11.715  1.4315 -0.3619  1.5543
 9526SOL    HW240212   3.518   1.159  11.778 -0.8454  1.6458 -1.8036
 9527SOL     OW40213   4.618   3.198   4.612  0.0764 -0.2003  0.0869
 9527SOL    HW140214   4.707   3.164   4.600 -0.3260 -1.4806  0.6544
 9527SOL    HW240215   4.565   3.119   4.600 -0.9612  0.9145 -2.7639
 9528SOL     OW40216   1.749   3.338   7.568  0.1284 -0.5841  0.3631
 9528SOL    HW140217   1.819   3.390   7.529 -0.6777  1.1132  1.2146
 9528SOL    HW240218   1.686   3.325   7.497  1.7690  0.1342 -1.2053
 9529SOL     OW40219   0.013   1.977  11.580  0.0617 -0.1204  0.0826
 9529SOL    HW140220   0.025   2.059  11.629 -2.9271  1.2304 -1.4404
 9529SOL    HW240221   4.661   1.982  11.547  0.4978 -0.2942 -1.1296
 9530SOL     OW40222   0.642   3.641  10.813  0.5884 -0.3128 -0.2945
 9530SOL    HW140223   0.714   3.654  10.752  0.3289  1.0522 -0.2952
 9530SOL    HW240224   0.655   3.712  10.876 -0.2137 -0.0420 -0.4402
 9531SOL     OW40225   4.337   1.545   4.276  0.2056  0.2418  0.5113
 9531SOL    HW140226   4.246   1.521   4.259  1.1642 -1.5961 -1.8383
 9531SOL    HW240227   4.338   1.634   4.239 -1.9425 -0.2580 -0.6985
 9532SOL     OW40228   3.891   1.543   2.877  0.2539 -0.0297 -0.4408
 9532SOL    HW140229   3.907   1.451   2.858 -1.4066 -1.0151  3.1605
 9532SOL    HW240230   3.829   1.555   2.805  0.3746  0.5981 -0.4392
 9533SOL     OW40231   0.259   3.829   7.818  0.8102  0.2548 -0.2679
 9533SOL    HW140232   0.308   3.764   7.768 -0.5713  0.7652 -2.3430
 9533SOL    HW240233   0.206   3.770   7.872  1.6088  0.4309  0.6914
 9534SOL     OW40234   2.649   2.703   2.112 -0.1266  0.0013  0.2043
 9534SOL    HW140235   2.669   2.757   2.188 -0.8996  0.5762  0.0014
 9534SOL    HW240236   2.605   2.623   2.142  0.5460  0.2275  1.7904
 9535SOL     OW40237   2.807   2.233   3.611  0.7740 -0.3724 -0.3418
 9535SOL    HW140238   2.840   2.281   3.535 -0.1747 -2.4233 -2.0447
 9535SOL    HW240239   2.817   2.287   3.689 -2.9826  0.7523 -0.6479
 9536SOL     OW40240   0.223   3.141  11.277  0.8894  0.5075 -0.0309
 9536SOL    HW140241   0.278   3.180  11.344 -1.1439  0.5151  1.6317
 9536SOL    HW240242   0.272   3.071  11.233 -0.0728 -0.3576  0.2643
 9537SOL     OW40243   2.979   0.460   1.085 -0.1371 -0.2173 -0.1767
 9537SOL    HW140244   2.991   0.555   1.084 -0.5408 -0.1677 -0.1096
 9537SOL    HW240245   3.066   0.440   1.120 -0.9267 -0.9746  1.3715
 9538SOL     OW40246   2.552   1.694  10.318  0.1265  0.0765 -0.0097
 9538SOL    HW140247   2.526   1.646  10.396 -0.8749 -1.0473 -1.0380
 9538SOL    HW240248   2.637   1.731  10.342  0.2930  0.4858 -1.2279
 9539SOL     OW40249   0.073   3.540   4.111  0.2704  0.2735  0.3284
 9539SOL    HW140250   0.064   3.609   4.177 -0.0052  1.2168 -0.6997
 9539SOL    HW240251   0.132   3.583   4.051 -1.2976  1.1687 -0.5707
 9540SOL     OW40252   3.788   0.639  17.530  0.6727  0.1673  0.2760
 9540SOL    HW140253   3.809   0.623  17.438  1.4100 -3.7807  1.1349
 9540SOL    HW240254   3.802   0.734  17.522  1.5409  0.0339  0.2208
 9541SOL     OW40255   1.068   4.267   5.714  0.6303  0.0073  0.2902
 9541SOL    HW140256   1.114   4.297   5.792  0.8835  0.8442 -0.1807
 9541SOL    HW240257   1.018   4.196   5.754  0.6904 -0.0770  0.2146
 9542SOL     OW40258   2.354   0.095   4.783  0.3451 -0.0840 -0.0918
 9542SOL    HW140259   2.262   0.104   4.756  0.2881  0.3081  0.2308
 9542SOL    HW240260   2.400   0.095   4.699  0.9507  0.9827  0.2413
 9543SOL     OW40261   2.901   3.310   9.343 -0.2664  0.0101  0.1283
 9543SOL    HW140262   2.940   3.397   9.352  0.5703 -0.3468 -0.1052
 9543SOL    HW240263   2.812   3.337   9.322  0.6592  0.5642 -3.0443
 9544SOL     OW40264   1.687   3.844   7.311  0.4355 -0.2120  0.4816
 9544SOL    HW140265   1.628   3.799   7.250 -0.1881  2.4696 -0.9006
 9544SOL    HW240266   1.631   3.841   7.388  1.3293 -0.9603  1.1001
 9545SOL     OW40267   3.683   0.334  16.041 -0.5724 -0.3880 -0.3277
 9545SOL    HW140268   3.626   0.258  16.038 -1.1946  0.0813 -0.4488
 9545SOL    HW240269   3.730   0.316  16.123 -1.7001 -0.3810  0.3196
 9546SOL     OW40270   1.458   2.668   9.653  0.8201  0.0576  0.0489
 9546SOL    HW140271   1.451   2.715   9.569  0.0180 -1.8811 -0.9556
 9546SOL    HW240272   1.420   2.731   9.714 -0.1818 -1.2787  0.7828
 9547SOL     OW40273   0.462   1.405  10.406 -0.0366 -0.1761  0.6423
 9547SOL    HW140274   0.432   1.331  10.354 -0.7128  0.9145 -0.5388
 9547SOL    HW240275   0.377   1.449  10.419 -0.1126  0.0180 -0.4431
 9548SOL     OW40276   1.799   1.867   6.159 -0.0576 -0.1091  0.1753
 9548SOL    HW140277   1.752   1.821   6.089  1.0570  2.4545 -2.2806
 9548SOL    HW240278   1.746   1.946   6.167 -0.7675 -0.6334  0.7084
 9549SOL     OW40279   3.772   2.034  11.585  0.2811  0.4197  0.9970
 9549SOL    HW140280   3.719   1.957  11.563  0.1062  0.0429  2.6542
 9549SOL    HW240281   3.712   2.070  11.651  0.6511 -2.0285  2.6946
 9550SOL     OW40282   3.521   1.878  10.058 -0.3845 -0.4078  0.0711
 9550SOL    HW140283   3.516   1.797  10.007  1.2677 -1.7112  2.0192
 9550SOL    HW240284   3.613   1.881  10.081  0.0297 -1.5532 -1.4082
 9551SOL     OW40285   3.888   3.202  16.520  0.2275 -0.7027  0.0802
 9551SOL    HW140286   3.910   3.112  16.496 -1.1521 -1.5921  2.2016
 9551SOL    HW240287   3.977   3.236  16.509  0.0218 -0.6228 -1.3523
 9552SOL     OW40288   4.567   3.648   6.238 -1.0988  0.1485  0.2430
 9552SOL    HW140289   4.556   3.556   6.261  1.7519  0.1658  1.6105
 9552SOL    HW240290   4.547   3.697   6.317  0.4655  1.6198 -0.2801
 9553SOL     OW40291   1.412   4.158   8.327 -0.2937 -0.2684  0.3418
 9553SOL    HW140292   1.385   4.154   8.235  0.2157 -0.1872  0.1890
 9553SOL    HW240293   1.377   4.074   8.356 -2.5776  0.3251 -0.6742
 9554SOL     OW40294   1.464   2.118  15.007  0.0309 -0.3516 -0.3081
 9554SOL    HW140295   1.510   2.175  14.946 -0.9730  1.1949  0.3707
 9554SOL    HW240296   1.412   2.180  15.059 -0.0178 -0.2217 -0.5130
 9555SOL     OW40297   2.554   1.126   9.415  0.6184  0.1931  0.5211
 9555SOL    HW140298   2.615   1.129   9.342 -1.3932  0.0570 -1.1658
 9555SOL    HW240299   2.478   1.171   9.379 -0.1382 -0.7932  0.8595
 9556SOL     OW40300   2.534   4.310   7.990  0.0190  0.2351 -0.4542
 9556SOL    HW140301   2.562   4.372   8.057 -0.7705  1.1249 -0.9508
 9556SOL    HW240302   2.465   4.259   8.031  0.3394 -0.5977 -0.9320
 9557SOL     OW40303   0.917   2.557   5.564  0.0596 -0.1167  0.1647
 9557SOL    HW140304   0.834   2.516   5.536 -0.9625 -0.0403  3.1197
 9557SOL    HW240305   0.931   2.634   5.509  0.8729 -2.5318 -3.0543
 9558SOL     OW40306   3.793   2.610  12.738  0.2852 -0.3261 -0.2335
 9558SOL    HW140307   3.877   2.587  12.700  0.5898  1.0310 -0.4050
 9558SOL    HW240308   3.781   2.549  12.811 -2.8021  0.5262 -0.0141
 9559SOL     OW40309   4.703   2.442   6.626 -0.5107  0.3903  0.5849
 9559SOL    HW140310   0.005   2.447   6.539  1.2625 -1.2421  1.2870
 9559SOL    HW240311   4.725   2.528   6.664 -2.5130  0.1962  2.2013
 9560SOL     OW40312   3.159   0.487   4.890  0.4475  0.2894  0.4566
 9560SOL    HW140313   3.112   0.570   4.891 -0.4601 -0.2133 -0.2761
 9560SOL    HW240314   3.100   0.421   4.929 -1.1753  1.3404 -0.2160
 9561SOL     OW40315   3.926   1.600   6.480 -0.0125  0.3253  0.1656
 9561SOL    HW140316   3.915   1.584   6.386  1.8576  1.1192 -0.1887
 9561SOL    HW240317   4.021   1.592   6.490 -0.4776 -2.2530  2.5784
 9562SOL     OW40318   3.658   3.353   2.219  0.1894  0.3891  0.0422
 9562SOL    HW140319   3.659   3.296   2.295  0.1954 -0.0481 -0.2906
 9562SOL    HW240320   3.565   3.371   2.208  0.2949  1.4067  0.8106
 9563SOL     OW40321   3.705   2.739   7.892  0.2209  0.5075  0.1836
 9563SOL    HW140322   3.695   2.659   7.944 -2.6534  0.3846 -0.5150
 9563SOL    HW240323   3.637   2.713   7.829  0.9719  1.2092 -0.8981
 9564SOL     OW40324   0.298   3.164  10.054  0.1765  0.3595 -0.2926
 9564SOL    HW140325   0.255   3.149  10.137 -1.6418  0.8192 -1.1656
 9564SOL    HW240326   0.226   3.194   9.998 -1.3541 -2.5818  0.1151
 9565SOL     OW40327   4.699   4.430   3.958  0.4714 -0.6629 -0.1748
 9565SOL    HW140328   4.606   4.454   3.954  1.3169  2.4167 -0.8735
 9565SOL    HW240329   0.004   4.515   3.953  2.6965 -1.8529 -1.2539
 9566SOL     OW40330   4.222   4.450   7.616  0.4441  0.5903 -0.2313
 9566SOL    HW140331   4.200   4.540   7.640 -0.7596  0.2188  0.0756
 9566SOL    HW240332   4.314   4.440   7.640 -0.0996  1.1336  2.0658
 9567SOL     OW40333   2.370   4.152   2.831  0.7069 -0.4559 -0.1007
 9567SOL    HW140334   2.446   4.209   2.824  0.6668 -0.6706 -2.2069
 9567SOL    HW240335   2.318   4.188   2.904  0.3126 -0.0090 -0.6027
 9568SOL     OW40336   3.348   2.684  16.950 -0.4522  0.0766  0.1577
 9568SOL    HW140337   3.391   2.733  16.880 -1.4747  2.2217  1.0183
 9568SOL    HW240338   3.271   2.652  16.904  0.9079 -1.5062 -0.9786
 9569SOL     OW40339   0.164   0.992   3.562  0.4834  0.0414  0.1491
 9569SOL    HW140340   0.092   1.054   3.569 -0.1376 -0.3776 -2.6232
 9569SOL    HW240341   0.221   1.032   3.627  0.9377  0.8972 -0.7729
 9570SOL     OW40342   4.063   2.815  15.776 -0.0124 -0.5665  0.3833
 9570SOL    HW140343   4.061   2.910  15.783 -0.4200 -0.6018  0.7780
 9570SOL    HW240344   4.004   2.802  15.701 -0.7361  0.4705  0.7672
 9571SOL     OW40345   3.738   3.947   4.409 -0.6385 -0.1161 -0.1280
 9571SOL    HW140346   3.668   3.998   4.369  0.1556  1.1299  0.0805
 9571SOL    HW240347   3.797   4.018   4.435 -0.0789  0.0491 -1.9026
   4.73714   4.73714  17.74689
