Membrane in water
40347
    1TMC1    C1    1   3.272   4.341  11.705 -0.2661 -0.3990  0.1535
    1TMC1    C2    2   3.153   4.407  11.703 -0.0157  0.2745 -0.2446
    1TMC1    C3    3   3.159   4.545  11.716  0.2590  0.3084  0.1028
    1TMC1    C4    4   3.396   4.400  11.723  0.2417 -0.1300 -0.9385
    1TMC1    C5    5   3.397   4.535  11.735 -0.6769 -0.1618 -0.3095
    1TMC1    C6    6   3.281   4.608  11.732  0.1615 -0.0029  0.6167
    1TMC1     C    7   3.260   4.201  11.688  0.0947  0.8944 -0.1355
    1TMC1     O    8   3.152   4.155  11.679 -0.1324 -0.3995  0.4825
    1TMC1     H    9   3.064   4.354  11.671  0.2154  1.8982 -3.5916
    1TMC1    H1   10   3.485   4.338  11.718 -0.5160 -1.1333 -2.2279
    1TMC1    H2   11   3.280   4.716  11.740 -0.7940  0.0065  0.4392
    1TMC1    C7   12   3.505   4.597  11.806  0.3087  0.4456  0.2207
    1TMC1    C8   13   3.045   4.626  11.751  0.1886 -0.1380  0.5791
    1TMC1    O1   14   3.490   4.691  11.887 -0.2358  0.3608 -0.1631
    1TMC1    O2   15   3.059   0.013  11.746  0.8206 -1.2123  0.7889
    1TMC1    O3   16   3.614   4.540  11.755 -0.5770 -0.1225  0.1226
    1TMC1    H3   17   3.599   4.496  11.669  1.4037 -0.1203 -0.2251
    1TMC1    O5   18   3.001   4.560  11.864 -0.4191 -0.1785  0.0940
    1TMC1    H5   19   2.976   4.468  11.841  0.5016  0.1741 -2.3577
    2MPD2     C   20   3.450   3.714  11.703 -0.0026  0.2703  0.4919
    2MPD2    C1   21   3.325   3.756  11.723 -0.0736 -0.0270 -0.3043
    2MPD2    C2   22   3.301   3.895  11.711  0.4456 -0.3343 -0.4817
    2MPD2    C3   23   3.400   3.995  11.683 -0.5823 -0.1303  0.2106
    2MPD2    C4   24   3.527   3.942  11.664  0.2713 -0.3523  0.2454
    2MPD2    C5   25   3.551   3.803  11.684 -0.6423  0.3178  0.2441
    2MPD2     H   26   3.200   3.926  11.738  0.8329  1.4724 -1.1093
    2MPD2    H1   27   3.606   4.013  11.641  0.5093  0.2155  2.7872
    2MPD2    H2   28   3.484   3.611  11.697 -0.0248  0.3319 -0.7419
    2MPD2    H3   29   3.652   3.765  11.672 -0.6174  0.3775  0.2689
    2MPD2     N   30   3.383   4.133  11.667 -0.2494 -0.2601  0.0847
    2MPD2    H5   31   3.466   4.189  11.652  0.5031 -2.5061 -4.0464
    2MPD2    N1   32   3.219   3.673  11.769 -0.0591 -0.2875 -0.6686
    2MPD2    H7   33   3.133   3.725  11.755 -0.4023 -0.6545  0.0150
    3TMC1    C1   34   2.786   4.087  11.021 -0.0265  0.4243 -0.0046
    3TMC1    C2   35   2.863   3.977  11.004 -0.3890 -0.2411  0.2336
    3TMC1    C3   36   2.994   3.991  10.962  0.6698  0.3338 -0.2195
    3TMC1    C4   37   2.836   4.216  11.019  0.1847 -0.0035  0.3791
    3TMC1    C5   38   2.965   4.225  10.966 -1.1097 -0.2379 -0.0174
    3TMC1    C6   39   3.042   4.115  10.943  0.1668  0.1227  0.1950
    3TMC1     C   40   2.645   4.064  11.059  0.5155  0.8048 -0.4564
    3TMC1     O   41   2.595   3.952  11.043  0.0946  0.0952 -0.0026
    3TMC1     H   42   2.824   3.878  11.021 -0.7187 -0.5435 -2.2216
    3TMC1    H1   43   2.770   4.302  11.022 -0.9626 -0.8716 -0.0586
    3TMC1    H2   44   3.146   4.133  10.917 -0.3173  1.8670 -0.5141
    3TMC1    C7   45   3.016   4.364  10.963  0.0553 -0.2484  0.0537
    3TMC1    C8   46   3.057   3.873  10.909  0.2615  0.2688 -0.4176
    3TMC1    O1   47   2.935   4.455  10.966 -0.1527  0.3378 -0.0155
    3TMC1    O2   48   3.020   3.759  10.939 -0.1754  0.1066  0.9338
    3TMC1    O3   49   3.146   4.364  10.912  0.0433  0.2285  0.0666
    3TMC1    H3   50   3.192   4.277  10.909  0.7414  0.5965  0.1954
    3TMC1    O5   51   3.077   3.900  10.776  0.1617 -0.2711 -0.3775
    3TMC1    H5   52   3.087   3.993  10.748  0.6024 -0.0509  0.5060
    4MPD2     C   53   2.177   4.263  11.122  0.4009  0.0715  0.3658
    4MPD2    C1   54   2.269   4.350  11.169  0.3535  0.0382  0.0450
    4MPD2    C2   55   2.404   4.319  11.149 -0.2106 -0.0641  0.3789
    4MPD2    C3   56   2.440   4.198  11.100  0.1345 -0.3660  0.0553
    4MPD2    C4   57   2.348   4.107  11.060 -0.1830  0.3985  0.3471
    4MPD2    C5   58   2.213   4.148  11.066  0.0222 -0.1107 -0.6790
    4MPD2     H   59   2.491   4.381  11.167  1.2376 -2.1061  0.3960
    4MPD2    H1   60   2.374   4.011  11.016 -1.4667 -0.2144  0.9462
    4MPD2    H2   61   2.071   4.282  11.110  0.5751  0.1336 -1.0735
    4MPD2    H3   62   2.135   4.078  11.038 -0.1242 -1.3370  2.8197
    4MPD2     N   63   2.579   4.177  11.093  0.3153 -0.2247 -0.1739
    4MPD2    H5   64   2.632   4.261  11.110  0.3637 -0.2318 -0.2897
    4MPD2    N1   65   2.239   4.483  11.202  0.1322 -0.0705 -0.7614
    4MPD2    H7   66   2.319   4.543  11.218  0.7225 -1.0512 -0.0267
    5TCq1    O1   67   3.438   1.512  12.171  0.6619  0.2457 -0.1046
    5TCq1    C1   68   3.350   1.487  12.276 -0.0319  0.5269  0.2078
    5TCq1    O2   69   3.380   1.435  12.384 -0.7698  0.5579  0.4935
    5TCq1    C2   70   3.219   1.518  12.237 -0.4390  0.5435  0.1513
    5TCq1    C3   71   3.128   1.518  12.339 -0.0478 -0.1717 -0.0980
    5TCq1    C4   72   3.001   1.546  12.311  0.2167  0.3017 -0.1528
    5TCq1    C5   73   2.957   1.559  12.179 -0.1985  0.3194 -0.3104
    5TCq1    C6   74   3.051   1.554  12.083  0.1695 -0.0229  0.1465
    5TCq1    C7   75   3.185   1.529  12.111 -0.1695  0.0242 -0.1501
    5TCq1    C8   76   3.019   1.529  11.943  0.5410  0.5213  0.7294
    5TCq1    O4   77   3.100   1.497  11.856  0.8905  0.2363  0.7769
    5TCq1    C9   78   2.904   1.541  12.419 -0.3669 -0.2637 -0.3148
    5TCq1    O5   79   2.780   1.546  12.381  0.0311  0.0875  0.3163
    5TCq1    O6   80   2.941   1.519  12.539 -0.1249 -0.7672  0.6351
    5TCq1    H1   81   3.390   1.554  12.096 -0.8700  1.6327  1.6282
    5TCq1    H2   82   3.164   1.511  12.442 -1.5103  0.4719  0.4466
    5TCq1    H3   83   2.852   1.557  12.154 -0.0506 -2.2071 -0.7528
    5TCq1    H4   84   3.256   1.524  12.029  0.0130 -1.2903  0.0891
    6MPD2     C   85   2.669   1.567  11.816 -0.0227 -0.1827  0.8065
    6MPD2    C1   86   2.802   1.538  11.810 -0.2631 -0.6764 -0.7742
    6MPD2    C2   87   2.849   1.479  11.695 -0.4729 -0.6316 -0.6603
    6MPD2    C3   88   2.770   1.461  11.582 -1.0052 -0.1167 -0.0201
    6MPD2    C4   89   2.635   1.508  11.585 -0.6174 -0.4250 -0.5791
    6MPD2    C5   90   2.588   1.548  11.707 -0.1447  0.2350  1.0600
    6MPD2     H   91   2.953   1.451  11.684 -0.4394 -0.4579 -0.7865
    6MPD2    H1   92   2.566   1.511  11.501  0.2807 -0.3472 -1.3177
    6MPD2    H2   93   2.630   1.619  11.903 -1.9682 -1.2472  0.5687
    6MPD2    H3   94   2.488   1.587  11.717  0.3186  1.5414  0.6634
    6MPD2     N   95   2.826   1.400  11.469  0.6804 -0.7532  0.0530
    6MPD2    H5   96   2.923   1.372  11.476  1.1245  0.5976 -0.7880
    6MPD2    N1   97   2.884   1.561  11.923  0.5678 -0.4303  0.1733
    6MPD2    H7   98   2.851   1.610  12.005 -1.0877 -0.3511 -0.5515
    7TCq1    O1   99   0.378   0.789  13.201  0.4043 -0.2907  0.9295
    7TCq1    C1  100   0.491   0.819  13.132 -0.6281  0.0538  0.1884
    7TCq1    O2  101   0.534   0.931  13.111  0.4273  0.7086  0.2227
    7TCq1    C2  102   0.489   0.707  13.029 -0.2703  0.3074  0.2179
    7TCq1    C3  103   0.479   0.757  12.902 -0.3587 -0.0955  0.4496
    7TCq1    C4  104   0.428   0.677  12.802  0.0665  0.1515 -0.1128
    7TCq1    C5  105   0.397   0.547  12.836  0.3951  0.5407 -0.0819
    7TCq1    C6  106   0.419   0.497  12.964  0.4657 -0.1856  0.1289
    7TCq1    C7  107   0.453   0.580  13.070  0.1322 -0.4012  0.0933
    7TCq1    C8  108   0.409   0.358  12.995  0.5665 -0.7193 -0.3369
    7TCq1    O4  109   0.415   0.322  13.112  0.2661  0.8561 -0.2710
    7TCq1    C9  110   0.408   0.720  12.667 -0.5431  0.4873 -0.3432
    7TCq1    O5  111   0.430   0.837  12.632 -0.6049 -0.0821 -0.1276
    7TCq1    O6  112   0.388   0.630  12.580  0.1305  0.1364 -0.5649
    7TCq1    H1  113   0.343   0.700  13.180  0.4268 -0.4084  1.3846
    7TCq1    H2  114   0.510   0.858  12.877  1.4130 -0.7830 -0.2047
    7TCq1    H3  115   0.369   0.482  12.754 -0.5112  2.3365 -1.1954
    7TCq1    H4  116   0.480   0.526  13.160 -2.8216  0.7159  1.6438
    8MPD2     C  117   0.189   4.635  12.909  0.0958 -0.2503  0.2166
    8MPD2    C1  118   0.269   4.670  13.011  0.2436 -0.1552 -0.3558
    8MPD2    C2  119   0.334   0.059  13.006 -0.6585 -0.4429  0.0816
    8MPD2    C3  120   0.307   0.153  12.902 -0.4051 -0.2895  0.6012
    8MPD2    C4  121   0.228   0.112  12.803  0.3428  0.0166  0.0492
    8MPD2    C5  122   0.171   4.723  12.800 -0.0641 -0.2968  0.4491
    8MPD2     H  123   0.406   0.087  13.082  1.7808 -2.3913 -1.5034
    8MPD2    H1  124   0.225   0.170  12.711  2.6590  0.9620  0.5648
    8MPD2    H2  125   0.134   4.541  12.903  0.1926 -0.4425  2.3065
    8MPD2    H3  126   0.122   4.695  12.707 -0.4233 -0.1118  0.5847
    8MPD2     N  127   0.357   0.284  12.885 -0.0026 -0.2311  0.0412
    8MPD2    H5  128   0.352   0.321  12.790 -1.0349  1.0819  0.6121
    8MPD2    N1  129   0.282   4.578  13.115  0.2928 -0.0750  0.6963
    8MPD2    H7  130   0.236   4.488  13.103  2.9368 -1.5206  1.4273
    9TMC1    C1  131   3.036   0.551  11.654 -0.2496 -0.2286 -0.6163
    9TMC1    C2  132   3.168   0.519  11.663  0.3051 -1.3096 -0.2610
    9TMC1    C3  133   3.259   0.572  11.585  0.7728 -0.1924 -0.3454
    9TMC1    C4  134   2.996   0.622  11.544 -0.5553  0.3486 -0.3011
    9TMC1    C5  135   3.092   0.666  11.458 -0.2102 -0.0576  0.2858
    9TMC1    C6  136   3.223   0.665  11.490  0.1180  0.2999  0.2373
    9TMC1     C  137   2.945   0.529  11.763 -0.3471 -0.6716 -0.1150
    9TMC1     O  138   2.842   0.594  11.751  0.3103 -0.1856  0.7142
    9TMC1     H  139   3.204   0.467  11.751  0.1364 -0.4457  0.3232
    9TMC1    H1  140   2.894   0.656  11.531 -0.7198  0.6122  1.6877
    9TMC1    H2  141   3.300   0.698  11.422  0.0656  1.7709  0.9046
    9TMC1    C7  142   3.050   0.767  11.364  0.6992 -0.1624 -0.6063
    9TMC1    C8  143   3.395   0.521  11.591 -0.0435  0.4091  0.1247
    9TMC1    O1  144   2.949   0.829  11.387 -0.0280  0.6774 -0.2434
    9TMC1    O2  145   3.478   0.576  11.522  0.4464  0.5585 -0.3471
    9TMC1    O3  146   3.139   0.783  11.260 -0.3410  0.3890 -0.1607
    9TMC1    H3  147   3.204   0.709  11.257 -1.9824 -1.1429  1.6093
    9TMC1    O5  148   3.389   0.386  11.602  0.0441  0.1957  0.0801
    9TMC1    H5  149   3.300   0.358  11.633  1.2015 -1.1629  2.1851
   10MPD2     C  150   2.790   0.441  11.998 -0.0949  0.3231 -0.1160
   10MPD2    C1  151   2.899   0.375  11.955  0.3370  0.4912  0.0900
   10MPD2    C2  152   2.928   0.242  11.986 -0.3979  0.4791  0.0082
   10MPD2    C3  153   2.853   0.176  12.082 -0.5876 -0.4387 -0.4228
   10MPD2    C4  154   2.749   0.256  12.137  0.8120 -0.3060  0.0680
   10MPD2    C5  155   2.722   0.383  12.097  0.1365  0.1156 -0.4811
   10MPD2     H  156   3.019   0.200  11.945 -0.4407 -0.0180  0.4222
   10MPD2    H1  157   2.686   0.224  12.220  0.2094 -0.9284 -0.6261
   10MPD2    H2  158   2.758   0.539  11.964 -1.3149  0.0395  0.2076
   10MPD2    H3  159   2.645   0.441  12.147 -0.8661 -2.3501  0.8602
   10MPD2     N  160   2.870   0.039  12.120  0.3491 -0.2685 -0.6729
   10MPD2    H5  161   2.937   4.719  12.064 -1.0781 -0.4762 -2.1803
   10MPD2    N1  162   2.976   0.425  11.845 -0.2024  0.2236 -0.3406
   10MPD2    H7  163   3.052   0.366  11.813 -0.3357 -0.5567  0.7712
   11TCq1    O1  164   3.730   4.338  15.206 -0.2093  0.0522  0.7888
   11TCq1    C1  165   3.805   4.295  15.098  1.1288 -0.0163  0.4143
   11TCq1    O2  166   3.866   4.374  15.024 -0.3235 -0.4202  0.1617
   11TCq1    C2  167   3.739   4.184  15.044 -0.5793  0.2199  0.1873
   11TCq1    C3  168   3.824   4.101  14.976  0.3363  0.4044 -0.3287
   11TCq1    C4  169   3.780   4.037  14.869 -0.0736 -0.5151 -0.0620
   11TCq1    C5  170   3.656   4.047  14.830 -0.0175  0.9988  0.0120
   11TCq1    C6  171   3.575   4.139  14.890 -0.3547 -0.1179 -0.4331
   11TCq1    C7  172   3.616   4.208  15.002  0.1759  0.8230  0.0837
   11TCq1    C8  173   3.436   4.155  14.848 -0.0970 -0.2971  0.1510
   11TCq1    O4  174   3.400   4.270  14.841  0.0975 -0.6100  0.4971
   11TCq1    C9  175   3.873   3.946  14.802 -0.2929 -0.1240 -0.4830
   11TCq1    O5  176   3.811   3.845  14.762 -0.5840  0.4174  0.4299
   11TCq1    O6  177   3.990   3.951  14.837 -0.3847 -0.1922 -0.2661
   11TCq1    H1  178   3.691   4.263  15.255  1.0931 -1.1455 -0.0084
   11TCq1    H2  179   3.926   4.108  15.012  0.7129 -2.2203 -0.8412
   11TCq1    H3  180   3.623   3.989  14.745  1.8713 -0.0160 -0.0230
   11TCq1    H4  181   3.544   4.270  15.055  0.2927  0.8365  0.2290
   12MPD2     C  182   3.173   4.103  14.716  0.1845 -0.1207 -0.5016
   12MPD2    C1  183   3.269   4.008  14.722 -0.0113  0.3210 -0.1078
   12MPD2    C2  184   3.256   3.889  14.647 -0.6076 -0.0706  0.1916
   12MPD2    C3  185   3.141   3.869  14.562 -0.5223  0.4515  0.6148
   12MPD2    C4  186   3.047   3.972  14.556 -0.1777 -0.2553 -0.6749
   12MPD2    C5  187   3.065   4.087  14.632  0.0493  0.9022 -0.2885
   12MPD2     H  188   3.339   3.820  14.637 -0.0497  0.5441  0.6292
   12MPD2    H1  189   2.949   3.959  14.511 -1.1137 -1.4289  1.7187
   12MPD2    H2  190   3.171   4.199  14.768 -1.7453 -0.1886 -0.4295
   12MPD2    H3  191   2.982   4.157  14.624  1.0344  2.0211 -0.6427
   12MPD2     N  192   3.131   3.752  14.482  0.6692 -0.0603 -0.1998
   12MPD2    H5  193   3.042   3.740  14.435  0.4034 -1.8760  0.7774
   12MPD2    N1  194   3.391   4.034  14.797  0.1783  0.6092  0.0771
   12MPD2    H7  195   3.445   3.949  14.806 -1.8159 -0.4920  1.7563
   13TCq1    O1  196   3.425   4.604  11.067 -0.0941  0.3604  0.2924
   13TCq1    C1  197   3.325   4.648  11.150  0.6413 -0.1661  0.6808
   13TCq1    O2  198   3.222   4.692  11.101  0.5538 -0.0563  0.1866
   13TCq1    C2  199   3.312   4.542  11.251  0.1745  0.3826 -0.4149
   13TCq1    C3  200   3.434   4.514  11.310  0.9163 -1.2771  0.0135
   13TCq1    C4  201   3.449   4.392  11.376  0.4141  0.2602 -0.0103
   13TCq1    C5  202   3.342   4.302  11.364 -0.3527 -0.1749 -0.2585
   13TCq1    C6  203   3.216   4.346  11.314 -0.0624 -0.0913  0.1529
   13TCq1    C7  204   3.194   4.471  11.257  1.0150  0.5635  0.1981
   13TCq1    C8  205   3.091   4.270  11.334 -0.3354 -0.3994  0.4975
   13TCq1    O4  206   2.990   4.339  11.318 -0.5872  0.3942  0.2535
   13TCq1    C9  207   3.566   4.361  11.446 -0.3645  0.3721 -0.2595
   13TCq1    O5  208   3.605   4.457  11.519  0.6044  0.1522  0.7194
   13TCq1    O6  209   3.589   4.238  11.468  0.2244 -0.0864  0.1493
   13TCq1    H1  210   3.487   4.548  11.119 -0.2998  2.2478  2.5815
   13TCq1    H2  211   3.518   4.580  11.326 -1.2105  0.8817  2.4228
   13TCq1    H3  212   3.360   4.204  11.407 -0.5322 -0.7337 -1.4557
   13TCq1    H4  213   3.096   4.507  11.230  1.8858  1.3600 -1.9348
   14MPD2     C  214   3.023   3.914  11.291  0.5217  0.5002  1.0158
   14MPD2    C1  215   3.004   4.038  11.334  0.2575  0.2901 -0.3508
   14MPD2    C2  216   2.881   4.067  11.386  0.1655 -0.0674 -0.0464
   14MPD2    C3  217   2.791   3.959  11.404  0.6289 -0.4359 -0.0731
   14MPD2    C4  218   2.816   3.833  11.361  0.5286 -0.5404  0.5241
   14MPD2    C5  219   2.936   3.813  11.296 -0.0638 -0.1917 -0.3353
   14MPD2     H  220   2.856   4.160  11.435  1.0407 -0.3908  0.9960
   14MPD2    H1  221   2.759   3.742  11.374 -0.6476  0.1245 -0.0451
   14MPD2    H2  222   3.119   3.872  11.261  0.7821  0.6464  1.6415
   14MPD2    H3  223   2.954   3.709  11.271 -1.0373 -0.3732 -0.2633
   14MPD2     N  224   2.676   3.975  11.488  0.0539 -0.4755  0.1024
   14MPD2    H5  225   2.661   4.071  11.518 -3.5562 -0.1146 -2.8598
   14MPD2    N1  226   3.107   4.135  11.321 -0.4214  0.0901  0.2003
   14MPD2    H7  227   3.198   4.099  11.296  1.0235  1.5325  3.3987
   15TCq1    O1  228   0.183   3.349   2.240 -0.1175  1.1218  0.7608
   15TCq1    C1  229   0.197   3.491   2.235  0.4204 -0.9561  0.5200
   15TCq1    O2  230   0.241   3.558   2.325 -0.2769 -0.9763 -0.8727
   15TCq1    C2  231   0.195   3.532   2.094  0.1478  0.0108  0.1942
   15TCq1    C3  232   0.154   3.662   2.077 -0.5699 -0.2642 -0.2633
   15TCq1    C4  233   0.159   3.714   1.948  0.5168 -0.1011  0.4954
   15TCq1    C5  234   0.221   3.643   1.841 -0.1099 -0.4265  0.3179
   15TCq1    C6  235   0.258   3.517   1.875 -0.0993 -0.6325  0.6254
   15TCq1    C7  236   0.246   3.456   2.000  1.0867  0.2786 -0.1688
   15TCq1    C8  237   0.279   3.422   1.769 -0.0223 -1.0007  0.0631
   15TCq1    O4  238   0.348   3.326   1.800  0.2886  0.1377 -0.3859
   15TCq1    C9  239   0.103   3.839   1.919  0.3443  0.0724  0.1954
   15TCq1    O5  240   0.055   3.905   2.015  0.1390  0.0040  0.0399
   15TCq1    O6  241   0.143   3.887   1.813  0.0318  0.0003 -0.2808
   15TCq1    H1  242   0.124   3.323   2.166  0.6658 -0.7016  0.7702
   15TCq1    H2  243   0.102   3.717   2.154  1.3326  0.6571  0.3523
   15TCq1    H3  244   0.230   3.695   1.746 -2.0800 -0.6065  0.0198
   15TCq1    H4  245   0.284   3.356   2.016 -1.1748 -0.7133 -0.9605
   16MPD2     C  246   0.157   3.398   1.416 -0.0206  0.3449  0.1543
   16MPD2    C1  247   0.220   3.360   1.531  0.6746 -0.0765  0.1482
   16MPD2    C2  248   0.299   3.244   1.530 -0.1482 -0.2308 -0.0120
   16MPD2    C3  249   0.298   3.161   1.419 -0.4357  0.3052 -0.5022
   16MPD2    C4  250   0.226   3.190   1.307  0.0828 -0.1549  0.2992
   16MPD2    C5  251   0.165   3.318   1.299  0.1902  0.2154  0.7950
   16MPD2     H  252   0.353   3.222   1.621 -0.5220 -2.2955 -0.3019
   16MPD2    H1  253   0.225   3.133   1.214  1.0042 -1.7063  1.2291
   16MPD2    H2  254   0.114   3.497   1.419 -0.1153  0.2827  0.7400
   16MPD2    H3  255   0.122   3.346   1.203  1.4683  1.4506  0.5886
   16MPD2     N  256   0.364   3.040   1.440  0.0873 -0.1445  0.6563
   16MPD2    H5  257   0.406   3.030   1.532  0.7961 -2.5443  0.0799
   16MPD2    N1  258   0.216   3.448   1.651  0.1223  0.2156 -0.4843
   16MPD2    H7  259   0.158   3.531   1.638  0.4986  0.0894 -2.9511
   17TMC1    C1  260   2.891   3.416  11.469  0.1119  0.2706  0.1614
   17TMC1    C2  261   2.867   3.314  11.383 -0.1761 -0.3892 -0.3103
   17TMC1    C3  262   2.745   3.261  11.388  0.1970 -0.1419  0.0701
   17TMC1    C4  263   2.798   3.461  11.555 -0.2781 -0.0891 -0.3387
   17TMC1    C5  264   2.678   3.398  11.562 -0.2708 -0.5445 -1.0155
   17TMC1    C6  265   2.644   3.297  11.476  0.6092  0.1219  0.1335
   17TMC1     C  266   3.010   3.498  11.456 -0.2996  0.8893 -0.1801
   17TMC1     O  267   3.031   3.583  11.542  0.1343  0.2368  0.0222
   17TMC1     H  268   2.938   3.287  11.305  1.8606 -0.8910  1.7226
   17TMC1    H1  269   2.819   3.540  11.627  0.0858  0.3380 -0.9157
   17TMC1    H2  270   2.544   3.257  11.469 -0.0099  1.4699  1.1901
   17TMC1    C7  271   2.603   3.400  11.686  0.4972 -0.4538 -0.2280
   17TMC1    C8  272   2.708   3.178  11.275 -0.0391 -0.5095  0.0174
   17TMC1    O1  273   2.532   3.308  11.731  0.5810  0.5240  0.6130
   17TMC1    O2  274   2.729   3.225  11.166  0.3839  0.2683  0.0763
   17TMC1    O3  275   2.570   3.529  11.697  0.1218 -0.4458  0.1236
   17TMC1    H3  276   2.615   3.597  11.643 -0.5202 -0.1424 -0.0206
   17TMC1    O5  277   2.594   3.101  11.310  0.2201  0.0694 -0.8963
   17TMC1    H5  278   2.601   3.079  11.405  0.7942 -1.0301 -1.1885
   18MPD2     C  279   3.303   3.520  11.412 -0.0586  0.1241  0.6965
   18MPD2    C1  280   3.216   3.504  11.310 -0.1010 -0.3474  0.3220
   18MPD2    C2  281   3.260   3.490  11.178 -0.0095 -0.0905 -0.3845
   18MPD2    C3  282   3.399   3.502  11.150 -0.0400  0.2532 -0.0250
   18MPD2    C4  283   3.487   3.516  11.256  0.3600  0.2347 -0.1324
   18MPD2    C5  284   3.441   3.523  11.387  0.1226 -0.3430 -0.3591
   18MPD2     H  285   3.200   3.460  11.092  0.6351  0.4930 -1.0287
   18MPD2    H1  286   3.593   3.512  11.237  0.9744  1.8187  2.8674
   18MPD2    H2  287   3.269   3.526  11.514 -2.7724  0.6742 -0.2329
   18MPD2    H3  288   3.515   3.537  11.464  0.3590  3.2100 -1.2446
   18MPD2     N  289   3.427   3.507  11.011  0.0983  0.5129 -0.0087
   18MPD2    H5  290   3.344   3.491  10.954 -0.0081 -0.1568  0.3381
   18MPD2    N1  291   3.073   3.474  11.335  0.0770 -0.1106 -0.1511
   18MPD2    H7  292   3.014   3.445  11.258  0.1992 -2.8717  0.7828
   19TMC2    C1  293   4.665   3.763  13.868  0.1111  0.3488  0.2289
   19TMC2    C2  294   4.633   3.857  13.775 -0.5374  0.2324 -0.1043
   19TMC2    C3  295   4.501   3.865  13.742 -0.3315  0.4676  0.0927
   19TMC2    C4  296   4.581   3.683  13.937 -0.0916  0.1352 -0.8382
   19TMC2    C5  297   4.445   3.709  13.914  0.3555 -0.1123 -0.8343
   19TMC2    C6  298   4.400   3.792  13.810 -0.3320 -0.4418 -0.3362
   19TMC2     C  299   0.065   3.784  13.918  0.0232 -0.1944 -0.7026
   19TMC2     O  300   0.121   3.884  13.871 -0.0330 -0.1836  0.4841
   19TMC2     H  301   4.700   3.920  13.717  0.5892  0.2512  1.2104
   19TMC2    H1  302   4.607   3.630  14.029  1.1927  3.2502  0.6202
   19TMC2    H2  303   4.294   3.804  13.791 -0.5569  0.6759  1.6726
   19TMC2    C7  304   4.346   3.617  13.976  0.0491  0.3923 -0.4396
   19TMC2    C8  305   4.457   3.990  13.680  0.1018  0.0022  0.1309
   19TMC2    O1  306   4.399   3.511  14.009 -1.1223  0.5291 -0.8856
   19TMC2    O2  307   4.516   4.094  13.705  0.5485  0.0272 -0.2253
   19TMC2    O5  308   4.330   3.983  13.641  0.1047  0.5820  0.8558
   19TMC2    H5  309   4.303   3.892  13.616 -0.4265  0.7596  0.7742
   20MPD2     C  310   0.352   3.770  14.006 -0.0168 -0.3354  0.1202
   20MPD2    C1  311   0.255   3.677  14.040 -0.8125 -0.0606  0.4148
   20MPD2    C2  312   0.292   3.579  14.127  0.1381  0.0300 -0.1515
   20MPD2    C3  313   0.420   3.565  14.182  1.3217 -0.1305  0.1582
   20MPD2    C4  314   0.518   3.648  14.135  0.4651 -0.4894 -1.4163
   20MPD2    C5  315   0.485   3.756  14.050  0.3071  0.1766 -0.1489
   20MPD2     H  316   0.217   3.508  14.159  2.0173 -1.8233  0.0676
   20MPD2    H1  317   0.622   3.637  14.164  0.1879  0.1355 -0.1976
   20MPD2    H2  318   0.334   3.848  13.932 -1.1343 -3.0716 -2.4680
   20MPD2    H3  319   0.562   3.817  14.005  1.3381 -0.6893  0.4300
   20MPD2     N  320   0.455   3.459  14.272 -0.0718 -0.3744 -0.0670
   20MPD2    H5  321   0.555   3.460  14.288 -0.1848  1.8242  0.3931
   20MPD2    N1  322   0.121   3.686  13.995  0.3864  0.5638  0.0876
   20MPD2    H7  323   0.064   3.602  14.000  0.0915  0.7853  0.4316
   21TMC2    C1  324   2.453   3.935  14.161 -0.1962  0.5523 -0.2637
   21TMC2    C2  325   2.560   3.854  14.176  0.2617 -0.2843 -0.3522
   21TMC2    C3  326   2.565   3.787  14.290  0.0107 -0.0828 -0.1019
   21TMC2    C4  327   2.351   3.945  14.256  0.6143 -0.5547 -0.2528
   21TMC2    C5  328   2.372   3.879  14.379 -0.2004  0.2335  0.3980
   21TMC2    C6  329   2.480   3.798  14.392 -0.6563 -0.0655  0.5066
   21TMC2     C  330   2.465   4.039  14.061 -0.1672  0.4611 -0.2872
   21TMC2     O  331   2.481   4.006  13.943 -0.3079  0.0574 -0.2394
   21TMC2     H  332   2.642   3.850  14.106  1.1592 -2.4263  0.8285
   21TMC2    H1  333   2.272   4.018  14.242 -1.5096 -2.1159  3.5279
   21TMC2    H2  334   2.510   3.763  14.491 -0.8479 -0.2252  0.5084
   21TMC2    C7  335   2.319   3.937  14.507  0.2850  0.0735 -0.6572
   21TMC2    C8  336   2.695   3.789  14.348  0.1704  0.4369  0.3267
   21TMC2    O1  337   2.362   3.899  14.614 -0.2522  0.0619  0.5169
   21TMC2    O2  338   2.728   3.879  14.424  0.1603  0.1605  0.0956
   21TMC2    O5  339   2.782   3.746  14.257 -0.0317  0.2637  0.9505
   21TMC2    H5  340   2.748   3.684  14.190  1.1045 -0.3104  0.8972
   22MPD2     C  341   2.415   4.338  14.454 -0.2141  0.4035 -0.7728
   22MPD2    C1  342   2.516   4.251  14.428  0.1393 -0.5091 -0.3309
   22MPD2    C2  343   2.508   4.192  14.305  0.6636  0.3679  0.4859
   22MPD2    C3  344   2.407   4.225  14.212 -0.8314  0.3454 -0.7643
   22MPD2    C4  345   2.315   4.324  14.237  0.0695  0.0004 -0.1499
   22MPD2    C5  346   2.321   4.376  14.362 -0.3817 -0.4208  0.6133
   22MPD2     H  347   2.594   4.133  14.276 -2.2978 -3.5466 -0.3729
   22MPD2    H1  348   2.243   4.357  14.163 -1.3721 -1.1818  0.7380
   22MPD2    H2  349   2.412   4.376  14.555  3.6259 -0.0039 -0.5114
   22MPD2    H3  350   2.245   4.447  14.392 -1.4265 -1.0787 -0.4878
   22MPD2     N  351   2.398   4.157  14.087  0.2233  0.4137  0.4788
   22MPD2    H5  352   2.327   4.187  14.022  0.1587 -1.6823 -0.4066
   22MPD2    N1  353   2.603   4.182  14.520  0.2267  0.2110 -0.2153
   22MPD2    H7  354   2.652   4.101  14.483  0.8826  0.5286 -0.0316
   23TMC2    C1  355   3.462   0.137  14.680 -0.2720 -0.0496 -0.2780
   23TMC2    C2  356   3.533   0.077  14.580 -0.4301  0.6338 -0.1158
   23TMC2    C3  357   3.473   0.003  14.484  0.4735  0.1305 -0.4199
   23TMC2    C4  358   3.322   0.120  14.680  0.0307 -0.3365  0.0198
   23TMC2    C5  359   3.267   0.085  14.559  0.1806 -0.0278 -0.2488
   23TMC2    C6  360   3.336   0.006  14.475 -0.2772  0.3924 -0.6645
   23TMC2     C  361   3.520   0.178  14.801 -0.1022 -0.1550 -0.3018
   23TMC2     O  362   3.467   0.163  14.910 -0.3844  0.8193  0.0629
   23TMC2     H  363   3.640   0.062  14.584 -0.2251  2.2337  0.3741
   23TMC2    H1  364   3.275   0.162  14.768 -1.2429  2.9930 -2.2530
   23TMC2    H2  365   3.284   4.690  14.393 -1.0017 -0.1712  0.1251
   23TMC2    C7  366   3.127   0.075  14.550 -0.4593  0.7389  0.2600
   23TMC2    C8  367   3.529   4.602  14.477  0.2574  0.3866 -0.2780
   23TMC2    O1  368   3.084   0.012  14.452 -0.1728  0.6644  0.0048
   23TMC2    O2  369   3.470   4.507  14.520 -0.2293  0.7321 -0.0266
   23TMC2    O5  370   3.656   4.603  14.437 -0.2704 -0.6926  0.1818
   23TMC2    H5  371   3.678   4.694  14.405  1.7489 -1.8280 -1.6661
   24MPD2     C  372   3.940   0.374  15.024  0.0448  0.8900  0.4615
   24MPD2    C1  373   3.843   0.292  15.077  0.0782 -1.1788  0.1653
   24MPD2    C2  374   3.744   0.244  14.990  0.2517 -0.0788  0.5051
   24MPD2    C3  375   3.732   0.296  14.866  0.0570 -0.1330 -0.9756
   24MPD2    C4  376   3.834   0.362  14.814 -0.0974  0.4257 -0.0304
   24MPD2    C5  377   3.937   0.413  14.889 -0.5152  0.3629 -0.8753
   24MPD2     H  378   3.669   0.175  15.027  0.5663 -2.2969 -2.9715
   24MPD2    H1  379   3.832   0.396  14.711 -0.7792 -0.1520 -0.2125
   24MPD2    H2  380   4.018   0.412  15.088  2.8365 -1.7424 -1.3941
   24MPD2    H3  381   4.006   0.483  14.845  0.6814 -0.4898 -0.3390
   24MPD2     N  382   3.632   0.249  14.771 -0.0859 -0.5724  0.2427
   24MPD2    H5  383   3.644   0.273  14.673  0.4226  0.0707  0.4597
   24MPD2    N1  384   3.841   0.251  15.213 -0.1665  0.5224  0.1162
   24MPD2    H7  385   3.777   0.178  15.243 -0.9917  1.4899  0.6905
   25TMC2    C1  386   2.103   3.101  11.807  0.1383 -0.3532 -0.1608
   25TMC2    C2  387   1.970   3.109  11.801 -0.7678 -0.0707 -0.5438
   25TMC2    C3  388   1.896   3.092  11.915 -0.3817  0.9970 -0.0668
   25TMC2    C4  389   2.180   3.083  11.924  0.0904  0.2985  0.2685
   25TMC2    C5  390   2.096   3.052  12.029 -0.4660  0.3897  0.4069
   25TMC2    C6  391   1.964   3.074  12.035 -0.3820 -0.2778 -0.1160
   25TMC2     C  392   2.181   3.076  11.698  0.1699  0.3560 -0.4420
   25TMC2     O  393   2.287   3.139  11.684 -0.4097  0.4392 -0.1699
   25TMC2     H  394   1.917   3.123  11.707  0.6902  2.5618 -0.9576
   25TMC2    H1  395   2.286   3.062  11.917  0.7550  4.0802 -0.9216
   25TMC2    H2  396   1.918   3.048  12.130 -1.0210 -0.1543 -0.3907
   25TMC2    C7  397   2.154   2.993  12.147 -0.2186  0.6437  0.6703
   25TMC2    C8  398   1.763   3.155  11.911  0.4261 -1.0346 -0.2720
   25TMC2    O1  399   2.078   2.926  12.219  0.5265  0.5880 -0.0837
   25TMC2    O2  400   1.738   3.233  11.821  0.5874 -0.0671  0.4026
   25TMC2    O5  401   1.737   3.188  12.040 -0.0950 -0.6754 -0.7150
   25TMC2    H5  402   1.724   3.110  12.098 -1.7687  0.2177  0.1364
   26MPD2     C  403   2.182   2.882  11.219  0.1777 -0.4232 -0.1565
   26MPD2    C1  404   2.077   2.832  11.289 -0.4137 -0.2883  0.2837
   26MPD2    C2  405   2.065   2.876  11.419  0.0989  0.0448  0.2679
   26MPD2    C3  406   2.145   2.966  11.485 -0.5283 -0.3138 -0.1644
   26MPD2    C4  407   2.239   3.019  11.408  1.1045 -0.3369 -1.0248
   26MPD2    C5  408   2.256   2.985  11.276  0.1320  0.4013 -0.3148
   26MPD2     H  409   1.987   2.831  11.479  0.8879 -1.0531  0.4781
   26MPD2    H1  410   2.303   3.097  11.448 -0.4689 -0.6694  2.1406
   26MPD2    H2  411   2.196   2.852  11.115 -0.1671 -1.3114  0.0592
   26MPD2    H3  412   2.336   3.024  11.214 -0.1651  0.6724 -0.5226
   26MPD2     N  413   2.106   2.996  11.611  0.0576 -0.1136  0.2935
   26MPD2    H5  414   2.030   2.943  11.654 -1.1791  0.3922 -1.2732
   26MPD2    N1  415   1.992   2.736  11.226  0.4356 -0.1304  0.1727
   26MPD2    H7  416   2.000   2.714  11.127  0.8070 -2.5872  0.7305
   27TMC2    C1  417   1.204   0.046  12.145 -0.1213  0.4657  0.2716
   27TMC2    C2  418   1.332   0.010  12.107 -0.3507  0.4292  0.2246
   27TMC2    C3  419   1.432   0.099  12.130 -0.1662 -0.2966  0.9474
   27TMC2    C4  420   1.183   0.157  12.221 -0.5389 -0.1954  0.0666
   27TMC2    C5  421   1.284   0.235  12.252 -0.3462 -0.1077 -0.1905
   27TMC2    C6  422   1.417   0.213  12.210 -1.0602  0.9837 -0.1201
   27TMC2     C  423   1.124   4.673  12.198 -0.0497  0.6955  0.2029
   27TMC2     O  424   1.013   4.706  12.246 -0.5374 -0.3593 -0.3606
   27TMC2     H  425   1.363   4.656  12.048 -0.6771  0.3614  0.1551
   27TMC2    H1  426   1.087   0.190  12.258 -0.9449 -0.3922 -0.8000
   27TMC2    H2  427   1.507   0.270  12.233 -0.3324  0.1683 -0.9726
   27TMC2    C7  428   1.273   0.300  12.383  0.4810  0.2473  0.3115
   27TMC2    C8  429   1.560   0.086  12.066 -0.2851  0.3329 -0.1972
   27TMC2    O1  430   1.199   0.242  12.461  0.3339 -0.1360 -0.1379
   27TMC2    O2  431   1.665   0.085  12.127 -0.3901  0.3273  0.4642
   27TMC2    O5  432   1.558   0.159  11.950 -0.0293 -0.0743  0.4636
   27TMC2    H5  433   1.467   0.182  11.924 -0.2588 -0.4853  0.8929
   28MPD2     C  434   1.069   4.230  12.427 -0.5350 -0.9060 -1.4888
   28MPD2    C1  435   1.038   4.357  12.472 -0.2316  0.1687 -0.8200
   28MPD2    C2  436   1.064   4.465  12.389  0.6247 -0.0684  0.0450
   28MPD2    C3  437   1.134   4.447  12.272 -0.0516  0.2289  0.2491
   28MPD2    C4  438   1.185   4.323  12.239  0.1456 -0.3878  0.6611
   28MPD2    C5  439   1.149   4.216  12.313 -0.4585  0.3706 -0.0984
   28MPD2     H  440   1.041   4.566  12.422 -1.9311 -0.1186 -1.5629
   28MPD2    H1  441   1.245   4.299  12.152  1.0443  0.0931  1.1527
   28MPD2    H2  442   1.049   4.140  12.485 -1.0510  0.3137  0.2476
   28MPD2    H3  443   1.176   4.113  12.291 -1.3418 -0.3617  2.2801
   28MPD2     N  444   1.181   4.548  12.188  0.2971 -0.6987  0.2537
   28MPD2    H5  445   1.262   4.534  12.128 -0.0661  2.2837 -0.9301
   28MPD2    N1  446   0.987   4.370  12.602  0.0676 -0.1011 -0.2820
   28MPD2    H7  447   0.973   4.284  12.654 -2.0219 -0.9624 -2.3118
   29TMC2    C1  448   0.897   2.365  14.355  0.2102 -0.7633  0.6147
   29TMC2    C2  449   0.929   2.359  14.487  0.1315 -0.3955 -0.0301
   29TMC2    C3  450   0.934   2.478  14.550  0.0264  0.0057 -0.0064
   29TMC2    C4  451   0.881   2.480  14.287 -0.0712 -0.2323 -0.5134
   29TMC2    C5  452   0.891   2.601  14.349  0.1642  0.5059  0.3419
   29TMC2    C6  453   0.918   2.596  14.487  0.9452  0.7186 -0.2004
   29TMC2     C  454   0.861   2.244  14.287 -0.0760  0.0053 -0.0495
   29TMC2     O  455   0.918   2.148  14.335  0.3178 -0.1987  0.7013
   29TMC2     H  456   0.923   2.264  14.537  3.1734  0.1121  1.3121
   29TMC2    H1  457   0.870   2.469  14.180 -0.3777  1.6750 -0.6912
   29TMC2    H2  458   0.895   2.683  14.548 -0.7932 -0.1170  0.3416
   29TMC2    C7  459   0.947   2.706  14.268 -0.3528 -0.0324  0.6968
   29TMC2    C8  460   0.937   2.473  14.691  1.0061 -0.6245 -0.0906
   29TMC2    O1  461   0.949   2.688  14.146 -0.7348 -0.4122 -0.4789
   29TMC2    O2  462   0.925   2.575  14.758  0.5960  0.5685 -0.2059
   29TMC2    O5  463   1.030   2.374  14.726  0.1024 -0.0920  0.2922
   29TMC2    H5  464   1.066   2.337  14.642 -2.1656  0.2420 -0.8307
   30MPD2     C  465   0.544   1.903  14.077  0.3515  0.0821  0.2213
   30MPD2    C1  466   0.669   1.889  14.131  0.5278  0.2582  0.6476
   30MPD2    C2  467   0.738   2.002  14.170 -0.4181 -0.7692  0.0677
   30MPD2    C3  468   0.679   2.128  14.162 -0.0555  0.1500  0.0669
   30MPD2    C4  469   0.559   2.136  14.102 -0.1966 -0.1367 -0.6705
   30MPD2    C5  470   0.495   2.028  14.049 -0.3883 -0.5070 -0.2829
   30MPD2     H  471   0.844   1.988  14.191 -0.0360  1.2020 -0.6187
   30MPD2    H1  472   0.507   2.231  14.092  1.7237  1.1153  1.3155
   30MPD2    H2  473   0.496   1.812  14.044  1.2748  0.0202 -0.9284
   30MPD2    H3  474   0.399   2.045  14.003  0.0662 -0.8571 -1.3603
   30MPD2     N  475   0.750   2.245  14.209 -0.4511 -0.2282  0.0020
   30MPD2    H5  476   0.701   2.331  14.185  3.5658  1.7223 -1.2624
   30MPD2    N1  477   0.745   1.773  14.120  0.6333 -0.1025  0.5305
   30MPD2    H7  478   0.836   1.776  14.164  2.2609 -0.8450 -2.8180
   31TMC2    C1  479   4.294   0.924  15.277 -0.7277  0.4430  0.7180
   31TMC2    C2  480   4.287   0.811  15.198 -0.1485  0.1014 -0.4929
   31TMC2    C3  481   4.256   0.688  15.256 -0.4611 -0.0424 -0.6751
   31TMC2    C4  482   4.262   0.916  15.407  0.0194 -0.1225 -0.2695
   31TMC2    C5  483   4.227   0.795  15.465  0.6271 -0.2421 -0.4123
   31TMC2    C6  484   4.239   0.684  15.386 -0.4349 -0.0454  0.2384
   31TMC2     C  485   4.290   1.052  15.213  0.1287  0.2139  0.1591
   31TMC2     O  486   4.247   1.061  15.098  0.0004 -0.2896 -0.1889
   31TMC2     H  487   4.296   0.819  15.090  2.6630 -2.0001 -0.4183
   31TMC2    H1  488   4.251   1.015  15.448 -3.9435 -0.4271 -0.5376
   31TMC2    H2  489   4.208   0.595  15.439 -1.5985  1.4660  2.0811
   31TMC2    C7  490   4.217   0.786  15.618 -0.2418 -0.0226 -0.0884
   31TMC2    C8  491   4.241   0.575  15.165 -0.3254 -0.1415  0.6484
   31TMC2    O1  492   4.244   0.679  15.661 -0.2286 -0.5149 -0.1669
   31TMC2    O2  493   4.251   0.601  15.045  0.0607 -0.4765  0.4883
   31TMC2    O5  494   4.252   0.452  15.224  0.1376  0.4633 -0.0146
   31TMC2    H5  495   4.252   0.443  15.321  0.9303  1.3661  0.0700
   32MPD2     C  496   4.539   1.507  15.152  0.3483 -0.4722  0.4668
   32MPD2    C1  497   4.442   1.446  15.075  0.2264 -0.3488  0.2677
   32MPD2    C2  498   4.379   1.333  15.122 -0.9643  0.0979  0.2447
   32MPD2    C3  499   4.427   1.267  15.234 -0.7357  0.0396 -0.1286
   32MPD2    C4  500   4.538   1.316  15.302  1.0151  0.2013  0.3718
   32MPD2    C5  501   4.593   1.433  15.254  0.2497  0.1286  0.1798
   32MPD2     H  502   4.293   1.290  15.072 -0.7436  2.0960 -1.8870
   32MPD2    H1  503   4.579   1.258  15.384 -0.2254 -0.4825  0.5073
   32MPD2    H2  504   4.567   1.609  15.129 -1.5150 -0.1961 -0.5167
   32MPD2    H3  505   4.671   1.476  15.316  0.2060  0.5483 -0.0546
   32MPD2     N  506   4.370   1.149  15.281  1.1309  0.2291 -0.3213
   32MPD2    H5  507   4.406   1.116  15.370  0.0478  1.3162  0.5032
   32MPD2    N1  508   4.391   1.529  14.970  0.1753  0.1235 -0.7068
   32MPD2    H7  509   4.437   1.615  14.944  0.7621  0.3267  0.9926
   33TMC2    C1  510   3.035   4.263  10.283  0.3278  0.9437  0.3803
   33TMC2    C2  511   2.904   4.226  10.262 -0.1785 -0.4073  0.1180
   33TMC2    C3  512   2.822   4.298  10.189  0.2576  0.5326  0.0251
   33TMC2    C4  513   3.062   4.398  10.275  0.1220 -0.2326  0.9548
   33TMC2    C5  514   2.961   4.471  10.217  0.2497 -0.5051 -0.4187
   33TMC2    C6  515   2.848   4.420  10.156  0.0517 -0.1815  0.1641
   33TMC2     C  516   3.124   4.170  10.358 -0.1519  0.6293 -0.0900
   33TMC2     O  517   3.084   4.059  10.379  0.1022 -0.4327 -0.9669
   33TMC2     H  518   2.864   4.130  10.292 -1.9041  0.2120 -0.1915
   33TMC2    H1  519   3.156   4.441  10.308  0.8420  0.4320 -1.9753
   33TMC2    H2  520   2.776   4.474  10.095 -0.3602 -1.0753 -0.1420
   33TMC2    C7  521   2.988   4.614  10.202  0.2723  0.5076  0.2608
   33TMC2    C8  522   2.693   4.245  10.148 -0.5751 -0.3716  0.3152
   33TMC2    O1  523   3.107   4.639  10.217  0.2695 -0.4870 -0.1345
   33TMC2    O2  524   2.675   4.123  10.118  0.1958  0.4138 -0.1393
   33TMC2    O5  525   2.604   4.346  10.135 -1.3799 -0.1708  0.2660
   33TMC2    H5  526   2.627   4.428  10.183 -0.8682 -0.1936  0.0530
   34MPD2     C  527   3.557   4.048  10.612 -0.0848 -0.2587  0.6436
   34MPD2    C1  528   3.451   3.967  10.575  0.3737  0.0737  0.0985
   34MPD2    C2  529   3.350   4.028  10.490  0.0392 -0.2270  0.2061
   34MPD2    C3  530   3.359   4.161  10.441  0.3853 -0.2862  0.8819
   34MPD2    C4  531   3.469   4.234  10.485 -0.3506 -0.7314  0.6853
   34MPD2    C5  532   3.564   4.177  10.564  0.4372 -0.7038 -0.0588
   34MPD2     H  533   3.264   3.974  10.453  0.0521  0.2833 -0.5732
   34MPD2    H1  534   3.468   4.339  10.455 -1.3265 -1.2103 -0.9783
   34MPD2    H2  535   3.633   4.007  10.677  1.0839 -0.9182 -1.1333
   34MPD2    H3  536   3.644   4.245  10.592  0.3692 -1.1572  1.2324
   34MPD2     N  537   3.251   4.225  10.382  0.3735 -0.1482 -0.4433
   34MPD2    H5  538   3.256   4.323  10.356  3.9038  0.1805  1.3182
   34MPD2    N1  539   3.445   3.831  10.622 -0.4190  0.3936  0.1548
   34MPD2    H7  540   3.520   3.803  10.684  0.5518  0.6299 -0.9078
   35TMC2    C1  541   0.000   0.478  11.307  0.0084  0.7240  0.9519
   35TMC2    C2  542   4.722   0.565  11.200  0.2024  0.1561 -0.2050
   35TMC2    C3  543   4.596   0.582  11.151 -0.2703 -0.0697 -0.3724
   35TMC2    C4  544   4.625   0.402  11.354 -0.4406 -0.0572  0.9289
   35TMC2    C5  545   4.504   0.420  11.292  0.4278  0.3355 -0.8437
   35TMC2    C6  546   4.488   0.504  11.186 -0.0672  0.1863  0.2648
   35TMC2     C  547   0.135   0.429  11.318  0.3157  0.6122 -0.1232
   35TMC2     O  548   0.216   0.474  11.238 -0.5622 -0.3737 -0.0142
   35TMC2     H  549   0.077   0.620  11.167 -0.2547  0.2608 -1.2378
   35TMC2    H1  550   4.638   0.359  11.453 -1.2358  0.7334  1.3684
   35TMC2    H2  551   4.393   0.532  11.141  0.1556 -1.0006 -0.9446
   35TMC2    C7  552   4.388   0.342  11.331 -0.6730  0.3021  0.4318
   35TMC2    C8  553   4.589   0.633  11.016 -0.0270  0.4526 -0.6264
   35TMC2    O1  554   4.279   0.377  11.287 -0.2487 -0.2572 -0.6077
   35TMC2    O2  555   4.671   0.713  10.974  0.2971  0.2256  0.0059
   35TMC2    O5  556   4.552   0.531  10.942  0.3032  0.2454 -0.2575
   35TMC2    H5  557   4.494   0.467  10.988 -1.4506  2.8437  1.0976
   36MPD2     C  558   0.503   0.161  11.560 -0.1675  0.2337 -0.5623
   36MPD2    C1  559   0.387   0.176  11.642  0.5423  0.0900 -0.2409
   36MPD2    C2  560   0.269   0.230  11.595  0.2714 -0.3893  0.3245
   36MPD2    C3  561   0.270   0.286  11.466  0.7950 -0.5684 -0.2524
   36MPD2    C4  562   0.384   0.288  11.389  0.1192  0.1180  0.5969
   36MPD2    C5  563   0.497   0.218  11.440 -0.0117 -0.4802  0.9008
   36MPD2     H  564   0.181   0.232  11.657  0.1326  0.6548  0.0976
   36MPD2    H1  565   0.388   0.329  11.289 -0.2546 -0.3343  0.3969
   36MPD2    H2  566   0.589   0.099  11.583 -1.3269 -1.4502 -0.7248
   36MPD2    H3  567   0.582   0.213  11.372 -2.8383  1.7317 -2.7787
   36MPD2     N  568   0.153   0.350  11.428  0.1225 -0.1457  0.0955
   36MPD2    H5  569   0.073   0.348  11.490 -0.8705 -3.2834 -1.2736
   36MPD2    N1  570   0.392   0.122  11.774 -0.3171 -0.0613  0.4029
   36MPD2    H7  571   0.459   0.048  11.791 -0.3550 -0.6944 -2.1335
   37TMC2    C1  572   1.896   1.285  11.841  0.1517 -0.0146  0.5686
   37TMC2    C2  573   1.833   1.244  11.727 -0.2389  0.6060  0.0585
   37TMC2    C3  574   1.894   1.247  11.609  0.0656 -0.2649 -0.8732
   37TMC2    C4  575   2.031   1.295  11.830 -0.1713  0.2780  0.5773
   37TMC2    C5  576   2.092   1.283  11.706 -0.8669  0.5748  0.4952
   37TMC2    C6  577   2.028   1.257  11.588  0.3996  1.5562  0.1318
   37TMC2     C  578   1.835   1.236  11.960  0.4010 -0.0098 -0.3160
   37TMC2     O  579   1.719   1.271  11.982 -0.4801  0.0543 -0.0021
   37TMC2     H  580   1.726   1.225  11.726  0.4440 -3.0500 -2.0019
   37TMC2    H1  581   2.091   1.326  11.914 -2.0008  0.2263  1.8933
   37TMC2    H2  582   2.074   1.273  11.491  0.5988 -2.0595 -0.3767
   37TMC2    C7  583   2.215   1.210  11.716 -0.5318 -0.5785  0.0475
   37TMC2    C8  584   1.812   1.205  11.501  0.2254  0.3086 -0.1438
   37TMC2    O1  585   2.267   1.198  11.826  0.8670 -0.1455  0.0528
   37TMC2    O2  586   1.814   1.254  11.388  0.4336 -0.7286  0.0496
   37TMC2    O5  587   1.781   1.081  11.529 -0.0582 -0.1002 -0.4443
   37TMC2    H5  588   1.811   1.041  11.613  0.9972 -1.9766 -1.7019
   38MPD2     C  589   1.892   1.046  12.424  0.3174  0.0082  0.3831
   38MPD2    C1  590   1.987   0.985  12.346 -0.2560 -0.1967  0.1204
   38MPD2    C2  591   1.996   1.030  12.216  0.5395  0.3938  0.1751
   38MPD2    C3  592   1.910   1.120  12.171  0.6062  0.7725 -0.5022
   38MPD2    C4  593   1.817   1.188  12.253 -0.8767 -0.9455 -0.3853
   38MPD2    C5  594   1.806   1.139  12.381  0.4715 -0.3479 -0.2571
   38MPD2     H  595   2.081   1.001  12.155  0.6553 -2.1732  1.5537
   38MPD2    H1  596   1.751   1.266  12.216 -0.1975 -0.4337 -0.5104
   38MPD2    H2  597   1.878   1.021  12.529 -4.0153  1.7959  0.2368
   38MPD2    H3  598   1.728   1.181  12.443 -0.6857 -0.9276 -1.3322
   38MPD2     N  599   1.921   1.160  12.035  0.2259  0.3707  0.3535
   38MPD2    H5  600   2.016   1.145  12.004  0.7830  0.0437  2.1873
   38MPD2    N1  601   2.091   0.900  12.398  0.0949 -0.5896 -0.3056
   38MPD2    H7  602   2.166   0.879  12.333 -0.0589 -0.1570 -0.6258
   39TMC2    C1  603   0.643   2.764   2.033  0.1965 -0.2998 -0.2657
   39TMC2    C2  604   0.751   2.714   2.094  0.6180 -0.6739  0.6608
   39TMC2    C3  605   0.821   2.801   2.170 -0.0095  0.0257  0.2796
   39TMC2    C4  606   0.584   2.882   2.075  0.2913 -0.6822  0.0564
   39TMC2    C5  607   0.659   2.972   2.137 -0.4874 -0.2242 -0.0505
   39TMC2    C6  608   0.780   2.937   2.182 -0.6103 -0.0823 -0.0425
   39TMC2     C  609   0.584   2.709   1.920  0.5081  0.0046 -0.7613
   39TMC2     O  610   0.508   2.778   1.852  0.0187  0.0767  0.0705
   39TMC2     H  611   0.793   2.619   2.063 -0.7054 -1.0569  0.0523
   39TMC2    H1  612   0.483   2.901   2.039  1.3353  3.5699 -0.6373
   39TMC2    H2  613   0.852   2.990   2.243 -0.5973  0.4817 -0.5510
   39TMC2    C7  614   0.610   3.109   2.147  0.0650  0.0549 -0.6585
   39TMC2    C8  615   0.953   2.756   2.219 -0.4265 -0.1532 -0.3553
   39TMC2    O1  616   0.489   3.126   2.134 -0.7006 -0.6140  0.0253
   39TMC2    O2  617   1.060   2.807   2.180  0.1588  0.2354 -0.1220
   39TMC2    O5  618   0.930   2.636   2.274 -0.2341  0.0216  0.0457
   39TMC2    H5  619   0.837   2.648   2.304 -1.0493 -4.1607 -0.7828
   40MPD2     C  620   0.635   2.370   1.778  0.1906 -0.1758  0.1559
   40MPD2    C1  621   0.583   2.500   1.785  0.7558 -0.3917  0.3303
   40MPD2    C2  622   0.472   2.533   1.710  0.3108  0.4854  0.7512
   40MPD2    C3  623   0.422   2.436   1.621  0.2204  0.0782 -0.2024
   40MPD2    C4  624   0.485   2.312   1.607 -0.2852 -0.0135 -0.2740
   40MPD2    C5  625   0.588   2.280   1.687 -0.3293  0.3179  0.2665
   40MPD2     H  626   0.430   2.633   1.707 -1.4633 -0.3172 -1.2009
   40MPD2    H1  627   0.463   2.254   1.518  0.2341  2.7699 -2.2072
   40MPD2    H2  628   0.715   2.333   1.841  0.5326 -0.5478 -0.5000
   40MPD2    H3  629   0.639   2.188   1.662  0.6285  0.5710  1.2909
   40MPD2     N  630   0.319   2.473   1.524 -0.6531  0.4168  0.2080
   40MPD2    H5  631   0.281   2.403   1.461 -0.3058 -1.7079  2.3255
   40MPD2    N1  632   0.632   2.582   1.892  0.4122 -0.2074  0.1727
   40MPD2    H7  633   0.697   2.543   1.959  0.6902 -0.4514 -0.2353
   41TMC2    C1  634   4.400   4.440  13.741 -0.5246  0.1101  0.3583
   41TMC2    C2  635   4.332   4.341  13.671 -0.3765 -0.6688 -0.4970
   41TMC2    C3  636   4.337   4.347  13.534  0.0343 -0.2879  0.3895
   41TMC2    C4  637   4.460   4.548  13.681  0.0434  0.2926  0.1313
   41TMC2    C5  638   4.465   4.546  13.542 -0.9857  0.3144  0.2486
   41TMC2    C6  639   4.397   4.450  13.465 -0.6387  0.4919 -0.3349
   41TMC2     C  640   4.416   4.414  13.879 -0.3486  0.0107  1.0410
   41TMC2     O  641   4.332   4.339  13.925 -0.0270  0.2537 -0.4680
   41TMC2     H  642   4.283   4.257  13.718 -1.7429  1.5913  2.1318
   41TMC2    H1  643   4.505   4.630  13.736 -1.3185 -0.2962  2.1131
   41TMC2    H2  644   4.387   4.438  13.358 -1.4148  0.4747 -0.2581
   41TMC2    C7  645   4.561   4.640  13.482 -0.1423 -0.4104  0.7217
   41TMC2    C8  646   4.253   4.259  13.455  0.8340  0.8392  0.5125
   41TMC2    O1  647   4.639   4.687  13.565  0.0736 -0.1149  0.0883
   41TMC2    O2  648   4.278   4.226  13.342 -0.7983  0.2455  0.0252
   41TMC2    O5  649   4.136   4.236  13.519  0.3023 -0.2467 -0.2453
   41TMC2    H5  650   4.124   4.281  13.605  2.9016  0.0291 -0.0441
   42MPD2     C  651   4.461   4.453  14.183  0.1555 -0.1608  0.1268
   42MPD2    C1  652   4.509   4.531  14.078 -0.3772 -0.2365 -0.1078
   42MPD2    C2  653   4.583   4.640  14.115 -0.1337 -0.4651  0.2124
   42MPD2    C3  654   4.617   4.669  14.243  0.0254 -0.0524  0.3352
   42MPD2    C4  655   4.568   4.593  14.347  0.1659  0.7778 -0.2143
   42MPD2    C5  656   4.488   4.484  14.313  0.0076  0.7452 -0.3180
   42MPD2     H  657   4.625   4.699  14.034  0.8411 -0.4033  0.7727
   42MPD2    H1  658   4.580   4.622  14.451  2.3626 -2.6844  0.4816
   42MPD2    H2  659   4.419   4.356  14.160 -0.0585  0.0098 -0.2021
   42MPD2    H3  660   4.447   4.427  14.396  3.3740 -1.2404 -0.0008
   42MPD2     N  661   4.708   0.047  14.282  0.3157 -0.1429 -0.0515
   42MPD2    H5  662   0.007   0.055  14.379  0.7140  1.2267 -0.3037
   42MPD2    N1  663   4.494   4.504  13.941  0.1983  0.3648 -0.3511
   42MPD2    H7  664   4.556   4.568  13.892  3.1564 -2.5988 -0.4865
   43TMC2    C1  665   0.862   4.488   0.914 -0.1377 -0.1160  0.6557
   43TMC2    C2  666   0.749   4.564   0.895  1.0110 -0.0438 -0.5865
   43TMC2    C3  667   0.732   4.670   0.983 -0.5185 -0.7546  0.5891
   43TMC2    C4  668   0.954   4.512   1.015  0.0597 -0.3145 -0.2916
   43TMC2    C5  669   0.937   4.620   1.093 -0.0015 -0.4669  0.3576
   43TMC2    C6  670   0.827   4.697   1.080  0.1034 -0.0782  0.0051
   43TMC2     C  671   0.899   4.376   0.830  0.4203  0.6428  0.4259
   43TMC2     O  672   0.951   4.284   0.891  1.0340 -0.2729 -0.4898
   43TMC2     H  673   0.669   4.539   0.826  1.3080 -2.3842 -0.0590
   43TMC2    H1  674   1.037   4.443   1.027 -0.0126 -0.3838 -0.1923
   43TMC2    H2  675   0.803   0.038   1.157 -1.2337  2.7010 -3.1025
   43TMC2    C7  676   1.006   4.634   1.226  0.7787  0.6876 -0.0381
   43TMC2    C8  677   0.599   4.726   1.009 -0.4214 -0.3543  0.2164
   43TMC2    O1  678   0.946   4.669   1.327  0.6672  0.0588 -1.0077
   43TMC2    O2  679   0.557   0.034   1.119 -0.3284  0.3091  0.2493
   43TMC2    O5  680   0.515   4.693   0.910  0.3116  0.5605 -0.3730
   43TMC2    H5  681   0.567   4.666   0.831 -0.4316 -1.7392 -0.0865
   44MPD2     C  682   0.951   4.150   0.377  0.5953  0.0214 -0.5271
   44MPD2    C1  683   0.973   4.110   0.507  0.2593  0.9727  0.2109
   44MPD2    C2  684   0.954   4.199   0.612 -0.2938 -0.1740 -0.3826
   44MPD2    C3  685   0.881   4.311   0.589 -0.2665 -0.4918 -0.0192
   44MPD2    C4  686   0.838   4.344   0.462 -0.0840  0.8288  0.6842
   44MPD2    C5  687   0.889   4.273   0.360 -0.0745  0.9887  0.4734
   44MPD2     H  688   0.988   4.169   0.710  1.1927 -0.7645 -1.0770
   44MPD2    H1  689   0.782   4.435   0.444 -1.3874 -0.3779 -1.4448
   44MPD2    H2  690   0.976   4.089   0.291 -1.6871  0.0435 -1.2119
   44MPD2    H3  691   0.867   4.308   0.259  0.5327 -0.5544 -0.1847
   44MPD2     N  692   0.856   4.395   0.706 -0.0117 -0.0114 -0.9664
   44MPD2    H5  693   0.800   4.478   0.693  1.0358  0.9455  0.7047
   44MPD2    N1  694   1.020   3.975   0.537  0.6836 -0.1398 -0.1101
   44MPD2    H7  695   1.025   3.953   0.636  0.7415 -1.6209 -0.4405
   45TMC2    C1  696   1.382   1.394   9.142  0.0610 -0.6155 -0.7450
   45TMC2    C2  697   1.466   1.338   9.045 -0.2408 -0.3031 -0.3645
   45TMC2    C3  698   1.603   1.334   9.079 -0.4650  0.8820 -0.1306
   45TMC2    C4  699   1.431   1.451   9.259  0.1858 -0.2256 -0.2633
   45TMC2    C5  700   1.568   1.440   9.288  0.1186  0.8640  0.2880
   45TMC2    C6  701   1.652   1.392   9.187 -0.1970 -0.7002 -0.5232
   45TMC2     C  702   1.252   1.423   9.085  0.3436 -0.6293  0.0021
   45TMC2     O  703   1.225   1.380   8.974  0.1824 -0.2200 -0.0715
   45TMC2     H  704   1.428   1.289   8.956 -0.3758 -0.4466 -0.2298
   45TMC2    H1  705   1.366   1.492   9.335 -0.9604 -2.1898 -0.1864
   45TMC2    H2  706   1.757   1.375   9.209 -0.0822  1.4028  0.4767
   45TMC2    C7  707   1.608   1.515   9.403 -0.4339 -0.2869  0.5026
   45TMC2    C8  708   1.704   1.294   8.985 -0.1316  0.6389  0.9812
   45TMC2    O1  709   1.532   1.525   9.499  0.2938 -0.3030 -0.4867
   45TMC2    O2  710   1.818   1.261   9.009 -0.0633 -0.7901  0.2622
   45TMC2    O5  711   1.651   1.321   8.861  0.2864 -0.1490 -0.4862
   45TMC2    H5  712   1.572   1.378   8.854 -0.2926 -0.6887  1.6756
   46MPD2     C  713   0.969   1.480   9.033 -0.0687 -0.0094  0.2545
   46MPD2    C1  714   1.027   1.508   9.151 -0.7009 -0.1967  0.3199
   46MPD2    C2  715   0.952   1.565   9.250 -0.0520  0.3514  0.0144
   46MPD2    C3  716   0.822   1.594   9.231 -0.2894  0.3797  0.8380
   46MPD2    C4  717   0.766   1.564   9.110 -0.3429  0.6176 -0.5810
   46MPD2    C5  718   0.846   1.515   9.011 -1.0552 -0.1512  0.2944
   46MPD2     H  719   0.997   1.581   9.347 -0.8100 -0.8084  0.5503
   46MPD2    H1  720   0.665   1.597   9.089 -0.7915 -0.1546  0.3433
   46MPD2    H2  721   1.016   1.438   8.944  0.7498  0.1010  0.6325
   46MPD2    H3  722   0.809   1.488   8.913 -0.5125  1.0039 -0.2235
   46MPD2     N  723   0.740   1.647   9.335 -0.6009 -0.9935 -0.6613
   46MPD2    H5  724   0.785   1.667   9.424 -0.8908  2.0585 -1.2069
   46MPD2    N1  725   1.167   1.478   9.176 -0.7514  0.1687 -0.2784
   46MPD2    H7  726   1.201   1.511   9.266  2.6195  0.2546 -1.6024
   47TMC2    C1  727   3.474   2.055   9.074  0.0905 -0.5336  0.9685
   47TMC2    C2  728   3.421   1.932   9.020  0.6540  0.1385 -0.6952
   47TMC2    C3  729   3.312   1.957   8.941 -0.6863 -0.0412  0.3283
   47TMC2    C4  730   3.424   2.181   9.051  0.0856  0.5881 -0.1458
   47TMC2    C5  731   3.305   2.188   8.979 -0.2435  0.7222 -0.4847
   47TMC2    C6  732   3.245   2.076   8.927  1.1842 -0.2935  0.3655
   47TMC2     C  733   3.604   2.052   9.129 -0.0582  0.2407  0.1673
   47TMC2     O  734   3.669   2.154   9.137  0.1552  0.2727 -0.4271
   47TMC2     H  735   3.469   1.835   9.020  0.7820  0.2085  0.3403
   47TMC2    H1  736   3.454   2.265   9.112 -0.4256 -0.1303  1.0962
   47TMC2    H2  737   3.141   2.079   8.898  1.8174 -3.7906 -2.2182
   47TMC2    C7  738   3.218   2.303   9.006  0.1575  0.2906  0.3122
   47TMC2    C8  739   3.235   1.839   8.910  0.5425  1.1582  0.1451
   47TMC2    O1  740   3.104   2.289   8.962 -0.6478 -0.5468  0.2943
   47TMC2    O2  741   3.184   1.780   9.007  0.7253 -0.2810 -0.4217
   47TMC2    O5  742   3.166   1.864   8.797  0.2847 -0.0209 -0.0445
   47TMC2    H5  743   3.221   1.928   8.748 -0.1601 -0.2581 -0.8553
   48MPD2     C  744   3.873   1.981   9.195  0.1710  0.3704  0.8658
   48MPD2    C1  745   3.770   1.892   9.210 -0.7240  0.8784  0.2532
   48MPD2    C2  746   3.794   1.754   9.242 -0.8431 -0.5675 -0.1760
   48MPD2    C3  747   3.916   1.714   9.263 -0.3419 -0.0538 -0.0415
   48MPD2    C4  748   4.022   1.794   9.232  1.5001  0.3253 -0.3771
   48MPD2    C5  749   4.000   1.925   9.207  0.1263  0.4547 -0.4078
   48MPD2     H  750   3.719   1.679   9.264  0.5266 -0.9348  3.2332
   48MPD2    H1  751   4.125   1.764   9.245  0.4532 -2.3058  2.1653
   48MPD2    H2  752   3.880   2.087   9.176  2.5952  0.4627  2.3059
   48MPD2    H3  753   4.083   1.986   9.176  1.0117  0.0590  1.2001
   48MPD2     N  754   3.933   1.577   9.296 -0.5251  0.2394 -0.1712
   48MPD2    H5  755   3.848   1.524   9.311 -0.6568  0.2669 -0.8072
   48MPD2    N1  756   3.640   1.925   9.179 -0.0847 -0.1264  0.2288
   48MPD2    H7  757   3.569   1.853   9.192 -1.4371  1.3386  0.9979
   49TMC2    C1  758   2.187   3.731  10.140  0.3039  0.2123 -0.2725
   49TMC2    C2  759   2.152   3.620  10.205  0.4658 -0.2315  0.3897
   49TMC2    C3  760   2.024   3.568  10.170  0.6703 -0.2952 -0.4047
   49TMC2    C4  761   2.114   3.784  10.040 -0.6849  0.2588  0.2091
   49TMC2    C5  762   1.996   3.725  10.008  0.5259  0.1415  0.6194
   49TMC2    C6  763   1.950   3.620  10.077  0.9287 -0.0290  0.3984
   49TMC2     C  764   2.312   3.807  10.172 -0.1169 -0.2841 -0.0194
   49TMC2     O  765   2.376   3.852  10.081  0.0524 -0.0621  0.5495
   49TMC2     H  766   2.217   3.562  10.269  1.0152 -0.8565 -0.7383
   49TMC2    H1  767   2.153   3.868   9.983 -0.0638 -0.6442 -0.6869
   49TMC2    H2  768   1.848   3.586  10.063 -0.0527  3.0833 -0.1888
   49TMC2    C7  769   1.906   3.794   9.922 -0.3543  0.5267 -0.0978
   49TMC2    C8  770   1.990   3.439  10.227 -0.0070  0.5986 -0.1259
   49TMC2    O1  771   1.936   3.914   9.935 -0.0917 -0.4044 -0.6211
   49TMC2    O2  772   2.034   3.398  10.334  0.3705 -0.0445 -0.1753
   49TMC2    O5  773   1.912   3.365  10.148 -0.1299 -0.3427  0.1223
   49TMC2    H5  774   1.893   3.391  10.055  0.2542  0.7804  0.3693
   50MPD2     C  775   2.586   3.821  10.275 -0.0953  0.4550  0.4848
   50MPD2    C1  776   2.484   3.771  10.347  0.5611  0.3748 -0.1532
   50MPD2    C2  777   2.507   3.734  10.478  0.4019  0.0200  0.6188
   50MPD2    C3  778   2.633   3.723  10.520  0.0296 -0.4549 -0.2275
   50MPD2    C4  779   2.737   3.756  10.437 -0.2743  0.3148  0.9523
   50MPD2    C5  780   2.713   3.808  10.314  0.2348  0.0536  0.5928
   50MPD2     H  781   2.424   3.710  10.543 -0.8837  1.2278 -0.5864
   50MPD2    H1  782   2.835   3.712  10.451  0.5834  2.4690  1.7886
   50MPD2    H2  783   2.572   3.846  10.171 -2.2312  0.3412  0.7603
   50MPD2    H3  784   2.801   3.838  10.259  0.8580 -0.6699  1.1919
   50MPD2     N  785   2.671   3.681  10.646 -0.4179 -0.5418 -0.0832
   50MPD2    H5  786   2.767   3.695  10.676 -0.6919 -2.3344  1.5876
   50MPD2    N1  787   2.351   3.768  10.295 -0.1856 -0.0673  0.4380
   50MPD2    H7  788   2.281   3.716  10.346 -0.4614 -1.4300 -1.3477
   51TMC2    C1  789   2.229   2.717   1.274  0.4114  0.2625  0.2261
   51TMC2    C2  790   2.204   2.742   1.404 -0.4830  0.2168  0.2023
   51TMC2    C3  791   2.294   2.829   1.466  0.2713  0.5549 -0.0611
   51TMC2    C4  792   2.334   2.762   1.200 -0.1949  0.0126  0.1348
   51TMC2    C5  793   2.410   2.862   1.256 -0.1163  0.9594 -0.3975
   51TMC2    C6  794   2.392   2.895   1.390 -0.2016 -0.0324  0.2117
   51TMC2     C  795   2.189   2.590   1.225  0.4820 -0.1347 -0.7682
   51TMC2     O  796   2.275   2.526   1.167  0.5976 -0.3079 -0.1655
   51TMC2     H  797   2.122   2.704   1.465 -1.9677  0.1063 -1.8737
   51TMC2    H1  798   2.331   2.730   1.097 -3.0096  0.5040  0.0480
   51TMC2    H2  799   2.474   2.952   1.432  0.9062 -2.0304  0.7731
   51TMC2    C7  800   2.543   2.883   1.200  0.2358 -0.2138 -0.7478
   51TMC2    C8  801   2.307   2.819   1.613  0.5177 -0.5966 -0.4713
   51TMC2    O1  802   2.638   2.920   1.274 -0.4452 -0.2387 -0.1406
   51TMC2    O2  803   2.262   2.726   1.682 -0.3703 -0.7257  0.5503
   51TMC2    O5  804   2.385   2.920   1.659 -0.1722 -0.0131 -0.0028
   51TMC2    H5  805   2.386   2.993   1.593 -0.2262  1.8103  2.0517
   52MPD2     C  806   1.866   2.187   1.235 -0.9628  0.4022 -0.1655
   52MPD2    C1  807   2.006   2.195   1.219 -0.1446  0.4867 -0.4775
   52MPD2    C2  808   2.064   2.320   1.212 -0.5869 -0.3008  0.6429
   52MPD2    C3  809   1.997   2.435   1.238 -0.0263  0.1939  0.4396
   52MPD2    C4  810   1.861   2.419   1.240 -0.0268 -0.6331 -0.8461
   52MPD2    C5  811   1.799   2.297   1.237 -0.2347  0.9876  0.3905
   52MPD2     H  812   2.172   2.313   1.207 -0.7280 -1.1196 -1.3410
   52MPD2    H1  813   1.797   2.505   1.257  2.1946  0.6475  1.0860
   52MPD2    H2  814   1.815   2.091   1.233 -0.9403  0.4173 -1.7662
   52MPD2    H3  815   1.692   2.280   1.237  0.2148 -1.7951  0.2127
   52MPD2     N  816   2.058   2.561   1.253 -0.0541 -0.2296 -0.2469
   52MPD2    H5  817   1.999   2.638   1.284  0.3491 -1.3409  3.2971
   52MPD2    N1  818   2.094   2.084   1.217  0.2347  0.7536  0.9145
   52MPD2    H7  819   2.192   2.105   1.202  0.2603  0.2797  0.4203
   53TMC2    C1  820   2.832   0.873  11.886  0.5447  0.0223  0.3309
   53TMC2    C2  821   2.967   0.853  11.911 -0.2783 -0.2043  0.1035
   53TMC2    C3  822   3.016   0.821  12.037 -0.3373  0.7084 -0.4008
   53TMC2    C4  823   2.737   0.861  11.979 -0.2087  0.0886 -0.1652
   53TMC2    C5  824   2.790   0.844  12.110  0.1561 -0.6841 -0.7513
   53TMC2    C6  825   2.929   0.833  12.142  0.8191  0.2334  0.5047
   53TMC2     C  826   2.792   0.906  11.750  0.0643 -0.0422  0.0799
   53TMC2     O  827   2.881   0.914  11.665  0.4379 -0.0432  0.2636
   53TMC2     H  828   3.033   0.861  11.825 -1.1667 -1.2705 -0.6752
   53TMC2    H1  829   2.630   0.876  11.966 -0.0901  0.5354 -0.6067
   53TMC2    H2  830   2.966   0.843  12.243  1.7967  0.1409  0.1557
   53TMC2    C7  831   2.697   0.869  12.213 -0.3366  0.2495  0.3105
   53TMC2    C8  832   3.153   0.791  12.050  0.1366 -0.1741  0.3423
   53TMC2    O1  833   2.589   0.924  12.185  0.1946  0.3884  0.0703
   53TMC2    O2  834   3.240   0.800  11.964  0.2118  0.3097  0.1616
   53TMC2    O5  835   3.151   0.702  12.147  0.2570 -0.5994 -0.4529
   53TMC2    H5  836   3.071   0.700  12.203  0.9442 -3.1448  0.3887
   54MPD2     C  837   2.635   0.989  11.507  0.3916  0.1248 -0.2859
   54MPD2    C1  838   2.596   1.000  11.639 -0.0595 -0.1369 -0.1246
   54MPD2    C2  839   2.480   1.068  11.669  0.3287  0.2144  0.4147
   54MPD2    C3  840   2.399   1.114  11.567 -0.6203 -0.3302  0.0658
   54MPD2    C4  841   2.433   1.097  11.436 -0.1283 -0.6497 -0.2013
   54MPD2    C5  842   2.556   1.037  11.409  0.6579  0.2032 -0.4704
   54MPD2     H  843   2.464   1.090  11.773 -0.8037  0.2474  0.2345
   54MPD2    H1  844   2.382   1.137  11.349 -1.6851  1.7182  1.8203
   54MPD2    H2  845   2.724   0.935  11.475 -1.4493 -1.4227 -2.7538
   54MPD2    H3  846   2.571   1.015  11.304 -1.6397 -0.1530 -0.7333
   54MPD2     N  847   2.268   1.173  11.595  0.1433 -0.1142 -0.2404
   54MPD2    H5  848   2.211   1.166  11.511  0.0976 -2.8502  0.0342
   54MPD2    N1  849   2.667   0.954  11.751  0.0190  0.5718  0.1628
   54MPD2    H7  850   2.615   0.958  11.838  0.9640  1.1780  0.7019
   55TMC2    C1  851   4.170   3.765  17.723  1.0475 -0.6407 -0.1554
   55TMC2    C2  852   4.185   3.736  17.585  0.2412 -0.6591 -0.6417
   55TMC2    C3  853   4.243   3.619  17.555 -0.0331  0.0506 -0.0905
   55TMC2    C4  854   4.218   3.682   0.097 -0.0357 -0.1888  0.0680
   55TMC2    C5  855   4.276   3.568   0.048 -0.4888  0.3301  0.2346
   55TMC2    C6  856   4.292   3.528  17.648 -0.5711 -0.4648  0.2218
   55TMC2     C  857   4.070   3.860   0.039  0.3230  0.7597 -0.3562
   55TMC2     O  858   4.013   3.840   0.150  0.4268  0.0901  0.0034
   55TMC2     H  859   4.116   3.788  17.519  0.6091  1.9415  1.0520
   55TMC2    H1  860   4.213   3.713   0.201 -2.6041  1.4432 -0.5325
   55TMC2    H2  861   4.344   3.438  17.616  2.5995  1.5630 -0.3725
   55TMC2    C7  862   4.338   3.488   0.154  0.5260 -0.3784  0.0904
   55TMC2    C8  863   4.233   3.578  17.416 -0.1178  0.3848  0.0213
   55TMC2    O1  864   4.425   3.415   0.123  0.2464  0.1494  0.3040
   55TMC2    O2  865   4.225   3.661  17.326  0.3627 -0.1306 -0.1113
   55TMC2    O5  866   4.268   3.452  17.399  0.2895  0.0228  0.3717
   55TMC2    H5  867   4.270   3.397  17.480  0.3907  0.2792  0.5395
   56MPD2     C  868   4.025   4.200  17.627 -0.2268  0.7604 -0.4359
   56MPD2    C1  869   3.997   4.086  17.704 -0.7431  1.1805 -0.2802
   56MPD2    C2  870   3.896   4.097   0.069  0.5228 -0.7105  0.1607
   56MPD2    C3  871   3.816   4.210   0.083 -0.3152 -0.5598  0.2981
   56MPD2    C4  872   3.845   4.316   0.009 -0.0058  0.1881  0.2503
   56MPD2    C5  873   3.947   4.314  17.646 -0.0894  0.1030 -0.5687
   56MPD2     H  874   3.878   4.011   0.132 -0.9529 -0.8837 -0.4897
   56MPD2    H1  875   3.794   4.411   0.014 -0.2884  0.1833 -2.4352
   56MPD2    H2  876   4.108   4.203  17.558  0.7667  1.0607  0.7840
   56MPD2    H3  877   3.976   4.400  17.587  1.4257  0.1175  0.2107
   56MPD2     N  878   3.712   4.207   0.183  0.1426 -0.4463  0.6412
   56MPD2    H5  879   3.706   4.129   0.248  1.0733 -1.0898 -0.0549
   56MPD2    N1  880   4.073   3.967  17.680  0.3940  1.2398 -0.4761
   56MPD2    H7  881   4.143   3.967  17.607  0.8593  2.8449 -0.0403
   57TMC2    C1  882   3.079   3.817  13.818  0.1443  0.1971 -0.3298
   57TMC2    C2  883   3.111   3.722  13.910  0.2018 -0.0679  0.0188
   57TMC2    C3  884   3.191   3.630  13.855 -0.3389 -0.2905 -0.0268
   57TMC2    C4  885   3.115   3.830  13.684  1.2304  0.0049  0.0344
   57TMC2    C5  886   3.195   3.731  13.638 -0.1567 -0.0066  0.1848
   57TMC2    C6  887   3.242   3.633  13.726 -0.0813 -0.6116  0.7125
   57TMC2     C  888   2.982   3.921  13.857 -0.5380 -0.3308  0.1106
   57TMC2     O  889   2.921   3.974  13.767 -0.7059  0.2791 -0.4827
   57TMC2     H  890   3.074   3.714  14.011  0.6588  0.0620  0.1963
   57TMC2    H1  891   3.074   3.904  13.617 -0.4195 -3.3207 -2.6009
   57TMC2    H2  892   3.312   3.553  13.703  1.8845  1.2406  0.2975
   57TMC2    C7  893   3.245   3.737  13.501 -0.4922 -0.2581  0.7923
   57TMC2    C8  894   3.226   3.510  13.927 -0.2871  0.5362 -0.0069
   57TMC2    O1  895   3.218   3.838  13.433  0.7255  0.2951 -0.0600
   57TMC2    O2  896   3.261   3.515  14.046 -0.1265  0.0128 -0.5216
   57TMC2    O5  897   3.186   3.411  13.851 -0.0314 -0.0036 -0.7210
   57TMC2    H5  898   3.131   3.442  13.776  0.0784  1.4940 -0.1682
   58MPD2     C  899   2.853   4.283  14.197 -0.6584  0.1929 -0.5617
   58MPD2    C1  900   2.791   4.251  14.077 -0.2534 -0.5427  0.2543
   58MPD2    C2  901   2.842   4.150  14.001  0.1595 -0.2390  0.0694
   58MPD2    C3  902   2.936   4.066  14.062  0.0537 -0.6555 -0.0245
   58MPD2    C4  903   2.993   4.090  14.183  0.3008 -0.5109  0.1519
   58MPD2    C5  904   2.959   4.207  14.248 -0.1122  0.6877  0.0862
   58MPD2     H  905   2.794   4.129  13.906  0.5339  0.6573 -0.3213
   58MPD2    H1  906   3.061   4.024  14.237 -0.5528 -0.8045  0.8674
   58MPD2    H2  907   2.824   4.369  14.256  2.7704  2.2805 -1.9705
   58MPD2    H3  908   3.013   4.236  14.337  0.3099  0.2404 -0.0246
   58MPD2     N  909   2.999   3.955  13.991 -0.1753  0.2901  0.1109
   58MPD2    H5  910   3.063   3.904  14.051 -0.1541  3.0096  2.4126
   58MPD2    N1  911   2.693   4.340  14.024  0.8774  0.1193  0.5650
   58MPD2    H7  912   2.641   4.309  13.942 -0.7050 -0.7885  1.9201
   59TMC2    C1  913   0.469   4.104  12.872  0.4489  0.1812  0.4286
   59TMC2    C2  914   0.336   4.092  12.844 -0.2502  0.0238 -0.2806
   59TMC2    C3  915   0.292   4.071  12.721  0.1039  0.1319  0.2908
   59TMC2    C4  916   0.557   4.096  12.771  0.1668  0.4687 -0.2183
   59TMC2    C5  917   0.506   4.061  12.652 -0.4944 -0.3197 -0.0291
   59TMC2    C6  918   0.380   4.058  12.616  0.1105  0.2565 -0.4037
   59TMC2     C  919   0.508   4.214  12.954 -0.1844 -0.4341  0.6249
   59TMC2     O  920   0.430   4.308  12.960 -0.3382 -0.0076 -0.1604
   59TMC2     H  921   0.271   4.093  12.931  0.5836 -0.2491  0.3430
   59TMC2    H1  922   0.662   4.118  12.785 -0.0478  1.6904 -0.6048
   59TMC2    H2  923   0.350   4.025  12.517 -1.5955  0.3121  0.0890
   59TMC2    C7  924   0.599   4.094  12.542 -0.0668  0.3078 -0.4257
   59TMC2    C8  925   0.158   4.022  12.713 -0.1865 -0.6668  0.2331
   59TMC2    O1  926   0.716   4.105  12.574 -0.2859 -0.8224 -0.3242
   59TMC2    O2  927   0.108   3.980  12.816  0.0443  0.2210  0.3892
   59TMC2    O5  928   0.098   4.071  12.605  0.4462  0.4884 -0.3486
   59TMC2    H5  929   0.164   4.113  12.545  0.6856  0.5108 -0.0668
   60MPD2     C  930   0.656   4.398  13.124  0.0979  0.1052  0.3732
   60MPD2    C1  931   0.702   4.268  13.098  0.1565 -0.6351  0.1368
   60MPD2    C2  932   0.825   4.234  13.152 -0.4990 -0.3457 -0.0852
   60MPD2    C3  933   0.899   4.315  13.233  0.1707 -0.3087  0.0276
   60MPD2    C4  934   0.844   4.442  13.259 -0.3275 -0.3861  0.7375
   60MPD2    C5  935   0.720   4.479  13.210 -0.1960 -0.2869  0.5403
   60MPD2     H  936   0.859   4.131  13.140 -0.8380 -0.7180  2.2797
   60MPD2    H1  937   0.895   4.509  13.327  1.4673 -0.6661 -0.3495
   60MPD2    H2  938   0.567   4.443  13.081  0.4317 -1.8638 -2.3812
   60MPD2    H3  939   0.690   4.581  13.229 -2.3563 -0.6654 -0.8509
   60MPD2     N  940   1.015   4.282  13.312 -0.3404 -0.1329  0.4372
   60MPD2    H5  941   1.055   4.361  13.360  0.3757 -0.6596  0.7139
   60MPD2    N1  942   0.632   4.181  13.011  0.8623  0.1167  0.3872
   60MPD2    H7  943   0.670   4.087  13.011  3.9265  1.3539  1.6024
   61TMC2    C1  944   0.038   0.939  15.574  0.3974 -0.3880  0.9150
   61TMC2    C2  945   0.056   0.834  15.652 -0.4891 -0.9518  0.5525
   61TMC2    C3  946   0.131   0.848  15.768  0.5810 -0.6726 -0.1620
   61TMC2    C4  947   0.095   1.061  15.597 -0.2375  0.1184 -0.3845
   61TMC2    C5  948   0.160   1.072  15.715 -0.3639 -0.2830  1.0017
   61TMC2    C6  949   0.182   0.964  15.800  0.0600  0.2949 -0.5535
   61TMC2     C  950   4.687   0.922  15.458 -0.2737 -0.4152  0.0371
   61TMC2     O  951   4.588   0.852  15.461 -0.5145  0.6500 -0.1149
   61TMC2     H  952   0.010   0.743  15.614  1.3062 -1.2429 -0.9522
   61TMC2    H1  953   0.090   1.142  15.525  1.0342  0.4331 -0.1300
   61TMC2    H2  954   0.251   0.981  15.882  0.8570 -1.2586 -0.8973
   61TMC2    C7  955   0.175   1.212  15.758 -0.4377 -0.2794 -0.8574
   61TMC2    C8  956   0.202   0.721  15.802  0.1627 -0.4497  0.2514
   61TMC2    O1  957   0.128   1.297  15.681 -0.0735  0.1249  0.4818
   61TMC2    O2  958   0.261   0.710  15.906  0.4248  0.4072  0.2953
   61TMC2    O5  959   0.251   0.669  15.693  0.3391 -0.0172  0.1549
   61TMC2    H5  960   0.236   0.735  15.622  0.7720  0.5247  0.5621
   62MPD2     C  961   4.627   0.857  15.181 -0.2615 -0.3853 -0.0833
   62MPD2    C1  962   4.679   0.977  15.226 -0.0239 -0.7161 -0.3596
   62MPD2    C2  963   4.701   1.076  15.133 -0.1006 -0.5587 -0.3036
   62MPD2    C3  964   4.667   1.057  14.997  0.2250 -0.1828  0.5752
   62MPD2    C4  965   4.611   0.937  14.959 -0.1651  0.6501 -0.1221
   62MPD2    C5  966   4.590   0.835  15.049  1.2133 -0.0468  0.1643
   62MPD2     H  967   0.003   1.170  15.175 -0.3699 -0.7082  0.2550
   62MPD2    H1  968   4.581   0.937  14.855 -1.0008 -0.3204  0.1250
   62MPD2    H2  969   4.612   0.772  15.247 -1.0362  0.2233  0.5304
   62MPD2    H3  970   4.545   0.739  15.026 -0.0045  0.8931 -1.3712
   62MPD2     N  971   4.696   1.141  14.894  0.3740  0.1167 -0.1262
   62MPD2    H5  972   4.669   1.112  14.800  1.3037 -0.1334 -0.3168
   62MPD2    N1  973   4.718   1.004  15.358  0.5931 -0.0486  0.1644
   62MPD2    H7  974   0.062   1.071  15.373  0.2042  0.1647  1.2190
   63TMC2    C1  975   3.871   1.391  10.305 -0.1793 -0.0718  0.3509
   63TMC2    C2  976   3.998   1.403  10.352  0.1167  0.1517  0.1642
   63TMC2    C3  977   4.105   1.429  10.268 -1.1869  0.1143 -0.5509
   63TMC2    C4  978   3.837   1.420  10.179  0.3315 -0.2853  0.5161
   63TMC2    C5  979   3.946   1.452  10.094 -0.1967 -0.3548 -1.0916
   63TMC2    C6  980   4.076   1.458  10.138 -0.5684 -0.8922 -0.0341
   63TMC2     C  981   3.770   1.336  10.392 -0.6916  0.0367  0.6613
   63TMC2     O  982   3.663   1.392  10.384  0.2609  0.0830 -0.2894
   63TMC2     H  983   4.010   1.369  10.454 -2.8669 -1.3066  0.0292
   63TMC2    H1  984   3.737   1.404  10.139  0.1718 -1.4036  1.3452
   63TMC2    H2  985   4.165   1.468  10.077  0.3853 -0.0691  1.4913
   63TMC2    C7  986   3.905   1.491   9.960 -0.1037 -0.1261 -0.4132
   63TMC2    C8  987   4.247   1.420  10.308  0.0985  0.9029 -0.5033
   63TMC2    O1  988   3.784   1.494   9.932  0.1578 -0.2886 -0.4236
   63TMC2    O2  989   4.324   1.377  10.225  0.0320 -0.5688  0.2726
   63TMC2    O5  990   4.248   1.373  10.433  0.3370  0.2890  0.6493
   63TMC2    H5  991   4.195   1.435  10.488 -0.4948 -0.9798  1.2688
   64MPD2     C  992   3.544   0.923  10.606  0.2795 -0.1290  0.7526
   64MPD2    C1  993   3.675   0.897  10.581  0.3259 -0.2300 -0.9860
   64MPD2    C2  994   3.751   0.985  10.507 -0.3893  0.2913  0.8627
   64MPD2    C3  995   3.700   1.112  10.478 -0.7842  0.3528 -0.0656
   64MPD2    C4  996   3.573   1.146  10.518 -0.0019 -0.2216  0.1873
   64MPD2    C5  997   3.492   1.050  10.582 -0.2751 -0.3702 -0.2993
   64MPD2     H  998   3.852   0.966  10.472 -1.8632 -2.2373 -2.0015
   64MPD2    H1  999   3.536   1.247  10.507  0.7943 -0.0512 -0.8719
   64MPD2    H2 1000   3.486   0.853  10.666  0.0611 -0.7369 -0.1718
   64MPD2    H3 1001   3.399   1.081  10.629  0.8524  1.0231  1.0281
   64MPD2     N 1002   3.789   1.202  10.414 -0.7901  0.2411 -0.3399
   64MPD2    H5 1003   3.875   1.161  10.378 -1.6024 -0.0301 -1.9610
   64MPD2    N1 1004   3.732   0.773  10.611  0.1843 -0.0394 -0.1927
   64MPD2    H7 1005   3.830   0.764  10.587  0.2631 -0.2277  0.2053
   65TMC2    C1 1006   1.168   0.780  15.592 -0.4974  0.1188 -0.1866
   65TMC2    C2 1007   1.073   0.786  15.493 -0.4972 -0.2958 -0.2329
   65TMC2    C3 1008   1.038   0.913  15.443 -0.4639 -0.0507 -0.4108
   65TMC2    C4 1009   1.213   0.893  15.648  0.7650  0.0085 -0.5856
   65TMC2    C5 1010   1.181   1.017  15.590 -0.7155  0.2706  0.0334
   65TMC2    C6 1011   1.094   1.031  15.483  0.3720 -0.5567  0.2136
   65TMC2     C 1012   1.221   0.651  15.638  0.8346  0.1104  0.0990
   65TMC2     O 1013   1.317   0.659  15.716 -0.2017  0.0437  0.0829
   65TMC2     H 1014   1.047   0.702  15.430  0.5177 -0.5901 -0.2544
   65TMC2    H1 1015   1.303   0.882  15.708  0.0340  1.2921  0.7402
   65TMC2    H2 1016   1.066   1.123  15.433  2.2790  0.6235  1.3103
   65TMC2    C7 1017   1.203   1.131  15.669 -0.1675  0.7287 -0.3774
   65TMC2    C8 1018   0.937   0.907  15.344 -0.0544 -0.1060  0.2392
   65TMC2    O1 1019   1.177   1.241  15.623 -0.0232 -0.0582 -0.4021
   65TMC2    O2 1020   0.943   0.827  15.255 -1.0375  0.4500 -0.5458
   65TMC2    O5 1021   0.828   0.958  15.401 -0.5187  0.1190 -0.4452
   65TMC2    H5 1022   0.869   1.011  15.472 -1.8658 -0.0745  0.4847
   66MPD2     C 1023   1.259   0.362  15.721  0.5434 -0.3489  0.7246
   66MPD2    C1 1024   1.164   0.411  15.637  0.0434  0.6119 -0.1679
   66MPD2    C2 1025   1.073   0.322  15.588  0.2038  0.4040 -0.0975
   66MPD2    C3 1026   1.068   0.192  15.636 -0.3365 -0.4320  0.3505
   66MPD2    C4 1027   1.161   0.151  15.727  0.4585  0.0983 -0.5839
   66MPD2    C5 1028   1.254   0.237  15.769  0.2631 -0.5044  0.0305
   66MPD2     H 1029   0.998   0.358  15.517  1.1736 -1.4809 -2.0732
   66MPD2    H1 1030   1.164   0.052  15.770  1.3703 -0.5425 -2.1385
   66MPD2    H2 1031   1.344   0.422  15.751  0.8650 -0.3002 -0.2690
   66MPD2    H3 1032   1.323   0.213  15.850  1.0204  0.2429 -0.3867
   66MPD2     N 1033   0.969   0.099  15.583 -0.4950 -0.2690 -0.0503
   66MPD2    H5 1034   0.977   0.009  15.630 -3.4558 -1.0786 -1.1550
   66MPD2    N1 1035   1.148   0.539  15.592 -0.2463 -0.4747  0.7277
   66MPD2    H7 1036   1.065   0.562  15.538 -0.7203 -1.1865  1.1562
   67TMC2    C1 1037   1.165   4.190  14.150  0.3923  0.5023 -0.2575
   67TMC2    C2 1038   1.090   4.305  14.162  0.4862 -0.2319 -0.4681
   67TMC2    C3 1039   1.103   4.384  14.271 -0.5097  0.5317  0.0908
   67TMC2    C4 1040   1.263   4.167  14.245  0.3685  0.6575 -0.5404
   67TMC2    C5 1041   1.274   4.250  14.354  0.2692  0.0948  0.0438
   67TMC2    C6 1042   1.187   4.352  14.372  0.6960  0.0275  0.3762
   67TMC2     C 1043   1.124   4.077  14.068  0.1349  0.0037 -0.3157
   67TMC2     O 1044   1.186   3.970  14.060 -0.2937 -0.3571  0.1100
   67TMC2     H 1045   1.016   4.339  14.091  0.0429 -0.5501 -0.1592
   67TMC2    H1 1046   1.322   4.076  14.240  0.4526  0.6921 -0.1854
   67TMC2    H2 1047   1.193   4.412  14.463 -2.2186  0.6873  0.1362
   67TMC2    C7 1048   1.372   4.220  14.454  0.5827  0.4234  0.4281
   67TMC2    C8 1049   1.042   4.521  14.261 -0.2595 -0.0667  0.4128
   67TMC2    O1 1050   1.478   4.173  14.411  0.0289  0.4879 -0.7570
   67TMC2    O2 1051   0.967   4.563  14.175  0.3044 -0.2273  0.2982
   67TMC2    O5 1052   1.135   4.597  14.314 -0.5026 -0.0882 -0.8731
   67TMC2    H5 1053   1.117   4.693  14.303 -0.6693  0.0001  0.2411
   68MPD2     C 1054   1.008   3.906  13.851  0.1109  0.0154  0.1072
   68MPD2    C1 1055   0.944   4.012  13.914  0.4977 -0.2090 -0.4201
   68MPD2    C2 1056   0.812   4.023  13.878 -0.3133 -0.1186 -0.1157
   68MPD2    C3 1057   0.743   3.943  13.794  0.5707  0.1039  0.1663
   68MPD2    C4 1058   0.810   3.832  13.743  0.0705 -0.3171  0.0079
   68MPD2    C5 1059   0.940   3.819  13.774  0.5283  0.5458  0.0043
   68MPD2     H 1060   0.764   4.105  13.930 -0.8978  0.6534 -1.8419
   68MPD2    H1 1061   0.757   3.764  13.677  0.0677 -0.5170  0.2165
   68MPD2    H2 1062   1.114   3.885  13.858 -0.1842 -0.5315  3.0073
   68MPD2    H3 1063   0.995   3.740  13.724 -0.7366 -0.4747  0.2415
   68MPD2     N 1064   0.607   3.975  13.760  0.2470  0.4578  0.3864
   68MPD2    H5 1065   0.565   4.043  13.823 -0.5930 -1.4012  1.8503
   68MPD2    N1 1066   1.001   4.102  14.014 -0.3841 -0.1282  0.1957
   68MPD2    H7 1067   0.944   4.182  14.042  0.9516  1.4749 -1.6385
   69TMC2    C1 1068   2.722   1.130  12.714  0.3532  0.4423  0.7135
   69TMC2    C2 1069   2.609   1.204  12.690 -0.2993 -0.0996 -0.0650
   69TMC2    C3 1070   2.600   1.277  12.576 -0.0801 -0.5790 -0.2071
   69TMC2    C4 1071   2.819   1.106  12.619 -0.1830 -0.3404  0.5921
   69TMC2    C5 1072   2.801   1.179  12.504  0.7324  0.2403  0.1659
   69TMC2    C6 1073   2.692   1.264  12.473 -0.5105  0.1359  0.2405
   69TMC2     C 1074   2.731   1.075  12.849  0.2397 -0.4380 -0.4687
   69TMC2     O 1075   2.628   1.055  12.911 -0.2081 -0.3176  0.0351
   69TMC2     H 1076   2.551   1.241  12.774  0.3093 -0.7727  0.6547
   69TMC2    H1 1077   2.909   1.047  12.631  0.4584  0.4768 -0.1391
   69TMC2    H2 1078   2.690   1.331  12.388  2.2922  0.1531  0.1763
   69TMC2    C7 1079   2.904   1.173  12.402  1.1135  0.0249 -0.2432
   69TMC2    C8 1080   2.503   1.386  12.578  1.0438 -0.2052  0.8916
   69TMC2    O1 1081   3.018   1.150  12.430 -0.3723 -0.4954  0.1419
   69TMC2    O2 1082   2.389   1.367  12.625  0.6400  0.7343  0.3266
   69TMC2    O5 1083   2.561   1.500  12.527 -0.4581  0.2641 -0.0859
   69TMC2    H5 1084   2.655   1.508  12.500 -0.7405  0.2258 -1.0807
   70MPD2     C 1085   3.041   0.933  12.984  0.0176 -0.7873 -0.2921
   70MPD2    C1 1086   2.904   0.960  12.981  0.1880 -0.1046  1.1637
   70MPD2    C2 1087   2.811   0.897  13.073  0.5157 -0.1610 -0.5677
   70MPD2    C3 1088   2.862   0.811  13.165 -0.3660 -0.0711  0.3394
   70MPD2    C4 1089   3.002   0.796  13.172  0.1310  0.1834  0.1048
   70MPD2    C5 1090   3.089   0.851  13.086  0.2075  0.5022 -0.1815
   70MPD2     H 1091   2.703   0.902  13.064  0.5355  2.6311  0.8021
   70MPD2    H1 1092   3.040   0.719  13.237  1.1100  1.7305  1.3692
   70MPD2    H2 1093   3.114   0.976  12.916 -1.1591 -1.2977 -1.8660
   70MPD2    H3 1094   3.194   0.823  13.092  0.8436  2.4886 -1.9438
   70MPD2     N 1095   2.791   0.731  13.260  0.1468  0.3435  0.2876
   70MPD2    H5 1096   2.846   0.663  13.311 -0.1929  0.4003  0.7332
   70MPD2    N1 1097   2.864   1.036  12.867 -0.3574 -0.5272 -0.3909
   70MPD2    H7 1098   2.931   1.074  12.801 -0.7574  2.1389  0.7377
   71TMC2    C1 1099   4.516   2.594   1.476 -0.0172  0.1891  0.2660
   71TMC2    C2 1100   4.539   2.598   1.611 -0.3799  0.0262 -0.3108
   71TMC2    C3 1101   4.478   2.700   1.678  0.5264 -0.5105  0.3324
   71TMC2    C4 1102   4.439   2.685   1.412  0.8441  0.3725  0.2404
   71TMC2    C5 1103   4.391   2.796   1.486 -0.0472  0.3231 -0.5175
   71TMC2    C6 1104   4.411   2.807   1.620  0.5387  0.0814 -0.7221
   71TMC2     C 1105   4.572   2.481   1.400 -0.2510 -0.0539  0.0157
   71TMC2     O 1106   4.681   2.435   1.440 -0.0413  0.6622  0.5029
   71TMC2     H 1107   4.596   2.523   1.664 -0.7640 -0.7228 -0.9532
   71TMC2    H1 1108   4.439   2.694   1.304 -0.0391  0.9929  0.2866
   71TMC2    H2 1109   4.353   2.871   1.686 -0.3215 -2.0090  0.5574
   71TMC2    C7 1110   4.278   2.874   1.441 -0.3485 -0.7878  0.0332
   71TMC2    C8 1111   4.507   2.706   1.824  0.2412  0.3794 -0.1966
   71TMC2    O1 1112   4.229   2.958   1.512  0.5388 -0.7090 -0.3496
   71TMC2    O2 1113   4.539   2.602   1.879 -0.8205  0.2241  0.1526
   71TMC2    O5 1114   4.520   2.832   1.871  0.0197  0.2491  0.0842
   71TMC2    H5 1115   4.483   2.909   1.823 -1.0096 -0.4064 -0.1867
   72MPD2     C 1116   4.585   2.190   0.973  0.3040 -0.1506  0.1246
   72MPD2    C1 1117   4.669   2.182   1.090  0.3035 -0.3423 -0.1952
   72MPD2    C2 1118   4.637   2.267   1.199 -0.0260  0.1806 -0.0182
   72MPD2    C3 1119   4.525   2.354   1.187  0.2529 -0.5847 -0.2263
   72MPD2    C4 1120   4.444   2.352   1.070  0.5190 -0.2632  0.3355
   72MPD2    C5 1121   4.480   2.276   0.964 -0.7963 -0.1241  0.9880
   72MPD2     H 1122   4.697   2.264   1.289  0.6182  0.3899 -0.4431
   72MPD2    H1 1123   4.361   2.420   1.058 -1.6008 -2.5370  1.9132
   72MPD2    H2 1124   4.618   2.132   0.888 -2.2476 -1.3188 -0.0829
   72MPD2    H3 1125   4.429   2.292   0.869  2.2357 -0.6239 -0.7177
   72MPD2     N 1126   4.497   2.451   1.288 -0.2983 -0.0751  0.1173
   72MPD2    H5 1127   4.401   2.482   1.276 -0.1025  0.3408 -0.4017
   72MPD2    N1 1128   0.035   2.083   1.101 -0.9616  0.3822  0.1522
   72MPD2    H7 1129   0.090   2.082   1.186 -1.7336 -0.7652  0.6237
   73TMC2    C1 1130   4.526   3.071  14.053 -0.0245 -0.8106  0.2429
   73TMC2    C2 1131   4.451   3.130  14.144 -0.1924 -0.2520  0.7444
   73TMC2    C3 1132   4.456   3.088  14.276 -0.0554  0.9047 -0.1800
   73TMC2    C4 1133   4.622   2.985  14.101 -0.0526  0.7326  0.0571
   73TMC2    C5 1134   4.647   2.974  14.234  0.0123  0.1665  0.7419
   73TMC2    C6 1135   4.561   3.023  14.334  0.2694  0.7871 -0.3220
   73TMC2     C 1136   4.577   3.144  13.940 -0.3922  0.3578 -0.7327
   73TMC2     O 1137   4.694   3.127  13.911 -0.1000 -0.1643 -0.4386
   73TMC2     H 1138   4.380   3.205  14.109  1.3631  0.8674  0.0236
   73TMC2    H1 1139   4.691   2.935  14.034 -0.3732  0.2946  0.0524
   73TMC2    H2 1140   4.574   2.991  14.437 -1.2715  1.4200  0.0605
   73TMC2    C7 1141   0.054   3.003  14.254  0.5724  0.0554  0.5293
   73TMC2    C8 1142   4.355   3.152  14.364 -0.1558 -0.3575  0.4847
   73TMC2    O1 1143   0.109   2.975  14.358 -0.1521  0.1569  0.5794
   73TMC2    O2 1144   4.242   3.185  14.320 -0.0028  0.0209 -0.2226
   73TMC2    O5 1145   4.402   3.191  14.485  0.0200  0.1117  0.5383
   73TMC2    H5 1146   4.500   3.196  14.491 -0.1514  0.7527  2.8274
   74MPD2     C 1147   4.524   3.519  13.603  0.6126 -0.1611 -0.3524
   74MPD2    C1 1148   4.637   3.452  13.651  0.0135 -0.0600 -0.3803
   74MPD2    C2 1149   4.628   3.342  13.739  0.1105  0.4832 -0.1961
   74MPD2    C3 1150   4.499   3.297  13.772 -0.4117 -0.0417  0.5086
   74MPD2    C4 1151   4.385   3.362  13.722  0.1092  0.1902  0.7936
   74MPD2    C5 1152   4.399   3.476  13.642 -0.6200 -0.5164  0.0648
   74MPD2     H 1153   4.715   3.299  13.786  0.1437  2.1307  1.2295
   74MPD2    H1 1154   4.286   3.339  13.760 -0.2068 -2.2897 -1.5521
   74MPD2    H2 1155   4.528   3.610  13.546  1.0914  0.3110  0.4390
   74MPD2    H3 1156   4.307   3.529  13.621 -0.1342 -0.0412 -0.8695
   74MPD2     N 1157   4.476   3.206  13.876  0.5149 -0.3125  0.5751
   74MPD2    H5 1158   4.377   3.193  13.896  0.3504 -0.0001 -0.0316
   74MPD2    N1 1159   0.027   3.513  13.618 -0.5513  0.1205 -0.3768
   74MPD2    H7 1160   0.035   3.586  13.549  0.7993  0.1083 -0.2449
   75TMC2    C1 1161   0.399   3.964  13.666  0.6831 -1.4571  0.0520
   75TMC2    C2 1162   0.376   4.095  13.697  0.0758  0.6722 -0.4173
   75TMC2    C3 1163   0.254   4.149  13.649 -0.7387 -0.4135  0.1800
   75TMC2    C4 1164   0.317   3.894  13.580 -0.4399  0.0123  0.1149
   75TMC2    C5 1165   0.202   3.959  13.536  0.1499  0.0345  0.3050
   75TMC2    C6 1166   0.171   4.088  13.562  0.0027 -0.5184 -0.7559
   75TMC2     C 1167   0.529   3.911  13.676 -0.5952 -0.5463 -0.1090
   75TMC2     O 1168   0.566   3.824  13.604  0.5503  0.0546  0.4483
   75TMC2     H 1169   0.434   4.155  13.766  0.4735 -1.4406  1.1046
   75TMC2    H1 1170   0.342   3.790  13.563  2.1551  0.3119  2.0258
   75TMC2    H2 1171   0.090   4.152  13.528  1.3508  0.0488 -2.9205
   75TMC2    C7 1172   0.103   3.878  13.464  0.2414 -0.7404 -0.2757
   75TMC2    C8 1173   0.211   4.283  13.680  0.4197 -0.3522 -0.2160
   75TMC2    O1 1174   0.093   3.761  13.498 -0.1870  0.2124  0.4187
   75TMC2    O2 1175   0.146   4.349  13.596  0.0044 -0.0243  0.2000
   75TMC2    O5 1176   0.287   4.332  13.780 -0.5434  0.3382 -0.1954
   75TMC2    H5 1177   0.301   4.262  13.847 -0.2902  1.1811  0.6269
   76TMC2    C1 1178   3.574   0.265  12.223 -0.9492 -0.3209 -0.0752
   76TMC2    C2 1179   3.437   0.247  12.207  0.4598  0.0577  0.0985
   76TMC2    C3 1180   3.390   0.121  12.194  0.2079  0.0886  0.3720
   76TMC2    C4 1181   3.663   0.153  12.218  0.3563  0.4335  0.2412
   76TMC2    C5 1182   3.607   0.035  12.192 -0.1157  0.7303 -0.3104
   76TMC2    C6 1183   3.470   0.016  12.184 -0.6792 -0.6203 -0.1315
   76TMC2     C 1184   3.614   0.397  12.199  0.2983  0.5217 -0.1431
   76TMC2     O 1185   3.523   0.478  12.194  0.2630 -0.9302 -0.2947
   76TMC2     H 1186   3.370   0.332  12.215 -0.7169 -0.7183 -1.4944
   76TMC2    H1 1187   3.770   0.165  12.222  0.5436  0.2869 -4.2169
   76TMC2    H2 1188   3.438   4.646  12.170  0.0189 -0.6131 -1.9014
   76TMC2    C7 1189   3.683   4.650  12.221 -0.1587 -1.3724 -0.0101
   76TMC2    C8 1190   3.252   0.121  12.151  0.7511  0.6363  0.0955
   76TMC2    O1 1191   3.626   4.547  12.196  0.0219 -0.1631 -0.7705
   76TMC2    O2 1192   3.177   0.213  12.176  0.1826 -0.2914  0.2155
   76TMC2    O5 1193   3.262   0.067  12.026 -0.0147  0.5379  0.5184
   76TMC2    H5 1194   3.344   0.019  12.004  1.6729  2.4499  2.5857
   77MPD2     C 1195   3.941   0.720  11.966 -0.4911 -0.5356  0.3242
   77MPD2    C1 1196   3.826   0.737  12.039  0.6198 -0.4760  0.1133
   77MPD2    C2 1197   3.759   0.635  12.095  0.0682 -0.0562  0.0994
   77MPD2    C3 1198   3.806   0.506  12.105 -0.1461 -0.3706 -0.0899
   77MPD2    C4 1199   3.927   0.485  12.039 -1.1924 -0.1567 -0.4461
   77MPD2    C5 1200   3.992   0.590  11.975 -0.2920 -0.0309 -0.0113
   77MPD2     H 1201   3.672   0.661  12.155 -0.4825 -0.7752 -0.3918
   77MPD2    H1 1202   3.975   0.388  12.049 -0.9943 -0.0074  0.0658
   77MPD2    H2 1203   3.998   0.797  11.915 -2.0633 -0.5120 -1.3782
   77MPD2    H3 1204   4.092   0.568  11.940 -1.2607 -1.5336 -1.8916
   77MPD2     N 1205   3.741   0.399  12.160 -0.0092  1.0599  0.2177
   77MPD2    H5 1206   3.775   0.305  12.146  0.8322  1.0337  2.5354
   77MPD2    N1 1207   3.744   0.851  12.018  0.8735  0.2935  0.6666
   77MPD2    H7 1208   3.647   0.846  12.046  0.6905  0.8033  0.1288
   78TMC2    C1 1209   3.320   1.857   0.531 -0.3771 -0.3671 -0.5190
   78TMC2    C2 1210   3.223   1.934   0.473 -0.7513 -0.1313 -0.8030
   78TMC2    C3 1211   3.117   1.982   0.552 -0.0999  0.2374 -0.2660
   78TMC2    C4 1212   3.330   1.835   0.666  0.1766  0.3113 -0.3160
   78TMC2    C5 1213   3.230   1.889   0.744 -0.6952  0.2414 -0.4967
   78TMC2    C6 1214   3.121   1.958   0.692  0.4685 -0.0668 -0.1309
   78TMC2     C 1215   3.433   1.806   0.453 -0.4780  1.1231  0.1069
   78TMC2     O 1216   3.498   1.715   0.495  0.2196 -0.2719 -0.1949
   78TMC2     H 1217   3.213   1.929   0.365  0.7301 -1.2406 -0.8827
   78TMC2    H1 1218   3.400   1.765   0.710 -1.0369 -0.9670 -0.4358
   78TMC2    H2 1219   3.030   1.984   0.745  0.6826  3.0599 -1.2706
   78TMC2    C7 1220   3.212   1.873   0.884 -0.0165  0.7664 -0.0754
   78TMC2    C8 1221   2.992   2.027   0.498  0.5974  0.1335  0.0007
   78TMC2    O1 1222   3.103   1.890   0.933  0.4197  0.2719 -0.4732
   78TMC2    O2 1223   2.942   1.974   0.396  0.1693  0.3095  0.7519
   78TMC2    O5 1224   2.935   2.130   0.576  0.0186 -0.7941 -0.1897
   78TMC2    H5 1225   2.990   2.157   0.653 -0.5198  0.1199 -0.1223
   79MPD1     C 1226   3.822   1.905   0.126 -0.5577  0.5440 -0.3064
   79MPD1    C1 1227   3.786   1.790   0.194  0.5424  0.3647  0.5984
   79MPD1    C2 1228   3.661   1.772   0.258  0.7087  0.2705 -0.1145
   79MPD1    C3 1229   3.576   1.885   0.270  0.7255 -0.3192 -0.1974
   79MPD1    C4 1230   3.610   2.000   0.198 -0.2794 -0.4502 -0.1345
   79MPD1    C5 1231   3.733   2.011   0.129  0.0958 -0.5878 -0.7435
   79MPD1     H 1232   3.630   1.676   0.298  3.1225 -0.5763 -0.2542
   79MPD1    H1 1233   3.545   2.085   0.183 -3.4887 -3.0949 -1.1889
   79MPD1    H2 1234   3.913   1.926   0.071 -0.0017 -0.0606  0.3757
   79MPD1    H3 1235   3.750   2.105   0.078 -3.2080  1.6445  2.2603
   79MPD1     N 1236   3.470   1.902   0.359 -0.1552 -0.4340 -0.4993
   79MPD1    H5 1237   3.412   1.984   0.344 -1.7061 -1.6547 -1.1586
   79MPD1    N1 1238   3.859   1.677   0.165  0.4924  0.5941 -0.3341
   79MPD1    H6 1239   3.862   1.605   0.237 -1.5837  2.0789  1.2408
   79MPD1    H7 1240   3.953   1.700   0.133  0.7297  0.1423  0.0319
   80TMC2    C1 1241   2.284   0.060  11.913  0.5069 -0.5000  0.3986
   80TMC2    C2 1242   2.240   0.063  11.787 -0.1437  0.0456  0.2992
   80TMC2    C3 1243   2.186   4.683  11.735  0.2521 -0.3451 -0.3450
   80TMC2    C4 1244   2.281   4.682  11.994  0.2682  0.4285 -0.1873
   80TMC2    C5 1245   2.230   4.565  11.930 -0.0824  0.3481 -0.2587
   80TMC2    C6 1246   2.176   4.565  11.802 -0.2063 -0.2673 -0.0663
   80TMC2     C 1247   2.321   0.179  11.983  0.9259 -0.0127  0.0274
   80TMC2     O 1248   2.313   0.184  12.106 -0.0251  0.0842 -0.3892
   80TMC2     H 1249   2.238   0.153  11.726 -0.6007  0.0269  0.2879
   80TMC2    H1 1250   2.326   4.686  12.092  1.7243 -2.2938 -0.7444
   80TMC2    H2 1251   2.161   4.470  11.752  0.9526 -0.7906  0.5637
   80TMC2    C7 1252   2.203   4.450  12.011  0.4148  0.4196  0.2996
   80TMC2    C8 1253   2.176   4.695  11.589  0.1104 -0.6171  0.8120
   80TMC2    O1 1254   2.155   4.348  11.963  0.3944 -0.1879  0.6447
   80TMC2    O2 1255   2.225   4.618  11.505  0.5272  0.5557  0.2633
   80TMC2    O5 1256   2.075   0.043  11.562 -0.8693 -0.4044  0.2916
   80TMC2    H5 1257   2.042   0.096  11.638 -2.3951 -0.1647 -0.5523
   81MPD2     C 1258   2.413   0.501  11.841 -0.7545  0.5062 -0.3694
   81MPD2    C1 1259   2.386   0.411  11.936  0.1709  0.2265  0.3631
   81MPD2    C2 1260   2.384   0.458  12.068 -0.8102  0.6474 -0.6491
   81MPD2    C3 1261   2.399   0.591  12.100 -0.8336  1.1167  0.0335
   81MPD2    C4 1262   2.415   0.679  11.992  0.3745  0.3631  0.5637
   81MPD2    C5 1263   2.419   0.628  11.870 -0.5376  0.0304 -0.2576
   81MPD2     H 1264   2.367   0.392  12.152  3.3285  1.0739  0.5768
   81MPD2    H1 1265   2.420   0.786  12.007  2.0382  0.4859 -0.8507
   81MPD2    H2 1266   2.417   0.464  11.739 -0.2462 -0.4368 -0.0087
   81MPD2    H3 1267   2.424   0.697  11.786 -1.1337  0.0251 -0.2944
   81MPD2     N 1268   2.398   0.641  12.233  0.4574  0.4699  0.4145
   81MPD2    H5 1269   2.367   0.736  12.253  2.9544  0.5668  3.9679
   81MPD2    N1 1270   2.365   0.272  11.895  0.4310  0.6261  0.3636
   81MPD2    H7 1271   2.375   0.243  11.798  2.4204 -2.6247  1.5246
   82TMC2    C1 1272   1.003   4.354  11.298 -0.0827 -0.1290 -0.0445
   82TMC2    C2 1273   1.113   4.435  11.304 -0.6139  0.3488  0.1605
   82TMC2    C3 1274   1.241   4.384  11.302  0.2633  0.0242  1.4526
   82TMC2    C4 1275   1.018   4.218  11.290 -0.6667 -0.2358 -1.1755
   82TMC2    C5 1276   1.144   4.171  11.298 -0.4139  1.0405  0.3480
   82TMC2    C6 1277   1.255   4.248  11.311  0.2642 -0.0390  0.2623
   82TMC2     C 1278   0.871   4.413  11.289  0.5173 -0.2645  0.0164
   82TMC2     O 1279   0.848   4.514  11.222  0.2369 -0.4256 -0.2796
   82TMC2     H 1280   1.110   4.543  11.314 -2.1141  0.3796 -0.6468
   82TMC2    H1 1281   0.938   4.144  11.290 -3.0806  2.3553 -0.6986
   82TMC2    H2 1282   1.352   4.202  11.297 -0.4606 -2.5040  3.5540
   82TMC2    C7 1283   1.155   4.027  11.319 -0.6580 -0.3393 -0.0351
   82TMC2    C8 1284   1.362   4.468  11.322 -0.0368  0.0344  0.2091
   82TMC2    O1 1285   1.090   3.947  11.255 -0.0841  0.6313  0.0630
   82TMC2    O2 1286   1.469   4.436  11.368 -0.0187  0.2731 -0.1472
   82TMC2    O5 1287   1.338   4.577  11.252  0.1319 -0.3461  0.2094
   82TMC2    H5 1288   1.248   4.582  11.213  1.0588 -0.6087 -1.9254
   83MPD2     C 1289   0.364   4.345  11.353 -0.1992 -0.2220 -0.6554
   83MPD2    C1 1290   0.428   4.400  11.245  0.1414  0.6791  0.2776
   83MPD2    C2 1291   0.564   4.405  11.248 -0.1201 -0.4106 -0.0130
   83MPD2    C3 1292   0.638   4.347  11.353  0.1855 -0.2767 -0.1021
   83MPD2    C4 1293   0.569   4.283  11.459  0.6339 -0.6631 -0.1490
   83MPD2    C5 1294   0.430   4.282  11.457 -0.5598  0.4122  0.1371
   83MPD2     H 1295   0.614   4.444  11.160  2.4771  0.0047  1.6485
   83MPD2    H1 1296   0.626   4.234  11.537  0.6815  0.1883  0.3440
   83MPD2    H2 1297   0.257   4.363  11.357 -0.0468  0.5316  0.0818
   83MPD2    H3 1298   0.374   4.234  11.536 -1.2572 -1.0439 -1.2544
   83MPD2     N 1299   0.777   4.335  11.352 -0.2215  0.1008 -0.5091
   83MPD2    H5 1300   0.815   4.270  11.421  0.6158  1.0213 -0.0984
   83MPD2    N1 1301   0.359   4.451  11.134 -0.4160  0.3053  0.1607
   83MPD2    H7 1302   0.415   4.509  11.073  1.9110  0.7386  2.7297
   84TMC2    C1 1303   2.660   3.611  11.101 -0.3005 -0.0377  0.4036
   84TMC2    C2 1304   2.769   3.532  11.088  0.0351  0.1324 -0.3739
   84TMC2    C3 1305   2.822   3.507  10.969 -0.6126  0.3315 -0.7055
   84TMC2    C4 1306   2.602   3.658  10.982  0.1606  0.0864  0.3329
   84TMC2    C5 1307   2.660   3.627  10.863 -0.5201  0.4438 -0.2649
   84TMC2    C6 1308   2.773   3.553  10.852 -0.3387 -0.6701 -0.8492
   84TMC2     C 1309   2.584   3.621  11.224 -0.1615 -0.7044 -0.0468
   84TMC2     O 1310   2.603   3.538  11.312 -0.0186  0.3104  0.1257
   84TMC2     H 1311   2.826   3.508  11.177 -0.5921  3.6920  1.0037
   84TMC2    H1 1312   2.503   3.702  10.974  0.7929  1.2009 -1.5232
   84TMC2    H2 1313   2.796   3.495  10.763 -3.8559 -1.3125 -1.3158
   84TMC2    C7 1314   2.588   3.658  10.750 -0.2313  0.5093  0.3113
   84TMC2    C8 1315   2.954   3.435  10.976 -0.0474 -0.1600 -0.0093
   84TMC2    O1 1316   2.472   3.692  10.758  0.0458 -0.8790 -0.0077
   84TMC2    O2 1317   2.987   3.389  11.083 -0.0915 -0.5975 -0.2115
   84TMC2    O5 1318   3.030   3.475  10.879 -0.2391  0.2855  0.3745
   84TMC2    H5 1319   2.993   3.536  10.812 -0.9203  2.0320  2.3328
   85TMC2    C1 1320   3.411   1.742  15.949  0.0049 -0.3411  0.1678
   85TMC2    C2 1321   3.314   1.812  15.884 -0.0703  0.1369  0.2433
   85TMC2    C3 1322   3.329   1.849  15.759  0.6154  0.0632  0.0352
   85TMC2    C4 1323   3.532   1.727  15.891  0.0754  0.4299 -0.4208
   85TMC2    C5 1324   3.549   1.758  15.756  0.2161 -0.3253  0.2216
   85TMC2    C6 1325   3.446   1.822  15.687 -0.1027  0.3941  0.2158
   85TMC2     C 1326   3.404   1.710  16.090 -0.1546 -0.0169 -0.0313
   85TMC2     O 1327   3.503   1.717  16.162 -0.0521  0.2223 -0.0798
   85TMC2     H 1328   3.227   1.825  15.947 -1.3947 -2.6326 -1.0178
   85TMC2    H1 1329   3.612   1.685  15.950 -1.3757  1.3594  2.2021
   85TMC2    H2 1330   3.453   1.855  15.584  0.3252  0.7515  0.3585
   85TMC2    C7 1331   3.621   1.660  15.675  0.1268 -0.4388  0.4023
   85TMC2    C8 1332   3.258   1.971  15.720  0.3232  0.3934 -0.3126
   85TMC2    O1 1333   3.682   1.585  15.749  0.4660 -0.3245  0.3690
   85TMC2    O2 1334   3.136   1.983  15.730 -0.0746 -0.2511 -0.4462
   85TMC2    O5 1335   3.340   2.076  15.726  0.2885  1.1928 -0.2735
   85TMC2    H5 1336   3.436   2.062  15.737 -0.0249 -0.0681  0.7846
   86MPD2     C 1337   3.211   1.360  16.417  0.5970 -0.1991 -0.1314
   86MPD2    C1 1338   3.150   1.358  16.296 -0.4366  0.0185 -0.3203
   86MPD2    C2 1339   3.173   1.450  16.197 -0.0092  0.1447 -0.0781
   86MPD2    C3 1340   3.266   1.545  16.219 -0.2293  0.9763  0.5597
   86MPD2    C4 1341   3.327   1.555  16.342  0.6928 -0.4638  0.0733
   86MPD2    C5 1342   3.297   1.466  16.440 -0.8818 -0.1637 -0.4732
   86MPD2     H 1343   3.113   1.441  16.107  0.4113 -0.3945 -0.3041
   86MPD2    H1 1344   3.411   1.621  16.360  0.7538 -0.8567  1.2022
   86MPD2    H2 1345   3.191   1.287  16.495 -1.0679 -0.3993 -0.7462
   86MPD2    H3 1346   3.336   1.485  16.540 -3.2955 -1.4817  0.7204
   86MPD2     N 1347   3.294   1.623  16.104 -0.0510  0.3742 -1.0953
   86MPD2    H5 1348   3.222   1.612  16.033 -1.1578 -0.0778  0.0886
   86MPD2    N1 1349   3.047   1.264  16.265  0.4841  0.2528  0.3114
   86MPD2    H7 1350   3.001   1.265  16.175 -0.6752 -1.2830  0.8765
   87TMC2    C1 1351   0.804   0.589   1.108 -0.5323 -0.1157  0.6455
   87TMC2    C2 1352   0.927   0.642   1.147  0.3237  0.1154  0.4968
   87TMC2    C3 1353   0.918   0.739   1.244 -0.1424  0.2902  0.6770
   87TMC2    C4 1354   0.685   0.639   1.141  0.4241  0.0128 -0.7838
   87TMC2    C5 1355   0.683   0.740   1.231  0.5841 -0.0297 -0.9981
   87TMC2    C6 1356   0.799   0.795   1.288 -0.3345 -0.4139 -0.9349
   87TMC2     C 1357   0.826   0.479   1.018  0.3523  0.7491 -0.0133
   87TMC2     O 1358   0.939   0.445   0.985  0.2697 -0.3254 -0.1345
   87TMC2     H 1359   1.020   0.594   1.120 -0.5852 -2.4469  1.9560
   87TMC2    H1 1360   0.597   0.606   1.087 -0.1502  0.1170  0.0816
   87TMC2    H2 1361   0.807   0.897   1.326  0.1559 -0.4052 -1.0622
   87TMC2    C7 1362   0.563   0.779   1.298  0.4445  1.2635 -0.8245
   87TMC2    C8 1363   1.045   0.791   1.290 -0.0067  0.5013  0.3970
   87TMC2    O1 1364   0.453   0.756   1.248  0.1916  0.4220 -0.5593
   87TMC2    O2 1365   1.149   0.772   1.226  0.8019  0.4638 -0.1200
   87TMC2    O5 1366   1.032   0.760   1.420 -0.1465 -0.0237 -0.3529
   87TMC2    H5 1367   0.941   0.760   1.458  0.3268  5.0701  0.8237
   88MPD2     C 1368   0.523   0.892   1.632 -0.4609  0.2305 -0.6631
   88MPD2    C1 1369   0.479   0.862   1.510 -0.0129 -0.0456 -0.2418
   88MPD2    C2 1370   0.368   0.928   1.456  0.5356 -0.1553 -0.0959
   88MPD2    C3 1371   0.298   1.016   1.534 -0.0377  0.0602  0.2067
   88MPD2    C4 1372   0.339   1.034   1.666 -0.1641  0.0858  0.0507
   88MPD2    C5 1373   0.449   0.971   1.716  0.2564  0.0578  0.7148
   88MPD2     H 1374   0.351   0.931   1.349 -0.0955 -0.1962  0.0066
   88MPD2    H1 1375   0.285   1.106   1.727 -1.4567  0.4814 -1.5700
   88MPD2    H2 1376   0.617   0.847   1.661 -1.4435 -0.1232  1.9375
   88MPD2    H3 1377   0.490   0.978   1.816  0.9415  0.3179  0.4169
   88MPD2     N 1378   0.188   1.093   1.491 -0.6314 -0.2971 -0.1416
   88MPD2    H5 1379   0.174   1.184   1.535  2.1663 -0.6259  1.4087
   88MPD2    N1 1380   0.582   0.806   1.433 -0.6511 -1.1385  0.0703
   88MPD2    H7 1381   0.674   0.795   1.475  0.4056 -0.5314 -2.0598
   89TMC2    C1 1382   1.099   3.781   2.074 -0.3107  0.0892  0.5688
   89TMC2    C2 1383   1.176   3.710   2.158  0.3529 -0.4913  0.4160
   89TMC2    C3 1384   1.309   3.732   2.154  0.4566 -0.3241 -0.2103
   89TMC2    C4 1385   1.141   3.869   1.974 -0.3388 -0.0877 -0.2939
   89TMC2    C5 1386   1.276   3.875   1.957 -0.4405  0.2965  0.3618
   89TMC2    C6 1387   1.363   3.817   2.051 -0.5554  0.2029  0.4576
   89TMC2     C 1388   0.965   3.729   2.051  0.0309 -0.0054  0.0650
   89TMC2     O 1389   0.889   3.807   1.991  0.3260  0.0183 -0.1940
   89TMC2     H 1390   1.141   3.656   2.245  1.8268 -0.2069  1.1932
   89TMC2    H1 1391   1.083   3.902   1.888 -2.2956 -0.5094  0.8780
   89TMC2    H2 1392   1.467   3.844   2.035 -0.2884 -2.5532 -2.3656
   89TMC2    C7 1393   1.316   3.986   1.875 -0.1843  0.2654  0.1035
   89TMC2    C8 1394   1.401   3.631   2.211 -0.1370  0.2447  0.6215
   89TMC2    O1 1395   1.248   4.085   1.866 -0.1528  0.3064 -0.2405
   89TMC2    O2 1396   1.356   3.524   2.243  0.5383 -0.2194  0.0339
   89TMC2    O5 1397   1.532   3.658   2.196  0.0082  0.1654  0.0647
   89TMC2    H5 1398   1.546   3.754   2.204  0.8671 -0.0598  1.2114
   90MPD2     C 1399   0.584   3.403   2.135 -0.3257  0.0489  0.4288
   90MPD2    C1 1400   0.705   3.337   2.146  0.5532  0.5433  0.1496
   90MPD2    C2 1401   0.820   3.410   2.152 -0.7706 -0.2115 -0.7420
   90MPD2    C3 1402   0.815   3.545   2.126 -0.3210  0.3004 -0.3772
   90MPD2    C4 1403   0.697   3.611   2.101  0.4463  0.2027  0.4468
   90MPD2    C5 1404   0.580   3.540   2.109 -0.0436 -0.1122 -0.1386
   90MPD2     H 1405   0.914   3.363   2.178  0.4999  2.2838 -0.9209
   90MPD2    H1 1406   0.689   3.717   2.080 -0.5263  0.0207 -0.1470
   90MPD2    H2 1407   0.497   3.338   2.140 -1.5858  1.6939 -0.4208
   90MPD2    H3 1408   0.483   3.583   2.089 -0.4050 -0.8542  0.0455
   90MPD2     N 1409   0.940   3.604   2.104 -0.0213 -0.3142  0.2888
   90MPD2    H5 1410   1.028   3.558   2.126  1.7409  2.6695 -0.4508
   90MPD2    N1 1411   0.713   3.194   2.171 -0.5455  0.0058 -0.0761
   90MPD2    H7 1412   0.803   3.148   2.178 -0.3668  0.0435 -2.0685
   91TMC2    C1 1413   2.958   2.268  16.447  0.3234 -0.1197 -0.3626
   91TMC2    C2 1414   3.006   2.188  16.552  0.1690 -0.1462  0.4723
   91TMC2    C3 1415   2.917   2.119  16.626  0.2638  0.3891 -0.4459
   91TMC2    C4 1416   2.829   2.269  16.407  0.2192  0.1383 -0.0422
   91TMC2    C5 1417   2.740   2.181  16.477  0.1635  0.4304  0.1802
   91TMC2    C6 1418   2.782   2.116  16.590  0.1848 -0.3841  0.7273
   91TMC2     C 1419   3.046   2.353  16.374  0.3059  0.4015  0.0410
   91TMC2     O 1420   2.998   2.430  16.297  0.2230 -0.0999 -0.4976
   91TMC2     H 1421   3.094   2.211  16.610  0.6921 -1.6989  0.2820
   91TMC2    H1 1422   2.790   2.335  16.331 -0.3823  1.0695  1.0676
   91TMC2    H2 1423   2.718   2.043  16.637 -0.3501 -0.6068 -0.3454
   91TMC2    C7 1424   2.597   2.204  16.466  0.5796  0.6310  0.0800
   91TMC2    C8 1425   2.956   2.055  16.747 -0.4541  0.3454  1.1039
   91TMC2    O1 1426   2.525   2.185  16.562 -0.2121 -0.2185 -0.4507
   91TMC2    O2 1427   3.075   2.035  16.765 -0.2099 -0.1764  0.5008
   91TMC2    O5 1428   2.858   2.093  16.845 -0.4184  0.3505  0.2761
   91TMC2    H5 1429   2.781   2.143  16.811 -0.4052 -0.4368 -0.9357
   92MPD2     C 1430   3.284   2.502  16.275 -0.1187  0.0563 -0.2788
   92MPD2    C1 1431   3.295   2.404  16.367  0.6627  0.5008  0.0203
   92MPD2    C2 1432   3.411   2.386  16.441 -0.6422 -0.5005  0.0138
   92MPD2    C3 1433   3.503   2.482  16.439  0.2549 -0.3927  0.4331
   92MPD2    C4 1434   3.488   2.589  16.358  0.5695  0.1234  0.1538
   92MPD2    C5 1435   3.377   2.598  16.274 -0.0788 -0.4622 -0.4527
   92MPD2     H 1436   3.419   2.306  16.513 -1.0867  0.9733  1.7036
   92MPD2    H1 1437   3.563   2.667  16.362  0.8915 -0.1560 -0.3688
   92MPD2    H2 1438   3.195   2.519  16.217 -0.7146  0.3761  0.7266
   92MPD2    H3 1439   3.367   2.686  16.212  0.9976 -0.6827 -0.9279
   92MPD2     N 1440   3.609   2.459  16.523 -0.0858 -0.2574  0.7487
   92MPD2    H5 1441   3.609   2.365  16.562 -0.1887 -0.7596 -0.4562
   92MPD2    N1 1442   3.183   2.324  16.404 -0.1773  0.2142  0.1917
   92MPD2    H7 1443   3.200   2.250  16.472  0.1971  0.0917 -0.0350
   93TMC2    C1 1444   0.210   2.816  13.911 -0.4610  0.6164 -0.9789
   93TMC2    C2 1445   0.154   2.892  13.810 -0.6306  0.2223  0.1777
   93TMC2    C3 1446   0.234   2.966  13.741 -0.4297  0.1924 -0.3121
   93TMC2    C4 1447   0.343   2.802  13.931 -0.5667 -0.2048  0.0029
   93TMC2    C5 1448   0.421   2.883  13.853 -0.1866  0.3924  0.1989
   93TMC2    C6 1449   0.372   2.969  13.758 -0.2639  0.2768  0.9938
   93TMC2     C 1450   0.120   2.720  13.976  0.5894 -0.4484  0.3998
   93TMC2     O 1451   0.166   2.662  14.074 -0.1490  0.2514  0.4872
   93TMC2     H 1452   0.046   2.895  13.805 -0.6035 -1.6725 -1.8441
   93TMC2    H1 1453   0.384   2.734  14.005 -2.3710 -1.0580  0.2062
   93TMC2    H2 1454   0.439   3.038  13.709 -1.0303  0.2084 -0.1342
   93TMC2    C7 1455   0.559   2.847  13.851 -0.2781  0.4275  0.4400
   93TMC2    C8 1456   0.184   3.074  13.654 -0.9289  0.0261 -0.0759
   93TMC2    O1 1457   0.589   2.771  13.941  0.5121 -0.3997 -0.1673
   93TMC2    O2 1458   0.245   3.178  13.639  0.7603  0.3783 -0.2861
   93TMC2    O5 1459   0.065   3.038  13.603 -0.1892 -0.2522  0.1331
   93TMC2    H5 1460   0.032   2.953  13.641  1.0340 -0.8545 -0.1575
   94MPD2     C 1461   4.602   2.613  14.096  0.6285  0.9550  0.0119
   94MPD2    C1 1462   4.633   2.612  13.958  0.3098 -0.9398  0.5752
   94MPD2    C2 1463   4.555   2.541  13.866 -0.5905 -0.3361 -0.2441
   94MPD2    C3 1464   4.454   2.466  13.914  0.2540  0.0206 -0.7279
   94MPD2    C4 1465   4.425   2.465  14.053 -0.6118  0.5681  0.5793
   94MPD2    C5 1466   4.507   2.532  14.141 -0.1314 -0.1001  0.4114
   94MPD2     H 1467   4.581   2.539  13.761 -0.5582  0.2824 -0.2508
   94MPD2    H1 1468   4.344   2.404  14.092  1.2517 -0.8257  2.2750
   94MPD2    H2 1469   4.657   2.678  14.162  0.9810  0.3476  0.3179
   94MPD2    H3 1470   4.484   2.527  14.247 -1.5996 -0.8744  0.0623
   94MPD2     N 1471   4.370   2.383  13.829  0.2726  0.1595  0.6701
   94MPD2    H5 1472   4.291   2.333  13.869  0.2883 -1.2220 -1.0394
   94MPD2    N1 1473   0.009   2.684  13.903  0.4112  0.2433  0.5076
   94MPD2    H7 1474   0.020   2.705  13.805  0.6061 -2.2291  0.0149
   95TMC2    C1 1475   0.267   4.348  16.220 -0.5907 -0.7617  0.7934
   95TMC2    C2 1476   0.188   4.249  16.253  0.2325 -0.1614 -0.0365
   95TMC2    C3 1477   0.168   4.217  16.385  0.5185  0.5213  0.1738
   95TMC2    C4 1478   0.322   4.427  16.315  0.0633 -0.4827 -0.5288
   95TMC2    C5 1479   0.299   4.403  16.448 -0.2843 -0.3230  0.5218
   95TMC2    C6 1480   0.225   4.296  16.486  0.1492  0.5083  0.3355
   95TMC2     C 1481   0.290   4.379  16.085  0.7827  0.4976 -0.6735
   95TMC2     O 1482   0.333   4.489  16.058  0.3111  0.9076 -0.2766
   95TMC2     H 1483   0.133   4.192  16.180  0.4921 -0.4805  0.0174
   95TMC2    H1 1484   0.370   4.520  16.288 -1.5827  0.1582 -1.2816
   95TMC2    H2 1485   0.227   4.260  16.588 -0.5825  0.7997  0.4540
   95TMC2    C7 1486   0.330   4.506  16.553  0.6624  0.2791  0.2294
   95TMC2    C8 1487   0.106   4.092  16.408  0.5257 -0.0495  0.1195
   95TMC2    O1 1488   0.397   4.595  16.503 -0.2700  0.4649  0.3231
   95TMC2    O2 1489   0.079   4.006  16.327  0.4011 -0.3512  0.1725
   95TMC2    O5 1490   0.083   4.073  16.539  0.3802 -0.2845  0.8954
   95TMC2    H5 1491   0.102   4.152  16.593  0.9530  0.8901 -1.0240
   96MPD2     C 1492   0.380   4.219  15.597 -0.0941  0.4044  0.1103
   96MPD2    C1 1493   0.403   4.336  15.653  0.0159  1.0136 -0.0472
   96MPD2    C2 1494   0.371   4.365  15.786 -0.2141 -0.0512 -0.0964
   96MPD2    C3 1495   0.319   4.266  15.865  0.1683 -0.3958 -0.4916
   96MPD2    C4 1496   0.295   4.144  15.807  0.9019 -0.5139 -0.0253
   96MPD2    C5 1497   0.322   4.121  15.677 -0.3389  0.0614 -0.3052
   96MPD2     H 1498   0.387   4.459  15.838 -1.9793  0.2088 -0.0282
   96MPD2    H1 1499   0.241   4.071  15.867  1.0156 -0.3867  0.2333
   96MPD2    H2 1500   0.395   4.191  15.493 -1.9758  1.1057 -0.3641
   96MPD2    H3 1501   0.309   4.020  15.641  0.6939  0.0181 -0.5528
   96MPD2     N 1502   0.279   4.271  16.003 -0.3434 -0.8240 -0.8241
   96MPD2    H5 1503   0.235   4.189  16.044  0.0062 -0.9460 -0.6964
   96MPD2    N1 1504   0.478   4.427  15.571  0.1178 -0.0271  0.1173
   96MPD2    H7 1505   0.490   4.414  15.471  0.7818 -1.0914  0.3379
   97TMC2    C1 1506   2.175   2.634   0.695 -0.6727  0.6074 -0.3277
   97TMC2    C2 1507   2.096   2.536   0.634  0.4622  0.3058 -0.0476
   97TMC2    C3 1508   2.141   2.485   0.510  0.4114  0.7561 -0.3280
   97TMC2    C4 1509   2.282   2.686   0.634  0.4518  0.1989  0.0203
   97TMC2    C5 1510   2.325   2.630   0.513  0.1007 -0.3480 -0.3092
   97TMC2    C6 1511   2.249   2.538   0.450  0.4830  0.6088 -0.2324
   97TMC2     C 1512   2.124   2.699   0.817  0.1107 -0.4220  0.5710
   97TMC2     O 1513   2.210   2.765   0.874  0.6275  0.2774 -0.5762
   97TMC2     H 1514   2.025   2.467   0.677  0.5993 -0.7339 -1.4875
   97TMC2    H1 1515   2.334   2.771   0.677 -0.7496  0.4994  0.8895
   97TMC2    H2 1516   2.285   2.502   0.354 -0.0781 -1.9785  0.5370
   97TMC2    C7 1517   2.434   2.707   0.459 -0.4582 -0.1678 -0.6627
   97TMC2    C8 1518   2.073   2.380   0.438  0.0043 -0.0725 -0.0194
   97TMC2    O1 1519   2.458   2.819   0.507  0.0143  0.3960  0.1804
   97TMC2    O2 1520   2.122   2.311   0.348  0.0013 -0.6556  0.0192
   97TMC2    O5 1521   1.944   2.405   0.438  0.0184  0.2696  0.8330
   97TMC2    H5 1522   1.912   2.449   0.519  2.5012  2.6032  0.5441
   98MPD2     C 1523   1.732   2.892   1.088 -0.0726  0.6701  0.3465
   98MPD2    C1 1524   1.864   2.920   1.088 -0.1398  0.6859  0.6584
   98MPD2    C2 1525   1.949   2.855   1.002 -0.5720 -0.2242 -0.0415
   98MPD2    C3 1526   1.902   2.746   0.932  0.0839  0.0113 -0.2947
   98MPD2    C4 1527   1.770   2.711   0.932 -0.2083 -0.3123  0.4422
   98MPD2    C5 1528   1.688   2.785   1.010 -0.3341 -0.2580 -0.8811
   98MPD2     H 1529   2.053   2.883   0.990 -1.0826  1.8432  0.2562
   98MPD2    H1 1530   1.729   2.635   0.866  0.6429 -1.0644  0.7839
   98MPD2    H2 1531   1.663   2.953   1.145  0.9325  1.3506  0.8297
   98MPD2    H3 1532   1.582   2.760   1.015 -0.1448 -1.5304 -2.8806
   98MPD2     N 1533   1.986   2.677   0.838  0.4092  0.0814 -0.2530
   98MPD2    H5 1534   1.943   2.608   0.776  0.2233  0.1017 -0.1465
   98MPD2    N1 1535   1.901   3.022   1.184  0.3415  0.1243 -0.0122
   98MPD2    H7 1536   1.830   3.067   1.241  0.2688  1.6293 -1.2884
   99TMC2    C1 1537   1.203   4.543   1.922 -0.9684  0.2213  0.1025
   99TMC2    C2 1538   1.264   4.526   2.044 -0.0636  0.6005 -0.5810
   99TMC2    C3 1539   1.185   4.524   2.153 -0.6600 -1.2739 -0.1360
   99TMC2    C4 1540   1.067   4.566   1.909  0.0554  0.2610  0.1656
   99TMC2    C5 1541   0.992   4.562   2.024 -0.3786  0.2829  0.1428
   99TMC2    C6 1542   1.048   4.538   2.147  0.1385  0.1224  0.2161
   99TMC2     C 1543   1.297   4.522   1.804 -0.5065 -0.4697 -0.4976
   99TMC2     O 1544   1.412   4.487   1.825  0.0899  0.5579 -0.2132
   99TMC2     H 1545   1.369   4.503   2.057 -0.8265 -1.9127  0.8385
   99TMC2    H1 1546   1.034   4.608   1.815 -0.8840 -0.7064  0.0612
   99TMC2    H2 1547   0.979   4.522   2.229 -0.1022 -0.3399 -0.0811
   99TMC2    C7 1548   0.849   4.558   2.020 -0.1483 -0.0051  0.5115
   99TMC2    C8 1549   1.256   4.536   2.278  0.3661 -0.9889  0.4495
   99TMC2    O1 1550   0.783   4.553   2.123  0.4974 -0.0240 -0.4952
   99TMC2    O2 1551   1.356   4.607   2.288  0.3091 -0.0690  0.6457
   99TMC2    O5 1552   1.166   4.515   2.372  0.2131 -0.0019 -0.0714
   99TMC2    H5 1553   1.091   4.460   2.341  1.4423 -1.4495 -0.5125
  100MPD2     C 1554   1.417   4.542   1.533 -0.0851 -0.2891 -0.4165
  100MPD2    C1 1555   1.283   4.566   1.560 -0.5776  0.7529 -0.5825
  100MPD2    C2 1556   1.192   4.596   1.453 -0.3494  0.7315 -0.1664
  100MPD2    C3 1557   1.232   4.586   1.323 -0.3202 -0.3170  0.4931
  100MPD2    C4 1558   1.372   4.563   1.293 -0.2219  0.2611 -0.3413
  100MPD2    C5 1559   1.462   4.540   1.405  0.8232  0.0186  0.0703
  100MPD2     H 1560   1.088   4.604   1.485  0.6189  1.4064  2.8455
  100MPD2    H1 1561   1.410   4.573   1.192 -2.8103  1.3230 -1.2132
  100MPD2    H2 1562   1.493   4.531   1.610  0.5259  0.2412 -0.9415
  100MPD2    H3 1563   1.569   4.533   1.392  1.1561  3.5863  0.9015
  100MPD2     N 1564   1.139   4.592   1.220 -0.0613  0.1500  0.0890
  100MPD2    H5 1565   1.179   4.588   1.127 -2.2812  2.0449 -0.9341
  100MPD2    N1 1566   1.231   4.550   1.687  0.3418  0.1266 -0.6840
  100MPD2    H7 1567   1.131   4.563   1.678 -0.6301 -5.0385  2.5329
  101TMC2    C1 1568   1.723   0.162  12.835 -0.3161 -0.9285  0.1594
  101TMC2    C2 1569   1.701   0.146  12.703  0.1620 -0.0905 -0.2946
  101TMC2    C3 1570   1.691   0.266  12.630 -0.2265 -0.0303  0.1316
  101TMC2    C4 1571   1.736   0.278  12.905  0.2842 -0.2585 -0.5618
  101TMC2    C5 1572   1.734   0.392  12.829  0.8398 -0.6068 -0.9543
  101TMC2    C6 1573   1.706   0.391  12.691 -0.3323  0.8091  0.0590
  101TMC2     C 1574   1.697   0.043  12.917 -0.0803  0.2761 -0.6674
  101TMC2     O 1575   1.639   0.061  13.022  0.8237 -0.0658 -0.1525
  101TMC2     H 1576   1.675   0.057  12.647  0.9767 -0.5721  0.1096
  101TMC2    H1 1577   1.744   0.274  13.013  1.2207 -1.7078 -0.6911
  101TMC2    H2 1578   1.695   0.481  12.631 -0.4448  2.4732  2.6130
  101TMC2    C7 1579   1.747   0.524  12.882 -0.3209 -0.1366 -0.0008
  101TMC2    C8 1580   1.668   0.247  12.489 -1.0076  0.6888  0.3151
  101TMC2    O1 1581   1.755   0.614  12.800 -0.0418  0.0884 -0.0916
  101TMC2    O2 1582   1.627   0.139  12.446  0.6979  0.6549  0.0843
  101TMC2    O5 1583   1.760   0.317  12.431 -0.2800 -0.3597  0.4575
  101TMC2    H5 1584   1.807   0.369  12.499  0.1148 -0.6580  0.4136
  102MPD2     C 1585   1.775   4.433  12.813 -0.3248  0.5568  0.5496
  102MPD2    C1 1586   1.722   4.528  12.892  0.2580  0.5048  0.0524
  102MPD2    C2 1587   1.649   4.499  13.009 -0.3393  0.1661  0.6455
  102MPD2    C3 1588   1.643   4.364  13.042  0.0622  0.5123  0.5890
  102MPD2    C4 1589   1.689   4.266  12.957 -0.1464  0.6649  0.2179
  102MPD2    C5 1590   1.771   4.302  12.853 -0.7157 -0.1244 -0.0489
  102MPD2     H 1591   1.614   4.569  13.083  1.7096  0.1470  1.6319
  102MPD2    H1 1592   1.680   4.162  12.985  0.1996  0.4129 -0.6242
  102MPD2    H2 1593   1.829   4.455  12.721  2.0629  0.2519  1.8768
  102MPD2    H3 1594   1.816   4.227  12.790 -1.3519 -1.2895  0.8848
  102MPD2     N 1595   1.575   4.332  13.163  0.3467 -0.2062 -0.3799
  102MPD2    H5 1596   1.529   4.403  13.219  2.3562 -0.0240  1.0007
  102MPD2    N1 1597   1.737   4.663  12.848  0.1084  0.3205  0.5888
  102MPD2    H7 1598   1.781   4.679  12.758 -0.2482  1.5780  0.6337
  103TMC2    C1 1599   4.417   0.030  12.490 -0.2990 -0.6689 -0.0239
  103TMC2    C2 1600   4.511   0.111  12.418  0.6233  0.2728  0.1094
  103TMC2    C3 1601   4.611   0.155  12.503 -0.2087 -0.8597  0.1207
  103TMC2    C4 1602   4.423   4.728  12.624 -0.0293 -0.4760 -0.3600
  103TMC2    C5 1603   4.527   0.049  12.693 -0.1372  0.4745  0.4089
  103TMC2    C6 1604   4.622   0.120  12.633 -0.3983  0.3564 -0.1998
  103TMC2     C 1605   4.299   4.727  12.419 -0.5812  0.1444  0.4330
  103TMC2     O 1606   4.240   0.073  12.342 -0.0380  0.0709 -0.4327
  103TMC2     H 1607   4.495   0.130  12.313 -1.0835  0.4835  0.4006
  103TMC2    H1 1608   4.334   4.693  12.674 -0.0371 -1.2850 -0.9371
  103TMC2    H2 1609   4.710   0.156  12.683  0.1492 -2.1021  0.6270
  103TMC2    C7 1610   4.524   0.029  12.836 -0.2492  0.8741 -0.0183
  103TMC2    C8 1611   4.728   0.221  12.444 -0.5516 -0.6514 -0.4120
  103TMC2    O1 1612   4.436   4.691  12.878  0.2606  0.0632 -0.3510
  103TMC2    O2 1613   0.111   0.185  12.450  0.5633 -0.1662  0.0791
  103TMC2    O5 1614   4.666   0.295  12.353  0.2335  0.1672 -0.0333
  103TMC2    H5 1615   4.581   0.321  12.393 -0.3716 -1.0020 -0.5582
  104MPD2     C 1616   4.102   4.416  12.444 -0.5610 -0.1988  0.2911
  104MPD2    C1 1617   4.130   4.548  12.415 -0.3704 -0.0365  0.8494
  104MPD2    C2 1618   4.020   4.630  12.382  0.2367  0.6172 -0.1254
  104MPD2    C3 1619   3.895   4.578  12.353 -0.5175 -0.6494  0.7036
  104MPD2    C4 1620   3.879   4.441  12.364  0.2904 -0.8681  0.0170
  104MPD2    C5 1621   3.979   4.365  12.422  0.6334  0.0975  0.2497
  104MPD2     H 1622   4.026   0.005  12.373 -3.6918  0.8449 -0.0445
  104MPD2    H1 1623   3.784   4.396  12.336  0.1528 -0.0432 -0.8488
  104MPD2    H2 1624   4.178   4.344  12.473  0.0977  0.5901  0.5104
  104MPD2    H3 1625   3.974   4.258  12.435  0.9230 -0.0573 -0.9769
  104MPD2     N 1626   3.803   4.671  12.300 -0.2188  0.7521 -0.2338
  104MPD2    H5 1627   3.820   0.033  12.333  1.0600  0.2697  0.5236
  104MPD2    N1 1628   4.265   4.595  12.439 -0.4007 -0.6148 -1.1114
  104MPD2    H7 1629   4.329   4.531  12.485 -1.2306  1.3555  2.8323
  105TMC2    C1 1630   1.247   4.499   0.533  0.7681  0.2156  0.5613
  105TMC2    C2 1631   1.319   4.482   0.650 -0.2025  0.4377  1.1620
  105TMC2    C3 1632   1.274   4.554   0.760  0.4345  0.2453 -0.5363
  105TMC2    C4 1633   1.142   4.590   0.522 -0.0644  0.4029 -0.0812
  105TMC2    C5 1634   1.109   4.665   0.631 -0.4652  0.5072 -0.3863
  105TMC2    C6 1635   1.169   4.645   0.752  0.3140 -0.7029  0.0147
  105TMC2     C 1636   1.270   4.411   0.426 -0.1332  0.2042 -0.2610
  105TMC2     O 1637   1.337   4.317   0.459  0.1911 -0.1291  0.2135
  105TMC2     H 1638   1.405   4.417   0.659  0.3870  0.6844 -2.4522
  105TMC2    H1 1639   1.082   4.589   0.431  2.1612 -3.5888 -1.4821
  105TMC2    H2 1640   1.141   4.710   0.834  1.4718 -0.1561 -0.0265
  105TMC2    C7 1641   0.976   4.711   0.631  0.2480 -0.2096  0.1581
  105TMC2    C8 1642   1.321   4.518   0.888 -0.9307 -0.2624 -0.0731
  105TMC2    O1 1643   0.900   4.668   0.543  0.0698 -0.5115 -0.3734
  105TMC2    O2 1644   1.290   4.590   0.980 -0.2884  0.2765  0.2171
  105TMC2    O5 1645   1.303   4.386   0.892 -0.2700  0.1597  0.3615
  105TMC2    H5 1646   1.307   4.342   0.804 -0.9149  1.7459 -0.4713
  106MPD2     C 1647   1.353   4.286  17.665 -1.0947 -0.0533  0.1860
  106MPD2    C1 1648   1.274   4.406  17.671  0.7827 -0.2223 -0.4832
  106MPD2    C2 1649   1.252   4.463   0.064 -0.4624  0.0469 -0.5017
  106MPD2    C3 1650   1.283   4.409   0.181  0.3067  0.3292 -0.9697
  106MPD2    C4 1651   1.352   4.291   0.175  0.0853  0.2047  0.0928
  106MPD2    C5 1652   1.391   4.234   0.055  0.5791  0.5587  0.0072
  106MPD2     H 1653   1.177   4.541   0.060 -0.3979  0.0440 -1.6597
  106MPD2    H1 1654   1.397   4.252   0.265  1.1724 -0.1683 -0.6134
  106MPD2    H2 1655   1.376   4.238  17.571 -0.4351  1.1224 -0.2480
  106MPD2    H3 1656   1.441   4.138   0.046 -3.2586 -1.6410  1.8023
  106MPD2     N 1657   1.241   4.463   0.304  0.4278 -0.1220  0.3085
  106MPD2    H5 1658   1.189   4.549   0.290  1.5009  0.7942  1.9615
  106MPD2    N1 1659   1.222   4.463  17.551  0.0646 -0.1345 -0.2790
  106MPD2    H7 1660   1.195   4.559  17.567  1.5887  0.0814  1.0952
  107TMC2    C1 1661   1.997   3.444  11.947  0.1881  0.2506 -0.1003
  107TMC2    C2 1662   2.102   3.410  12.015 -0.0475 -0.1120  0.2897
  107TMC2    C3 1663   2.223   3.407  11.954 -0.1395  0.0858 -0.4299
  107TMC2    C4 1664   2.007   3.474  11.813  0.5473  0.4192 -0.0694
  107TMC2    C5 1665   2.133   3.486  11.754 -0.5372 -0.4934  0.6861
  107TMC2    C6 1666   2.245   3.444  11.826  0.0535 -0.5090  0.5527
  107TMC2     C 1667   1.914   3.533  12.028 -0.1228 -0.2981 -0.4907
  107TMC2     O 1668   1.888   3.508  12.147 -0.0030  0.3617 -0.3919
  107TMC2     H 1669   2.087   3.389  12.121 -1.3879 -0.0258  0.1218
  107TMC2    H1 1670   1.917   3.498  11.756  0.2495 -1.2134 -0.2921
  107TMC2    H2 1671   2.345   3.449  11.784  0.5534  0.2441  1.8439
  107TMC2    C7 1672   2.135   3.606  11.677 -0.5436  0.2592 -0.3046
  107TMC2    C8 1673   2.342   3.394  12.038 -0.2864  0.2809 -0.1363
  107TMC2    O1 1674   2.042   3.679  11.699  0.2968  0.1660  0.0770
  107TMC2    O2 1675   2.360   3.286  12.090 -0.3426 -0.1734  0.3394
  107TMC2    O5 1676   2.433   3.487  12.008 -0.3959  0.1041 -0.3513
  107TMC2    H5 1677   2.408   3.576  11.976  0.6097  0.5020 -0.0197
  108MPD2     C 1678   1.768   3.810  11.859 -0.4413 -0.4102  1.0018
  108MPD2    C1 1679   1.775   3.719  11.960  0.0060 -0.2393 -0.0271
  108MPD2    C2 1680   1.686   3.713  12.065  0.1831  0.7580  0.0378
  108MPD2    C3 1681   1.600   3.823  12.076  0.2930  0.1399  0.0979
  108MPD2    C4 1682   1.590   3.914  11.974 -0.0935  0.2400  0.1669
  108MPD2    C5 1683   1.670   3.905  11.861 -0.2840  0.8512  0.0299
  108MPD2     H 1684   1.707   3.646  12.147  1.9660 -0.0298 -1.0501
  108MPD2    H1 1685   1.538   4.009  11.975 -1.4467 -0.4903 -0.2026
  108MPD2    H2 1686   1.821   3.812  11.765 -1.1526 -1.3784  0.5869
  108MPD2    H3 1687   1.663   3.972  11.776 -0.5698 -0.6703 -1.1452
  108MPD2     N 1688   1.526   3.850  12.199  0.6560 -0.3025  0.3857
  108MPD2    H5 1689   1.477   3.938  12.210 -0.7412 -1.1106  0.6050
  108MPD2    N1 1690   1.884   3.637  11.945 -0.5194  0.2492 -0.0774
  108MPD2    H7 1691   1.936   3.646  11.858 -1.3835 -0.3821 -0.6618
  109TMC2    C1 1692   2.862   2.765   1.852  0.1088  0.4944  0.7306
  109TMC2    C2 1693   2.947   2.741   1.752  0.6649 -0.0539 -0.0452
  109TMC2    C3 1694   2.987   2.847   1.672  0.8248  1.0373 -1.4308
  109TMC2    C4 1695   2.812   2.890   1.886 -0.6402 -0.0541 -0.6037
  109TMC2    C5 1696   2.850   2.995   1.809  0.3455 -0.0161 -0.5030
  109TMC2    C6 1697   2.937   2.971   1.707  0.4762  0.0148  0.1328
  109TMC2     C 1698   2.841   2.668   1.960 -0.1772  0.1565 -0.3625
  109TMC2     O 1699   2.808   2.713   2.072  0.0222  0.5470 -0.1861
  109TMC2     H 1700   3.008   2.654   1.736 -0.3976 -1.3878  3.1843
  109TMC2    H1 1701   2.724   2.884   1.950 -0.4552  1.3440 -0.2267
  109TMC2    H2 1702   2.958   3.062   1.652  0.8537 -0.2474 -0.1607
  109TMC2    C7 1703   2.747   3.087   1.778 -0.5682  0.3331 -0.0306
  109TMC2    C8 1704   3.110   2.829   1.598 -0.5635  0.2576 -0.4495
  109TMC2    O1 1705   2.734   3.111   1.659  0.6622 -0.4024 -0.5163
  109TMC2    O2 1706   3.181   2.733   1.622  0.0396  0.6261 -0.4674
  109TMC2    O5 1707   3.068   2.848   1.470  0.0031 -0.1724 -0.1067
  109TMC2    H5 1708   2.990   2.907   1.468 -1.1493 -1.7831 -2.0446
  110MPD2     C 1709   2.850   2.171   2.104  0.3569 -0.1957  0.1754
  110MPD2    C1 1710   2.879   2.186   1.974  0.0644  0.4303  0.4676
  110MPD2    C2 1711   2.892   2.308   1.917 -0.4253  0.2282  0.6064
  110MPD2    C3 1712   2.866   2.421   1.994 -0.5163 -0.3974 -0.2570
  110MPD2    C4 1713   2.845   2.403   2.130 -0.8457  0.5840  0.4238
  110MPD2    C5 1714   2.838   2.280   2.186 -0.3980 -1.2011  0.3641
  110MPD2     H 1715   2.895   2.314   1.809 -1.5331 -3.0481  0.3922
  110MPD2    H1 1716   2.818   2.492   2.186 -1.7308 -1.3093  2.9359
  110MPD2    H2 1717   2.822   2.072   2.139  0.9009  0.3722  2.2699
  110MPD2    H3 1718   2.804   2.264   2.288 -2.2519 -0.5199 -0.1481
  110MPD2     N 1719   2.872   2.540   1.919  0.4108  0.4091  0.1068
  110MPD2    H5 1720   2.890   2.528   1.819  3.3426 -0.9156  0.7831
  110MPD2    N1 1721   2.881   2.067   1.893  0.4135  0.2641  0.0039
  110MPD2    H7 1722   2.859   1.975   1.929  0.4973 -0.2384 -1.2590
  111TMC2    C1 1723   1.512   1.625  11.926  0.7588 -0.4894  0.1137
  111TMC2    C2 1724   1.411   1.703  11.974  0.2071 -0.1214 -0.7346
  111TMC2    C3 1725   1.391   1.709  12.107 -0.5683 -0.2998 -0.1764
  111TMC2    C4 1726   1.612   1.583  12.007  0.1507 -0.3645 -0.7387
  111TMC2    C5 1727   1.600   1.606  12.139  0.3886  0.8035  0.0488
  111TMC2    C6 1728   1.489   1.664  12.197  0.0559  0.5701 -0.2882
  111TMC2     C 1729   1.496   1.561  11.796 -0.6381  0.0070 -0.2681
  111TMC2     O 1730   1.444   1.631  11.707  0.2585 -0.4375 -0.0030
  111TMC2     H 1731   1.344   1.755  11.906  0.8581  0.3605 -1.0081
  111TMC2    H1 1732   1.697   1.527  11.971 -1.6778 -2.0830 -2.4083
  111TMC2    H2 1733   1.470   1.656  12.303  0.1135  0.6858 -0.2687
  111TMC2    C7 1734   1.707   1.568  12.228 -0.9054 -0.9609  0.3333
  111TMC2    C8 1735   1.291   1.800  12.158 -0.2704 -0.1056 -0.3522
  111TMC2    O1 1736   1.681   1.546  12.345  0.0791  0.0745 -0.1971
  111TMC2    O2 1737   1.179   1.813  12.110 -0.8059 -0.3307 -0.4238
  111TMC2    O5 1738   1.369   1.908  12.185  0.2882 -0.4666  0.1235
  111TMC2    H5 1739   1.459   1.872  12.200  0.2626 -1.1807 -1.4769
  112MPD2     C 1740   1.445   1.119  11.520 -0.1241 -0.0992  0.0657
  112MPD2    C1 1741   1.472   1.248  11.473 -0.4473 -0.5039  0.4455
  112MPD2    C2 1742   1.484   1.349  11.564 -0.0980  0.1450 -0.4034
  112MPD2    C3 1743   1.471   1.332  11.699 -0.0164  0.1339 -0.6109
  112MPD2    C4 1744   1.456   1.198  11.744 -0.0306 -0.2719 -0.3563
  112MPD2    C5 1745   1.442   1.092  11.655 -0.3968 -0.1369 -0.4386
  112MPD2     H 1746   1.490   1.448  11.522  1.4963  0.1141 -0.2601
  112MPD2    H1 1747   1.441   1.175  11.849  2.1309 -0.1348 -0.0182
  112MPD2    H2 1748   1.415   1.033  11.461  0.0294  0.0936 -0.2865
  112MPD2    H3 1749   1.410   0.993  11.686 -3.0786  0.8855  0.0791
  112MPD2     N 1750   1.489   1.426  11.803 -0.2203  0.1400  0.0213
  112MPD2    H5 1751   1.492   1.394  11.900  2.6330 -2.0060 -0.7748
  112MPD2    N1 1752   1.471   1.284  11.333  0.6078 -0.1486 -0.4000
  112MPD2    H7 1753   1.498   1.378  11.305 -0.8548 -0.2580 -2.1415
  113TMC2    C1 1754   0.083   4.386   0.835 -0.2837  0.4341 -1.4062
  113TMC2    C2 1755   4.709   4.471   0.862  0.3780 -0.1888 -0.9520
  113TMC2    C3 1756   4.589   4.420   0.828 -0.3119  0.1749  0.1275
  113TMC2    C4 1757   0.068   4.268   0.770  0.3501 -0.3831  0.5565
  113TMC2    C5 1758   4.674   4.232   0.739 -0.4625  0.2038  0.5594
  113TMC2    C6 1759   4.560   4.292   0.783  0.7616 -1.2867 -0.5927
  113TMC2     C 1760   0.207   4.419   0.904  0.0580 -0.2842 -0.3692
  113TMC2     O 1761   0.213   4.531   0.953  0.6288 -0.0243  0.0811
  113TMC2     H 1762   4.732   4.568   0.904  0.9834 -0.1450 -1.3720
  113TMC2    H1 1763   0.153   4.218   0.726 -1.4485 -3.3649  0.4304
  113TMC2    H2 1764   4.478   4.263   0.719 -0.0035 -3.0287  1.2098
  113TMC2    C7 1765   4.673   4.093   0.701 -0.3700 -1.2487  0.3066
  113TMC2    C8 1766   4.475   4.505   0.816  0.1369  0.3021  0.0149
  113TMC2    O1 1767   0.032   4.037   0.642 -0.1120 -0.7651  0.2778
  113TMC2    O2 1768   4.478   4.625   0.833 -0.3183 -0.2447  0.2774
  113TMC2    O5 1769   4.364   4.427   0.840  0.7963  0.5257  0.3126
  113TMC2    H5 1770   4.382   4.333   0.863  1.7937  0.9034  1.0592
  114MPD2     C 1771   0.629   4.332   1.166 -0.1354 -0.9304 -0.4734
  114MPD2    C1 1772   0.529   4.420   1.193  0.1072  0.2556  0.0337
  114MPD2    C2 1773   0.414   4.412   1.114  0.6370  0.0036  0.7123
  114MPD2    C3 1774   0.406   4.319   1.015 -0.0436 -0.1619  0.0767
  114MPD2    C4 1775   0.502   4.225   1.000  0.5861  0.0692  0.1415
  114MPD2    C5 1776   0.612   4.230   1.078 -0.4121 -0.5961  0.9020
  114MPD2     H 1777   0.330   4.477   1.136  0.7925  0.6156 -0.5499
  114MPD2    H1 1778   0.499   4.142   0.930  1.1859  1.0682 -1.0762
  114MPD2    H2 1779   0.726   4.347   1.212 -0.9126  2.7154 -0.0357
  114MPD2    H3 1780   0.696   4.162   1.064 -1.5732 -1.9380  0.4469
  114MPD2     N 1781   0.291   4.315   0.927  0.4977  0.1938 -0.0124
  114MPD2    H5 1782   0.290   4.247   0.852 -2.0736  0.7259 -0.4830
  114MPD2    N1 1783   0.530   4.519   1.293  0.0512  0.0786  0.1881
  114MPD2    H7 1784   0.463   4.595   1.283 -0.8867 -0.9994 -1.7360
  115TMC2    C1 1785   1.054   1.266   0.243 -0.3542  0.7600 -0.1525
  115TMC2    C2 1786   1.182   1.252   0.197 -0.2770 -0.4182  0.1546
  115TMC2    C3 1787   1.263   1.360   0.209 -0.4151 -0.1046 -0.0424
  115TMC2    C4 1788   1.007   1.375   0.305  0.6173  0.4564 -0.5275
  115TMC2    C5 1789   1.092   1.481   0.308  0.1824  0.6387  0.4634
  115TMC2    C6 1790   1.213   1.478   0.254 -0.0465  0.4024  0.2248
  115TMC2     C 1791   0.960   1.164   0.183 -0.2324 -0.5191 -0.2727
  115TMC2     O 1792   1.018   1.075   0.124 -0.4199 -0.2257  0.2511
  115TMC2     H 1793   1.219   1.161   0.152  1.4911  0.7130 -0.6648
  115TMC2    H1 1794   0.910   1.383   0.352  0.4913 -0.6953 -0.6005
  115TMC2    H2 1795   1.271   1.567   0.234  0.7181 -0.0798  0.2999
  115TMC2    C7 1796   1.030   1.605   0.343  0.5909 -0.5419 -0.7326
  115TMC2    C8 1797   1.395   1.344   0.149  0.3575  0.0523  0.1745
  115TMC2    O1 1798   0.939   1.602   0.421 -0.8051 -0.3693 -0.9353
  115TMC2    O2 1799   1.410   1.282   0.044  0.1493 -0.3754 -0.1609
  115TMC2    O5 1800   1.476   1.435   0.201  0.0732  0.0338  0.6313
  115TMC2    H5 1801   1.453   1.469   0.290 -0.6530  0.5032  0.2690
  116MPD2     C 1802   0.512   0.999  17.716 -0.0691  0.0580 -0.2988
  116MPD2    C1 1803   0.638   0.960  17.691 -0.3585 -0.2597 -0.4507
  116MPD2    C2 1804   0.737   1.030   0.024  0.7355 -0.7311 -0.2484
  116MPD2    C3 1805   0.720   1.124   0.129 -0.1499  0.3305 -0.4507
  116MPD2    C4 1806   0.591   1.164   0.162  0.5164  0.3553  0.1548
  116MPD2    C5 1807   0.486   1.098   0.085  0.5976  0.2284  0.4560
  116MPD2     H 1808   0.839   1.007  17.723  1.2790  0.4256  0.7404
  116MPD2    H1 1809   0.577   1.231   0.246 -3.1315 -1.6293  1.1302
  116MPD2    H2 1810   0.431   0.960  17.656 -1.1864 -1.7560  2.3550
  116MPD2    H3 1811   0.386   1.137   0.098  0.0510 -1.1212  0.3868
  116MPD2     N 1812   0.826   1.193   0.199 -0.1185 -0.1025  0.1161
  116MPD2    H5 1813   0.804   1.256   0.276 -0.7502 -0.1121 -0.0634
  116MPD2    N1 1814   0.660   0.871  17.577 -0.1826 -0.3475  0.6804
  116MPD2    H7 1815   0.577   0.826  17.540  1.0697 -1.1631 -1.0857
  117TMC2    C1 1816   3.879   2.843  14.077  0.0209  0.0362 -0.1753
  117TMC2    C2 1817   3.925   2.738  13.992  0.0215  0.1577  0.1667
  117TMC2    C3 1818   4.031   2.772  13.914 -0.1802  0.4891 -0.9759
  117TMC2    C4 1819   3.924   2.974  14.064  0.5566  0.4274 -0.2394
  117TMC2    C5 1820   4.024   3.002  13.977  0.0799 -0.4130  0.3089
  117TMC2    C6 1821   4.076   2.901  13.901  0.1490  0.1579 -0.1372
  117TMC2     C 1822   3.784   2.815  14.185  0.0282 -0.0385 -0.6308
  117TMC2     O 1823   3.789   2.700  14.222 -0.3650 -0.5739 -0.2449
  117TMC2     H 1824   3.876   2.643  14.008 -0.8688  0.6636  0.4351
  117TMC2    H1 1825   3.888   3.048  14.135  2.8088 -1.5596  2.9855
  117TMC2    H2 1826   4.161   2.920  13.836  0.3303 -1.0866 -0.2545
  117TMC2    C7 1827   4.074   3.139  13.957  0.4472 -0.8653 -0.5867
  117TMC2    C8 1828   4.061   2.679  13.819 -0.7670 -0.0884 -0.3418
  117TMC2    O1 1829   4.197   3.154  13.936  0.1423  0.2177 -0.5270
  117TMC2    O2 1830   4.108   2.694  13.708 -0.0396 -0.2218 -0.1084
  117TMC2    O5 1831   4.062   2.563  13.893  0.4678 -0.0439  0.0259
  117TMC2    H5 1832   4.052   2.568  13.990 -1.2947 -0.6193 -0.1406
  118MPD2     C 1833   3.874   3.445  14.034  0.4461  0.5198 -0.5020
  118MPD2    C1 1834   3.992   3.372  14.014  0.1324 -0.1088  0.6666
  118MPD2    C2 1835   4.107   3.447  13.988  0.4709 -0.5483 -0.6711
  118MPD2    C3 1836   4.108   3.581  14.000  0.5411  0.5698  0.5560
  118MPD2    C4 1837   3.991   3.643  14.016 -0.2588 -0.8109 -0.0372
  118MPD2    C5 1838   3.872   3.579  14.023 -0.7316 -0.2337  0.3814
  118MPD2     H 1839   4.200   3.394  13.973  0.4977 -0.9240  0.8084
  118MPD2    H1 1840   3.975   3.750  14.021 -0.1040 -0.7793 -0.2259
  118MPD2    H2 1841   3.780   3.392  14.047 -0.3819  1.7402 -1.5069
  118MPD2    H3 1842   3.783   3.639  14.033 -2.0595 -2.1009 -0.1235
  118MPD2     N 1843   4.221   3.661  13.983  0.3092 -0.3894 -0.6759
  118MPD2    H5 1844   4.209   3.761  13.966 -0.5477 -0.4974 -0.6951
  118MPD2    N1 1845   3.975   3.229  13.993 -0.0026  0.6113 -0.6985
  118MPD2    H7 1846   3.883   3.191  14.014  0.1225  0.0793 -1.1121
  119TMC2    C1 1847   2.647   4.294  13.461  0.2890 -0.1141 -0.2235
  119TMC2    C2 1848   2.754   4.210  13.470 -0.8266  0.1724 -0.0130
  119TMC2    C3 1849   2.728   4.078  13.461  0.1795  0.4631 -0.2915
  119TMC2    C4 1850   2.517   4.255  13.449 -0.1680  0.0961  0.2931
  119TMC2    C5 1851   2.493   4.122  13.452 -0.1938 -0.0387 -0.4051
  119TMC2    C6 1852   2.599   4.034  13.460 -0.0098  0.0829 -0.5549
  119TMC2     C 1853   2.663   4.422  13.532  0.2477  0.0386  0.4011
  119TMC2     O 1854   2.565   4.475  13.582 -0.2841  0.0326 -0.0682
  119TMC2     H 1855   2.857   4.244  13.469  0.0873 -2.6184 -0.7824
  119TMC2    H1 1856   2.442   4.332  13.457 -0.0061  0.3583 -0.6789
  119TMC2    H2 1857   2.577   3.927  13.464 -0.9046  0.2241 -1.5464
  119TMC2    C7 1858   2.380   4.068  13.519 -0.5034  0.2169  0.6280
  119TMC2    C8 1859   2.836   3.986  13.439  0.5337  0.2602 -0.7558
  119TMC2    O1 1860   2.379   3.952  13.547 -0.9782  0.3114 -0.0673
  119TMC2    O2 1861   2.809   3.868  13.444 -0.2265 -0.3624 -0.2726
  119TMC2    O5 1862   2.920   4.038  13.355  0.6962  0.5143  0.2923
  119TMC2    H5 1863   2.890   4.129  13.332  0.0940  0.6365  1.5752
  120MPD2     C 1864   2.926   0.095  13.730 -0.0914  0.2547 -0.3629
  120MPD2    C1 1865   2.794   0.063  13.725 -0.3379  0.3517 -0.6742
  120MPD2    C2 1866   2.750   4.680  13.663 -0.3200  0.4501  0.3843
  120MPD2    C3 1867   2.832   4.594  13.586 -0.2421  0.8778 -0.5609
  120MPD2    C4 1868   2.967   4.630  13.588 -0.3705  0.9056  0.4294
  120MPD2    C5 1869   3.007   0.007  13.662 -0.3717  0.3664 -0.1081
  120MPD2     H 1870   2.643   4.664  13.666  0.0510 -1.7671  2.0339
  120MPD2    H1 1871   3.045   4.589  13.524 -1.1680 -0.1637  0.1455
  120MPD2    H2 1872   2.968   0.186  13.770 -0.5199 -0.2313  1.1828
  120MPD2    H3 1873   3.110   0.036  13.645  0.1801 -1.4851  0.0924
  120MPD2     N 1874   2.792   4.470  13.522 -0.0916  0.1483 -0.2101
  120MPD2    H5 1875   2.870   4.411  13.493  0.6531  1.7706 -1.5019
  120MPD2    N1 1876   2.705   0.157  13.790 -0.9988  0.0910 -0.6862
  120MPD2    H7 1877   2.741   0.252  13.800  0.2502 -0.6946  2.2416
  121TMC2    C1 1878   4.370   0.795  13.920  0.1698 -0.5235 -0.7146
  121TMC2    C2 1879   4.475   0.724  13.983 -0.2927 -0.0589  0.8522
  121TMC2    C3 1880   4.445   0.618  14.060 -0.3827 -0.1008 -0.8833
  121TMC2    C4 1881   4.241   0.761  13.947 -0.2762  0.4624 -0.0887
  121TMC2    C5 1882   4.210   0.657  14.028  0.2458 -0.4023  0.0582
  121TMC2    C6 1883   4.319   0.592  14.085 -0.4866  0.2968  0.4842
  121TMC2     C 1884   4.379   0.931  13.874 -0.1677  0.0844 -0.2355
  121TMC2     O 1885   4.484   0.989  13.908  0.0933  0.3127  0.4047
  121TMC2     H 1886   4.574   0.764  13.966 -1.0914  1.6646  0.2936
  121TMC2    H1 1887   4.155   0.814  13.909 -1.2931 -0.6645  0.6214
  121TMC2    H2 1888   4.309   0.503  14.147  0.9492 -0.9691 -1.1193
  121TMC2    C7 1889   4.080   0.627  14.084  0.0462 -0.6876 -0.0566
  121TMC2    C8 1890   4.543   0.557  14.142  0.1939 -0.4924  0.5730
  121TMC2    O1 1891   4.053   0.518  14.138 -0.3774  0.0893  0.5699
  121TMC2    O2 1892   4.524   0.440  14.167 -0.1987  0.1302  0.4540
  121TMC2    O5 1893   4.524   0.641  14.245 -0.7155  0.5231  0.4367
  121TMC2    H5 1894   4.516   0.735  14.218  1.3736  0.6912  0.4424
  122MPD2     C 1895   4.362   1.199  13.754 -0.2525 -1.2205  0.7703
  122MPD2    C1 1896   4.297   1.087  13.708  0.3667 -0.5313 -1.0127
  122MPD2    C2 1897   4.216   1.104  13.595 -0.1085  0.2202 -0.0624
  122MPD2    C3 1898   4.223   1.225  13.516 -0.2816 -0.2365  0.0889
  122MPD2    C4 1899   4.298   1.329  13.562 -0.6816  0.0964  0.0162
  122MPD2    C5 1900   4.367   1.312  13.681 -0.0209  0.6454  0.1114
  122MPD2     H 1901   4.153   1.020  13.567 -0.4374  0.6950 -0.7470
  122MPD2    H1 1902   4.299   1.421  13.504 -1.0214  0.7182  1.0050
  122MPD2    H2 1903   4.432   1.196  13.836  0.1536  1.0549  0.5079
  122MPD2    H3 1904   4.441   1.386  13.709 -0.0585  0.0034  1.8595
  122MPD2     N 1905   4.161   1.244  13.393  0.1572 -0.2272  0.5706
  122MPD2    H5 1906   4.163   1.334  13.347 -1.0733 -0.5162 -0.0660
  122MPD2    N1 1907   4.296   0.960  13.768 -0.2565  0.1243  0.1302
  122MPD2    H7 1908   4.226   0.899  13.728 -0.7573 -1.2420  3.1106
  123TMC2    C1 1909   3.014   4.587  10.632 -0.3029 -0.6881  0.1726
  123TMC2    C2 1910   3.148   4.589  10.588  0.0703  0.1998 -0.2007
  123TMC2    C3 1911   3.194   4.701  10.529 -0.2796 -0.5304 -0.3964
  123TMC2    C4 1912   2.942   4.701  10.610  0.2206 -0.5346  0.0057
  123TMC2    C5 1913   2.985   0.078  10.541  0.0959  0.2847  0.3117
  123TMC2    C6 1914   3.114   0.078  10.498  0.1210 -0.1227 -0.1753
  123TMC2     C 1915   2.949   4.462  10.597 -0.8213 -0.1096 -0.8164
  123TMC2     O 1916   3.013   4.357  10.594  0.3195 -0.2537  0.0056
  123TMC2     H 1917   3.211   4.502  10.604  0.2801  0.6033  1.1965
  123TMC2    H1 1918   2.843   4.692  10.653  0.5228  3.0434  1.4337
  123TMC2    H2 1919   3.151   0.155  10.432 -1.3632 -0.5485 -1.5281
  123TMC2    C7 1920   2.878   0.149  10.479  0.4991  0.0490  0.0323
  123TMC2    C8 1921   3.334   0.001  10.504 -0.3081  0.5542 -0.3261
  123TMC2    O1 1922   2.772   0.090  10.480  0.1914  0.3624 -0.1801
  123TMC2    O2 1923   3.367   0.090  10.423 -0.8269 -0.1112  0.0075
  123TMC2    O5 1924   3.412   4.641  10.565  0.2859 -0.1639  0.2096
  123TMC2    H5 1925   3.374   4.608  10.649  1.6608 -0.6556  0.6463
  124MPD2     C 1926   2.524   4.193  10.474  0.2080  0.7080  0.1238
  124MPD2    C1 1927   2.494   4.325  10.468  0.6280 -0.3849  0.0121
  124MPD2    C2 1928   2.590   4.423  10.493 -0.1562  0.6609 -0.8795
  124MPD2    C3 1929   2.712   4.385  10.543 -0.2620  0.5246  0.2633
  124MPD2    C4 1930   2.737   4.252  10.561  0.3199 -0.8081  0.0387
  124MPD2    C5 1931   2.645   4.157  10.534 -0.4900 -0.3370  0.0265
  124MPD2     H 1932   2.563   4.528  10.489  2.5826  1.3010 -2.6504
  124MPD2    H1 1933   2.828   4.210  10.601  0.6106  0.4598  0.6888
  124MPD2    H2 1934   2.450   4.116  10.454 -0.3235  0.5485  2.6962
  124MPD2    H3 1935   2.674   4.053  10.545  1.1524 -0.0477 -1.5788
  124MPD2     N 1936   2.814   4.482  10.560 -0.0089  0.2750  0.2648
  124MPD2    H5 1937   2.785   4.577  10.580  2.4483  1.0555  0.1484
  124MPD2    N1 1938   2.360   4.346  10.438 -0.7644  0.0560  0.1493
  124MPD2    H7 1939   2.292   4.275  10.465  1.3460 -1.4975  1.3511
  125TMC2    C1 1940   2.568   2.594   9.495  0.4804 -0.1839 -0.3023
  125TMC2    C2 1941   2.563   2.632   9.628 -0.4646 -0.0874 -0.8201
  125TMC2    C3 1942   2.668   2.686   9.691  0.1068 -0.6214  1.1224
  125TMC2    C4 1943   2.678   2.614   9.423  0.8402  0.7745  0.6008
  125TMC2    C5 1944   2.786   2.667   9.489  0.0961  0.1515 -0.3044
  125TMC2    C6 1945   2.784   2.711   9.618 -0.0186 -0.1175 -0.2126
  125TMC2     C 1946   2.482   2.493   9.446 -0.5787 -0.2112 -0.2783
  125TMC2     O 1947   2.469   2.492   9.323 -0.1505 -0.0084  0.0190
  125TMC2     H 1948   2.466   2.620   9.676  0.2834  0.5321  0.8463
  125TMC2    H1 1949   2.678   2.589   9.318 -1.3440  1.4770  0.4456
  125TMC2    H2 1950   2.876   2.743   9.667  0.2355  0.7689 -1.2503
  125TMC2    C7 1951   2.903   2.706   9.411  1.1878  0.2271 -0.0871
  125TMC2    C8 1952   2.663   2.726   9.826  0.3611 -0.1964 -0.2646
  125TMC2    O1 1953   2.974   2.784   9.472 -0.3885  0.1052 -0.7187
  125TMC2    O2 1954   2.607   2.660   9.916  0.5257 -0.0824  0.6092
  125TMC2    O5 1955   2.731   2.844   9.837  0.4425  0.4678  0.1175
  125TMC2    H5 1956   2.729   2.903   9.758 -0.2030 -0.3469 -0.4837
  126MPD1     C 1957   2.087   2.155   9.499 -1.1155 -0.1018 -0.2642
  126MPD1    C1 1958   2.099   2.225   9.613 -0.1309 -0.3518  0.5132
  126MPD1    C2 1959   2.197   2.325   9.615 -0.3368  0.1998 -0.5870
  126MPD1    C3 1960   2.277   2.355   9.511  0.5714  0.5462  0.0271
  126MPD1    C4 1961   2.257   2.283   9.392 -0.2621 -0.4609 -0.6169
  126MPD1    C5 1962   2.164   2.186   9.388  0.6112 -0.5111 -0.1568
  126MPD1     H 1963   2.228   2.376   9.705 -0.4969  1.3457 -1.1720
  126MPD1    H1 1964   2.316   2.307   9.304  0.6474  1.4919  0.5013
  126MPD1    H2 1965   2.013   2.077   9.484  0.6405 -2.0814  1.3749
  126MPD1    H3 1966   2.156   2.134   9.294 -0.4566 -2.4901  1.0163
  126MPD1     N 1967   2.383   2.447   9.533 -0.0143 -0.7563 -0.4644
  126MPD1    H5 1968   2.392   2.472   9.631  1.5633  1.5558 -1.1971
  126MPD1    N1 1969   2.005   2.209   9.715 -0.5978  0.2231  0.0561
  126MPD1    H6 1970   2.021   2.251   9.807  1.9246  0.2394 -0.3880
  126MPD1    H7 1971   1.978   2.112   9.727 -1.9674  0.2239 -2.9712
  127TMC2    C1 1972   3.439   0.671   9.872  0.1283  0.1354 -0.6914
  127TMC2    C2 1973   3.530   0.630   9.970 -0.0942 -0.6506  0.0107
  127TMC2    C3 1974   3.475   0.562  10.072 -0.0532  0.7277 -0.0692
  127TMC2    C4 1975   3.298   0.645   9.881 -0.6692 -0.3118  0.2215
  127TMC2    C5 1976   3.258   0.570   9.988 -0.5387  0.3958 -0.5170
  127TMC2    C6 1977   3.344   0.520  10.081  0.1432 -0.3295 -0.2021
  127TMC2     C 1978   3.481   0.768   9.773 -0.2190 -0.6152  0.1060
  127TMC2     O 1979   3.583   0.828   9.803 -0.4920  0.0290 -0.4563
  127TMC2     H 1980   3.626   0.679   9.976  0.1959 -1.3056  0.7032
  127TMC2    H1 1981   3.220   0.689   9.820  0.4417  0.9743 -0.2677
  127TMC2    H2 1982   3.307   0.469  10.169 -0.3584  1.0590  0.3935
  127TMC2    C7 1983   3.132   0.503   9.973  0.3718  0.6391 -0.2107
  127TMC2    C8 1984   3.570   0.539  10.179 -0.4054 -0.5674 -0.1844
  127TMC2    O1 1985   3.060   0.549   9.884  0.6655  0.0506  0.2703
  127TMC2    O2 1986   3.664   0.612  10.199  0.2544  0.5904 -0.3221
  127TMC2    O5 1987   3.538   0.425  10.242 -0.6880 -0.5942  0.4954
  127TMC2    H5 1988   3.456   0.383  10.210  0.6199 -1.0146 -2.2875
  128MPD2     C 1989   3.375   0.825   9.421  0.4435 -0.8393  0.5291
  128MPD2    C1 1990   3.454   0.836   9.532 -0.4125 -0.1178  0.1529
  128MPD2    C2 1991   3.572   0.908   9.517  0.2389  0.3325  0.3228
  128MPD2    C3 1992   3.592   0.972   9.402  0.1435  0.0577  0.5986
  128MPD2    C4 1993   3.503   0.969   9.297 -0.1453 -1.3652  0.6156
  128MPD2    C5 1994   3.403   0.881   9.302 -0.6520  0.1522  0.1539
  128MPD2     H 1995   3.645   0.917   9.596 -1.9680 -0.7448  2.4828
  128MPD2    H1 1996   3.516   1.009   9.197 -0.7892  0.5274  1.3073
  128MPD2    H2 1997   3.286   0.764   9.431  0.0838 -0.3432  0.4042
  128MPD2    H3 1998   3.334   0.878   9.219 -1.7864  1.3558  1.0502
  128MPD2     N 1999   3.710   1.047   9.396 -0.7022 -0.8323  0.1290
  128MPD2    H5 2000   3.772   1.048   9.476 -0.7987  1.9846  0.1552
  128MPD2    N1 2001   3.419   0.757   9.650  0.5746 -0.2858 -0.3877
  128MPD2    H7 2002   3.356   0.679   9.632  0.2712 -0.0537 -0.3312
  129TMC2    C1 2003   3.149   1.460   1.168  0.5564  0.1421 -0.0383
  129TMC2    C2 2004   3.280   1.447   1.161 -0.3508  0.0907 -0.5595
  129TMC2    C3 2005   3.345   1.388   1.263  0.1536  0.4555  0.3723
  129TMC2    C4 2006   3.089   1.433   1.286 -0.1971  0.6851  0.7287
  129TMC2    C5 2007   3.153   1.363   1.388  0.6394  0.3319  0.2049
  129TMC2    C6 2008   3.288   1.351   1.379 -0.1148  0.0345  0.2390
  129TMC2     C 2009   3.071   1.492   1.050  0.0657  0.1666 -0.1073
  129TMC2     O 2010   3.097   1.424   0.951 -0.0396  0.1743 -0.0122
  129TMC2     H 2011   3.334   1.461   1.068  1.4161 -1.1947  0.2536
  129TMC2    H1 2012   2.981   1.439   1.291 -0.2298  0.1533  0.6054
  129TMC2    H2 2013   3.347   1.314   1.462  0.5466 -0.6774 -0.5472
  129TMC2    C7 2014   3.087   1.240   1.416  0.5718 -0.0145  0.5671
  129TMC2    C8 2015   3.495   1.393   1.262  0.8754  0.3968  0.0852
  129TMC2    O1 2016   2.962   1.238   1.420 -0.0091 -0.1720 -0.1969
  129TMC2    O2 2017   3.567   1.423   1.357  0.1124  0.9136 -0.1049
  129TMC2    O5 2018   3.533   1.378   1.131 -0.1819 -0.5640  0.3174
  129TMC2    H5 2019   3.472   1.321   1.081  1.2215 -0.2921 -1.6732
  130MPD2     C 2020   2.819   1.459   0.931  0.3155 -0.5990 -0.3575
  130MPD2    C1 2021   2.845   1.551   1.032  0.0112 -0.0128 -0.6061
  130MPD2    C2 2022   2.739   1.612   1.095  0.2990  0.3477 -1.1638
  130MPD2    C3 2023   2.608   1.580   1.061  0.2834 -0.1307  0.1180
  130MPD2    C4 2024   2.580   1.500   0.953  0.1285 -0.1727  0.0788
  130MPD2    C5 2025   2.688   1.443   0.884  0.0629  0.7785  1.0124
  130MPD2     H 2026   2.748   1.680   1.179 -2.3717 -1.4901  0.6065
  130MPD2    H1 2027   2.482   1.474   0.915 -0.2706 -2.6600  2.7969
  130MPD2    H2 2028   2.898   1.416   0.870  0.5168 -0.7655  0.0200
  130MPD2    H3 2029   2.668   1.384   0.796 -0.1126 -1.0563  2.2762
  130MPD2     N 2030   2.506   1.629   1.142 -0.2493  0.0866  0.3661
  130MPD2    H5 2031   2.519   1.697   1.215  2.2964 -1.8155  1.6822
  130MPD2    N1 2032   2.968   1.572   1.091 -0.4404 -0.3147  0.0250
  130MPD2    H7 2033   2.973   1.624   1.178 -0.4047 -1.8789  0.9581
  131TMC2    C1 2034   2.218   0.758  10.242  0.9741 -0.5244 -0.1851
  131TMC2    C2 2035   2.314   0.809  10.327 -0.6325 -0.1325  0.9194
  131TMC2    C3 2036   2.331   0.947  10.329 -0.3914  0.6748 -0.3528
  131TMC2    C4 2037   2.160   0.836  10.142 -0.0568  0.8053 -0.3292
  131TMC2    C5 2038   2.194   0.968  10.138  0.6036  0.4306  0.2494
  131TMC2    C6 2039   2.281   1.030  10.232  0.1174  0.2324 -0.9157
  131TMC2     C 2040   2.187   0.616  10.263  0.4678 -0.3453 -0.3378
  131TMC2     O 2041   2.285   0.545  10.295  0.5834  0.2882 -0.7062
  131TMC2     H 2042   2.372   0.752  10.398  0.3249 -0.7471 -0.3409
  131TMC2    H1 2043   2.108   0.782  10.064  0.0908  0.1670  0.0115
  131TMC2    H2 2044   2.306   1.135  10.222 -0.6733  0.5452  0.3981
  131TMC2    C7 2045   2.168   1.041  10.011  0.5205 -0.1699 -0.3349
  131TMC2    C8 2046   2.417   0.996  10.430 -0.4194 -0.2767 -0.7743
  131TMC2    O1 2047   2.138   0.971   9.916 -0.0387 -0.0838 -0.0567
  131TMC2    O2 2048   2.494   0.925  10.495 -0.0921 -0.3634  0.2772
  131TMC2    O5 2049   2.412   1.130  10.436  0.0875  0.4053 -0.5625
  131TMC2    H5 2050   2.320   1.163  10.440  0.7708  2.2535 -0.3651
  132MPD2     C 2051   1.848   0.488  10.294 -0.1926  0.2210 -0.6802
  132MPD2    C1 2052   1.982   0.474  10.284 -0.4541 -0.0644  0.4472
  132MPD2    C2 2053   2.034   0.348  10.314  0.0899 -0.3916 -0.7634
  132MPD2    C3 2054   1.949   0.233  10.317 -0.1963 -0.5640 -0.0916
  132MPD2    C4 2055   1.817   0.253  10.319  0.5401  0.2199 -0.1711
  132MPD2    C5 2056   1.764   0.381  10.316  0.0264 -0.5234  0.6669
  132MPD2     H 2057   2.141   0.330  10.321  0.1728  0.5280  0.4167
  132MPD2    H1 2058   1.748   0.174  10.349 -0.0134  0.5296 -0.6319
  132MPD2    H2 2059   1.796   0.583  10.291  0.4099  0.6892  3.7932
  132MPD2    H3 2060   1.657   0.396  10.333 -0.0170  0.8540 -0.7756
  132MPD2     N 2061   1.999   0.104  10.321 -0.0130  0.3726 -0.1465
  132MPD2    H5 2062   2.094   0.092  10.354  0.0328 -0.8844 -0.7073
  132MPD2    N1 2063   2.052   0.594  10.261 -0.4027  0.0765 -0.9131
  132MPD2    H7 2064   2.000   0.680  10.262 -0.2598  0.1451  0.1060
  133TMC2    C1 2065   4.554   2.385   9.565  0.8643 -0.1976  0.1824
  133TMC2    C2 2066   4.556   2.422   9.431 -0.3294  0.4732 -0.1570
  133TMC2    C3 2067   4.441   2.474   9.384 -0.1759  0.8055  0.4878
  133TMC2    C4 2068   4.457   2.428   9.649  0.1356  0.1119 -0.0214
  133TMC2    C5 2069   4.359   2.503   9.600  0.0982  0.6085  0.4551
  133TMC2    C6 2070   4.345   2.525   9.464  0.1675  0.1260 -0.4504
  133TMC2     C 2071   4.672   2.313   9.615  0.1853  0.9405 -0.2690
  133TMC2     O 2072   0.023   2.279   9.531  0.2432 -0.1772  0.0024
  133TMC2     H 2073   4.629   2.392   9.357  0.0984  0.7255  0.1641
  133TMC2    H1 2074   4.474   2.425   9.756  0.2749  0.3222 -0.0368
  133TMC2    H2 2075   4.263   2.582   9.422  0.5243  1.0923  0.1674
  133TMC2    C7 2076   4.234   2.527   9.679 -0.2180 -0.6765 -0.2634
  133TMC2    C8 2077   4.419   2.487   9.240  0.3444  0.0679  0.7407
  133TMC2    O1 2078   4.174   2.631   9.657  0.4493  0.5951  0.2567
  133TMC2    O2 2079   4.503   2.535   9.165 -0.1576  0.1777  0.5313
  133TMC2    O5 2080   4.285   2.481   9.207 -0.2216  0.3915 -0.3796
  133TMC2    H5 2081   4.226   2.454   9.281  1.3879  0.1027  0.7961
  134MPD2     C 2082   0.027   2.205   9.966  0.2695 -0.4367  0.5777
  134MPD2    C1 2083   0.041   2.220   9.826  0.2824 -0.1869 -0.2676
  134MPD2    C2 2084   0.137   2.138   9.769  0.6322  0.2752  0.4206
  134MPD2    C3 2085   0.220   2.045   9.839  0.5493  0.1987  0.9170
  134MPD2    C4 2086   0.204   2.040   9.978  0.0573 -0.0004  0.6608
  134MPD2    C5 2087   0.106   2.119  10.036  0.7537 -0.2855 -0.1705
  134MPD2     H 2088   0.150   2.142   9.662  0.5408  1.4846  0.4580
  134MPD2    H1 2089   0.271   1.984  10.043  1.5673  1.8655  0.7300
  134MPD2    H2 2090   4.704   2.275  10.028 -0.1519 -0.2148 -0.0455
  134MPD2    H3 2091   0.106   2.123  10.145 -1.1846  0.9498 -0.2242
  134MPD2     N 2092   0.323   1.962   9.780  0.7354 -0.2907  0.0239
  134MPD2    H5 2093   0.375   1.901   9.841  0.8709 -0.8468 -0.6424
  134MPD2    N1 2094   4.685   2.315   9.756  0.0202 -0.1733 -0.6670
  134MPD2    H7 2095   4.617   2.358   9.818 -0.2104 -0.2249 -0.8796
  135TMC2    C1 2096   3.456   2.647   9.467 -0.6133 -0.1586  0.3680
  135TMC2    C2 2097   3.386   2.717   9.561  0.0957 -0.4982 -0.2819
  135TMC2    C3 2098   3.269   2.660   9.601 -0.0759  0.1423  0.1231
  135TMC2    C4 2099   3.420   2.525   9.422  0.7066 -0.2815  0.7947
  135TMC2    C5 2100   3.311   2.468   9.476  0.0231 -0.2846 -0.0980
  135TMC2    C6 2101   3.228   2.537   9.563 -0.8794 -0.1767 -0.6583
  135TMC2     C 2102   3.564   2.715   9.401  0.2467  0.4266  0.1898
  135TMC2     O 2103   3.575   2.839   9.414  0.5402 -0.4478  0.1366
  135TMC2     H 2104   3.422   2.815   9.592 -1.2086 -0.0713 -0.1382
  135TMC2    H1 2105   3.480   2.464   9.355  0.0156  2.0874 -1.9805
  135TMC2    H2 2106   3.131   2.503   9.598 -1.7197  0.6919 -2.1555
  135TMC2    C7 2107   3.266   2.338   9.431 -0.0520  0.3357 -0.4500
  135TMC2    C8 2108   3.193   2.745   9.698 -0.8523  0.0071 -0.5683
  135TMC2    O1 2109   3.341   2.297   9.340 -0.4616  0.0611  0.4501
  135TMC2    O2 2110   3.127   2.690   9.783  0.1204 -0.0175 -0.2322
  135TMC2    O5 2111   3.241   2.875   9.702 -0.2067 -0.8393  0.0736
  135TMC2    H5 2112   3.274   2.902   9.614 -1.4611  0.2570 -0.0579
  136MPD2     C 2113   3.836   2.774   9.297 -0.0056 -0.0913 -0.1144
  136MPD2    C1 2114   3.764   2.662   9.268  0.1270  0.9995  0.1480
  136MPD2    C2 2115   3.811   2.562   9.183  0.5165  0.0386  0.4650
  136MPD2    C3 2116   3.933   2.574   9.115  0.3322 -0.1886 -0.3687
  136MPD2    C4 2117   4.014   2.680   9.154  0.5117 -0.3273  0.5625
  136MPD2    C5 2118   3.958   2.777   9.232 -0.4353 -0.4296 -0.4451
  136MPD2     H 2119   3.749   2.474   9.167  0.1219  0.5753 -0.9879
  136MPD2    H1 2120   4.106   2.699   9.100  0.3860  2.1460  1.2435
  136MPD2    H2 2121   3.793   2.853   9.358  0.3166 -0.4598  0.5900
  136MPD2    H3 2122   4.018   2.866   9.252 -1.5501  0.3662 -0.6487
  136MPD2     N 2123   3.977   2.489   9.015  0.1802  0.3868  0.5316
  136MPD2    H5 2124   4.073   2.501   8.984  0.0852  0.8043  0.4024
  136MPD2    N1 2125   3.650   2.630   9.335  0.6025  0.2691 -0.1786
  136MPD2    H7 2126   3.621   2.533   9.330 -0.7053  0.7423 -2.0511
  137TMC2    C1 2127   2.778   1.941   9.064 -0.2064 -0.2041  0.1347
  137TMC2    C2 2128   2.791   1.992   8.939 -0.9940 -0.8396 -0.7166
  137TMC2    C3 2129   2.825   2.127   8.926  0.7052  0.4301  0.2022
  137TMC2    C4 2130   2.756   2.031   9.168  0.0535  0.1671  0.3782
  137TMC2    C5 2131   2.787   2.161   9.154 -0.3992 -0.0170 -0.2851
  137TMC2    C6 2132   2.824   2.214   9.031  0.0856  0.5260 -0.1125
  137TMC2     C 2133   2.745   1.800   9.086 -0.1086  1.0795  0.1668
  137TMC2     O 2134   2.734   1.773   9.208  0.0869 -0.9288 -0.3399
  137TMC2     H 2135   2.826   1.936   8.853  0.4435 -0.6027 -0.2947
  137TMC2    H1 2136   2.750   1.988   9.268  0.4733  1.4220  0.9491
  137TMC2    H2 2137   2.835   2.321   9.016  1.1507  0.3182 -0.7775
  137TMC2    C7 2138   2.781   2.257   9.272  0.1344 -0.2679  0.8837
  137TMC2    C8 2139   2.840   2.180   8.796  0.4420 -0.7073  0.1797
  137TMC2    O1 2140   2.842   2.359   9.268  0.0232 -0.0245 -0.4454
  137TMC2    O2 2141   2.818   2.109   8.697  0.6132  0.1115  0.2053
  137TMC2    O5 2142   2.899   2.299   8.796  0.7349 -0.1375 -0.4337
  137TMC2    H5 2143   2.955   2.309   8.875 -0.7512 -2.5846  0.9199
  138MPD2     C 2144   2.656   1.537   8.840  0.0409 -0.0908 -0.0803
  138MPD2    C1 2145   2.693   1.597   8.963 -0.0898  0.2392 -0.2038
  138MPD2    C2 2146   2.701   1.515   9.073  0.8737 -0.3237  0.6823
  138MPD2    C3 2147   2.667   1.381   9.071 -0.1496  0.5342 -0.0120
  138MPD2    C4 2148   2.634   1.321   8.952 -0.6160  0.0521 -0.2964
  138MPD2    C5 2149   2.628   1.402   8.840 -0.7164  0.3861 -0.0165
  138MPD2     H 2150   2.744   1.552   9.166 -1.9661  1.7763  1.1441
  138MPD2    H1 2151   2.621   1.215   8.935 -2.2941  0.3820 -1.1578
  138MPD2    H2 2152   2.648   1.592   8.747 -0.9663 -0.8364 -0.4388
  138MPD2    H3 2153   2.623   1.350   8.745 -1.0700  1.1151 -0.3958
  138MPD2     N 2154   2.687   1.303   9.186  0.1603 -0.0182 -0.6970
  138MPD2    H5 2155   2.729   1.353   9.264  0.1888 -1.2386  0.0723
  138MPD2    N1 2156   2.718   1.735   8.967  0.3217 -0.0003 -0.5483
  138MPD2    H7 2157   2.716   1.782   8.877 -1.0251 -1.3607 -1.2233
  139TMC2    C1 2158   3.756   3.757  13.260  0.1559 -0.5785  0.1315
  139TMC2    C2 2159   3.744   3.793  13.131 -0.6650 -0.3997  0.2163
  139TMC2    C3 2160   3.659   3.891  13.103 -0.2254 -0.2311  0.0283
  139TMC2    C4 2161   3.694   3.822  13.362 -0.5343 -0.4646 -0.0981
  139TMC2    C5 2162   3.595   3.913  13.325  0.2874 -0.0521 -0.1166
  139TMC2    C6 2163   3.578   3.946  13.195  0.5150  0.2801  1.1970
  139TMC2     C 2164   3.835   3.638  13.275 -0.1181 -0.0600  0.3578
  139TMC2     O 2165   3.902   3.603  13.176  0.6466  0.2659 -0.2934
  139TMC2     H 2166   3.796   3.749  13.047 -2.0964 -0.0393 -0.8710
  139TMC2    H1 2167   3.719   3.802  13.466 -1.3765 -0.3008  0.1391
  139TMC2    H2 2168   3.500   4.016  13.166  0.7544  0.0783  0.0749
  139TMC2    C7 2169   3.526   3.996  13.418  0.2799 -0.0378  0.1099
  139TMC2    C8 2170   3.664   3.937  12.969 -0.2793 -0.2436 -0.1057
  139TMC2    O1 2171   3.462   4.090  13.374  0.1909  0.5113 -0.6758
  139TMC2    O2 2172   3.644   3.862  12.873 -0.2592 -0.3963  0.1531
  139TMC2    O5 2173   3.609   4.059  12.987 -0.4903  0.5174  0.1166
  139TMC2    H5 2174   3.642   4.095  13.072 -1.2391  0.6876  0.3414
  140MPD2     C 2175   3.911   3.438  13.579 -0.5911 -0.4397 -0.8268
  140MPD2    C1 2176   3.931   3.484  13.451 -0.4898  0.5411 -0.8809
  140MPD2    C2 2177   4.040   3.441  13.375  0.6978  0.2551  0.0213
  140MPD2    C3 2178   4.135   3.351  13.425 -1.0766  0.0155 -0.1090
  140MPD2    C4 2179   4.119   3.307  13.550 -0.1146 -0.6904  0.2755
  140MPD2    C5 2180   4.007   3.347  13.626  0.5325  0.3781  0.5250
  140MPD2     H 2181   4.055   3.479  13.274  2.0994  1.3377  0.6347
  140MPD2    H1 2182   4.189   3.240  13.600 -0.4430 -0.3756  1.1632
  140MPD2    H2 2183   3.837   3.463  13.654  0.0956  0.4161 -0.4236
  140MPD2    H3 2184   4.002   3.303  13.725 -2.8327 -0.3814  0.0268
  140MPD2     N 2185   4.238   3.309  13.338  0.4418 -0.0168 -0.5935
  140MPD2    H5 2186   4.241   3.353  13.246 -1.9739  1.1412 -0.1174
  140MPD2    N1 2187   3.844   3.586  13.405 -0.1405  0.5226 -0.0650
  140MPD2    H7 2188   3.782   3.620  13.478  0.3539  0.3892  0.4114
  141TMC2    C1 2189   0.098   0.258  14.239 -0.7556 -0.1065 -0.0786
  141TMC2    C2 2190   0.177   0.239  14.350 -0.0783 -0.1757  0.0339
  141TMC2    C3 2191   0.271   0.332  14.380 -0.1324  0.1135  0.4595
  141TMC2    C4 2192   0.112   0.365  14.154 -0.2019  0.2164  0.3745
  141TMC2    C5 2193   0.202   0.458  14.193  0.5663  0.3511 -0.0819
  141TMC2    C6 2194   0.284   0.443  14.300 -0.4870  1.0764  0.1210
  141TMC2     C 2195   0.016   0.148  14.189 -0.4361 -0.0723  0.3512
  141TMC2     O 2196   4.731   0.152  14.067  0.5105  0.4601 -0.0262
  141TMC2     H 2197   0.181   0.149  14.409  2.8743  1.5034  2.4029
  141TMC2    H1 2198   0.038   0.379  14.076  0.0837 -1.2326 -0.1545
  141TMC2    H2 2199   0.371   0.505  14.320  0.8506 -0.1819 -1.8608
  141TMC2    C7 2200   0.165   0.586  14.144 -0.6178  0.4542 -0.0184
  141TMC2    C8 2201   0.390   0.287  14.448 -0.7573  0.1522  0.0632
  141TMC2    O1 2202   0.098   0.590  14.042 -0.2947  0.9205  0.3090
  141TMC2    O2 2203   0.420   0.166  14.440  0.3091 -1.0085  0.4000
  141TMC2    O5 2204   0.390   0.368  14.558 -0.2320  0.1249  0.2807
  141TMC2    H5 2205   0.313   0.428  14.556 -1.2099 -1.0964  1.0176
  142TMC2    C1 2206   2.176   0.069   9.979  0.5163 -0.0788 -0.3913
  142TMC2    C2 2207   2.107   0.173   9.939  0.2961 -0.6055 -0.2582
  142TMC2    C3 2208   2.169   0.295   9.964 -0.1158  0.4940  0.3011
  142TMC2    C4 2209   2.285   0.080  10.072  0.5283  0.1207 -0.0183
  142TMC2    C5 2210   2.326   0.204  10.108 -0.3676  0.1595 -0.0478
  142TMC2    C6 2211   2.275   0.315  10.046 -0.2265  0.1886 -0.0201
  142TMC2     C 2212   2.122   4.669   9.951  0.3997  0.0072 -1.0351
  142TMC2     O 2213   2.009   4.666   9.907  0.4822 -0.3018  0.1645
  142TMC2     H 2214   2.034   0.166   9.859  0.3832 -0.1632 -0.3764
  142TMC2    H1 2215   2.339   4.726  10.107 -0.9956 -1.5251 -1.6910
  142TMC2    H2 2216   2.303   0.418  10.062 -0.4835  0.2410  0.0881
  142TMC2    C7 2217   2.441   0.213  10.191  0.5208 -0.4808  0.2334
  142TMC2    C8 2218   2.091   0.407   9.918 -0.4411  0.7015 -0.0654
  142TMC2    O1 2219   2.510   0.115  10.207 -0.2445 -0.3048 -0.5732
  142TMC2    O2 2220   2.150   0.514   9.899  0.1135 -0.4889  0.0953
  142TMC2    O5 2221   1.957   0.390   9.947 -0.1517  0.3376  0.7840
  142TMC2    H5 2222   1.921   0.300   9.961  0.9235 -0.2630 -0.3353
  143MPD2     C 2223   2.157   4.177  10.072  0.6968 -0.1414 -0.2101
  143MPD2    C1 2224   2.045   4.247  10.043 -0.3133 -0.5126 -0.0020
  143MPD2    C2 2225   2.063   4.379   9.995 -0.2259  0.1437 -0.8416
  143MPD2    C3 2226   2.193   4.439   9.994 -0.1568 -0.2091 -0.3943
  143MPD2    C4 2227   2.301   4.361  10.013  0.5137  0.1647  0.1174
  143MPD2    C5 2228   2.281   4.231  10.049  0.0716 -0.1970 -0.3579
  143MPD2     H 2229   1.982   4.446   9.967 -0.8400  0.6397  2.1049
  143MPD2    H1 2230   2.401   4.398   9.992  1.0549 -0.5691  1.3953
  143MPD2    H2 2231   2.162   4.069  10.081  1.8452  0.1528  2.5995
  143MPD2    H3 2232   2.366   4.166  10.066  1.3929  1.7078  0.2349
  143MPD2     N 2233   2.215   4.571   9.966  0.0066 -0.2413  0.0779
  143MPD2    H5 2234   2.309   4.607   9.977 -0.5899  0.4836  2.7592
  143MPD2    N1 2235   1.924   4.177  10.049  0.6886  0.3435 -0.4616
  143MPD2    H7 2236   1.927   4.077  10.065  1.1445  0.1625 -1.7252
  144TMC2    C1 2237   0.523   3.093   1.016  0.1343 -0.3035 -0.0417
  144TMC2    C2 2238   0.606   2.985   0.991 -0.1842  0.4380 -0.2072
  144TMC2    C3 2239   0.691   2.948   1.088  0.5688 -0.0759  0.1965
  144TMC2    C4 2240   0.546   3.170   1.127  0.3324  0.2176  0.4615
  144TMC2    C5 2241   0.641   3.131   1.215  0.0687  0.1799 -0.9208
  144TMC2    C6 2242   0.717   3.021   1.198 -0.2147  0.0881  0.4208
  144TMC2     C 2243   0.431   3.122   0.913 -0.1830 -0.3358  0.1324
  144TMC2     O 2244   0.463   3.071   0.806 -0.1262 -0.0895 -0.3506
  144TMC2     H 2245   0.597   2.929   0.898 -1.7366 -1.7336  1.2506
  144TMC2    H1 2246   0.486   3.258   1.146 -0.9942 -0.6772  0.4214
  144TMC2    H2 2247   0.790   2.992   1.273 -0.7321 -1.1683  0.4305
  144TMC2    C7 2248   0.643   3.207   1.341  0.0703 -0.3296  0.5207
  144TMC2    C8 2249   0.778   2.835   1.071  0.3936  0.0530 -0.3801
  144TMC2    O1 2250   0.695   3.150   1.435 -0.8147 -0.2882  0.0145
  144TMC2    O2 2251   0.890   2.827   1.116  0.6111 -0.7821 -0.4503
  144TMC2    O5 2252   0.716   2.742   1.003  0.3884 -0.4368 -0.0285
  144TMC2    H5 2253   0.625   2.759   0.971 -0.1835 -1.5465  1.0178
  145MPD2     C 2254   0.046   3.337   0.669 -0.9429  0.5477  0.2214
  145MPD2    C1 2255   0.113   3.215   0.657 -0.2497 -0.6844 -0.0846
  145MPD2    C2 2256   0.196   3.168   0.763 -0.6291 -0.5334 -0.1147
  145MPD2    C3 2257   0.232   3.257   0.865  0.4509 -0.3355  0.0745
  145MPD2    C4 2258   0.172   3.378   0.874 -0.4616  0.2083 -0.2332
  145MPD2    C5 2259   0.075   3.416   0.781 -0.8528  0.3523 -0.3261
  145MPD2     H 2260   0.231   3.066   0.756  0.3449 -0.2497  0.6037
  145MPD2    H1 2261   0.195   3.451   0.951 -1.1922  2.2530 -1.9354
  145MPD2    H2 2262   4.712   3.372   0.590 -0.0228  0.7268 -0.4648
  145MPD2    H3 2263   0.047   3.520   0.793  0.5868  0.6034  0.8878
  145MPD2     N 2264   0.343   3.227   0.941  0.3908 -0.3976 -1.4354
  145MPD2    H5 2265   0.354   3.277   1.028  0.3047  0.4944 -1.9414
  145MPD2    N1 2266   0.092   3.122   0.558 -0.3691  0.2512  0.1703
  145MPD2    H7 2267   0.146   3.036   0.565  0.5462  0.6600 -1.9836
  146TMC2    C1 2268   1.494   1.614  12.916 -0.0616 -0.2545 -0.3637
  146TMC2    C2 2269   1.413   1.663  12.813  0.0445  0.4008  0.3224
  146TMC2    C3 2270   1.482   1.703  12.700  0.1305  0.2350  0.2047
  146TMC2    C4 2271   1.628   1.606  12.907  0.2840  0.8884  0.1254
  146TMC2    C5 2272   1.687   1.658  12.793  0.2664  0.1893  0.3782
  146TMC2    C6 2273   1.615   1.710  12.690  0.8237  0.5299  0.3787
  146TMC2     C 2274   1.446   1.627  13.050 -0.2913  0.1586 -0.3018
  146TMC2     O 2275   1.374   1.723  13.071 -0.0464 -0.0401 -0.1163
  146TMC2     H 2276   1.306   1.658  12.826 -0.0785  0.2639 -0.7853
  146TMC2    H1 2277   1.691   1.572  12.988 -1.4721 -2.3287  0.1385
  146TMC2    H2 2278   1.657   1.759  12.602 -1.9443  2.2566  0.0242
  146TMC2    C7 2279   1.829   1.650  12.769 -0.2902  0.4893 -0.6593
  146TMC2    C8 2280   1.400   1.727  12.583 -0.0942  0.1771  0.3651
  146TMC2    O1 2281   1.878   1.743  12.705 -0.1386 -0.1322  0.1183
  146TMC2    O2 2282   1.424   1.814  12.501 -0.3472 -0.3831  0.0107
  146TMC2    O5 2283   1.316   1.624  12.573 -0.3383 -0.0232  0.1888
  146TMC2    H5 2284   1.340   1.536  12.610 -2.3287 -1.2726 -1.5597
  147MPD2     C 2285   2.300   1.501  12.929  0.5084 -0.0095  0.2145
  147MPD2    C1 2286   2.200   1.437  13.004 -0.4747  0.5292 -0.5026
  147MPD2    C2 2287   2.066   1.463  12.980  0.3748 -0.0222  0.0633
  147MPD2    C3 2288   2.031   1.536  12.870 -0.2871  0.1825  0.4037
  147MPD2    C4 2289   2.130   1.593  12.788 -0.1501 -0.7125  0.1021
  147MPD2    C5 2290   2.261   1.577  12.825 -0.5639 -0.0770  0.6736
  147MPD2     H 2291   1.994   1.425  13.052  0.5027  0.5332  0.4835
  147MPD2    H1 2292   2.105   1.644  12.695 -0.5060 -0.0907  0.5330
  147MPD2    H2 2293   2.404   1.473  12.940  0.1633 -1.2775  0.2351
  147MPD2    H3 2294   2.343   1.624  12.772 -0.1543  0.3897  1.7180
  147MPD2     N 2295   1.891   1.559  12.851 -0.2810  0.0025  0.2563
  147MPD2    H5 2296   1.831   1.504  12.911 -1.2729  2.8813  1.8620
  147MPD2    N1 2297   2.245   1.352  13.104  0.4961 -0.0615  0.3258
  147MPD2    H7 2298   2.343   1.334  13.120 -0.0340 -0.8491  2.7790
  148TMC2    C1 2299   2.346   0.441  10.636 -1.1983  1.0558  1.1629
  148TMC2    C2 2300   2.472   0.454  10.691  1.2173 -0.5867  0.1393
  148TMC2    C3 2301   2.559   0.351  10.673  0.1754 -0.2658  0.6787
  148TMC2    C4 2302   2.314   0.332  10.560  0.4128 -0.6385 -0.2609
  148TMC2    C5 2303   2.402   0.227  10.562 -0.7325  0.1957  0.6089
  148TMC2    C6 2304   2.519   0.237  10.615 -0.2388 -0.5201  0.1355
  148TMC2     C 2305   2.263   0.555  10.633 -0.1308  0.0332 -0.1798
  148TMC2     O 2306   2.317   0.667  10.640  0.0994  1.2510 -0.0155
  148TMC2     H 2307   2.488   0.548  10.744  1.1974 -0.9545  0.7982
  148TMC2    H1 2308   2.220   0.319  10.507  0.4945  1.9326 -1.0716
  148TMC2    H2 2309   2.589   0.156  10.598  0.9081  0.6142 -0.5382
  148TMC2    C7 2310   2.334   0.103  10.565  0.1789  0.0848 -0.1835
  148TMC2    C8 2311   2.682   0.352  10.746 -0.0977  0.1169  0.1208
  148TMC2    O1 2312   2.234   0.096  10.494  0.4894 -0.1299  0.8698
  148TMC2    O2 2313   2.745   0.252  10.769  0.1263 -0.3640 -0.6930
  148TMC2    O5 2314   2.735   0.478  10.765 -0.4398 -0.8615 -0.1078
  148TMC2    H5 2315   2.695   0.556  10.720 -1.3784 -0.9005  0.6497
  149MPD2     C 2316   2.011   0.733  10.619  0.3427  0.0046  0.7597
  149MPD2    C1 2317   2.016   0.597  10.617 -0.4555  0.1271 -0.1417
  149MPD2    C2 2318   1.901   0.519  10.619  0.5578 -1.0185 -0.2084
  149MPD2    C3 2319   1.774   0.573  10.617  0.0065 -0.5042  0.1151
  149MPD2    C4 2320   1.770   0.709  10.635  0.5042  0.1162  0.3306
  149MPD2    C5 2321   1.886   0.785  10.624 -0.5375 -0.6246 -0.3692
  149MPD2     H 2322   1.904   0.411  10.613  0.8871 -0.8737 -2.7446
  149MPD2    H1 2323   1.668   0.745  10.642 -0.8674 -3.2743 -2.2603
  149MPD2    H2 2324   2.095   0.798  10.597 -0.0608  0.8781  1.7751
  149MPD2    H3 2325   1.870   0.892  10.613 -0.8598 -0.5497  0.8618
  149MPD2     N 2326   1.651   0.499  10.627  0.1518 -0.4527  0.2414
  149MPD2    H5 2327   1.565   0.550  10.607  0.3603 -1.0772 -2.2620
  149MPD2    N1 2328   2.131   0.516  10.619  0.0845  0.2832  0.1783
  149MPD2    H7 2329   2.110   0.417  10.604  2.5442  0.1747 -2.4540
  150TMC2    C1 2330   3.869   4.367  12.062  0.5688  0.6944  0.2232
  150TMC2    C2 2331   3.838   4.487  12.000  0.5675  0.1117 -0.1265
  150TMC2    C3 2332   3.935   4.574  11.962  0.2985 -0.0387 -0.0657
  150TMC2    C4 2333   3.997   4.340  12.089  1.0214 -0.2692 -0.1504
  150TMC2    C5 2334   4.093   4.432  12.054 -0.0998 -0.6722  0.7686
  150TMC2    C6 2335   4.067   4.553  11.994  0.6633  0.0445  0.1283
  150TMC2     C 2336   3.760   4.265  12.061  0.1162 -0.5006  0.1776
  150TMC2     O 2337   3.799   4.151  12.054 -0.1557 -0.4190  0.1866
  150TMC2     H 2338   3.734   4.512  11.980  1.1204  2.1977 -0.4377
  150TMC2    H1 2339   4.022   4.246  12.138  1.0482 -1.3589 -2.2595
  150TMC2    H2 2340   4.144   4.630  11.991  1.0564 -0.3664 -0.2214
  150TMC2    C7 2341   4.230   4.411  12.095 -0.0118  0.1796  0.2799
  150TMC2    C8 2342   3.906   4.718  11.943 -0.5334  0.1170  0.1492
  150TMC2    O1 2343   4.318   4.472  12.036 -0.2881  0.0031 -0.2494
  150TMC2    O2 2344   3.977   0.080  11.975 -0.0955  0.5668 -0.3282
  150TMC2    O5 2345   3.789   4.731  11.882  0.4253 -0.7567 -0.2826
  150TMC2    H5 2346   3.766   4.650  11.832  3.1192 -2.3606  1.0482
  151MPD2     C 2347   3.293   4.058  12.032  0.6294  0.5204 -0.3594
  151MPD2    C1 2348   3.278   4.185  12.093  0.3705  0.1615  0.5729
  151MPD2    C2 2349   3.401   4.261  12.102 -0.1607 -0.2294 -0.0130
  151MPD2    C3 2350   3.521   4.215  12.062 -0.6424  0.4026 -0.3541
  151MPD2    C4 2351   3.531   4.094  12.003  0.4307 -0.6088 -0.6153
  151MPD2    C5 2352   3.416   4.016  12.002 -0.5479 -0.1852 -0.4731
  151MPD2     H 2353   3.406   4.363  12.137 -1.0924  0.4464 -1.8563
  151MPD2    H1 2354   3.624   4.053  11.966  0.0044 -1.0139 -1.2251
  151MPD2    H2 2355   3.213   4.003  11.984  0.1681  1.3703 -0.5545
  151MPD2    H3 2356   3.428   3.918  11.956 -0.7430 -0.9818  1.1738
  151MPD2     N 2357   3.632   4.299  12.087  0.0179  0.4769  0.5296
  151MPD2    H5 2358   3.618   4.391  12.125  0.8215  2.1624 -3.2245
  151MPD2    N1 2359   3.148   4.237  12.118  0.4497  0.0785 -0.0608
  151MPD2    H7 2360   3.062   4.186  12.098 -1.0461  1.9331  1.5910
  152TMC2    C1 2361   3.104   4.109  12.891  0.8040 -0.0668  0.2994
  152TMC2    C2 2362   3.159   3.982  12.861 -0.4014  0.4310 -0.2843
  152TMC2    C3 2363   3.287   3.973  12.807 -0.5179 -0.1103  0.6142
  152TMC2    C4 2364   3.180   4.219  12.864  0.0028 -0.0276 -0.0833
  152TMC2    C5 2365   3.305   4.204  12.818 -1.0260 -0.2895 -0.5693
  152TMC2    C6 2366   3.367   4.084  12.791 -0.0160  0.1227  0.1352
  152TMC2     C 2367   2.967   4.137  12.938 -0.1079  0.6090 -0.0184
  152TMC2     O 2368   2.939   4.253  12.953  0.1709  0.2961  0.5322
  152TMC2     H 2369   3.085   3.903  12.857  0.6869 -0.6218  0.4136
  152TMC2    H1 2370   3.159   4.312  12.916 -0.2787 -0.6886  0.9944
  152TMC2    H2 2371   3.454   4.070  12.729 -1.1023 -0.7473 -1.2104
  152TMC2    C7 2372   3.391   4.318  12.809 -0.4688  0.3459  0.0780
  152TMC2    C8 2373   3.308   3.873  12.702 -0.4532 -0.4445  0.2836
  152TMC2    O1 2374   3.336   4.424  12.803 -0.5475 -0.2574  0.0566
  152TMC2    O2 2375   3.384   3.894  12.609  0.1732 -0.0092 -0.5849
  152TMC2    O5 2376   3.257   3.755  12.742  0.4241 -0.0884 -0.4669
  152TMC2    H5 2377   3.198   3.756  12.820 -0.3121 -2.3764 -0.9940
  153MPD2     C 2378   2.713   3.919  13.079  0.4300 -0.2629  0.0538
  153MPD2    C1 2379   2.764   4.028  13.021  0.9011  0.3739 -0.3740
  153MPD2    C2 2380   2.684   4.135  13.009  0.1480  0.4648  0.2275
  153MPD2    C3 2381   2.556   4.137  13.061 -0.3692 -0.4911  0.5764
  153MPD2    C4 2382   2.502   4.028  13.124 -0.3187  0.3623 -0.3149
  153MPD2    C5 2383   2.592   3.925  13.137 -0.4009 -0.5855  1.0746
  153MPD2     H 2384   2.713   4.220  12.948 -0.6035  0.2240 -0.4689
  153MPD2    H1 2385   2.409   4.017  13.178  0.3729  0.2434  0.8629
  153MPD2    H2 2386   2.775   3.832  13.094  1.1451  0.4584  1.2674
  153MPD2    H3 2387   2.563   3.851  13.211  1.1651 -2.2213  0.0529
  153MPD2     N 2388   2.472   4.247  13.027 -0.1560  0.7348  0.6181
  153MPD2    H5 2389   2.503   4.313  12.957  2.9913 -1.4704 -0.0744
  153MPD2    N1 2390   2.898   4.021  12.972  0.7418  0.1297  0.0243
  153MPD2    H7 2391   2.942   3.930  12.982  3.5249  1.7319  2.1838
  154TMC2    C1 2392   0.430   4.202   0.472  0.4124  1.3374  0.0234
  154TMC2    C2 2393   0.504   4.147   0.574 -0.4158 -0.2021  0.2280
  154TMC2    C3 2394   0.598   4.051   0.544 -0.6478  0.3419  0.0332
  154TMC2    C4 2395   0.444   4.163   0.341 -0.3302 -0.2973  0.4580
  154TMC2    C5 2396   0.545   4.073   0.315  0.3040  0.0584 -0.6102
  154TMC2    C6 2397   0.619   4.009   0.414 -0.0201 -0.9816  0.2972
  154TMC2     C 2398   0.324   4.297   0.509 -0.1523 -0.5829 -0.3617
  154TMC2     O 2399   0.340   4.351   0.621 -0.3089  0.0102  0.2369
  154TMC2     H 2400   0.473   4.177   0.674 -1.1159  2.1470 -0.6776
  154TMC2    H1 2401   0.397   4.229   0.269 -0.8137 -0.0901  0.9608
  154TMC2    H2 2402   0.692   3.939   0.374  1.6471  0.3593  1.0333
  154TMC2    C7 2403   0.605   4.094   0.184 -0.2914  0.6159  0.0432
  154TMC2    C8 2404   0.663   3.982   0.656 -0.2157  0.1354  0.1449
  154TMC2    O1 2405   0.614   4.000   0.107 -0.1138  0.4260 -0.4394
  154TMC2    O2 2406   0.656   4.038   0.764  0.2430  0.4027 -0.3594
  154TMC2    O5 2407   0.656   3.845   0.626  0.7289  0.1487  0.1252
  154TMC2    H5 2408   0.637   3.836   0.530 -1.2776 -0.9083  0.5971
  155MPD2     C 2409   0.029   4.380   0.310  0.1243  0.5441 -0.4689
  155MPD2    C1 2410   0.114   4.393   0.419 -0.0025 -0.3332 -0.5976
  155MPD2    C2 2411   0.092   4.488   0.517  0.2822 -0.0282  0.4326
  155MPD2    C3 2412   4.723   4.581   0.501 -0.4229  0.5144 -0.5509
  155MPD2    C4 2413   4.624   4.554   0.401  0.3241 -0.0476 -0.1213
  155MPD2    C5 2414   4.652   4.463   0.303  0.7293  0.6731  0.3205
  155MPD2     H 2415   0.172   4.497   0.590  1.1510  2.8256 -0.8496
  155MPD2    H1 2416   4.537   4.618   0.398  0.1946 -0.2891 -1.5256
  155MPD2    H2 2417   0.040   4.300   0.238  1.1237  1.9915 -1.9178
  155MPD2    H3 2418   4.570   4.447   0.234  0.9951  2.6440 -0.4572
  155MPD2     N 2419   4.713   4.686   0.594  0.1072 -0.2113 -0.0372
  155MPD2    H5 2420   0.048   4.690   0.670  0.4334  1.9002 -0.4387
  155MPD2    N1 2421   0.219   4.298   0.426  0.1639 -0.0164  0.6543
  155MPD2    H7 2422   0.222   4.224   0.356  0.2985 -0.5575  1.2282
  156TMC2    C1 2423   3.173   1.988  11.161 -0.0384  0.2791 -0.0309
  156TMC2    C2 2424   3.187   1.934  11.036 -0.3561 -0.2532  0.1187
  156TMC2    C3 2425   3.147   2.004  10.931 -0.2504 -0.3776 -0.2203
  156TMC2    C4 2426   3.097   2.097  11.183 -0.2185  0.0670  0.4198
  156TMC2    C5 2427   3.050   2.162  11.072  0.5664  0.0719  0.1244
  156TMC2    C6 2428   3.080   2.124  10.941 -0.0872 -0.0635  0.3776
  156TMC2     C 2429   3.228   1.908  11.270  0.2963  0.3507 -0.1100
  156TMC2     O 2430   3.332   1.842  11.256  0.1024  0.8140  0.2268
  156TMC2     H 2431   3.264   1.858  11.037 -2.1611 -2.0785  0.2351
  156TMC2    H1 2432   3.102   2.153  11.276 -0.6245 -2.7698  2.1533
  156TMC2    H2 2433   3.061   2.174  10.847 -0.6858 -0.8776  0.0605
  156TMC2    C7 2434   2.983   2.290  11.099  0.0817 -0.3767  0.2854
  156TMC2    C8 2435   3.186   1.944  10.809  0.1003  0.5179  0.2084
  156TMC2    O1 2436   2.981   2.370  11.009 -0.1946  0.2858  0.2657
  156TMC2    O2 2437   3.113   1.934  10.713 -0.2929 -0.0822  0.1451
  156TMC2    O5 2438   3.315   1.913  10.806 -0.2330 -0.2131 -0.0024
  156TMC2    H5 2439   3.359   1.962  10.878 -3.4886  1.2245  1.0025
  157MPD2     C 2440   3.073   1.838  11.595  0.2818 -0.2677  0.4746
  157MPD2    C1 2441   3.174   1.855  11.505  0.2815 -0.0051 -0.2796
  157MPD2    C2 2442   3.304   1.818  11.536  0.6223  0.5659  0.7307
  157MPD2    C3 2443   3.332   1.770  11.664 -0.2661 -0.1558  0.3992
  157MPD2    C4 2444   3.235   1.771  11.761 -0.8191  0.1634  0.5930
  157MPD2    C5 2445   3.108   1.798  11.721 -0.0396  0.5189  0.6848
  157MPD2     H 2446   3.388   1.819  11.467  1.6088 -2.4582  1.8662
  157MPD2    H1 2447   3.259   1.744  11.863  1.7298 -0.5013 -0.2010
  157MPD2    H2 2448   2.969   1.849  11.565  0.6704  1.7415 -0.1110
  157MPD2    H3 2449   3.030   1.782  11.794 -0.2526  0.9602  0.5522
  157MPD2     N 2450   3.460   1.725  11.692 -0.0926 -0.4222 -0.0664
  157MPD2    H5 2451   3.538   1.743  11.630  0.2395 -0.1086  0.4434
  157MPD2    N1 2452   3.139   1.906  11.374  0.6517  0.4862  0.2931
  157MPD2    H7 2453   3.045   1.944  11.366  0.5533 -0.1635 -1.6853
  158TMC2    C1 2454   4.348   0.381  13.262 -0.1755 -0.5507  0.0704
  158TMC2    C2 2455   4.410   0.391  13.144 -0.2358  0.5241  0.0691
  158TMC2    C3 2456   4.335   0.375  13.029  0.1730  0.1510  0.0367
  158TMC2    C4 2457   4.211   0.372  13.271  0.3689 -0.2798  0.5200
  158TMC2    C5 2458   4.140   0.378  13.158  0.1055  0.6494 -0.2667
  158TMC2    C6 2459   4.200   0.380  13.034  0.2778 -0.0290  0.0065
  158TMC2     C 2460   4.422   0.373  13.381 -0.1084  0.0468  0.5193
  158TMC2     O 2461   4.518   0.447  13.397  0.6336  0.0323  0.2526
  158TMC2     H 2462   4.512   0.428  13.141  0.3251 -0.9186  1.6401
  158TMC2    H1 2463   4.167   0.376  13.371  1.0927  3.2914  0.7258
  158TMC2    H2 2464   4.138   0.385  12.946 -0.0297  2.3082  0.3518
  158TMC2    C7 2465   3.998   0.408  13.156  0.3477 -0.1879  0.3234
  158TMC2    C8 2466   4.406   0.375  12.911  0.3523  0.0641 -0.0736
  158TMC2    O1 2467   3.952   0.430  13.045  0.7267 -0.0008  0.1331
  158TMC2    O2 2468   4.480   0.469  12.891  0.4650  0.3167 -0.5240
  158TMC2    O5 2469   4.331   0.304  12.825  0.0769 -0.2265  0.0589
  158TMC2    H5 2470   4.280   0.238  12.877  1.3093 -1.7825 -0.7172
  159MPD2     C 2471   4.464   0.200  13.857  0.0972 -0.2920  0.7028
  159MPD2    C1 2472   4.355   0.139  13.795  0.4000  0.3268  0.8831
  159MPD2    C2 2473   4.332   0.169  13.664  0.5759  0.3553  0.3783
  159MPD2    C3 2474   4.403   0.267  13.597  0.8372  0.2153  0.6606
  159MPD2    C4 2475   4.502   0.330  13.668 -0.7342  0.0333  0.2836
  159MPD2    C5 2476   4.544   0.287  13.790 -0.8077  0.3788 -0.6014
  159MPD2     H 2477   4.260   0.113  13.606  2.7508 -1.0879 -0.9269
  159MPD2    H1 2478   4.568   0.402  13.622 -0.3301 -0.5476 -0.0490
  159MPD2    H2 2479   4.486   0.167  13.957 -1.0246 -2.5062  0.2171
  159MPD2    H3 2480   4.640   0.321  13.828  0.6633  0.4542 -4.4045
  159MPD2     N 2481   4.362   0.285  13.466 -0.4679 -0.6099  0.1104
  159MPD2    H5 2482   4.284   0.228  13.433 -1.5210  2.0128 -1.9106
  159MPD2    N1 2483   4.271   0.057  13.872  0.9663 -0.3989  0.4930
  159MPD2    H7 2484   4.289   0.055  13.972 -2.3267 -0.2212  1.0931
  160TMC2    C1 2485   3.217   3.533   1.611 -0.6464  0.5555  0.1754
  160TMC2    C2 2486   3.181   3.409   1.584  0.3498 -0.5334 -0.8033
  160TMC2    C3 2487   3.277   3.311   1.591 -0.4481 -0.4605  0.3207
  160TMC2    C4 2488   3.343   3.569   1.633 -0.7520 -0.6386 -0.0814
  160TMC2    C5 2489   3.436   3.470   1.653  0.2072 -0.2196  0.2954
  160TMC2    C6 2490   3.403   3.343   1.626 -0.1513 -0.0228  0.2816
  160TMC2     C 2491   3.115   3.633   1.625 -0.4439 -0.0959  0.3413
  160TMC2     O 2492   3.146   3.748   1.596 -0.0955 -0.6598 -0.2048
  160TMC2     H 2493   3.078   3.390   1.556  0.5146 -0.6525 -1.3165
  160TMC2    H1 2494   3.368   3.674   1.647 -0.3193 -0.6164 -1.0176
  160TMC2    H2 2495   3.476   3.262   1.621  1.4340  1.3947  0.3804
  160TMC2    C7 2496   3.573   3.504   1.683 -0.4431  0.3780 -0.5457
  160TMC2    C8 2497   3.243   3.169   1.596  0.1777 -0.0719  0.4904
  160TMC2    O1 2498   3.645   3.408   1.717  0.4228  0.1931 -0.0292
  160TMC2    O2 2499   3.320   3.079   1.629  0.4982  0.4192 -0.3165
  160TMC2    O5 2500   3.143   3.150   1.504  0.2860 -0.0376  0.4003
  160TMC2    H5 2501   3.089   3.229   1.482  1.1018  0.7434  1.1794
  161MPD2     C 2502   2.796   3.596   1.789  0.0461 -0.8096  0.3690
  161MPD2    C1 2503   2.895   3.658   1.719  0.1176 -0.1039 -0.4177
  161MPD2    C2 2504   2.865   3.783   1.661 -0.1219  0.6243  0.1123
  161MPD2    C3 2505   2.741   3.844   1.685  0.3253 -0.1960 -0.6160
  161MPD2    C4 2506   2.639   3.771   1.751  0.2340  0.5990  0.1637
  161MPD2    C5 2507   2.671   3.655   1.803  0.2441 -0.2598  0.2448
  161MPD2     H 2508   2.948   3.831   1.610 -1.2292  3.4396  0.9270
  161MPD2    H1 2509   2.539   3.813   1.761 -0.3675 -0.6378 -0.6018
  161MPD2    H2 2510   2.823   3.504   1.838 -2.5280 -2.4872 -1.4085
  161MPD2    H3 2511   2.593   3.607   1.861 -1.8001  0.8534 -1.5683
  161MPD2     N 2512   2.705   3.967   1.636  0.2244  0.4338  0.4281
  161MPD2    H5 2513   2.610   3.993   1.661  0.1199 -0.2365  0.7406
  161MPD2    N1 2514   3.012   3.585   1.701 -0.5464 -0.9762 -0.0426
  161MPD2    H7 2515   3.023   3.490   1.732  2.5526 -0.2942  0.9727
  162TMC2    C1 2516   1.724   1.258   1.163  0.5525  0.1464 -0.3785
  162TMC2    C2 2517   1.592   1.270   1.194  0.2955 -0.1793 -0.0397
  162TMC2    C3 2518   1.551   1.283   1.328  1.9194 -0.0042  0.0594
  162TMC2    C4 2519   1.822   1.242   1.258 -0.3877  0.2635 -0.5776
  162TMC2    C5 2520   1.779   1.248   1.390 -1.1553 -0.1837  0.2690
  162TMC2    C6 2521   1.649   1.273   1.425  0.5486  0.1757  0.8332
  162TMC2     C 2522   1.769   1.251   1.024  0.1686  0.1699  0.3708
  162TMC2     O 2523   1.682   1.218   0.943 -0.3197  0.7869 -0.2603
  162TMC2     H 2524   1.511   1.268   1.122 -0.5571  0.6692  0.8907
  162TMC2    H1 2525   1.927   1.241   1.235 -0.2800 -1.2048 -0.0624
  162TMC2    H2 2526   1.622   1.294   1.528  0.0921 -1.0160  0.9603
  162TMC2    C7 2527   1.876   1.223   1.495 -0.1417 -0.0993 -0.2231
  162TMC2    C8 2528   1.420   1.249   1.365 -0.0016  0.1763  0.5676
  162TMC2    O1 2529   1.860   1.279   1.602 -0.9550  0.1540 -0.2417
  162TMC2    O2 2530   1.322   1.296   1.306  0.4760 -0.8809 -0.5570
  162TMC2    O5 2531   1.423   1.185   1.481  0.2396 -0.1067 -0.2749
  162TMC2    H5 2532   1.504   1.131   1.492  0.0297 -0.3745 -0.0635
  163MPD2     C 2533   2.132   1.245   0.667  0.2234 -0.0322  0.4667
  163MPD2    C1 2534   2.001   1.197   0.662  0.4170 -0.3172  0.1683
  163MPD2    C2 2535   1.919   1.229   0.770 -0.2027 -0.1571  0.1291
  163MPD2    C3 2536   1.967   1.291   0.882 -0.2479 -0.5617 -0.0786
  163MPD2    C4 2537   2.100   1.335   0.887  0.4536  0.5955  0.3981
  163MPD2    C5 2538   2.175   1.311   0.779 -0.5793 -0.4129 -0.3557
  163MPD2     H 2539   1.814   1.203   0.774  0.6008 -3.5064 -0.8237
  163MPD2    H1 2540   2.146   1.378   0.976 -0.1730 -0.0469  1.0317
  163MPD2    H2 2541   2.207   1.231   0.590 -0.1337 -0.4524  0.1969
  163MPD2    H3 2542   2.279   1.339   0.768 -1.2186  2.1212  0.0397
  163MPD2     N 2543   1.891   1.306   1.003 -0.3057 -0.0779  0.4556
  163MPD2    H5 2544   1.940   1.341   1.086 -3.0956 -0.2684  2.1745
  163MPD2    N1 2545   1.956   1.128   0.545  0.0079 -0.3585 -0.1255
  163MPD2    H7 2546   2.022   1.113   0.469  0.9434 -1.3995  0.8778
  164TMC2    C1 2547   2.128   4.686  11.191  0.1139  0.0611 -0.0567
  164TMC2    C2 2548   2.216   4.727  11.093  0.2592  0.3294  0.0199
  164TMC2    C3 2549   2.197   0.120  11.045  0.2705  0.0974  0.4874
  164TMC2    C4 2550   2.023   0.034  11.245 -0.0515  0.2598 -0.3071
  164TMC2    C5 2551   2.010   0.156  11.190 -0.5967 -0.4610 -0.5710
  164TMC2    C6 2552   2.097   0.200  11.092 -0.1666  0.1672 -0.2443
  164TMC2     C 2553   2.112   4.538  11.201  0.0748  0.0759 -0.0659
  164TMC2     O 2554   2.005   4.491  11.229 -0.0604 -0.1202 -0.2191
  164TMC2     H 2555   2.299   4.672  11.051  1.1188  0.2623  1.8029
  164TMC2    H1 2556   1.966   4.722  11.325  1.6130  2.2121  1.9443
  164TMC2    H2 2557   2.080   0.302  11.059 -0.5273 -0.0327 -0.6787
  164TMC2    C7 2558   1.911   0.246  11.244 -0.0677 -0.3890 -0.0221
  164TMC2    C8 2559   2.283   0.167  10.947  0.7700  0.7425  0.3207
  164TMC2    O1 2560   1.880   0.344  11.177  0.3834 -0.0097  0.4610
  164TMC2    O2 2561   2.407   0.157  10.955 -0.2272  0.1929 -0.2182
  164TMC2    O5 2562   2.202   0.235  10.865 -0.0245 -0.3754 -0.4725
  164TMC2    H5 2563   2.105   0.218  10.866  0.3916 -2.8431 -2.6729
  165TMC2    C1 2564   3.205   2.894   1.101  0.3553 -0.2637  0.4205
  165TMC2    C2 2565   3.284   2.812   1.029 -0.8074 -0.5398 -0.5218
  165TMC2    C3 2566   3.415   2.802   1.060  0.1724 -0.0365 -0.1676
  165TMC2    C4 2567   3.257   2.977   1.194 -0.3677  0.2953 -0.6491
  165TMC2    C5 2568   3.386   2.972   1.215 -0.2757 -0.3006 -0.1125
  165TMC2    C6 2569   3.475   2.881   1.156  1.0619 -0.9414  0.0909
  165TMC2     C 2570   3.068   2.902   1.085  0.1500 -0.0358  0.5132
  165TMC2     O 2571   3.012   2.973   1.166  0.0843 -0.4419 -0.1157
  165TMC2     H 2572   3.250   2.735   0.960 -2.0525  2.4324 -3.2056
  165TMC2    H1 2573   3.196   3.045   1.252  3.6517  2.7040  0.7064
  165TMC2    H2 2574   3.582   2.874   1.173  1.4762  1.8540 -1.3738
  165TMC2    C7 2575   3.454   3.089   1.274 -0.2569 -0.3339 -0.2621
  165TMC2    C8 2576   3.498   2.727   0.971  0.2914 -0.1821 -0.0606
  165TMC2    O1 2577   3.572   3.070   1.305 -0.4945  0.6480 -0.0186
  165TMC2    O2 2578   3.609   2.765   0.936 -0.0243  0.3323 -0.0328
  165TMC2    O5 2579   3.456   2.600   0.960  0.3195 -0.7588 -0.0178
  165TMC2    H5 2580   3.400   2.593   1.040 -1.2169 -0.1604 -1.0459
  166MPD2     C 2581   2.629   2.787   0.848 -0.4558  0.6908 -0.2913
  166MPD2    C1 2582   2.654   2.829   0.980  0.3589  0.7527  0.7210
  166MPD2    C2 2583   2.789   2.847   1.021 -0.6794  0.7994  0.4017
  166MPD2    C3 2584   2.889   2.818   0.932 -0.6052 -0.1798  0.5152
  166MPD2    C4 2585   2.856   2.769   0.808 -0.4736  0.4384 -0.2424
  166MPD2    C5 2586   2.730   2.774   0.760 -0.6075  1.3912  0.3182
  166MPD2     H 2587   2.813   2.893   1.116  0.9600 -1.6545  1.1584
  166MPD2    H1 2588   2.933   2.740   0.737  0.0033  0.3316  0.3278
  166MPD2    H2 2589   2.529   2.767   0.811 -0.7887  2.4895 -0.4030
  166MPD2    H3 2590   2.701   2.737   0.662  1.4200  0.2491  0.1607
  166MPD2     N 2591   3.027   2.836   0.969  0.1326  0.3214  0.4006
  166MPD2    H5 2592   3.093   2.792   0.905 -0.8388  1.0550 -1.0863
  166MPD2    N1 2593   2.547   2.857   1.064 -0.2500 -1.0162 -0.0956
  166MPD2    H7 2594   2.461   2.829   1.016  0.6009  1.3412 -2.9931
  167TMC2    C1 2595   1.380   0.370  13.098  0.5547  0.8789  0.3379
  167TMC2    C2 2596   1.446   0.403  13.214  0.3926  0.2971  0.2809
  167TMC2    C3 2597   1.472   0.308  13.303  0.6185 -0.0026 -0.3823
  167TMC2    C4 2598   1.341   0.245  13.069  0.2992 -0.2759  0.3841
  167TMC2    C5 2599   1.363   0.150  13.169 -0.2879 -0.1062 -0.5662
  167TMC2    C6 2600   1.420   0.179  13.285  0.3660 -0.8200  0.4170
  167TMC2     C 2601   1.389   0.468  12.995 -0.0287 -0.2595  0.1986
  167TMC2     O 2602   1.404   0.585  13.018  0.3280  0.4655 -0.4107
  167TMC2     H 2603   1.486   0.502  13.229  1.0891  0.0002  0.3754
  167TMC2    H1 2604   1.284   0.217  12.982 -0.3821 -1.0371  1.0771
  167TMC2    H2 2605   1.457   0.095  13.343 -0.0997 -0.9251  0.5644
  167TMC2    C7 2606   1.340   0.007  13.144  0.6889  0.5306  0.8278
  167TMC2    C8 2607   1.607   0.315  13.349 -0.2155  0.4197 -0.8048
  167TMC2    O1 2608   1.317   4.665  13.239 -0.5620 -0.3425  0.1839
  167TMC2    O2 2609   1.698   0.346  13.270 -0.4362  0.2427 -0.4476
  167TMC2    O5 2610   1.617   0.232  13.456 -0.2748 -0.4198  0.1441
  167TMC2    H5 2611   1.532   0.201  13.494 -1.0006  0.8022 -0.5038
  168MPD2     C 2612   1.433   0.611  12.738  0.6080 -0.0345 -0.1988
  168MPD2    C1 2613   1.393   0.487  12.751 -0.2099  0.7046  0.2099
  168MPD2    C2 2614   1.364   0.422  12.634 -0.0756 -0.4576 -0.4804
  168MPD2    C3 2615   1.375   0.485  12.510 -0.2457 -0.3619  0.0333
  168MPD2    C4 2616   1.411   0.615  12.506  0.5261 -0.4693  0.2333
  168MPD2    C5 2617   1.443   0.680  12.619 -0.2065 -0.2956 -0.8060
  168MPD2     H 2618   1.326   0.320  12.636  0.4408 -0.6911 -2.7028
  168MPD2    H1 2619   1.417   0.674  12.415 -0.8947 -0.8088 -0.0950
  168MPD2    H2 2620   1.472   0.673  12.818 -1.4160  0.2582  0.5846
  168MPD2    H3 2621   1.466   0.786  12.623  2.3454 -0.9355  1.3559
  168MPD2     N 2622   1.344   0.417  12.393  0.0517  0.0660 -0.1867
  168MPD2    H5 2623   1.381   0.451  12.305  0.2704 -0.0234 -0.1283
  168MPD2    N1 2624   1.382   0.416  12.870  0.6700 -0.7379 -0.3113
  168MPD2    H7 2625   1.355   0.320  12.854 -1.0974 -0.2877 -0.0883
  169MPD1     C 2626   2.263   0.389   9.628  1.0263 -0.3961 -0.0864
  169MPD1    C1 2627   2.274   0.255   9.615  0.4734 -0.4384  0.1965
  169MPD1    C2 2628   2.406   0.213   9.613  0.7661  0.1741 -0.2105
  169MPD1    C3 2629   2.511   0.292   9.642 -0.1566 -0.5848  0.3579
  169MPD1    C4 2630   2.496   0.428   9.660 -0.2779 -0.6355  0.1408
  169MPD1    C5 2631   2.368   0.472   9.643 -0.2277 -0.4266  0.0801
  169MPD1     H 2632   2.415   0.107   9.592 -0.1327  0.0203  0.1537
  169MPD1    H1 2633   2.574   0.492   9.700  1.2748 -0.3643 -3.3535
  169MPD1    H2 2634   2.165   0.434   9.624  1.6208  1.0764  2.0013
  169MPD1    H3 2635   2.345   0.578   9.650 -0.6620 -0.3589 -2.4892
  169MPD1     N 2636   2.635   0.222   9.646 -0.3043 -0.0904  0.4645
  169MPD1    H5 2637   2.625   0.124   9.625  3.5507 -0.8439  2.0764
  169MPD1    N1 2638   2.162   0.173   9.591 -0.4807 -0.0905 -0.3615
  169MPD1    H6 2639   2.072   0.205   9.625 -0.4510  0.3872 -0.7360
  169MPD1    H7 2640   2.182   0.075   9.612 -1.6834 -0.3991 -0.6775
  170MPD1     C 2641   2.677   1.546  12.862  0.3488 -0.8604  0.4903
  170MPD1    C1 2642   2.714   1.492  12.981 -0.0212 -0.3430 -0.4586
  170MPD1    C2 2643   2.677   1.551  13.099  0.9617 -0.4501  0.2699
  170MPD1    C3 2644   2.624   1.676  13.097 -0.9029  0.5976  0.1591
  170MPD1    C4 2645   2.584   1.736  12.976  0.3199  0.1584 -0.1179
  170MPD1    C5 2646   2.611   1.660  12.864 -0.4608  0.7009 -0.0826
  170MPD1     H 2647   2.707   1.517  13.197  2.5017  0.3685  0.0766
  170MPD1    H1 2648   2.530   1.830  12.972 -0.4096 -0.2502  0.1098
  170MPD1    H2 2649   2.691   1.494  12.769  0.9491  1.8179 -0.9338
  170MPD1    H3 2650   2.573   1.692  12.768  0.4925  0.5836 -0.5018
  170MPD1     N 2651   2.637   1.755  13.210  0.0225  0.0079  0.9728
  170MPD1    H5 2652   2.694   1.715  13.284  1.8361 -1.2898 -1.1185
  170MPD1    N1 2653   2.765   1.365  12.990  0.0668 -0.1422 -0.0226
  170MPD1    H6 2654   2.818   1.360  13.077  0.1580  0.9662 -0.0086
  170MPD1    H7 2655   2.825   1.336  12.912 -0.0920 -0.2423 -0.1064
  171MPD1     C 2656   1.139   3.589  15.579 -0.2161 -0.3190 -0.1118
  171MPD1    C1 2657   1.264   3.536  15.588 -0.4070 -0.8654 -0.3756
  171MPD1    C2 2658   1.285   3.438  15.683 -0.4636  0.4936 -0.5108
  171MPD1    C3 2659   1.183   3.401  15.770 -0.0162  0.3636  0.1987
  171MPD1    C4 2660   1.054   3.452  15.756  0.4482  0.4763 -0.7631
  171MPD1    C5 2661   1.043   3.553  15.665  0.6254  0.6170 -0.0737
  171MPD1     H 2662   1.383   3.392  15.679 -0.1617  1.1171 -0.3287
  171MPD1    H1 2663   0.980   3.431  15.832  0.7684 -0.1279 -0.6208
  171MPD1    H2 2664   1.120   3.659  15.499  1.5051  0.5928  0.2824
  171MPD1    H3 2665   0.946   3.599  15.652  0.3766  0.2120  0.3681
  171MPD1     N 2666   1.201   3.296  15.869  0.5598  0.1069  0.5279
  171MPD1    H5 2667   1.124   3.274  15.931 -1.0916  2.6665 -0.5785
  171MPD1    N1 2668   1.359   3.573  15.490  0.6088 -0.6740 -0.5916
  171MPD1    H6 2669   1.351   3.666  15.450  1.1176 -0.3006  0.1804
  171MPD1    H7 2670   1.456   3.571  15.519 -0.4716  1.5899  3.2507
  172MPD1     C 2671   0.535   2.764   0.302 -0.2433  0.3685  0.0251
  172MPD1    C1 2672   0.483   2.863   0.213 -0.2681  0.1217 -0.1129
  172MPD1    C2 2673   0.454   2.980   0.268 -0.0836 -0.1369  0.0262
  172MPD1    C3 2674   0.455   3.003   0.408  0.3167  0.3215 -0.5583
  172MPD1    C4 2675   0.500   2.908   0.491 -0.2373 -0.1962 -0.7665
  172MPD1    C5 2676   0.536   2.788   0.436  0.1506  0.4188 -0.0374
  172MPD1     H 2677   0.429   3.060   0.200 -0.1514  0.6541  0.9785
  172MPD1    H1 2678   0.499   2.929   0.597  1.5834  0.2035 -0.8437
  172MPD1    H2 2679   0.576   2.673   0.260  2.1365  1.3430  0.2405
  172MPD1    H3 2680   0.579   2.711   0.500  0.2247  0.7177  0.2680
  172MPD1     N 2681   0.432   3.136   0.456 -0.0907  0.5272 -0.3337
  172MPD1    H5 2682   0.450   3.142   0.556  2.9171 -3.2007 -0.6460
  172MPD1    N1 2683   0.509   2.853   0.074 -0.3035 -0.0961  0.2196
  172MPD1    H6 2684   0.438   2.911   0.029 -0.5678 -2.6667 -2.6891
  172MPD1    H7 2685   0.496   2.758   0.041 -2.4409  0.7316 -1.3239
  173MPD1     C 2686   2.104   2.827  14.020 -1.3210  0.2484  0.3743
  173MPD1    C1 2687   2.186   2.773  14.112 -0.8182  0.3730 -0.0188
  173MPD1    C2 2688   2.146   2.761  14.238  0.0800  0.1163  0.5795
  173MPD1    C3 2689   2.033   2.816  14.286 -0.3076  0.7968  0.0766
  173MPD1    C4 2690   1.948   2.878  14.200 -0.2433 -0.6003 -0.3837
  173MPD1    C5 2691   1.983   2.875  14.066 -0.3382  0.2700  0.0115
  173MPD1     H 2692   2.203   2.706  14.312  2.0077  0.2938 -0.7706
  173MPD1    H1 2693   1.847   2.907  14.226  0.0477  0.2736 -0.2414
  173MPD1    H2 2694   2.128   2.835  13.915 -0.8639 -0.7003  0.4151
  173MPD1    H3 2695   1.916   2.919  13.993  0.3406  1.3145  0.0336
  173MPD1     N 2696   1.999   2.777  14.419  0.2183  0.4548  0.5181
  173MPD1    H5 2697   2.063   2.713  14.466  0.1519  0.6681  0.8888
  173MPD1    N1 2698   2.305   2.725  14.063  0.3222 -0.3823 -0.7435
  173MPD1    H6 2699   2.333   2.771  13.977  1.3993 -0.9716 -0.7093
  173MPD1    H7 2700   2.382   2.736  14.130  1.3553 -0.2576 -1.9585
  174MPD1     C 2701   2.302   2.048  14.794 -0.2609 -0.0306  0.0988
  174MPD1    C1 2702   2.174   2.052  14.844 -0.7629  0.2481 -0.1716
  174MPD1    C2 2703   2.087   2.142  14.790  0.0202 -0.0790 -0.4515
  174MPD1    C3 2704   2.130   2.252  14.713 -0.2457 -0.3188  0.3416
  174MPD1    C4 2705   2.271   2.262  14.687 -0.6330 -0.7391 -0.7634
  174MPD1    C5 2706   2.351   2.156  14.723 -0.9796  0.0595  0.7951
  174MPD1     H 2707   1.979   2.134  14.802  0.3174 -0.2125  2.1968
  174MPD1    H1 2708   2.313   2.350  14.640  1.5066 -1.8217 -0.8789
  174MPD1    H2 2709   2.376   1.976  14.826  0.7260  0.8438 -0.2015
  174MPD1    H3 2710   2.459   2.163  14.722 -1.1065  1.8991 -2.1846
  174MPD1     N 2711   2.040   2.360  14.669 -0.4572 -0.4998  0.3552
  174MPD1    H5 2712   2.084   2.444  14.633 -0.3331 -1.7328 -2.3434
  174MPD1    N1 2713   2.140   1.934  14.919  0.4827  0.0996  0.0289
  174MPD1    H6 2714   2.068   1.955  14.988  0.0934 -0.4564 -0.2023
  174MPD1    H7 2715   2.216   1.897  14.974  2.0271  1.5422 -1.1330
  175MPD1     C 2716   0.201   4.215  15.185 -1.5622 -0.6213  0.2714
  175MPD1    C1 2717   0.295   4.114  15.187 -0.2839  0.4697  0.2536
  175MPD1    C2 2718   0.282   4.016  15.289 -0.1637  0.5377 -0.1387
  175MPD1    C3 2719   0.172   4.017  15.376 -0.4391 -0.2064  0.1325
  175MPD1    C4 2720   0.076   4.111  15.355 -0.3526  0.7152 -0.6656
  175MPD1    C5 2721   0.092   4.215  15.267 -0.5630  0.4227  0.1111
  175MPD1     H 2722   0.356   3.937  15.290 -1.6381 -0.8247  0.6287
  175MPD1    H1 2723   4.716   4.094  15.409 -0.8219  0.1780 -1.6545
  175MPD1    H2 2724   0.205   4.307  15.127 -0.2817 -0.6168  0.3528
  175MPD1    H3 2725   0.016   4.292  15.256 -1.2564 -0.0107  1.8361
  175MPD1     N 2726   0.143   3.925  15.476 -0.0342 -0.5764 -0.3984
  175MPD1    H5 2727   0.067   3.947  15.540  0.8575 -0.7638  0.7309
  175MPD1    N1 2728   0.410   4.121  15.107 -0.9589  0.0902  0.3579
  175MPD1    H6 2729   0.450   4.029  15.087 -1.6204 -0.2205  0.4512
  175MPD1    H7 2730   0.402   4.182  15.026 -1.6179 -0.2233  0.1893
  176MPD1     C 2731   2.040   0.746  16.646  0.3888 -0.0676 -0.2733
  176MPD1    C1 2732   2.091   0.876  16.662  0.1632 -0.1625  0.1690
  176MPD1    C2 2733   2.055   0.949  16.774  0.2123  0.4397  0.6952
  176MPD1    C3 2734   1.989   0.892  16.878 -0.1275  0.3640 -0.4646
  176MPD1    C4 2735   1.955   0.759  16.866  0.0242 -0.1558 -0.0017
  176MPD1    C5 2736   1.976   0.688  16.750  0.4044  0.1147 -0.2125
  176MPD1     H 2737   2.093   1.050  16.777 -1.1972  1.0618 -2.0548
  176MPD1    H1 2738   1.905   0.708  16.947 -0.2202 -1.0666 -0.7292
  176MPD1    H2 2739   2.064   0.676  16.567 -0.9987 -0.8815  0.0308
  176MPD1    H3 2740   1.941   0.585  16.750 -2.0131  0.9325  0.3979
  176MPD1     N 2741   1.966   0.975  16.990 -0.0982  0.1193 -0.2561
  176MPD1    H5 2742   1.998   1.072  16.991  0.7647 -0.1649 -0.1488
  176MPD1    N1 2743   2.181   0.933  16.573  0.0602 -0.9918  0.3563
  176MPD1    H6 2744   2.168   0.891  16.481  0.1954 -0.4827  0.1018
  176MPD1    H7 2745   2.164   1.033  16.566 -1.7674 -1.4255 -1.2256
  177MPD1     C 2746   4.686   1.011   9.633 -0.1573 -0.1301 -0.0255
  177MPD1    C1 2747   4.692   1.102   9.534  0.0109  0.4291  0.2985
  177MPD1    C2 2748   4.566   1.145   9.475 -1.1601 -0.5399  0.4456
  177MPD1    C3 2749   4.445   1.102   9.525  0.3732 -0.5527  0.0462
  177MPD1    C4 2750   4.440   1.009   9.626  0.3985  0.9279  0.1854
  177MPD1    C5 2751   4.562   0.968   9.678  0.3928  0.6534  0.2262
  177MPD1     H 2752   4.559   1.233   9.411  1.6057 -0.1079  0.7309
  177MPD1    H1 2753   4.348   0.965   9.661 -0.4180  1.8005 -0.8435
  177MPD1    H2 2754   0.041   0.975   9.686 -0.5601 -0.2151  0.5885
  177MPD1    H3 2755   4.562   0.896   9.759 -2.5836  1.8758  1.2960
  177MPD1     N 2756   4.332   1.148   9.449  0.0883  0.9015  0.4450
  177MPD1    H5 2757   4.331   1.225   9.382  1.3351 -0.4868 -1.1741
  177MPD1    N1 2758   0.079   1.174   9.505  0.1945  0.0405  0.0214
  177MPD1    H6 2759   0.084   1.207   9.409  1.9687 -0.3249 -0.0176
  177MPD1    H7 2760   0.166   1.122   9.517 -0.3089 -0.8584 -0.1824
  178MPD1     C 2761   3.296   1.851  17.725  0.0742 -0.3584  0.1406
  178MPD1    C1 2762   3.221   1.870  17.610  0.5050  0.0796  0.2107
  178MPD1    C2 2763   3.230   1.776  17.509 -0.4295  0.7655  0.2953
  178MPD1    C3 2764   3.323   1.677  17.517  0.2557 -0.5703  0.0646
  178MPD1    C4 2765   3.407   1.669  17.615  0.5466  0.1366  0.4820
  178MPD1    C5 2766   3.382   1.747  17.724 -0.3209 -0.6077 -0.4710
  178MPD1     H 2767   3.176   1.793  17.417 -0.1919 -0.4247 -0.0661
  178MPD1    H1 2768   3.484   1.596  17.637  1.7931  1.0528 -0.7977
  178MPD1    H2 2769   3.299   1.913   0.085  0.4860 -0.2093  0.0198
  178MPD1    H3 2770   3.445   1.733   0.083  0.0424  0.3060 -0.5873
  178MPD1     N 2771   3.337   1.586  17.412 -0.1399 -0.3536 -0.0128
  178MPD1    H5 2772   3.421   1.530  17.423 -0.1964 -0.4682 -0.1743
  178MPD1    N1 2773   3.137   1.976  17.598 -1.5188  0.1092  0.4200
  178MPD1    H6 2774   3.115   2.000  17.501 -1.4981  1.3397  0.7251
  178MPD1    H7 2775   3.191   2.057  17.627 -0.3381 -0.6032  0.2209
  179MPD1     C 2776   2.237   0.166  15.464  0.6667 -0.4441 -0.6008
  179MPD1    C1 2777   2.173   0.073  15.385 -0.3073 -0.0716  1.2195
  179MPD1    C2 2778   2.104   4.708  15.461  0.2748 -0.0868  0.4920
  179MPD1    C3 2779   2.080   4.721  15.595 -0.1897 -0.7727 -0.6058
  179MPD1    C4 2780   2.137   0.092  15.667  0.1841 -0.3194 -0.1489
  179MPD1    C5 2781   2.216   0.181  15.599 -0.4456  0.0507 -0.6958
  179MPD1     H 2782   2.060   4.624  15.407 -0.6197  1.4285 -1.1148
  179MPD1    H1 2783   2.117   0.099  15.773  2.6754  1.5027  0.2150
  179MPD1    H2 2784   2.306   0.241  15.428 -0.2838  1.4014  1.4374
  179MPD1    H3 2785   2.263   0.260  15.655  0.3194 -1.4320  0.7596
  179MPD1     N 2786   1.998   4.634  15.661  0.2869  0.4078  0.5394
  179MPD1    H5 2787   1.996   4.643  15.762  1.5191  2.2925  0.3987
  179MPD1    N1 2788   2.213   0.040  15.258  0.6976 -0.2987 -0.0225
  179MPD1    H6 2789   2.232   0.122  15.202  0.2073  0.3018  0.6869
  179MPD1    H7 2790   2.146   4.708  15.216 -0.6098  1.6057 -0.8499
  180MPD1     C 2791   2.621   1.312  14.894 -0.2062 -0.1839  0.9397
  180MPD1    C1 2792   2.599   1.303  14.761  0.2435 -0.2724  0.1968
  180MPD1    C2 2793   2.473   1.325  14.717 -0.1728  0.4507 -0.0213
  180MPD1    C3 2794   2.364   1.316  14.803 -0.4900 -0.3785  0.5805
  180MPD1    C4 2795   2.385   1.321  14.939 -1.2139  0.6663  0.3185
  180MPD1    C5 2796   2.516   1.328  14.980 -0.3839  0.1697  0.0332
  180MPD1     H 2797   2.458   1.335  14.610  0.6510 -3.1675 -0.4851
  180MPD1    H1 2798   2.307   1.338  15.013 -1.2763 -1.2552  0.7008
  180MPD1    H2 2799   2.722   1.328  14.929  0.1025 -3.0611  1.3629
  180MPD1    H3 2800   2.547   1.334  15.083 -0.7545  0.1711  0.1468
  180MPD1     N 2801   2.236   1.328  14.740  0.2785  0.0549 -0.3956
  180MPD1    H5 2802   2.234   1.336  14.639  1.5789  0.0883 -0.4230
  180MPD1    N1 2803   2.706   1.309  14.672 -0.3763  0.4899 -0.4520
  180MPD1    H6 2804   2.698   1.288  14.573  1.0093  1.2744 -0.7210
  180MPD1    H7 2805   2.781   1.253  14.711 -1.2347 -2.4520 -3.0151
  181MPD1     C 2806   2.907   2.989  10.067  0.3922  0.1879  0.7338
  181MPD1    C1 2807   2.930   3.068  10.186 -0.4548  0.2790  0.3031
  181MPD1    C2 2808   3.050   3.148  10.181 -0.2696  0.4968 -0.3078
  181MPD1    C3 2809   3.127   3.152  10.064 -0.0847  0.4915  0.4769
  181MPD1    C4 2810   3.101   3.073   9.960 -0.6032 -0.3850  0.4162
  181MPD1    C5 2811   2.989   2.991   9.960  0.1108 -0.2248 -0.7251
  181MPD1     H 2812   3.070   3.221  10.258  0.3925  0.2244 -0.2175
  181MPD1    H1 2813   3.160   3.081   9.870  0.1902 -1.0916  0.8744
  181MPD1    H2 2814   2.825   2.919  10.068 -0.0044  0.6708  1.9437
  181MPD1    H3 2815   2.969   2.934   9.870  3.9494 -0.6301 -1.3323
  181MPD1     N 2816   3.242   3.226  10.055 -0.2463 -0.3080 -0.7938
  181MPD1    H5 2817   3.314   3.194   9.991  0.8788 -0.3738  0.5133
  181MPD1    N1 2818   2.853   3.042  10.300  0.1611 -0.2267  0.3248
  181MPD1    H6 2819   2.856   3.116  10.370 -1.1257  0.5296 -0.4177
  181MPD1    H7 2820   2.758   3.013  10.280  0.4681  0.7519 -2.5485
  182MPD1     C 2821   4.088   2.699   0.726  0.0779 -0.2174 -0.0883
  182MPD1    C1 2822   4.005   2.655   0.627 -0.0357  0.0197  0.7095
  182MPD1    C2 2823   4.036   2.557   0.544  0.0966 -0.0175  0.4128
  182MPD1    C3 2824   4.155   2.488   0.573 -0.2742 -0.3139  0.4635
  182MPD1    C4 2825   4.228   2.521   0.681  0.6966  0.6230  0.4822
  182MPD1    C5 2826   4.193   2.624   0.760  0.6418 -0.4016  0.1018
  182MPD1     H 2827   3.968   2.524   0.467 -0.4244  0.2550  0.7588
  182MPD1    H1 2828   4.324   2.472   0.692  0.3460 -0.3993 -0.9466
  182MPD1    H2 2829   4.070   2.786   0.788 -0.4702  2.9273 -4.6541
  182MPD1    H3 2830   4.253   2.650   0.846  0.7737  0.5572 -0.2781
  182MPD1     N 2831   4.222   2.394   0.487  0.5827  0.2008  0.3189
  182MPD1    H5 2832   4.301   2.342   0.524 -0.0899  0.4119  2.0684
  182MPD1    N1 2833   3.916   2.749   0.580  0.0947 -0.5285  0.3109
  182MPD1    H6 2834   3.829   2.700   0.564  0.2790 -0.6915 -0.1751
  182MPD1    H7 2835   3.893   2.813   0.656 -1.1266 -0.8850  0.2409
  183MPD1     C 2836   2.472   2.200   8.820 -0.0799  0.0789  0.2658
  183MPD1    C1 2837   2.474   2.193   8.961 -0.2099  0.0385  0.3184
  183MPD1    C2 2838   2.486   2.312   9.035  0.6197  0.1558  0.4708
  183MPD1    C3 2839   2.513   2.432   8.980 -0.3235 -0.1026  0.8263
  183MPD1    C4 2840   2.524   2.434   8.844  0.2967  0.6305  0.1467
  183MPD1    C5 2841   2.509   2.319   8.770 -0.0332 -0.1637  0.2101
  183MPD1     H 2842   2.471   2.291   9.141 -0.0803 -1.5831  0.0262
  183MPD1    H1 2843   2.517   2.534   8.802  0.0494  0.1225 -1.0147
  183MPD1    H2 2844   2.464   2.116   8.752  3.3549  0.1793 -0.2647
  183MPD1    H3 2845   2.524   2.326   8.663  0.6584  2.6909  0.4956
  183MPD1     N 2846   2.497   2.544   9.064 -0.5295  0.1442 -0.4244
  183MPD1    H5 2847   2.458   2.532   9.156 -1.6576 -1.7858 -1.1541
  183MPD1    N1 2848   2.419   2.081   9.026  0.4293  0.8454 -0.1152
  183MPD1    H6 2849   2.447   2.085   9.124 -0.2067 -1.4845  0.1465
  183MPD1    H7 2850   2.447   1.989   8.994  2.1451  1.2778  0.1318
  184MPD1     C 2851   3.216   0.753  10.319  0.2002 -0.5345  0.6513
  184MPD1    C1 2852   3.132   0.769  10.215 -0.0580  0.0864  0.1415
  184MPD1    C2 2853   3.184   0.851  10.112 -0.9834  0.4925  0.5927
  184MPD1    C3 2854   3.309   0.916  10.120 -0.2601  0.1413  0.4251
  184MPD1    C4 2855   3.386   0.895  10.229 -0.2064 -0.1719 -0.6478
  184MPD1    C5 2856   3.343   0.808  10.326  0.0846 -0.2464 -0.2061
  184MPD1     H 2857   3.109   0.883  10.040 -0.3847  0.2173 -0.1424
  184MPD1    H1 2858   3.484   0.942  10.234 -0.3961  0.0525  1.2227
  184MPD1    H2 2859   3.183   0.703  10.409  0.5958  1.6116  1.9668
  184MPD1    H3 2860   3.403   0.786  10.413 -1.1151  1.0195  0.9573
  184MPD1     N 2861   3.364   0.999  10.023 -0.1932 -0.9432  0.4465
  184MPD1    H5 2862   3.454   1.040  10.045  0.3272 -0.7148 -2.1411
  184MPD1    N1 2863   3.000   0.753  10.237 -0.5221 -0.1601  0.7923
  184MPD1    H6 2864   2.969   0.679  10.298  2.3938 -0.8147  1.4812
  184MPD1    H7 2865   2.951   0.747  10.148  0.6373 -0.9151  0.2135
  185MPD1     C 2866   3.026   1.002   9.141  0.5017  0.0321  0.4979
  185MPD1    C1 2867   3.062   1.135   9.145  0.5622 -0.1880 -0.1403
  185MPD1    C2 2868   3.118   1.187   9.258  0.0133  0.1427 -0.2664
  185MPD1    C3 2869   3.143   1.111   9.375 -0.5082  0.8922 -0.0842
  185MPD1    C4 2870   3.091   0.982   9.365  0.1078  0.2229  0.6556
  185MPD1    C5 2871   3.031   0.930   9.254 -0.3416  0.3318  0.1710
  185MPD1     H 2872   3.149   1.291   9.268 -0.5845  0.3780 -0.8647
  185MPD1    H1 2873   3.098   0.929   9.460 -1.9869  1.3495  1.4296
  185MPD1    H2 2874   2.995   0.946   9.053 -0.8050  2.0955 -0.3715
  185MPD1    H3 2875   2.997   0.828   9.257 -3.6961  1.5258  2.3753
  185MPD1     N 2876   3.206   1.149   9.495 -0.7280 -0.1561  0.2148
  185MPD1    H5 2877   3.196   1.079   9.567  0.6493  0.3223  0.8746
  185MPD1    N1 2878   3.057   1.207   9.022 -0.1573  0.0730 -0.1518
  185MPD1    H6 2879   2.994   1.165   8.954  0.2728 -0.8127 -0.0091
  185MPD1    H7 2880   3.030   1.304   9.037 -1.2079 -0.4432  1.2986
  186MPD1     C 2881   2.673   4.555  15.533  0.4545  0.7992 -0.0017
  186MPD1    C1 2882   2.558   4.639  15.561  0.3989 -0.0430  0.2550
  186MPD1    C2 2883   2.550   4.706  15.683 -0.2661  0.4522 -0.1880
  186MPD1    C3 2884   2.662   4.700  15.772  0.4611  0.5737 -0.7030
  186MPD1    C4 2885   2.764   4.619  15.745 -0.1850 -0.3958  0.2238
  186MPD1    C5 2886   2.765   4.539  15.630  0.4804  0.2282 -0.7708
  186MPD1     H 2887   2.471   0.041  15.714 -1.2401 -1.6022  1.8464
  186MPD1    H1 2888   2.840   4.601  15.820 -0.2472 -2.6184 -0.2486
  186MPD1    H2 2889   2.669   4.493  15.444  1.1627 -0.8250  1.0906
  186MPD1    H3 2890   2.849   4.473  15.618  0.1721 -0.2706 -0.1969
  186MPD1     N 2891   2.677   0.041  15.889 -0.2634 -0.1991 -0.6064
  186MPD1    H5 2892   2.764   0.039  15.942  1.4567  0.2309 -3.3886
  186MPD1    N1 2893   2.443   4.620  15.488  0.2346  0.9707 -0.1365
  186MPD1    H6 2894   2.473   4.612  15.391 -1.2322  0.0641 -0.5288
  186MPD1    H7 2895   2.385   4.703  15.497 -1.4801 -0.3728  1.3787
  187MPD1     C 2896   1.907   1.670   0.577  0.5116 -0.1500  0.0942
  187MPD1    C1 2897   1.874   1.585   0.479 -0.2961  0.1449 -0.0223
  187MPD1    C2 2898   1.878   1.626   0.344  0.2805 -0.0824 -0.3367
  187MPD1    C3 2899   1.921   1.759   0.318  0.1200  0.2696  0.5346
  187MPD1    C4 2900   1.945   1.842   0.423  0.3074 -0.3116 -0.4639
  187MPD1    C5 2901   1.939   1.800   0.554  0.3802  0.4075 -0.1666
  187MPD1     H 2902   1.864   1.559   0.259 -0.7221  0.4457 -0.5863
  187MPD1    H1 2903   1.976   1.944   0.408 -3.3928  1.0164  1.0111
  187MPD1    H2 2904   1.902   1.642   0.681  2.4875 -0.0760  0.2212
  187MPD1    H3 2905   1.949   1.869   0.637 -0.2788  1.0841 -0.6434
  187MPD1     N 2906   1.921   1.818   0.190 -0.1009  0.3364 -0.1004
  187MPD1    H5 2907   1.935   1.919   0.190 -0.3480  0.3691 -0.4515
  187MPD1    N1 2908   1.849   1.451   0.516 -0.3526 -0.6595 -0.9029
  187MPD1    H6 2909   1.826   1.428   0.612 -1.3649 -1.2505 -1.2905
  187MPD1    H7 2910   1.785   1.396   0.459 -0.8851  0.8333 -1.7369
  188MPD1     C 2911   1.031   2.109   9.782  0.2055 -0.2524  0.4855
  188MPD1    C1 2912   0.922   2.033   9.745 -0.1710 -0.0662  0.5199
  188MPD1    C2 2913   0.938   1.900   9.727 -0.0086 -0.3665 -0.1592
  188MPD1    C3 2914   1.054   1.835   9.756  0.5566  1.0892  0.4955
  188MPD1    C4 2915   1.151   1.910   9.824 -0.5223 -0.5459  0.1717
  188MPD1    C5 2916   1.147   2.046   9.815  0.8329 -0.3400  0.1764
  188MPD1     H 2917   0.849   1.848   9.693 -1.0623  2.3000 -1.4971
  188MPD1    H1 2918   1.252   1.872   9.836 -0.3249 -0.3795 -0.9062
  188MPD1    H2 2919   1.031   2.217   9.769 -0.4368 -0.2177  0.7843
  188MPD1    H3 2920   1.228   2.106   9.856 -0.3841  1.2923  0.2050
  188MPD1     N 2921   1.077   1.701   9.732 -0.0256 -0.1713  0.0722
  188MPD1    H5 2922   1.165   1.666   9.770  0.3190 -0.9519 -1.4528
  188MPD1    N1 2923   0.816   2.099   9.688 -0.4335  0.9009 -0.1034
  188MPD1    H6 2924   0.816   2.194   9.724 -3.1135  0.8840 -0.0483
  188MPD1    H7 2925   0.730   2.057   9.722  0.9711 -0.6733  1.5260
  189MPD1     C 2926   3.714   2.950   0.311 -0.0305  0.2191 -0.3045
  189MPD1    C1 2927   3.631   2.944   0.202  0.6574 -0.6480 -0.1089
  189MPD1    C2 2928   3.499   2.976   0.219  0.1936 -0.1699  0.5914
  189MPD1    C3 2929   3.459   3.046   0.334 -0.0124 -0.3942 -0.0997
  189MPD1    C4 2930   3.543   3.066   0.437 -1.0297  0.1886 -0.6324
  189MPD1    C5 2931   3.665   3.002   0.429  0.0554  0.2612 -0.4181
  189MPD1     H 2932   3.433   2.958   0.135  2.6272  1.2466 -1.6417
  189MPD1    H1 2933   3.520   3.118   0.529  0.0932  0.4416 -0.4984
  189MPD1    H2 2934   3.816   2.916   0.299 -0.0103 -0.5557  2.1308
  189MPD1    H3 2935   3.731   3.006   0.514 -0.8820 -0.0138  0.3235
  189MPD1     N 2936   3.327   3.089   0.342 -0.1942 -0.8221  0.1583
  189MPD1    H5 2937   3.265   3.052   0.271 -0.6493 -0.1532  0.2070
  189MPD1    N1 2938   3.682   2.869   0.095  0.2420 -0.0901 -0.2463
  189MPD1    H6 2939   3.621   2.875   0.015 -0.5138  2.8092  0.5571
  189MPD1    H7 2940   3.766   2.916   0.060  0.0479  0.9848  0.7303
  190MPD1     C 2941   2.258   1.106  15.173  0.2119 -0.2071  0.0282
  190MPD1    C1 2942   2.372   1.021  15.175 -0.3139 -0.0471 -1.2150
  190MPD1    C2 2943   2.462   1.025  15.271 -0.0058 -0.1577  0.0314
  190MPD1    C3 2944   2.445   1.118  15.372 -0.8384  0.5735 -0.2950
  190MPD1    C4 2945   2.342   1.206  15.368 -0.1459 -0.4495 -1.0920
  190MPD1    C5 2946   2.244   1.193  15.271  0.1232  1.1310  0.5050
  190MPD1     H 2947   2.543   0.954  15.276 -0.7697 -1.1714 -2.0702
  190MPD1    H1 2948   2.334   1.284  15.443 -1.0887 -0.1783 -1.4771
  190MPD1    H2 2949   2.180   1.105  15.098 -2.1732  0.2776  2.5442
  190MPD1    H3 2950   2.158   1.258  15.264  0.5331  1.7993  1.7765
  190MPD1     N 2951   2.548   1.126  15.477  0.2869  0.2750  0.5477
  190MPD1    H5 2952   2.627   1.064  15.461  1.2875  1.1008  2.3538
  190MPD1    N1 2953   2.378   0.922  15.078 -0.1160 -0.1933  0.6082
  190MPD1    H6 2954   2.476   0.905  15.056 -0.1469  0.6207 -0.1740
  190MPD1    H7 2955   2.320   0.952  15.000  1.6041 -0.2202 -0.6690
  191MPD1     C 2956   1.457   2.215  13.785  0.0329 -0.0642 -0.2850
  191MPD1    C1 2957   1.501   2.327  13.720 -0.7688 -0.0760  0.4623
  191MPD1    C2 2958   1.404   2.407  13.658 -0.0846  0.2971 -0.0528
  191MPD1    C3 2959   1.265   2.374  13.671  0.0366 -0.4189 -0.2950
  191MPD1    C4 2960   1.227   2.270  13.744  0.0741  0.0614 -0.7134
  191MPD1    C5 2961   1.323   2.186  13.793 -0.3420 -0.0734  0.7748
  191MPD1     H 2962   1.433   2.494  13.600 -2.3078 -0.5134 -2.3657
  191MPD1    H1 2963   1.123   2.242  13.754 -1.0441  4.1414 -0.7393
  191MPD1    H2 2964   1.523   2.145  13.834 -0.5569  1.5918  2.9013
  191MPD1    H3 2965   1.295   2.089  13.833  0.0349 -0.6645 -0.3789
  191MPD1     N 2966   1.173   2.444  13.583 -0.0189  0.0608 -0.2252
  191MPD1    H5 2967   1.208   2.526  13.534 -1.8627  2.0179  1.7492
  191MPD1    N1 2968   1.637   2.367  13.730  0.2613  0.1320  0.2263
  191MPD1    H6 2969   1.700   2.303  13.777 -0.6107  0.8712  2.3806
  191MPD1    H7 2970   1.646   2.446  13.793  3.0264 -0.2893  0.3361
  192MPD1     C 2971   0.183   2.594  13.586  0.0820 -0.7039  0.0328
  192MPD1    C1 2972   0.228   2.701  13.509 -0.5547 -0.0940  0.0745
  192MPD1    C2 2973   0.358   2.707  13.492  0.1578 -0.3298 -0.4511
  192MPD1    C3 2974   0.447   2.622  13.555  0.5875  1.0645 -0.0910
  192MPD1    C4 2975   0.405   2.526  13.641  0.1087 -0.0204  0.7061
  192MPD1    C5 2976   0.267   2.509  13.652 -0.5024 -1.1235  0.0658
  192MPD1     H 2977   0.380   2.763  13.402  1.9267 -1.3418 -0.6427
  192MPD1    H1 2978   0.479   2.453  13.671  0.2757 -0.4986 -0.8456
  192MPD1    H2 2979   0.089   2.575  13.636 -0.4547 -1.1064 -1.1370
  192MPD1    H3 2980   0.232   2.425  13.711 -2.6739 -1.1607 -1.2412
  192MPD1     N 2981   0.590   2.619  13.532  0.0641 -0.1552 -0.1424
  192MPD1    H5 2982   0.643   2.549  13.582 -0.4663  1.1355  2.2177
  192MPD1    N1 2983   0.130   2.780  13.433  0.7140 -0.2643 -0.3762
  192MPD1    H6 2984   0.034   2.779  13.465 -0.3168  0.9275 -3.4347
  192MPD1    H7 2985   0.155   2.873  13.399 -0.2478  0.4816  0.9750
  193MPD1     C 2986   1.293   3.077  17.581  0.4289 -0.8355  0.3865
  193MPD1    C1 2987   1.319   3.197  17.636  0.2023  0.3394  0.5023
  193MPD1    C2 2988   1.359   3.301  17.549 -0.3619 -0.2852  0.2845
  193MPD1    C3 2989   1.366   3.280  17.413 -0.5661 -0.0247 -0.1394
  193MPD1    C4 2990   1.342   3.155  17.363  0.5036  0.2632 -0.1088
  193MPD1    C5 2991   1.313   3.049  17.451 -0.1697  0.5308 -0.1920
  193MPD1     H 2992   1.373   3.395  17.602 -2.6687  0.2814 -0.0801
  193MPD1    H1 2993   1.339   3.140  17.256  2.6931 -3.6566  0.3799
  193MPD1    H2 2994   1.262   2.993  17.642 -1.6587 -0.0102  0.4356
  193MPD1    H3 2995   1.306   2.948  17.413  0.1940  0.5418 -0.2886
  193MPD1     N 2996   1.412   3.384  17.323  0.2993 -0.3060 -0.6522
  193MPD1    H5 2997   1.424   3.364  17.224 -0.1752  1.5808 -1.0795
  193MPD1    N1 2998   1.296   3.221   0.037 -0.4363  0.0927  1.0033
  193MPD1    H6 2999   1.345   3.297   0.085 -1.8369  1.8769 -0.3766
  193MPD1    H7 3000   1.307   3.138   0.095 -0.6628 -1.8007 -1.6934
  194MPD1     C 3001   3.830   0.600  16.375 -0.5273 -0.4578  0.3901
  194MPD1    C1 3002   3.890   0.607  16.500 -0.7308 -0.5188 -1.2373
  194MPD1    C2 3003   3.909   0.489  16.569 -0.0785 -0.4314  0.2499
  194MPD1    C3 3004   3.872   0.368  16.519 -0.5277  0.2516  0.5127
  194MPD1    C4 3005   3.822   0.356  16.396  0.1154  0.2356  0.0738
  194MPD1    C5 3006   3.798   0.473  16.319  0.1412 -0.7517  0.0127
  194MPD1     H 3007   3.942   0.512  16.670 -0.5370 -1.9328  0.7336
  194MPD1    H1 3008   3.819   0.257  16.353  0.3785 -0.0749  0.7729
  194MPD1    H2 3009   3.817   0.688  16.312 -1.8241 -1.7237 -1.1313
  194MPD1    H3 3010   3.756   0.470  16.219 -1.5948  1.3098  0.6809
  194MPD1     N 3011   3.888   0.245  16.590 -0.1754 -0.0738  0.1532
  194MPD1    H5 3012   3.852   0.163  16.543 -0.3588  0.0033  0.1587
  194MPD1    N1 3013   3.906   0.731  16.565  0.3625 -0.4452  0.1625
  194MPD1    H6 3014   3.976   0.718  16.639  2.8315 -0.5494 -2.2006
  194MPD1    H7 3015   3.928   0.809  16.504 -1.1499  0.9234  1.3721
  195MPD1     C 3016   1.263   2.597   0.315 -0.2307 -0.0332 -1.4610
  195MPD1    C1 3017   1.207   2.499   0.391  0.5646  1.4195  0.2278
  195MPD1    C2 3018   1.258   2.373   0.386  0.3231 -0.3483  0.0841
  195MPD1    C3 3019   1.359   2.339   0.296  0.1596 -0.0887  0.0470
  195MPD1    C4 3020   1.402   2.439   0.210 -0.5144 -0.5887 -0.3427
  195MPD1    C5 3021   1.351   2.565   0.217 -0.0988 -0.0940 -0.2883
  195MPD1     H 3022   1.221   2.306   0.462 -0.0656 -0.4807 -0.2231
  195MPD1    H1 3023   1.479   2.408   0.140  1.8759  0.5611  1.7713
  195MPD1    H2 3024   1.220   2.696   0.325 -1.7220 -0.3738 -4.8014
  195MPD1    H3 3025   1.392   2.639   0.150 -0.7444  0.1409 -0.4179
  195MPD1     N 3026   1.410   2.208   0.292  0.2842  0.7480  0.3876
  195MPD1    H5 3027   1.466   2.181   0.212 -1.4018  1.2964 -0.9926
  195MPD1    N1 3028   1.125   2.537   0.501 -0.6450  0.5312 -0.0084
  195MPD1    H6 3029   1.069   2.463   0.541  0.7016 -0.9301 -0.8327
  195MPD1    H7 3030   1.069   2.619   0.478 -2.6719 -1.2497 -1.3976
  196MPD1     C 3031   0.435   1.408   0.440  0.4356  0.1388 -0.2821
  196MPD1    C1 3032   0.536   1.469   0.511 -0.2974 -0.1718 -0.9948
  196MPD1    C2 3033   0.504   1.546   0.621 -0.1612 -0.2340 -0.1901
  196MPD1    C3 3034   0.375   1.541   0.684  0.3353  0.4215  0.5310
  196MPD1    C4 3035   0.284   1.462   0.614 -0.2778  0.9274 -0.0153
  196MPD1    C5 3036   0.311   1.401   0.493  0.0853  0.0544 -0.0861
  196MPD1     H 3037   0.589   1.597   0.663  0.1247 -2.1849  1.6206
  196MPD1    H1 3038   0.180   1.470   0.645 -0.3789  0.4698 -0.2398
  196MPD1    H2 3039   0.448   1.355   0.347  1.1648  0.8705 -0.5903
  196MPD1    H3 3040   0.237   1.337   0.446 -1.6699  0.3870  2.1897
  196MPD1     N 3041   0.337   1.621   0.794 -0.3401 -0.1440  0.0151
  196MPD1    H5 3042   0.238   1.638   0.810 -0.1203  0.8834  0.2531
  196MPD1    N1 3043   0.660   1.494   0.447  0.0969  0.7424 -0.0693
  196MPD1    H6 3044   0.737   1.516   0.510  0.7542 -0.7985 -0.3206
  196MPD1    H7 3045   0.690   1.450   0.360 -0.2850 -2.5285  1.4400
  197MPD1     C 3046   4.600   4.609  17.498  0.9013  0.2086 -0.0412
  197MPD1    C1 3047   4.726   4.666  17.521  0.1610 -0.0856  0.0261
  197MPD1    C2 3048   0.103   4.613  17.453  1.1805 -0.0890 -0.7419
  197MPD1    C3 3049   0.094   4.496  17.378 -0.0763 -0.2562 -0.0916
  197MPD1    C4 3050   4.699   4.437  17.368 -0.4055  0.1870  0.4120
  197MPD1    C5 3051   4.591   4.490  17.436 -0.4876 -0.1984  0.0184
  197MPD1     H 3052   0.197   4.666  17.462  0.4863  1.3429 -2.0480
  197MPD1    H1 3053   4.691   4.343  17.316  0.0436  0.6125 -0.4302
  197MPD1    H2 3054   4.508   4.645  17.542  1.0217  1.8296 -1.1154
  197MPD1    H3 3055   4.494   4.442  17.432  0.1256 -1.6199  2.3886
  197MPD1     N 3056   0.207   4.455  17.293  0.4186 -0.0461  0.5308
  197MPD1    H5 3057   0.192   4.373  17.236  0.4379 -0.8906  1.7360
  197MPD1    N1 3058   0.008   0.043  17.611  0.1955  0.4998  0.9109
  197MPD1    H6 3059   0.104   0.065  17.639 -0.7934  3.4498  2.0257
  197MPD1    H7 3060   4.676   0.060  17.688  0.4024 -0.5221  1.3065
  198MPD1     C 3061   1.559   1.816  15.374  0.2605 -0.2987  0.1224
  198MPD1    C1 3062   1.655   1.741  15.441 -0.1904  0.1566  0.4030
  198MPD1    C2 3063   1.775   1.797  15.478 -0.3623 -0.2913 -1.0310
  198MPD1    C3 3064   1.785   1.939  15.466  0.2032 -0.3318  0.4438
  198MPD1    C4 3065   1.682   2.020  15.416 -0.0410  0.3395 -0.1705
  198MPD1    C5 3066   1.573   1.951  15.366  0.4797 -0.6835  0.1934
  198MPD1     H 3067   1.859   1.737  15.510 -0.9436 -0.3624  0.3461
  198MPD1    H1 3068   1.688   2.127  15.401 -1.2409  0.2831 -1.1226
  198MPD1    H2 3069   1.474   1.769  15.325  2.0611 -0.3795 -2.9144
  198MPD1    H3 3070   1.504   2.010  15.307 -1.5795 -2.9784  0.3222
  198MPD1     N 3071   1.896   2.009  15.519 -0.2752 -0.4696 -0.5049
  198MPD1    H5 3072   1.975   1.952  15.547  0.1036  1.2514  1.8960
  198MPD1    N1 3073   1.649   1.601  15.427 -0.2261  0.2242 -0.3485
  198MPD1    H6 3074   1.555   1.564  15.445 -0.9333  2.0898 -0.2404
  198MPD1    H7 3075   1.720   1.553  15.483 -1.9824 -1.3269  0.5848
  199MPD1     C 3076   4.387   4.040   9.946 -0.8975  0.3217 -0.8785
  199MPD1    C1 3077   4.321   4.160   9.957  0.5404  0.8357  0.3937
  199MPD1    C2 3078   4.184   4.148   9.965  0.2884 -0.2103  0.3562
  199MPD1    C3 3079   4.114   4.028   9.984 -0.7182  0.2066 -0.6301
  199MPD1    C4 3080   4.192   3.917   9.985 -0.2244  0.7316  0.0194
  199MPD1    C5 3081   4.326   3.919   9.957 -0.3795  1.0142 -0.0015
  199MPD1     H 3082   4.123   4.238   9.965  0.6903  0.0827  2.7429
  199MPD1    H1 3083   4.132   3.827   9.987 -1.5542  1.5579 -1.9737
  199MPD1    H2 3084   4.495   4.034   9.939 -0.9132 -0.1641 -0.7440
  199MPD1    H3 3085   4.383   3.827   9.948  0.6610  1.6554  0.0708
  199MPD1     N 3086   3.973   4.001   9.994  0.4011  0.8493  0.3280
  199MPD1    H5 3087   3.935   3.909  10.016  0.5589  0.3305 -1.5730
  199MPD1    N1 3088   4.394   4.276   9.927  0.0798 -0.4301  0.1497
  199MPD1    H6 3089   4.360   4.369   9.951  0.9751 -0.3515  1.1327
  199MPD1    H7 3090   4.491   4.265   9.957  0.7445 -4.2244 -3.4090
  200MPD1     C 3091   3.989   3.082  15.337  0.5841  0.2229  0.1147
  200MPD1    C1 3092   4.008   3.159  15.221 -0.1792 -0.0741  0.0483
  200MPD1    C2 3093   3.897   3.195  15.148  0.3587 -0.3747  0.1063
  200MPD1    C3 3094   3.771   3.170  15.204  0.5844  0.0369  0.0458
  200MPD1    C4 3095   3.757   3.087  15.314 -0.3347  0.1085  0.0003
  200MPD1    C5 3096   3.866   3.044  15.386  0.0826  0.3388  0.7404
  200MPD1     H 3097   3.908   3.249  15.054 -1.7821 -0.6940 -0.3313
  200MPD1    H1 3098   3.659   3.069  15.357 -0.6973  0.0150 -0.8504
  200MPD1    H2 3099   4.071   3.047  15.398  0.8191 -0.8790 -0.8332
  200MPD1    H3 3100   3.844   2.976  15.468  0.1855 -0.4632  0.1127
  200MPD1     N 3101   3.668   3.238  15.138 -0.6123 -0.5603 -0.2381
  200MPD1    H5 3102   3.704   3.281  15.053 -0.6212 -1.6300 -0.7713
  200MPD1    N1 3103   4.135   3.151  15.170  0.0724  0.8906  0.1220
  200MPD1    H6 3104   4.143   3.213  15.089  1.6107  0.0865 -0.3243
  200MPD1    H7 3105   4.210   3.156  15.238  0.6512 -0.6507 -0.4074
  201MPD1     C 3106   0.040   2.230  13.496 -0.4662  0.3087 -0.1847
  201MPD1    C1 3107   0.120   2.211  13.388  0.0128  0.3651  0.1784
  201MPD1    C2 3108   0.226   2.137  13.402  0.1340  0.4819  0.0124
  201MPD1    C3 3109   0.259   2.078  13.526 -0.7256 -0.0290  0.2149
  201MPD1    C4 3110   0.178   2.102  13.633  0.1674 -0.2122  0.0007
  201MPD1    C5 3111   0.070   2.185  13.619  0.4219 -0.1051 -0.1942
  201MPD1     H 3112   0.288   2.115  13.316  0.3391  1.7086 -0.1507
  201MPD1    H1 3113   0.179   2.057  13.732  1.8352  0.0499  0.1104
  201MPD1    H2 3114   4.683   2.292  13.505 -0.9311 -0.0077 -2.5507
  201MPD1    H3 3115   0.001   2.197  13.701  0.6736  1.5769 -0.2316
  201MPD1     N 3116   0.386   2.026  13.536  0.5559  0.1779 -0.4563
  201MPD1    H5 3117   0.434   2.007  13.449  1.1723  0.2113 -0.1232
  201MPD1    N1 3118   0.082   2.258  13.268  0.2691  0.4321  0.5005
  201MPD1    H6 3119   0.169   2.277  13.219 -1.0155  0.8890 -1.5998
  201MPD1    H7 3120   0.041   2.351  13.264 -0.4535  0.0360 -1.0164
  202MPD1     C 3121   1.680   1.704   8.951 -0.1723  0.4293 -0.0355
  202MPD1    C1 3122   1.800   1.765   8.988 -0.4738  0.2270  0.2001
  202MPD1    C2 3123   1.775   1.855   9.092  0.4350  0.0845  0.0207
  202MPD1    C3 3124   1.665   1.858   9.176  0.1595  0.4226  0.3892
  202MPD1    C4 3125   1.558   1.775   9.146 -0.3666  0.2656 -0.4339
  202MPD1    C5 3126   1.564   1.699   9.027  0.1283  0.3736 -0.5282
  202MPD1     H 3127   1.864   1.910   9.123  0.9429 -0.2462 -0.8455
  202MPD1    H1 3128   1.466   1.760   9.200  0.3704  0.9518  1.0030
  202MPD1    H2 3129   1.677   1.654   8.855  2.8956 -2.1135  1.2150
  202MPD1    H3 3130   1.476   1.645   8.996  1.1209 -0.0552 -2.6441
  202MPD1     N 3131   1.650   1.944   9.287 -0.1942 -0.3234 -0.1912
  202MPD1    H5 3132   1.569   1.932   9.346  0.4600 -1.5939  0.4428
  202MPD1    N1 3133   1.883   1.800   8.883 -0.6511 -0.1757 -0.4341
  202MPD1    H6 3134   1.963   1.857   8.908 -0.7073 -1.0836  1.7320
  202MPD1    H7 3135   1.913   1.725   8.821  1.9347  0.7744 -0.3211
  203MPD1     C 3136   3.788   2.818  12.294 -0.3328 -0.1557  0.0165
  203MPD1    C1 3137   3.794   2.753  12.169  0.3751 -0.7674 -0.2183
  203MPD1    C2 3138   3.829   2.614  12.162 -0.5315  0.8659 -0.3344
  203MPD1    C3 3139   3.871   2.558  12.277 -0.7249  0.0830 -0.0004
  203MPD1    C4 3140   3.892   2.636  12.390 -0.5218 -0.4415  0.1037
  203MPD1    C5 3141   3.847   2.761  12.397  0.3471  0.4893  0.0404
  203MPD1     H 3142   3.817   2.560  12.069 -1.4036 -2.0429  1.4558
  203MPD1    H1 3143   3.943   2.605  12.480  0.0738 -1.2565 -0.5193
  203MPD1    H2 3144   3.753   2.920  12.300 -2.1720 -0.7745 -0.1780
  203MPD1    H3 3145   3.865   2.813  12.490 -1.6289 -0.3921  0.8977
  203MPD1     N 3146   3.917   2.425  12.270  0.3801  0.4043 -0.1048
  203MPD1    H5 3147   3.914   2.376  12.181  2.5361 -1.0908  0.6458
  203MPD1    N1 3148   3.715   2.803  12.065  0.4149  0.4271  0.2259
  203MPD1    H6 3149   3.716   2.903  12.046 -0.7075  0.6933  1.5036
  203MPD1    H7 3150   3.725   2.751  11.978  2.1482 -0.2264  0.8161
  204MPD1     C 3151   3.204   4.183  17.724 -0.4582  0.2247  0.1393
  204MPD1    C1 3152   3.317   4.202  17.654  0.2609 -0.1390  0.3396
  204MPD1    C2 3153   3.410   4.100  17.636 -0.0937 -0.0727  0.0234
  204MPD1    C3 3154   3.396   3.978  17.713  0.0208 -0.4324 -0.3650
  204MPD1    C4 3155   3.284   3.964   0.065 -0.0510  0.0734 -0.4253
  204MPD1    C5 3156   3.188   4.067   0.063 -0.7428 -0.4223  0.1437
  204MPD1     H 3157   3.507   4.117  17.590 -0.6009 -0.4889 -1.1953
  204MPD1    H1 3158   3.249   3.873   0.113 -0.1940  0.4867  0.2631
  204MPD1    H2 3159   3.130   4.262   0.004  0.3845  0.7262  3.1371
  204MPD1    H3 3160   3.096   4.047   0.117 -1.6731 -1.4617 -1.8527
  204MPD1     N 3161   3.496   3.883  17.719  0.3061  0.2858 -0.3478
  204MPD1    H5 3162   3.577   3.909  17.664  0.9966  0.9135  0.9690
  204MPD1    N1 3163   3.326   4.317  17.568  0.0627 -0.5358 -0.2996
  204MPD1    H6 3164   3.284   4.403  17.605  0.5183 -0.7182  0.6398
  204MPD1    H7 3165   3.424   4.333  17.547  0.4214 -1.8275  0.4025
  205MPD1     C 3166   4.356   2.421  17.686  0.0079  0.0718  0.4065
  205MPD1    C1 3167   4.466   2.452   0.027 -0.3960  0.2965 -0.2550
  205MPD1    C2 3168   4.463   2.535   0.137 -0.4993 -0.0167  0.1015
  205MPD1    C3 3169   4.338   2.595   0.170 -0.2276  0.4371  0.4021
  205MPD1    C4 3170   4.233   2.566   0.095 -0.4526  0.0807  0.1530
  205MPD1    C5 3171   4.239   2.476  17.719  0.4024  1.1750 -0.1359
  205MPD1     H 3172   4.543   2.545   0.209 -1.4201 -1.1855  1.2828
  205MPD1    H1 3173   4.143   2.616   0.130 -2.2473 -2.7936 -0.3983
  205MPD1    H2 3174   4.354   2.349  17.605 -6.3682 -0.9584  1.5310
  205MPD1    H3 3175   4.157   2.453  17.652  1.2900  2.7806 -1.7697
  205MPD1     N 3176   4.307   2.674   0.279 -0.0802 -0.4188 -0.2560
  205MPD1    H5 3177   4.213   2.713   0.278  0.4057  0.6557 -2.9747
  205MPD1    N1 3178   4.589   2.417  17.699 -0.3105  0.1515 -0.8281
  205MPD1    H6 3179   4.663   2.425   0.040 -0.2981  1.7585 -1.0171
  205MPD1    H7 3180   4.595   2.330  17.646  0.9159 -0.4262  0.2510
  206MPD1     C 3181   4.323   0.361  17.167  0.5346 -0.1355 -0.7821
  206MPD1    C1 3182   4.327   0.485  17.116  0.4622  0.3326 -0.2028
  206MPD1    C2 3183   4.335   0.511  16.985  0.0407  0.4671 -0.0712
  206MPD1    C3 3184   4.356   0.408  16.893 -0.2194 -0.1032  1.2884
  206MPD1    C4 3185   4.356   0.278  16.947 -0.6024  0.4700 -0.1366
  206MPD1    C5 3186   4.340   0.257  17.081  0.0734 -0.3166 -0.5012
  206MPD1     H 3187   4.333   0.614  16.952  2.9616  0.0442 -1.6157
  206MPD1    H1 3188   4.369   0.192  16.882 -0.2830  0.9211 -0.6701
  206MPD1    H2 3189   4.325   0.338  17.273  2.3947  1.5762 -0.4503
  206MPD1    H3 3190   4.345   0.153  17.112  0.2484  0.0708  0.7803
  206MPD1     N 3191   4.343   0.426  16.748  0.3601 -0.3807  0.0620
  206MPD1    H5 3192   4.344   0.342  16.691 -0.3031 -0.5521  0.2940
  206MPD1    N1 3193   4.303   0.597  17.200 -0.8023 -0.0024  0.3549
  206MPD1    H6 3194   4.342   0.682  17.160 -1.3713  0.7378  1.3742
  206MPD1    H7 3195   4.338   0.594  17.296  1.0267  1.3439 -0.2754
  207MPD1     C 3196   0.824   4.126  10.071  0.0812  0.0545 -0.0485
  207MPD1    C1 3197   0.901   4.202   9.985  0.2092  0.2545  0.1114
  207MPD1    C2 3198   1.043   4.183   9.986 -0.7124 -0.0412 -0.0186
  207MPD1    C3 3199   1.107   4.087  10.067 -0.2757  0.1594 -0.9127
  207MPD1    C4 3200   1.028   4.022  10.167 -0.2874  0.0621  0.5610
  207MPD1    C5 3201   0.894   4.049  10.161  0.1922  0.5170 -0.1575
  207MPD1     H 3202   1.102   4.248   9.922  0.1432 -0.9278 -0.1182
  207MPD1    H1 3203   1.065   3.955  10.244 -1.3095  0.4467  1.3862
  207MPD1    H2 3204   0.717   4.141  10.080  0.1526  0.2879  0.4068
  207MPD1    H3 3205   0.834   4.013  10.244  0.3138  1.8271  0.4945
  207MPD1     N 3206   1.247   4.063  10.070  0.1503 -0.3658 -0.1208
  207MPD1    H5 3207   1.292   3.997  10.134 -0.0154 -0.8891 -0.5421
  207MPD1    N1 3208   0.844   4.278   9.888 -0.2112 -0.0574  0.0844
  207MPD1    H6 3209   0.745   4.294   9.904  0.1488  0.0606  2.1216
  207MPD1    H7 3210   0.889   4.369   9.894 -1.1168  0.5265 -1.9289
  208MPD1     C 3211   1.184   2.292   0.897  0.2310 -0.3037  0.5276
  208MPD1    C1 3212   1.175   2.426   0.869  0.7864 -0.7114 -0.4523
  208MPD1    C2 3213   1.055   2.481   0.816 -0.3136 -0.3403 -0.1229
  208MPD1    C3 3214   0.953   2.399   0.779  0.7272 -0.3674 -0.6161
  208MPD1    C4 3215   0.967   2.262   0.800  0.3188  0.7076 -0.6647
  208MPD1    C5 3216   1.074   2.214   0.868 -0.2397  0.6910  0.1417
  208MPD1     H 3217   1.031   2.586   0.805  0.4203  0.0326  1.7847
  208MPD1    H1 3218   0.877   2.200   0.801  1.6489 -1.2446 -2.4097
  208MPD1    H2 3219   1.271   2.240   0.937  0.1360 -1.8299 -1.2771
  208MPD1    H3 3220   1.076   2.109   0.892  1.4526  0.4809 -0.8986
  208MPD1     N 3221   0.844   2.459   0.712 -0.1844 -0.7822  0.1131
  208MPD1    H5 3222   0.844   2.561   0.717 -0.8977 -0.7967  0.3669
  208MPD1    N1 3223   1.278   2.515   0.907 -0.4196 -0.1197 -0.1298
  208MPD1    H6 3224   1.296   2.571   0.824 -0.7748 -0.9826 -0.8002
  208MPD1    H7 3225   1.362   2.456   0.909 -0.6829 -0.4678  0.5100
  209MPD1     C 3226   1.311   2.508  10.937  0.2014  0.0061 -1.0316
  209MPD1    C1 3227   1.382   2.577  11.030 -0.5038  0.2174 -0.0822
  209MPD1    C2 3228   1.434   2.702  10.988  0.4076  0.1237  0.2858
  209MPD1    C3 3229   1.408   2.765  10.865 -0.2850 -0.6300 -0.7196
  209MPD1    C4 3230   1.330   2.691  10.777 -0.3997  0.1075 -0.2437
  209MPD1    C5 3231   1.287   2.566  10.812 -0.0236 -0.2215 -0.3930
  209MPD1     H 3232   1.511   2.751  11.046  1.8790 -0.1602 -1.4260
  209MPD1    H1 3233   1.300   2.719  10.677  0.5445 -0.2825 -0.6341
  209MPD1    H2 3234   1.279   2.404  10.938  1.6352 -0.4225 -0.4127
  209MPD1    H3 3235   1.232   2.506  10.740 -0.7000 -0.2109  0.1090
  209MPD1     N 3236   1.488   2.877  10.833 -0.0278 -0.7112  0.1178
  209MPD1    H5 3237   1.544   2.914  10.909 -0.2490 -0.2943  0.0775
  209MPD1    N1 3238   1.412   2.518  11.149  0.2759  0.1573  0.3425
  209MPD1    H6 3239   1.448   2.588  11.213  0.8843  0.8870 -0.7899
  209MPD1    H7 3240   1.322   2.483  11.182  0.8651 -1.0158  0.7130
  210MPD1     C 3241   2.206   3.502  11.139 -0.6966  0.2888 -0.4298
  210MPD1    C1 3242   2.183   3.368  11.144  0.8677  0.1005 -0.0986
  210MPD1    C2 3243   2.087   3.313  11.063 -0.7381  0.3338 -0.0922
  210MPD1    C3 3244   2.005   3.392  10.982 -0.1420 -0.0660 -0.2146
  210MPD1    C4 3245   2.035   3.528  10.975 -0.9097 -1.1821  0.4647
  210MPD1    C5 3246   2.133   3.581  11.050  0.2981  0.6382  0.3777
  210MPD1     H 3247   2.077   3.205  11.065 -1.7565  0.4278  0.0748
  210MPD1    H1 3248   1.969   3.596  10.922 -1.4794 -3.5975 -1.9410
  210MPD1    H2 3249   2.293   3.550  11.185  0.1828 -0.9575 -0.7890
  210MPD1    H3 3250   2.146   3.688  11.049 -1.4018  0.8575  2.3095
  210MPD1     N 3251   1.911   3.330  10.899 -0.4398  0.9327  0.8100
  210MPD1    H5 3252   1.853   3.397  10.848 -0.5799  1.7536  2.0368
  210MPD1    N1 3253   2.270   3.288  11.215  0.2471 -0.9007 -0.6200
  210MPD1    H6 3254   2.288   3.331  11.305  1.7936 -1.6269 -0.5932
  210MPD1    H7 3255   2.227   3.197  11.234 -0.4941 -0.6646 -1.1532
  211MPD1     C 3256   3.846   1.683  16.675  0.0616  0.1391  0.0695
  211MPD1    C1 3257   3.730   1.752  16.652 -1.0909 -0.4120 -0.7119
  211MPD1    C2 3258   3.739   1.888  16.672 -0.1391 -0.6544  0.2157
  211MPD1    C3 3259   3.856   1.940  16.722 -0.5989  0.0731 -0.2016
  211MPD1    C4 3260   3.967   1.869  16.755 -0.7851  0.2733 -0.1788
  211MPD1    C5 3261   3.959   1.735  16.737  0.3784 -0.4809 -0.0900
  211MPD1     H 3262   3.655   1.948  16.637  0.3933 -0.4865 -0.7662
  211MPD1    H1 3263   4.060   1.915  16.784 -0.2120 -2.2525  2.0352
  211MPD1    H2 3264   3.867   1.578  16.659  0.7428  0.1021  1.1545
  211MPD1    H3 3265   4.048   1.679  16.759  0.8911  0.7373  0.9597
  211MPD1     N 3266   3.854   2.086  16.740  0.0186 -0.8840 -0.2947
  211MPD1    H5 3267   3.765   2.131  16.719  0.7117  1.6000  2.0618
  211MPD1    N1 3268   3.625   1.699  16.574  0.1003  0.6511 -0.2566
  211MPD1    H6 3269   3.605   1.601  16.589 -0.3516  0.6599 -0.7942
  211MPD1    H7 3270   3.543   1.760  16.577  0.3392  0.9933 -0.7501
  212MPD1     C 3271   3.551   0.628  16.652  0.0250  0.4338 -0.2751
  212MPD1    C1 3272   3.468   0.693  16.745  0.5359  1.2121  0.2749
  212MPD1    C2 3273   3.337   0.652  16.763 -0.1475 -0.3460 -1.0323
  212MPD1    C3 3274   3.305   0.527  16.718 -0.2680  0.7939 -0.5408
  212MPD1    C4 3275   3.390   0.454  16.639 -0.2649 -0.4884  0.5378
  212MPD1    C5 3276   3.508   0.510  16.598  0.2853 -0.0146  0.3149
  212MPD1     H 3277   3.271   0.722  16.812  0.5885 -0.7615  0.5423
  212MPD1    H1 3278   3.359   0.354  16.611 -0.0410 -0.3170 -0.3256
  212MPD1    H2 3279   3.656   0.651  16.643  0.3191 -0.7861  0.1294
  212MPD1    H3 3280   3.580   0.452  16.542 -0.0267 -0.5444  0.4555
  212MPD1     N 3281   3.193   0.460  16.773  0.1820  0.0690  0.1470
  212MPD1    H5 3282   3.193   0.362  16.746 -0.5822  0.1016  0.0145
  212MPD1    N1 3283   3.506   0.821  16.786  0.6039 -0.6501 -0.4956
  212MPD1    H6 3284   3.605   0.835  16.803  0.4320  0.4953 -0.4479
  212MPD1    H7 3285   3.459   0.845  16.873  0.9316 -0.8447 -0.2634
  213MPD1     C 3286   1.632   1.110  15.510 -0.5249  0.2639 -0.2671
  213MPD1    C1 3287   1.546   1.048  15.429 -0.5704  0.4708 -0.3534
  213MPD1    C2 3288   1.458   1.127  15.365 -0.4620  0.0315 -0.3731
  213MPD1    C3 3289   1.433   1.254  15.415 -0.4938 -0.4714 -0.2361
  213MPD1    C4 3290   1.507   1.309  15.520  0.6173 -0.3169  0.8419
  213MPD1    C5 3291   1.605   1.233  15.568 -0.5095 -0.0779  0.4383
  213MPD1     H 3292   1.403   1.096  15.277  0.5780 -0.8222 -0.7238
  213MPD1    H1 3293   1.469   1.400  15.564 -1.5327 -0.8306  0.0147
  213MPD1    H2 3294   1.713   1.057  15.559  0.4450  0.7960 -1.2837
  213MPD1    H3 3295   1.660   1.268  15.654 -0.5596 -0.8902  0.8006
  213MPD1     N 3296   1.334   1.334  15.345  0.0987  0.0780  0.2860
  213MPD1    H5 3297   1.276   1.285  15.277  1.0843  1.8530 -1.8517
  213MPD1    N1 3298   1.608   0.940  15.372 -0.5181 -0.4533 -0.3625
  213MPD1    H6 3299   1.675   0.893  15.433 -0.9745  0.5598  0.9252
  213MPD1    H7 3300   1.538   0.872  15.342 -1.6573  0.9348 -0.8519
  214MPD1     C 3301   0.576   1.015  14.918 -0.5941 -0.1710  0.2527
  214MPD1    C1 3302   0.701   0.976  14.968  0.9516  0.6287  0.0028
  214MPD1    C2 3303   0.772   1.069  15.039  0.7039  0.2652  0.0347
  214MPD1    C3 3304   0.720   1.195  15.060 -0.0623 -0.3583 -0.4867
  214MPD1    C4 3305   0.592   1.235  15.009 -0.0175  0.4350 -0.6626
  214MPD1    C5 3306   0.518   1.141  14.942  0.2099 -0.3705 -0.2164
  214MPD1     H 3307   0.877   1.046  15.055  1.0216  2.5943  1.3486
  214MPD1    H1 3308   0.547   1.330  15.032 -0.5126  0.4367 -1.6766
  214MPD1    H2 3309   0.517   0.940  14.866 -1.7051 -1.1945  3.0106
  214MPD1    H3 3310   0.417   1.153  14.905 -0.5967 -1.4346  1.6532
  214MPD1     N 3311   0.795   1.289  15.130  0.5871  0.1931  0.6480
  214MPD1    H5 3312   0.744   1.376  15.141 -0.3246 -0.2536 -0.0395
  214MPD1    N1 3313   0.771   0.870  14.904  0.0060  0.1782 -0.2678
  214MPD1    H6 3314   0.842   0.829  14.964  1.5140  0.7521 -1.6466
  214MPD1    H7 3315   0.713   0.791  14.876  1.3138 -0.5064 -1.0424
  215MPD1     C 3316   0.750   2.179  10.909 -0.1737 -0.1247  0.0406
  215MPD1    C1 3317   0.828   2.166  11.022  0.0386  0.4666 -0.9529
  215MPD1    C2 3318   0.909   2.280  11.057 -0.4097 -0.4020 -0.1592
  215MPD1    C3 3319   0.893   2.402  10.994 -0.8408 -0.1457  0.0888
  215MPD1    C4 3320   0.807   2.413  10.885 -0.1264 -0.1880  0.0691
  215MPD1    C5 3321   0.730   2.305  10.847  0.4528  0.3177  0.0325
  215MPD1     H 3322   0.985   2.261  11.131 -1.0656 -1.5459  0.2123
  215MPD1    H1 3323   0.794   2.503  10.826  0.9109 -1.0599 -1.4931
  215MPD1    H2 3324   0.687   2.098  10.876 -0.0516  1.0780 -3.1436
  215MPD1    H3 3325   0.661   2.320  10.765 -0.1014 -1.1754  0.2156
  215MPD1     N 3326   0.968   2.505  11.053 -0.4402  0.2101 -0.5106
  215MPD1    H5 3327   1.031   2.480  11.129 -2.6838 -2.3046  0.5282
  215MPD1    N1 3328   0.844   2.044  11.088 -0.1879  0.1781 -0.5419
  215MPD1    H6 3329   0.859   2.053  11.188  1.9917 -1.4250 -0.7284
  215MPD1    H7 3330   0.759   1.988  11.078  1.9165 -3.0611 -0.1929
  216MPD1     C 3331   3.648   0.554  17.013 -0.0216 -0.3306 -0.1079
  216MPD1    C1 3332   3.574   0.557  17.125  0.1377  0.5265 -0.7455
  216MPD1    C2 3333   3.487   0.449  17.145  0.0792 -0.5349  0.2927
  216MPD1    C3 3334   3.459   0.357  17.049  0.3791 -0.3689 -0.6508
  216MPD1    C4 3335   3.534   0.363  16.929 -0.5672  0.4574 -0.3592
  216MPD1    C5 3336   3.625   0.461  16.920 -0.7552 -0.7921 -0.1577
  216MPD1     H 3337   3.424   0.447  17.234 -1.9085 -2.0161 -1.1558
  216MPD1    H1 3338   3.519   0.294  16.846  0.0635 -2.9622  2.3855
  216MPD1    H2 3339   3.737   0.614  16.995  0.6368 -0.7801  1.6066
  216MPD1    H3 3340   3.678   0.459  16.826  0.6405 -1.7435  0.6495
  216MPD1     N 3341   3.357   0.261  17.080  0.2174 -0.9212 -0.5668
  216MPD1    H5 3342   3.329   0.263  17.177  3.3688 -0.1464  0.3241
  216MPD1    N1 3343   3.608   0.647  17.227  0.1357 -0.1404 -0.4640
  216MPD1    H6 3344   3.524   0.687  17.270  0.9448 -0.9135  1.8507
  216MPD1    H7 3345   3.663   0.722  17.185 -0.6909 -0.0104 -1.3000
  217MPD1     C 3346   3.622   1.829   8.352 -0.7210 -1.0529  0.0521
  217MPD1    C1 3347   3.739   1.772   8.393  0.5483 -1.0228 -0.3485
  217MPD1    C2 3348   3.822   1.848   8.476 -0.2417  0.2794  0.0748
  217MPD1    C3 3349   3.798   1.979   8.513  0.2710 -0.6993 -0.5002
  217MPD1    C4 3350   3.680   2.033   8.470  0.1812 -0.0614  0.6271
  217MPD1    C5 3351   3.597   1.955   8.394  0.2002  0.4927  0.0905
  217MPD1     H 3352   3.922   1.810   8.492 -1.2852 -2.8470 -0.9792
  217MPD1    H1 3353   3.646   2.131   8.500 -0.3521  0.0557 -0.3658
  217MPD1    H2 3354   3.556   1.778   8.282 -0.8067  0.0257 -0.6500
  217MPD1    H3 3355   3.514   2.008   8.348 -0.1336 -0.2388 -0.1468
  217MPD1     N 3356   3.887   2.059   8.580 -0.5676  0.6475  0.7946
  217MPD1    H5 3357   3.844   2.148   8.602  0.9311  1.5940 -0.1586
  217MPD1    N1 3358   3.757   1.628   8.378  0.0788  0.0815 -0.0918
  217MPD1    H6 3359   3.735   1.584   8.289  3.5829 -2.3664  0.2287
  217MPD1    H7 3360   3.851   1.595   8.401 -0.3029 -1.7829 -1.1777
  218MPD1     C 3361   0.509   2.352  13.304 -0.3438  0.3468 -0.2953
  218MPD1    C1 3362   0.638   2.295  13.312 -0.1462  0.3572  0.1099
  218MPD1    C2 3363   0.717   2.299  13.192 -0.2315  0.5583 -0.5319
  218MPD1    C3 3364   0.682   2.374  13.085  0.0336  0.5524  0.7041
  218MPD1    C4 3365   0.568   2.438  13.085 -0.1176  0.0235  0.0952
  218MPD1    C5 3366   0.478   2.420  13.187  0.0562  0.0174 -0.3631
  218MPD1     H 3367   0.810   2.243  13.196 -0.0331  0.8093 -1.9354
  218MPD1    H1 3368   0.525   2.500  13.007  1.8010  0.9748 -0.2161
  218MPD1    H2 3369   0.435   2.344  13.382 -1.9331 -0.8584 -1.9155
  218MPD1    H3 3370   0.376   2.458  13.182 -0.1712 -0.8824 -2.4604
  218MPD1     N 3371   0.773   2.383  12.980  0.8272 -0.0169 -0.3680
  218MPD1    H5 3372   0.867   2.348  12.995  0.4540 -1.4183 -1.2813
  218MPD1    N1 3373   0.671   2.214  13.425 -0.0165  0.2500 -0.3849
  218MPD1    H6 3374   0.772   2.206  13.437  0.1830  0.5584 -1.8113
  218MPD1    H7 3375   0.624   2.249  13.508 -0.5525  1.6263 -1.2622
  219MPD1     C 3376   0.771   2.408  11.948 -0.5117 -0.9920 -0.1025
  219MPD1    C1 3377   0.845   2.507  12.000 -0.1942  0.1706  0.5405
  219MPD1    C2 3378   0.850   2.529  12.135  0.1485  0.0625 -0.5572
  219MPD1    C3 3379   0.817   2.429  12.227  0.3857 -0.0195  0.5329
  219MPD1    C4 3380   0.755   2.314  12.173 -0.0347  0.4712 -0.2652
  219MPD1    C5 3381   0.721   2.308  12.037  0.6336  0.4000 -0.1390
  219MPD1     H 3382   0.878   2.628  12.171  0.4669 -1.2878  2.8759
  219MPD1    H1 3383   0.716   2.236  12.237  1.1420  0.0184 -0.1089
  219MPD1    H2 3384   0.755   2.406  11.840 -0.7841  1.6715 -0.0974
  219MPD1    H3 3385   0.671   2.224  11.993  1.8317 -0.5822  0.3751
  219MPD1     N 3386   0.843   2.431  12.371  0.5609 -0.2342  0.0079
  219MPD1    H5 3387   0.802   2.347  12.411  1.5834 -0.0908  1.3548
  219MPD1    N1 3388   0.887   2.609  11.917  0.0082 -0.6849  0.0032
  219MPD1    H6 3389   0.967   2.669  11.939  0.7379 -1.6503 -0.0269
  219MPD1    H7 3390   0.905   2.573  11.823 -2.1626 -0.7587 -0.3814
  220MPD1     C 3391   0.807   3.859   9.663  0.1573  0.2641  0.1612
  220MPD1    C1 3392   0.870   3.753   9.607  0.1105 -0.1496 -0.2066
  220MPD1    C2 3393   0.927   3.658   9.694  0.4800 -0.2741  0.0243
  220MPD1    C3 3394   0.923   3.665   9.827  0.0694 -1.2267  0.3348
  220MPD1    C4 3395   0.849   3.772   9.881 -0.0554  0.0623 -0.6638
  220MPD1    C5 3396   0.790   3.868   9.803 -0.2142 -0.0692 -0.9838
  220MPD1     H 3397   0.980   3.571   9.657  1.7349 -0.0191  1.2147
  220MPD1    H1 3398   0.834   3.791   9.986  0.8554  0.8406 -0.6731
  220MPD1    H2 3399   0.758   3.940   9.610  0.8242  0.3169 -0.3703
  220MPD1    H3 3400   0.740   3.956   9.843  0.7163 -0.3690  0.8267
  220MPD1     N 3401   0.996   3.570   9.902  0.0094  0.2082 -0.1134
  220MPD1    H5 3402   1.048   3.502   9.847  0.9445  0.9430 -0.1459
  220MPD1    N1 3403   0.877   3.743   9.469  0.5559 -0.5121 -0.8144
  220MPD1    H6 3404   0.823   3.814   9.419  0.8151  0.7729  0.7261
  220MPD1    H7 3405   0.858   3.657   9.418 -0.8763 -1.0384  0.6230
  221MPD1     C 3406   3.463   2.193  16.081 -1.0334 -0.5721 -0.1020
  221MPD1    C1 3407   3.550   2.294  16.100  0.5735 -0.1741  0.2032
  221MPD1    C2 3408   3.677   2.260  16.157  0.5435 -0.7973  0.5732
  221MPD1    C3 3409   3.697   2.137  16.217  0.8604  0.2715  1.1416
  221MPD1    C4 3410   3.610   2.037  16.193  0.2919 -0.2666  0.2239
  221MPD1    C5 3411   3.493   2.067  16.133 -1.3760 -0.0457 -0.3782
  221MPD1     H 3412   3.747   2.343  16.158 -1.1301  0.6230  2.8428
  221MPD1    H1 3413   3.621   1.937  16.232 -1.3335 -0.4223  0.2906
  221MPD1    H2 3414   3.371   2.222  16.032  0.2444  1.8864 -1.0269
  221MPD1    H3 3415   3.432   1.977  16.135  1.0513 -1.7162 -1.2690
  221MPD1     N 3416   3.815   2.113  16.292 -0.4917  0.5228 -0.3630
  221MPD1    H5 3417   3.832   2.015  16.315  0.3595  0.6081 -0.6171
  221MPD1    N1 3418   3.530   2.417  16.033 -0.3080  0.0429 -0.1576
  221MPD1    H6 3419   3.431   2.435  16.024 -0.5405 -1.9567 -1.6270
  221MPD1    H7 3420   3.569   2.493  16.088  0.3823  1.9494 -3.2830
  222MPD1     C 3421   4.605   1.959   1.441  0.0051 -0.1037  0.1498
  222MPD1    C1 3422   4.528   2.047   1.512 -0.4223  0.0837  0.7150
  222MPD1    C2 3423   4.409   2.090   1.464  0.2737  0.4638  0.7253
  222MPD1    C3 3424   4.358   2.054   1.342 -0.0280 -1.1770  0.1035
  222MPD1    C4 3425   4.433   1.966   1.279 -0.2171 -0.2682 -0.4203
  222MPD1    C5 3426   4.556   1.918   1.324 -0.1648 -0.2128  0.1305
  222MPD1     H 3427   4.350   2.160   1.522 -2.6989 -0.2657 -1.3702
  222MPD1    H1 3428   4.400   1.918   1.187 -0.9215 -1.5873  0.5264
  222MPD1    H2 3429   4.698   1.918   1.479  1.5147  1.7231 -1.5795
  222MPD1    H3 3430   4.601   1.835   1.270 -1.6001 -1.2514  0.5171
  222MPD1     N 3431   4.234   2.091   1.289 -0.1520 -0.4347 -0.2204
  222MPD1    H5 3432   4.219   2.041   1.203 -0.5890  0.2650 -0.5518
  222MPD1    N1 3433   4.574   2.090   1.637  0.3449  0.3430 -0.5697
  222MPD1    H6 3434   4.614   2.013   1.690  0.6748 -0.9644 -2.7189
  222MPD1    H7 3435   4.494   2.128   1.686  0.5383  0.6807 -0.5187
  223MPD1     C 3436   3.918   1.611   0.649 -0.3466  0.0303 -0.5288
  223MPD1    C1 3437   4.037   1.649   0.699  0.2133 -0.5406  0.8333
  223MPD1    C2 3438   4.034   1.744   0.806 -0.2342 -0.0321 -0.3911
  223MPD1    C3 3439   3.922   1.801   0.861  0.0415  1.2354 -0.1633
  223MPD1    C4 3440   3.801   1.750   0.816  0.4557  0.2471 -0.2115
  223MPD1    C5 3441   3.799   1.659   0.707  0.2868 -0.1924  0.0854
  223MPD1     H 3442   4.134   1.774   0.835 -1.6126  3.0252  1.3079
  223MPD1    H1 3443   3.705   1.785   0.853  0.0902  0.0344 -0.9619
  223MPD1    H2 3444   3.915   1.548   0.561 -0.9166  0.0165 -0.5030
  223MPD1    H3 3445   3.707   1.622   0.664 -1.5081  2.3013  1.7789
  223MPD1     N 3446   3.943   1.906   0.951 -0.3047  0.6750  0.1703
  223MPD1    H5 3447   4.036   1.939   0.973 -0.7489  1.1192  1.3850
  223MPD1    N1 3448   4.157   1.586   0.664 -0.2572  0.3840 -0.6130
  223MPD1    H6 3449   4.232   1.652   0.683  1.0307 -1.4314  0.5239
  223MPD1    H7 3450   4.158   1.555   0.567 -0.0407 -0.7292 -0.2571
  224MPD1     C 3451   4.278   2.965   9.149  0.1975  0.6265  0.2521
  224MPD1    C1 3452   4.382   2.881   9.189 -0.1250 -0.3518  0.5702
  224MPD1    C2 3453   4.417   2.867   9.324  0.0065 -1.0886  0.1142
  224MPD1    C3 3454   4.332   2.933   9.410 -0.1716 -0.1294  0.2836
  224MPD1    C4 3455   4.224   2.997   9.360  0.1926  0.3595  0.0530
  224MPD1    C5 3456   4.188   3.018   9.226 -0.0679 -0.3830 -0.6126
  224MPD1     H 3457   4.508   2.818   9.356  0.1916  0.0139  1.2490
  224MPD1    H1 3458   4.168   3.053   9.434  1.8796  3.0204 -0.6566
  224MPD1    H2 3459   4.258   2.978   9.043  1.5573 -1.6918 -0.3003
  224MPD1    H3 3460   4.111   3.085   9.190 -1.1106 -0.9242  0.6088
  224MPD1     N 3461   4.347   2.949   9.548 -0.2983 -0.6573 -0.0728
  224MPD1    H5 3462   4.281   3.006   9.600 -0.7961 -0.5757 -0.7928
  224MPD1    N1 3463   4.463   2.826   9.086 -0.3799  0.2713  1.1385
  224MPD1    H6 3464   4.499   2.736   9.117 -0.9162 -1.2145 -2.5623
  224MPD1    H7 3465   4.401   2.819   9.005 -0.4199 -2.5297  1.4139
  225MPD1     C 3466   1.430   3.411  12.293 -0.7030  0.3211 -0.4419
  225MPD1    C1 3467   1.367   3.345  12.189  0.2424  0.3232  0.2553
  225MPD1    C2 3468   1.235   3.356  12.179 -0.2172 -0.1236 -0.4004
  225MPD1    C3 3469   1.163   3.403  12.294 -0.2718  1.4411  0.5664
  225MPD1    C4 3470   1.218   3.438  12.410  0.3922  0.4847 -0.1633
  225MPD1    C5 3471   1.357   3.440  12.407 -0.2600  0.1749  0.1441
  225MPD1     H 3472   1.187   3.343  12.083  0.6399  0.7583 -0.9520
  225MPD1    H1 3473   1.161   3.479  12.493 -0.7318  1.2287 -1.3064
  225MPD1    H2 3474   1.537   3.415  12.311 -0.6772  2.1564 -1.0108
  225MPD1    H3 3475   1.411   3.477  12.493  2.2610 -0.9214 -0.9675
  225MPD1     N 3476   1.021   3.401  12.284  0.4818 -0.8370  0.6633
  225MPD1    H5 3477   0.977   3.446  12.364  2.9553  1.3775  0.7797
  225MPD1    N1 3478   1.448   3.307  12.084  0.7584 -0.0467 -0.2748
  225MPD1    H6 3479   1.401   3.235  12.028  0.2106 -0.1300  0.2898
  225MPD1    H7 3480   1.537   3.271  12.118  0.9598 -1.9369 -2.7565
  226MPD1     C 3481   2.434   3.564   9.856 -0.1218  0.2299  1.0213
  226MPD1    C1 3482   2.465   3.513   9.729 -0.3049 -0.2005  0.4578
  226MPD1    C2 3483   2.585   3.548   9.674 -0.5566 -0.0970  0.1706
  226MPD1    C3 3484   2.683   3.618   9.740 -0.6675 -1.1468 -0.4737
  226MPD1    C4 3485   2.662   3.655   9.866  0.3119 -0.2365 -0.7524
  226MPD1    C5 3486   2.537   3.636   9.922  0.7332  0.2327  0.6291
  226MPD1     H 3487   2.602   3.510   9.574  1.0791 -0.3090  0.5259
  226MPD1    H1 3488   2.735   3.701   9.932  1.0524 -1.1244 -0.9406
  226MPD1    H2 3489   2.330   3.553   9.885 -0.3324  2.8207  1.2852
  226MPD1    H3 3490   2.517   3.673  10.022  2.8101  0.5181  0.9369
  226MPD1     N 3491   2.803   3.643   9.665  0.1075 -0.1021  0.1610
  226MPD1    H5 3492   2.806   3.615   9.567 -2.7201  2.4585 -0.6650
  226MPD1    N1 3493   2.364   3.453   9.652  0.1330  0.7626 -0.0469
  226MPD1    H6 3494   2.411   3.388   9.590 -2.6871  0.2443 -1.6155
  226MPD1    H7 3495   2.304   3.406   9.719  1.3162 -1.0068 -0.2482
  227MPD1     C 3496   3.492   4.408   9.622 -0.0338 -0.4440 -0.2649
  227MPD1    C1 3497   3.356   4.419   9.608 -0.5738 -0.2985 -0.0196
  227MPD1    C2 3498   3.282   4.299   9.607  0.4064  0.0146  0.4841
  227MPD1    C3 3499   3.345   4.176   9.604  0.3813  0.2613 -0.4536
  227MPD1    C4 3500   3.480   4.173   9.614  0.3319 -1.3845 -0.3335
  227MPD1    C5 3501   3.557   4.284   9.619  0.0588  0.2638  0.7374
  227MPD1     H 3502   3.174   4.296   9.596  0.3156  0.6006  1.1862
  227MPD1    H1 3503   3.531   4.078   9.601  0.3734 -1.1986 -1.4943
  227MPD1    H2 3504   3.557   4.495   9.617 -0.5624  0.0794  1.7619
  227MPD1    H3 3505   3.665   4.277   9.621  0.0817  0.4613  0.1548
  227MPD1     N 3506   3.268   4.055   9.598  0.7215  0.2424  0.1915
  227MPD1    H5 3507   3.167   4.064   9.602  0.6969 -0.7922  1.8070
  227MPD1    N1 3508   3.287   4.540   9.629 -0.1983  0.3426 -0.2062
  227MPD1    H6 3509   3.196   4.547   9.584 -0.3842 -0.6416  0.0275
  227MPD1    H7 3510   3.338   4.620   9.592 -2.0542  2.2263  1.3597
  228MPD1     C 3511   2.581   1.785  13.783 -0.1129  0.1082 -0.1008
  228MPD1    C1 3512   2.472   1.801  13.707  0.2935 -0.0641  0.1284
  228MPD1    C2 3513   2.434   1.698  13.618 -0.3748  0.4722  0.3036
  228MPD1    C3 3514   2.513   1.578  13.606 -0.7383 -0.2705 -0.7572
  228MPD1    C4 3515   2.630   1.571  13.678  0.2534 -0.4888  0.8627
  228MPD1    C5 3516   2.665   1.675  13.767 -0.5050  0.2649 -0.5999
  228MPD1     H 3517   2.352   1.722  13.551  0.8937  0.7074 -1.1974
  228MPD1    H1 3518   2.701   1.489  13.689 -2.3040 -2.8210 -0.0626
  228MPD1    H2 3519   2.617   1.870  13.840  0.2073  0.8428 -1.3970
  228MPD1    H3 3520   2.758   1.669  13.822 -0.5009  0.5546 -0.5762
  228MPD1     N 3521   2.459   1.480  13.520 -0.1600  0.1769  0.3021
  228MPD1    H5 3522   2.382   1.508  13.461 -1.4617 -0.0189  1.9123
  228MPD1    N1 3523   2.392   1.912  13.724 -0.4467  0.5296 -0.0642
  228MPD1    H6 3524   2.340   1.933  13.639  0.1994  1.1643 -0.3020
  228MPD1    H7 3525   2.445   1.991  13.758 -1.5909  0.6633  1.3887
  229MPD1     C 3526   2.226   4.710  14.667 -0.1887 -0.0518  0.2612
  229MPD1    C1 3527   2.152   4.727  14.783 -0.0676 -0.2011 -0.2526
  229MPD1    C2 3528   2.180   4.640  14.887 -0.2441  0.2511 -0.4237
  229MPD1    C3 3529   2.296   4.565  14.884  0.1203  0.3975  0.1434
  229MPD1    C4 3530   2.375   4.554  14.771 -0.2079 -0.2322  0.3206
  229MPD1    C5 3531   2.338   4.628  14.661  0.7364  0.7103  0.1521
  229MPD1     H 3532   2.120   4.642  14.977 -0.3244  0.4775 -0.4817
  229MPD1    H1 3533   2.471   4.504  14.769 -0.5151 -0.8678  1.3518
  229MPD1    H2 3534   2.204   0.035  14.578  0.2440  1.7544  1.3235
  229MPD1    H3 3535   2.390   4.624  14.567 -1.1706 -1.1792 -0.8236
  229MPD1     N 3536   2.340   4.486  14.986 -0.3687 -0.0794  0.5743
  229MPD1    H5 3537   2.429   4.439  14.977  1.5428  3.6528 -0.3156
  229MPD1    N1 3538   2.031   0.062  14.775 -0.5278 -0.5449  0.3336
  229MPD1    H6 3539   2.038   0.151  14.727  1.1831 -0.2238  1.1697
  229MPD1    H7 3540   1.980   0.085  14.860 -0.5147 -2.9527  1.0087
  230MPD1     C 3541   2.242   4.398  15.985  0.0937 -1.0036 -0.8840
  230MPD1    C1 3542   2.274   4.516  15.917  0.9400 -0.3407  0.0093
  230MPD1    C2 3543   2.291   4.500  15.781  0.7423  0.2828  0.2842
  230MPD1    C3 3544   2.306   4.375  15.723  0.3452  0.9741 -0.2666
  230MPD1    C4 3545   2.278   4.262  15.795  0.5407 -1.0137  0.2497
  230MPD1    C5 3546   2.237   4.278  15.925  0.0434  0.5275 -0.2600
  230MPD1     H 3547   2.313   4.594  15.732  0.0451  0.2163 -0.1508
  230MPD1    H1 3548   2.279   4.157  15.765 -1.1967 -0.7732 -0.6544
  230MPD1    H2 3549   2.213   4.403  16.089 -1.5681 -0.5566 -1.3816
  230MPD1    H3 3550   2.219   4.192  15.990  2.4190  2.4999  3.0035
  230MPD1     N 3551   2.354   4.363  15.590  0.2814  0.0222 -0.5103
  230MPD1    H5 3552   2.368   4.451  15.542 -2.5514  1.8631  2.0423
  230MPD1    N1 3553   2.272   4.641  15.977  0.6886  0.7400 -0.0680
  230MPD1    H6 3554   2.335   4.710  15.937  0.5354  1.4877  0.9880
  230MPD1    H7 3555   2.276   4.628  16.078 -0.1310  1.2573  0.0320
  231MPD1     C 3556   0.431   1.602  15.468 -0.2770 -0.1234  0.0912
  231MPD1    C1 3557   0.372   1.660  15.352 -0.0451 -0.3125  0.4964
  231MPD1    C2 3558   0.436   1.766  15.288  0.5492 -0.1164 -0.5387
  231MPD1    C3 3559   0.559   1.810  15.335 -0.0435  0.0341  0.1215
  231MPD1    C4 3560   0.619   1.738  15.441  0.1865  0.2457 -0.5286
  231MPD1    C5 3561   0.553   1.640  15.505  0.3110 -0.1338  0.5317
  231MPD1     H 3562   0.402   1.823  15.202 -0.1736  1.0446  0.5185
  231MPD1    H1 3563   0.716   1.763  15.482  0.2564 -0.3102 -0.3515
  231MPD1    H2 3564   0.377   1.527  15.525  1.1101 -2.6800 -1.9474
  231MPD1    H3 3565   0.589   1.588  15.592  0.3614 -0.9753  0.0137
  231MPD1     N 3566   0.629   1.909  15.259  0.1741  0.5372 -0.1200
  231MPD1    H5 3567   0.584   1.944  15.175 -1.5056 -0.2832  0.4434
  231MPD1    N1 3568   0.260   1.606  15.301 -0.3772 -0.3113  0.4904
  231MPD1    H6 3569   0.205   1.570  15.378  0.0859 -1.0791  0.4575
  231MPD1    H7 3570   0.213   1.663  15.230  1.8087  1.2745  0.2774
  232MPD1     C 3571   2.907   3.579  17.523 -0.1263  0.4393  0.6089
  232MPD1    C1 3572   2.912   3.600  17.658  0.4127 -0.3058 -0.3135
  232MPD1    C2 3573   2.792   3.627  17.725  0.8405 -0.0196  0.4067
  232MPD1    C3 3574   2.677   3.625  17.650 -0.2230  0.8925  0.3102
  232MPD1    C4 3575   2.676   3.598  17.517  0.2429  0.5987  0.6412
  232MPD1    C5 3576   2.791   3.560  17.453  0.9562  0.1906  0.0986
  232MPD1     H 3577   2.785   3.642   0.104  1.4500  1.0104  0.3034
  232MPD1    H1 3578   2.581   3.602  17.463  1.5793  1.6980 -1.6434
  232MPD1    H2 3579   2.996   3.569  17.463 -0.9998  3.5637 -1.2002
  232MPD1    H3 3580   2.804   3.527  17.351  3.2236  3.1507 -0.5569
  232MPD1     N 3581   2.560   3.673  17.712 -0.7639 -0.5658 -0.1049
  232MPD1    H5 3582   2.560   3.693   0.083  0.6730  0.1123 -0.2407
  232MPD1    N1 3583   3.036   3.632  17.727 -0.1792 -0.0858  0.0120
  232MPD1    H6 3584   3.108   3.570  17.691 -0.3127 -0.1968 -0.0650
  232MPD1    H7 3585   3.031   3.617   0.099 -0.5195  0.3032  0.0535
  233MPD1     C 3586   3.280   2.920  16.914 -0.6806  0.4297 -0.1790
  233MPD1    C1 3587   3.191   2.848  16.988  0.0796  0.2161 -0.8513
  233MPD1    C2 3588   3.237   2.788  17.105 -0.0311  0.6684  0.5348
  233MPD1    C3 3589   3.366   2.794  17.141 -0.2883 -0.8501  1.3633
  233MPD1    C4 3590   3.454   2.871  17.066  0.0843  1.0533 -0.4851
  233MPD1    C5 3591   3.414   2.926  16.948 -0.1086  0.2580  0.1882
  233MPD1     H 3592   3.163   2.728  17.157  1.5200 -0.8605  0.9901
  233MPD1    H1 3593   3.556   2.872  17.103  0.8223 -0.6592 -2.4663
  233MPD1    H2 3594   3.249   2.955  16.817 -1.0534  3.6552  1.1187
  233MPD1    H3 3595   3.476   2.995  16.892 -2.4534 -0.2778 -3.0570
  233MPD1     N 3596   3.412   2.743  17.268 -0.1585  0.4351  0.3751
  233MPD1    H5 3597   3.512   2.744  17.287  0.1342  1.1264 -1.1684
  233MPD1    N1 3598   3.057   2.853  16.957  0.1642 -0.3137  0.4939
  233MPD1    H6 3599   2.999   2.785  17.005 -1.0437  0.0030 -0.5370
  233MPD1    H7 3600   3.027   2.862  16.861  0.3267  1.5790  0.6084
  234MPD1     C 3601   0.382   1.376   9.861  0.6588 -0.6416 -0.1534
  234MPD1    C1 3602   0.370   1.422   9.731  0.5237 -0.5114 -0.6173
  234MPD1    C2 3603   0.281   1.524   9.708  0.2876 -0.2468 -0.2478
  234MPD1    C3 3604   0.201   1.570   9.803 -0.6012 -0.3079 -0.3358
  234MPD1    C4 3605   0.214   1.524   9.935  0.1921 -0.8890 -0.0199
  234MPD1    C5 3606   0.313   1.433   9.966 -1.0775 -0.1913 -0.1915
  234MPD1     H 3607   0.286   1.575   9.613  1.5845  0.2289  0.0723
  234MPD1    H1 3608   0.141   1.554  10.010  1.1348 -1.1265  0.9837
  234MPD1    H2 3609   0.450   1.296   9.888  0.7077 -0.3387  0.6216
  234MPD1    H3 3610   0.329   1.393  10.065 -1.3670 -0.9285 -0.4425
  234MPD1     N 3611   0.094   1.659   9.765  0.1986 -0.9244 -0.1529
  234MPD1    H5 3612   0.092   1.676   9.665  1.5923 -0.8189 -0.1567
  234MPD1    N1 3613   0.470   1.382   9.640  0.1137 -0.7893  0.0951
  234MPD1    H6 3614   0.443   1.388   9.542 -0.9553  0.8076  0.4797
  234MPD1    H7 3615   0.480   1.281   9.643 -1.6390 -0.8906  2.4145
  235MPD1     C 3616   1.417   4.039  10.410  0.2813 -0.0523  0.3462
  235MPD1    C1 3617   1.397   4.163  10.357  0.1097  0.3923  0.5926
  235MPD1    C2 3618   1.511   4.247  10.339 -0.1050 -0.0660 -0.1843
  235MPD1    C3 3619   1.640   4.208  10.374 -0.1287 -0.2196  0.3271
  235MPD1    C4 3620   1.658   4.079  10.422 -0.3476 -0.8684 -0.0598
  235MPD1    C5 3621   1.548   4.003  10.445 -0.3242  0.3444 -0.0847
  235MPD1     H 3622   1.503   4.346  10.294 -1.8650  0.3108  0.9417
  235MPD1    H1 3623   1.752   4.025  10.426  0.4263  0.4019 -1.2815
  235MPD1    H2 3624   1.328   3.979  10.431  1.2693 -1.2742  1.0591
  235MPD1    H3 3625   1.574   3.904  10.478 -1.6569 -0.1040 -0.3836
  235MPD1     N 3626   1.742   4.297  10.360  0.3282  0.5641  0.1185
  235MPD1    H5 3627   1.719   4.391  10.332  0.8753  1.1009  1.4432
  235MPD1    N1 3628   1.274   4.214  10.334 -1.0668 -0.4443 -0.8890
  235MPD1    H6 3629   1.284   4.292  10.269 -1.6583 -1.0411 -1.6876
  235MPD1    H7 3630   1.209   4.147  10.294  1.0874 -0.9019 -3.6349
  236MPD1     C 3631   0.704   0.410  10.313 -0.2613 -0.1111 -0.4985
  236MPD1    C1 3632   0.816   0.492  10.316  0.3368  0.1040  1.0533
  236MPD1    C2 3633   0.925   0.463  10.397 -0.6744 -0.2105  0.2682
  236MPD1    C3 3634   0.934   0.341  10.461 -0.3265 -0.0933  0.5512
  236MPD1    C4 3635   0.825   0.259  10.454 -0.5217 -1.4160 -0.4833
  236MPD1    C5 3636   0.714   0.292  10.383  0.6214  0.2983 -1.0942
  236MPD1     H 3637   1.009   0.532  10.386 -0.6233 -0.0198  1.8238
  236MPD1    H1 3638   0.813   0.161  10.498 -0.8490 -0.3882  1.7563
  236MPD1    H2 3639   0.612   0.436  10.261  0.1401  0.3824 -0.9566
  236MPD1    H3 3640   0.634   0.220  10.368 -0.4237  1.1258  0.4721
  236MPD1     N 3641   1.053   0.305  10.530 -1.0977 -0.9150  0.0810
  236MPD1    H5 3642   1.066   0.208  10.557 -0.0201 -0.4544  1.2093
  236MPD1    N1 3643   0.815   0.610  10.253  0.1077 -0.8009 -0.1388
  236MPD1    H6 3644   0.813   0.694  10.310 -0.6626 -1.2716  0.5246
  236MPD1    H7 3645   0.733   0.615  10.193  0.5221  0.5328 -0.5975
  237MPD1     C 3646   1.048   3.376  15.096 -0.1546  0.2658  0.0841
  237MPD1    C1 3647   1.048   3.401  15.230 -0.7860  0.6559  0.1583
  237MPD1    C2 3648   0.962   3.335  15.312 -0.4175 -0.0721 -0.1733
  237MPD1    C3 3649   0.870   3.250  15.258  0.1693 -0.3957  0.2392
  237MPD1    C4 3650   0.866   3.222  15.125 -0.2598  1.0309 -0.2926
  237MPD1    C5 3651   0.967   3.270  15.047  0.3036 -0.3347  0.2195
  237MPD1     H 3652   0.947   3.375  15.412 -2.4606 -2.2133  0.3681
  237MPD1    H1 3653   0.794   3.165  15.069 -0.9432  2.4114 -0.8276
  237MPD1    H2 3654   1.121   3.419  15.028  0.1764  0.1107  0.3400
  237MPD1    H3 3655   0.967   3.260  14.939  0.3587 -1.8194  0.3529
  237MPD1     N 3656   0.771   3.187  15.336 -0.0600  0.3178  0.2594
  237MPD1    H5 3657   0.689   3.150  15.290  1.0709 -2.1079  0.1761
  237MPD1    N1 3658   1.100   3.523  15.275  0.2674  0.5900 -0.5613
  237MPD1    H6 3659   1.134   3.512  15.370 -0.3351 -0.8350 -0.5070
  237MPD1    H7 3660   1.165   3.566  15.210 -0.1764  1.6374 -0.3157
  238MPD1     C 3661   2.646   1.612  15.158  0.2744  0.0644 -0.4208
  238MPD1    C1 3662   2.562   1.554  15.250  0.4898  0.1928 -0.3546
  238MPD1    C2 3663   2.424   1.560  15.229 -0.2027 -0.1214 -0.3615
  238MPD1    C3 3664   2.382   1.607  15.108 -0.5138 -0.9040 -0.5098
  238MPD1    C4 3665   2.474   1.670  15.022  0.0287  1.1699  0.0005
  238MPD1    C5 3666   2.604   1.675  15.046 -0.5515 -0.0898 -0.0715
  238MPD1     H 3667   2.355   1.510  15.297  0.9034 -0.3539  0.5858
  238MPD1    H1 3668   2.449   1.699  14.921  0.9755 -0.2450 -0.6473
  238MPD1    H2 3669   2.753   1.601  15.165  0.0879 -0.9758  0.7902
  238MPD1    H3 3670   2.669   1.717  14.969 -0.5641  0.8429  0.4284
  238MPD1     N 3671   2.250   1.619  15.057 -0.6542 -0.4922 -0.2888
  238MPD1    H5 3672   2.240   1.661  14.965  0.3079  1.1122  0.3505
  238MPD1    N1 3673   2.610   1.505  15.370  0.6822  0.0398  0.7914
  238MPD1    H6 3674   2.707   1.473  15.368  0.7780  0.3015  1.1637
  238MPD1    H7 3675   2.559   1.427  15.410 -0.2812  0.1981 -0.1456
  239MPD1     C 3676   2.981   2.184  15.518 -0.0769  0.1423  0.3601
  239MPD1    C1 3677   2.841   2.195  15.501  0.4520 -0.0871  0.2636
  239MPD1    C2 3678   2.798   2.240  15.385  0.1187 -0.0257  0.2744
  239MPD1    C3 3679   2.894   2.270  15.284  0.6136  0.3644  0.0895
  239MPD1    C4 3680   3.028   2.242  15.294 -0.3983 -0.3337 -0.0219
  239MPD1    C5 3681   3.067   2.193  15.413  0.4423  0.5220  0.1641
  239MPD1     H 3682   2.693   2.262  15.374  0.0345 -1.0237 -0.9399
  239MPD1    H1 3683   3.091   2.264  15.208 -0.9755  0.9336 -0.1268
  239MPD1    H2 3684   3.029   2.148  15.609  0.4326 -0.5221 -0.1710
  239MPD1    H3 3685   3.173   2.181  15.428 -0.0429 -0.7089  2.7274
  239MPD1     N 3686   2.858   2.318  15.160 -0.8770 -0.1577 -0.1889
  239MPD1    H5 3687   2.932   2.328  15.092 -2.9363  3.2171 -1.9258
  239MPD1    N1 3688   2.753   2.168  15.608 -0.4575 -0.5167 -0.4280
  239MPD1    H6 3689   2.663   2.129  15.581 -1.7617  1.5753  0.9865
  239MPD1    H7 3690   2.786   2.100  15.677  2.0837  1.4075  0.2684
  240MPD1     C 3691   1.899   2.494  14.154 -0.2958 -0.0580 -0.3809
  240MPD1    C1 3692   1.955   2.365  14.160  0.1947 -0.1922 -0.5988
  240MPD1    C2 3693   1.884   2.266  14.230  0.7021 -0.3301 -0.5409
  240MPD1    C3 3694   1.772   2.294  14.309 -0.2337 -0.9332  0.2595
  240MPD1    C4 3695   1.742   2.429  14.324  0.3881  0.0750 -0.2080
  240MPD1    C5 3696   1.793   2.519  14.232 -0.5998  0.4891 -0.5255
  240MPD1     H 3697   1.926   2.167  14.238  2.1141  0.3658  0.7608
  240MPD1    H1 3698   1.662   2.466  14.387 -0.1067  0.1687 -0.8971
  240MPD1    H2 3699   1.945   2.584  14.115 -0.7176 -0.0419 -0.8417
  240MPD1    H3 3700   1.775   2.624  14.250  0.8314  0.7503 -0.6059
  240MPD1     N 3701   1.708   2.199  14.391  0.4726 -0.5200  0.4562
  240MPD1    H5 3702   1.744   2.106  14.373 -0.4879 -0.9942  0.9872
  240MPD1    N1 3703   2.082   2.343  14.113 -0.1223  0.1632  0.3238
  240MPD1    H6 3704   2.096   2.388  14.023 -2.4152 -0.1407 -0.1933
  240MPD1    H7 3705   2.094   2.242  14.106 -0.5483  0.2733 -1.9101
  241MPD1     C 3706   1.983   2.096  15.186 -0.3108  0.6157  0.4531
  241MPD1    C1 3707   1.923   1.975  15.165  0.4242 -0.2458 -0.1601
  241MPD1    C2 3708   1.814   1.968  15.080  1.2513  0.4488 -0.4059
  241MPD1    C3 3709   1.770   2.079  15.010  0.1617 -0.2755 -0.4699
  241MPD1    C4 3710   1.830   2.199  15.036 -0.1635  0.5605 -0.1838
  241MPD1    C5 3711   1.940   2.205  15.122  0.3874 -0.6608  0.1592
  241MPD1     H 3712   1.754   1.880  15.063 -1.5129  1.6739  2.8496
  241MPD1    H1 3713   1.814   2.288  14.978 -3.5696 -0.0701 -0.2365
  241MPD1    H2 3714   2.076   2.107  15.240 -0.7548  1.3991  1.0505
  241MPD1    H3 3715   1.984   2.303  15.138 -2.5133  0.4629  1.1439
  241MPD1     N 3716   1.674   2.069  14.906  0.2663 -0.1036 -0.5161
  241MPD1    H5 3717   1.680   2.149  14.844 -2.6829  1.0980  0.7148
  241MPD1    N1 3718   1.985   1.859  15.203  0.5001 -0.2255 -0.4327
  241MPD1    H6 3719   1.913   1.790  15.226  1.4776 -0.6370  1.3536
  241MPD1    H7 3720   2.041   1.879  15.286  0.7385 -1.3264 -0.3342
  242MPD1     C 3721   1.692   0.296  15.934  0.0214 -0.5980  0.1326
  242MPD1    C1 3722   1.709   0.423  15.869  0.8699 -0.6365 -0.2876
  242MPD1    C2 3723   1.776   0.425  15.754  0.0256 -0.1805 -0.5519
  242MPD1    C3 3724   1.795   0.306  15.683  0.0473  0.2393  0.8555
  242MPD1    C4 3725   1.737   0.188  15.726 -0.9806  0.4725 -0.1771
  242MPD1    C5 3726   1.698   0.180  15.855 -0.0473  0.0959 -0.0496
  242MPD1     H 3727   1.824   0.516  15.722 -0.2095  0.5362  1.1391
  242MPD1    H1 3728   1.746   0.094  15.674  0.1532  1.1707 -1.2165
  242MPD1    H2 3729   1.658   0.289  16.036 -0.1510  2.7123  0.3057
  242MPD1    H3 3730   1.662   0.088  15.897 -0.1783 -0.0402 -0.4593
  242MPD1     N 3731   1.854   0.307  15.552 -0.3469  0.3946  0.6031
  242MPD1    H5 3732   1.846   0.224  15.495  2.1501  0.8158 -0.3454
  242MPD1    N1 3733   1.704   0.536  15.947 -0.1558  0.1951  0.6073
  242MPD1    H6 3734   1.620   0.541  16.003 -0.4196 -1.2418  0.3320
  242MPD1    H7 3735   1.704   0.623  15.894 -1.6539 -0.5405 -0.5899
  243MPD1     C 3736   2.761   4.192  17.672 -0.1964  0.2642 -0.3867
  243MPD1    C1 3737   2.767   4.061  17.721  0.3354 -0.0072 -0.5119
  243MPD1    C2 3738   2.855   3.972  17.665 -0.0360 -0.0478 -0.1716
  243MPD1    C3 3739   2.927   4.009  17.552 -0.0194 -0.2728  0.1087
  243MPD1    C4 3740   2.913   4.138  17.494 -0.3507  0.4087 -0.5632
  243MPD1    C5 3741   2.823   4.224  17.552  0.4221 -0.0847 -0.4731
  243MPD1     H 3742   2.873   3.878  17.716 -0.4266  0.7119  1.3580
  243MPD1    H1 3743   2.974   4.169  17.410  0.1651  4.4025  1.2657
  243MPD1    H2 3744   2.707   4.276  17.715  0.1037 -0.9930  2.4534
  243MPD1    H3 3745   2.821   4.325  17.512 -0.2115 -0.0947 -0.4678
  243MPD1     N 3746   3.026   3.917  17.510  0.0168  0.0590  0.2155
  243MPD1    H5 3747   3.011   3.828  17.555  0.8384 -0.2519 -0.1239
  243MPD1    N1 3748   2.692   4.017   0.101  0.6378 -0.2568  0.2617
  243MPD1    H6 3749   2.662   4.089   0.167  0.6246  0.8150 -0.9132
  243MPD1    H7 3750   2.725   3.935   0.150  3.7002  1.0023  0.3152
  244MPD1     C 3751   3.696   3.234   0.069  0.7735 -0.3846 -0.1189
  244MPD1    C1 3752   3.708   3.225  17.653 -0.1557 -0.1031  0.6577
  244MPD1    C2 3753   3.624   3.304  17.572 -0.4195 -0.0200 -0.0611
  244MPD1    C3 3754   3.535   3.391  17.635  0.1944  0.9183 -0.0221
  244MPD1    C4 3755   3.522   3.397   0.044  0.5281  0.0177  0.2387
  244MPD1    C5 3756   3.607   3.318   0.120  0.0356  0.8231 -0.7999
  244MPD1     H 3757   3.619   3.283  17.466  2.5170 -1.0934  0.0195
  244MPD1    H1 3758   3.454   3.461   0.099  0.4090 -0.6325  0.8409
  244MPD1    H2 3759   3.758   3.171   0.132  0.0443 -1.1674 -0.1715
  244MPD1    H3 3760   3.591   3.316   0.227 -1.2321  0.2500 -0.9929
  244MPD1     N 3761   3.466   3.480  17.546 -0.3663  0.3033  0.0333
  244MPD1    H5 3762   3.489   3.477  17.447  0.2537 -2.1836  0.2373
  244MPD1    N1 3763   3.784   3.120  17.592 -0.4342  0.3978  0.5535
  244MPD1    H6 3764   3.825   3.144  17.502  0.0346  0.1922  0.7110
  244MPD1    H7 3765   3.864   3.083  17.643 -0.1196  0.5642  0.1814
  245MPD1     C 3766   0.313   3.626  13.134  0.0289 -0.1330  0.3255
  245MPD1    C1 3767   0.434   3.672  13.169  0.5055  1.1455  0.7411
  245MPD1    C2 3768   0.446   3.810  13.193 -0.1357 -0.4155 -0.0277
  245MPD1    C3 3769   0.341   3.893  13.177  0.6508  0.1678 -0.3022
  245MPD1    C4 3770   0.223   3.844  13.131  0.3828 -0.0726  0.1947
  245MPD1    C5 3771   0.204   3.714  13.117 -0.6132 -0.1776 -0.3431
  245MPD1     H 3772   0.543   3.843  13.227 -0.8834  0.6988  1.0119
  245MPD1    H1 3773   0.132   3.902  13.115  0.1682 -0.2833  0.6284
  245MPD1    H2 3774   0.295   3.523  13.107 -0.5189 -0.3222  1.4265
  245MPD1    H3 3775   0.110   3.671  13.085  0.0710 -1.3187 -0.8276
  245MPD1     N 3776   0.369   4.023  13.208  0.0470  0.5640  0.2706
  245MPD1    H5 3777   0.457   4.030  13.258  0.8775  0.1872 -1.1587
  245MPD1    N1 3778   0.543   3.585  13.185 -0.4363  0.0293 -0.1782
  245MPD1    H6 3779   0.568   3.562  13.281 -2.1236  2.0815  0.7482
  245MPD1    H7 3780   0.528   3.497  13.137 -2.2681 -1.4281  3.1464
  246MPD1     C 3781   3.930   2.420  10.076  0.2637 -0.3698  0.1259
  246MPD1    C1 3782   4.022   2.323  10.059  0.4861 -0.0145  0.0770
  246MPD1    C2 3783   4.119   2.332   9.962  0.2952 -1.0610 -0.7064
  246MPD1    C3 3784   4.113   2.430   9.871  0.7035  0.0812  0.2064
  246MPD1    C4 3785   4.013   2.525   9.880  0.2151 -0.1993 -0.0179
  246MPD1    C5 3786   3.938   2.526   9.991 -0.0352 -0.2291  0.2963
  246MPD1     H 3787   4.198   2.258   9.971  1.4097 -0.1604 -3.2557
  246MPD1    H1 3788   4.018   2.613   9.817 -0.3600  0.4292  0.8086
  246MPD1    H2 3789   3.859   2.415  10.158 -0.0790  2.7201  0.0372
  246MPD1    H3 3790   3.875   2.615   9.993 -0.3177 -0.4538  1.2274
  246MPD1     N 3791   4.222   2.432   9.776 -0.1926  0.0618  0.0544
  246MPD1    H5 3792   4.289   2.355   9.780  0.2219  0.4618  0.7265
  246MPD1    N1 3793   4.019   2.219  10.146 -0.6901  0.5792 -0.3936
  246MPD1    H6 3794   3.925   2.197  10.177  1.2810 -1.0819  4.5092
  246MPD1    H7 3795   4.066   2.138  10.105  1.6539  1.4536  0.5289
  247MPD1     C 3796   0.304   0.015  16.992 -0.0036 -0.4672  0.3401
  247MPD1    C1 3797   0.414   0.003  16.898 -0.8128  0.1466  0.5381
  247MPD1    C2 3798   0.395   4.663  16.787  0.5360  0.1678  1.2449
  247MPD1    C3 3799   0.286   4.576  16.780  0.7525 -0.5265 -0.5899
  247MPD1    C4 3800   0.204   4.558  16.882  0.1226 -0.7519 -0.0728
  247MPD1    C5 3801   0.203   4.649  16.983 -0.1019 -0.7777  0.5715
  247MPD1     H 3802   0.471   4.668  16.710 -0.1471  1.4514  0.6553
  247MPD1    H1 3803   0.128   4.480  16.884  1.0676 -1.6657  0.4642
  247MPD1    H2 3804   0.300   0.075  17.082 -1.3526  0.6233 -0.4457
  247MPD1    H3 3805   0.119   4.643  17.052  0.2636  1.1161  1.1904
  247MPD1     N 3806   0.261   4.497  16.669 -0.2439 -0.4311 -0.5059
  247MPD1    H5 3807   0.192   4.423  16.683 -0.5011 -0.7424 -3.4942
  247MPD1    N1 3808   0.508   0.109  16.898  0.3959 -0.6312  0.0167
  247MPD1    H6 3809   0.589   0.083  16.842  0.2215 -0.1175 -0.4763
  247MPD1    H7 3810   0.534   0.146  16.989 -2.2254 -0.8734  0.8764
  248MPD1     C 3811   0.883   4.409  17.638  0.5710 -0.4327 -0.7863
  248MPD1    C1 3812   0.789   4.484  17.703  0.1437 -0.3056 -0.6969
  248MPD1    C2 3813   0.697   4.419   0.050 -0.3320  0.3449  0.1004
  248MPD1    C3 3814   0.708   4.285   0.075 -0.1285 -0.1923  0.1200
  248MPD1    C4 3815   0.812   4.215   0.017  0.4325 -0.5184 -0.0690
  248MPD1    C5 3816   0.888   4.277  17.654  0.1522  0.5075 -0.2292
  248MPD1     H 3817   0.618   4.474   0.100 -1.8133 -1.2573 -0.4886
  248MPD1    H1 3818   0.837   4.109   0.017  1.6370 -0.2288  1.6062
  248MPD1    H2 3819   0.968   4.461  17.596  0.5643  1.4533  1.5330
  248MPD1    H3 3820   0.975   4.220  17.620  0.6781  0.8121  0.5992
  248MPD1     N 3821   0.619   4.226   0.168  0.0984 -0.2584  0.3745
  248MPD1    H5 3822   0.572   4.292   0.230 -0.1601  1.4590 -1.6282
  248MPD1    N1 3823   0.780   4.620  17.675  0.4272 -0.5870 -0.0842
  248MPD1    H6 3824   0.865   4.665  17.643 -0.2190  0.8855  0.2693
  248MPD1    H7 3825   0.732   4.667   0.024 -2.0232 -0.1475 -1.8806
  249MPD1     C 3826   1.475   3.877   9.667  0.3401  0.1408  0.1018
  249MPD1    C1 3827   1.486   3.742   9.676 -0.2811 -0.6216  0.5175
  249MPD1    C2 3828   1.595   3.696   9.749 -0.4355  0.3854 -1.2780
  249MPD1    C3 3829   1.700   3.772   9.791 -0.3630  0.5157 -0.3478
  249MPD1    C4 3830   1.689   3.905   9.770 -0.6535 -0.6948  0.1199
  249MPD1    C5 3831   1.579   3.960   9.709  0.1423 -0.2428  0.5766
  249MPD1     H 3832   1.594   3.588   9.750 -0.3921  0.4177  3.2276
  249MPD1    H1 3833   1.774   3.968   9.795 -1.1250 -0.1317  0.2876
  249MPD1    H2 3834   1.383   3.929   9.641 -1.6272 -2.4800  1.8079
  249MPD1    H3 3835   1.583   4.068   9.699  2.2042 -0.2832  0.9304
  249MPD1     N 3836   1.811   3.718   9.860  0.2812 -0.0041 -0.7020
  249MPD1    H5 3837   1.802   3.618   9.879  2.0532 -0.4163 -1.9723
  249MPD1    N1 3838   1.375   3.656   9.647  0.4385  0.9999  0.5481
  249MPD1    H6 3839   1.330   3.679   9.558 -2.3809 -1.3391  1.3566
  249MPD1    H7 3840   1.390   3.555   9.645  1.4633  1.1589  0.4222
  250MPD2     C 3841   3.371   2.804  13.020  0.2749 -0.0585 -0.0892
  250MPD2    C1 3842   3.503   2.794  12.969 -0.6866  0.2323 -0.2944
  250MPD2    C2 3843   3.529   2.746  12.839  0.7952  0.8294  0.8391
  250MPD2    C3 3844   3.423   2.689  12.773  0.4939  0.4285 -0.0699
  250MPD2    C4 3845   3.306   2.684  12.832 -0.1708 -0.2897 -0.3667
  250MPD2    C5 3846   3.276   2.735  12.957  0.6086  0.6720  0.1035
  250MPD2     H 3847   3.618   2.771  12.782  0.8742  2.0076  1.4731
  250MPD2    H1 3848   3.224   2.633  12.783  1.1939 -0.2596 -2.6800
  250MPD2    H2 3849   3.353   2.834  13.122 -2.9760 -2.2057 -0.0297
  250MPD2    H3 3850   3.177   2.717  12.996  0.2029 -1.8655 -2.0608
  250MPD2     N 3851   3.425   2.655  12.641  0.2361 -0.2525  0.2175
  250MPD2    H5 3852   3.338   2.620  12.602 -1.3253  4.0398 -0.0665
  250MPD2    N1 3853   3.597   2.871  13.041  0.0733  0.1336  0.7787
  250MPD2    H7 3854   3.553   2.905  13.126 -1.7822  0.1986 -0.2038
  251TMC3    C1 3855   3.793   2.986  13.096 -0.2262  0.0043 -0.3723
  251TMC3    C2 3856   3.716   3.053  13.191 -0.2755  0.4726  0.4254
  251TMC3    C3 3857   3.748   3.182  13.220 -0.2809 -0.5460  0.3169
  251TMC3    C4 3858   3.909   3.041  13.050 -0.1854 -0.1235 -0.0872
  251TMC3    C5 3859   3.937   3.169  13.085  0.2708 -0.0482 -0.0743
  251TMC3    C6 3860   3.859   3.245  13.162  0.6271  0.4369  0.2575
  251TMC3     C 3861   3.728   2.896  13.010  0.0165  0.5747  0.2660
  251TMC3     O 3862   3.795   2.854  12.916 -0.0933 -0.2674 -0.7150
  251TMC3     H 3863   3.630   3.006  13.237 -1.1390  0.5090 -1.1877
  251TMC3    H1 3864   3.975   2.986  12.983 -1.3239 -2.3518  0.6096
  251TMC3    H2 3865   3.878   3.347  13.194 -2.3505  0.6122  1.4701
  251TMC3    C7 3866   4.061   3.226  13.052  0.0603  1.2228  0.1753
  251TMC3    C8 3867   3.643   3.262  13.267  0.8810 -0.0335  0.2494
  251TMC3    O1 3868   4.156   3.148  13.057 -0.3514  0.3865 -0.7537
  251TMC3    O2 3869   3.591   3.234  13.373 -0.6815  0.6553 -0.1243
  252TMC3    C1 3870   2.873   0.199   9.691  0.0188  0.2338 -0.9946
  252TMC3    C2 3871   2.992   0.262   9.707 -0.9530  0.0720  0.5828
  252TMC3    C3 3872   3.100   0.184   9.754 -0.5504  0.3324  0.4706
  252TMC3    C4 3873   2.859   0.066   9.710  0.1517 -0.0996  0.1491
  252TMC3    C5 3874   2.963   4.725   9.759 -0.1020 -0.8494 -0.6028
  252TMC3    C6 3875   3.084   0.050   9.771 -0.0813  0.0552 -0.0374
  252TMC3     C 3876   2.758   0.285   9.656 -0.1444 -0.3520  0.1949
  252TMC3     O 3877   2.778   0.404   9.644 -0.3962 -0.1171  0.2918
  252TMC3     H 3878   3.001   0.370   9.702  0.1166 -0.0481 -0.1054
  252TMC3    H1 3879   2.759   0.025   9.713  0.7904 -1.5622  1.4178
  252TMC3    H2 3880   3.177   4.732   9.796  0.0013  0.0607 -0.3399
  252TMC3    C7 3881   2.928   4.594   9.816 -0.9258  0.0125 -0.6732
  252TMC3    C8 3882   3.234   0.245   9.744 -0.0759  0.8013 -0.0181
  252TMC3    O1 3883   2.812   4.565   9.827  0.2015 -0.0028  0.3878
  252TMC3    O2 3884   3.228   0.342   9.671  0.4242  0.2768  0.1130
  253MPD2     C 3885   0.565   3.314  15.750  0.5719 -0.6335 -0.1654
  253MPD2    C1 3886   0.438   3.289  15.810 -0.3669 -0.3270  0.7165
  253MPD2    C2 3887   0.434   3.255  15.943 -0.4304  0.0718 -0.0710
  253MPD2    C3 3888   0.552   3.255  16.016 -0.6629 -0.3843 -0.9809
  253MPD2    C4 3889   0.672   3.287  15.962  0.2647 -0.4289 -0.0125
  253MPD2    C5 3890   0.675   3.317  15.831  0.0183  0.0658 -0.4491
  253MPD2     H 3891   0.341   3.234  15.995 -1.8145  1.6170 -1.9193
  253MPD2    H1 3892   0.762   3.268  16.020  1.0556  1.9925 -0.4312
  253MPD2    H2 3893   0.583   3.329  15.645 -1.7537 -1.1017 -0.6294
  253MPD2    H3 3894   0.773   3.330  15.786  0.3806  2.7658  1.1080
  253MPD2     N 3895   0.550   3.224  16.157 -0.0062  0.7023  0.3150
  253MPD2    H5 3896   0.636   3.244  16.206  0.9902 -3.8956  0.4003
  253MPD2    N1 3897   0.317   3.273  15.745 -0.6220  0.2495 -0.6170
  253MPD2    H7 3898   0.233   3.250  15.797 -0.3930 -1.2519 -0.9212
  254TMC3    C1 3899   0.456   3.218  16.373 -0.3116  0.2747 -0.3480
  254TMC3    C2 3900   0.347   3.283  16.414  1.0653 -0.2954 -0.1705
  254TMC3    C3 3901   0.267   3.231  16.512 -0.1399 -0.2991 -0.3732
  254TMC3    C4 3902   0.490   3.098  16.430 -0.5162 -0.1197 -0.5828
  254TMC3    C5 3903   0.417   3.050  16.539 -0.5454  0.6099  0.0931
  254TMC3    C6 3904   0.299   3.111  16.580  0.0571 -0.0397  0.5374
  254TMC3     C 3905   0.437   3.190  16.234  0.5937 -0.4253  0.1344
  254TMC3     O 3906   0.330   3.147  16.193  0.2198  0.0202  0.2971
  254TMC3     H 3907   0.309   3.372  16.366  1.8116  2.2051  3.8169
  254TMC3    H1 3908   0.583   3.055  16.394 -0.5343 -0.8985  0.2898
  254TMC3    H2 3909   0.224   3.070  16.648 -2.0441 -0.0265 -1.7780
  254TMC3    C7 3910   0.487   2.970  16.644 -0.5423  0.9656 -0.4146
  254TMC3    C8 3911   0.136   3.286  16.528  0.2430 -0.7839 -0.0446
  254TMC3    O1 3912   0.424   2.956  16.747  0.2674  0.1711 -0.3351
  254TMC3    O2 3913   0.059   3.200  16.566 -0.2161  0.2922  0.0135
  255MPD2     C 3914   2.573   1.161  10.039  0.3280 -0.4457 -0.2894
  255MPD2    C1 3915   2.571   1.209   9.906  0.2129  0.0078 -0.6303
  255MPD2    C2 3916   2.532   1.120   9.806  0.0573 -0.8976  0.4467
  255MPD2    C3 3917   2.510   0.986   9.826  0.0854  0.4009 -0.1773
  255MPD2    C4 3918   2.515   0.943   9.958 -0.9131  0.2365  0.0657
  255MPD2    C5 3919   2.553   1.030  10.062  0.3852 -0.2720  0.2398
  255MPD2     H 3920   2.502   1.153   9.707  1.5369 -0.5458  0.1048
  255MPD2    H1 3921   2.494   0.841   9.985 -0.3927 -0.7658 -3.3877
  255MPD2    H2 3922   2.590   1.236  10.116  0.6062 -0.0098 -0.7764
  255MPD2    H3 3923   2.566   0.996  10.164 -0.5626  1.3478  0.8940
  255MPD2     N 3924   2.493   0.893   9.718 -0.2428 -0.1210 -0.1810
  255MPD2    H5 3925   2.460   0.805   9.755 -1.5931 -0.1060 -1.3593
  255MPD2    N1 3926   2.583   1.344   9.881  0.0435  0.2240 -0.4289
  255MPD2    H7 3927   2.601   1.407   9.958 -2.3118  2.2939 -1.5463
  256TMC3    C1 3928   2.626   1.547   9.774 -0.4224  0.5599 -0.2811
  256TMC3    C2 3929   2.690   1.598   9.665 -0.0812  0.3246  0.4071
  256TMC3    C3 3930   2.748   1.724   9.669  0.0534 -0.2349 -0.4546
  256TMC3    C4 3931   2.624   1.609   9.893  0.2156 -0.9898 -0.0423
  256TMC3    C5 3932   2.680   1.734   9.889  0.1277 -0.3366  0.8664
  256TMC3    C6 3933   2.740   1.791   9.783  0.0874  0.2850 -0.6894
  256TMC3     C 3934   2.581   1.403   9.760  0.2330 -0.1798 -0.9468
  256TMC3     O 3935   2.576   1.349   9.652  0.0258  0.0410  0.1789
  256TMC3     H 3936   2.688   1.539   9.574 -0.5877 -0.7738  1.1455
  256TMC3    H1 3937   2.579   1.567   9.982  2.6409  0.2983  1.7938
  256TMC3    H2 3938   2.763   1.897   9.782  1.6467 -0.0279  1.2105
  256TMC3    C7 3939   2.653   1.809  10.015 -0.4018  0.0759  0.4041
  256TMC3    C8 3940   2.829   1.764   9.555 -0.1517  0.0072 -0.6432
  256TMC3    O1 3941   2.576   1.756  10.098  0.0284  0.0170 -0.4715
  256TMC3    O2 3942   2.839   1.675   9.470 -0.0740  0.4521 -0.0341
  257MPD2     C 3943   2.134   2.626  13.484 -0.0397 -0.1312 -0.5848
  257MPD2    C1 3944   2.140   2.567  13.367  0.1964  0.1625  0.0975
  257MPD2    C2 3945   2.229   2.457  13.355  0.0961 -0.0097 -0.5240
  257MPD2    C3 3946   2.315   2.415  13.453 -0.5440  0.0133  0.4546
  257MPD2    C4 3947   2.314   2.485  13.572  0.2966  0.0997 -0.5029
  257MPD2    C5 3948   2.227   2.590  13.583 -0.3693 -0.0373 -0.6929
  257MPD2     H 3949   2.248   2.416  13.256  0.5226 -2.4711  0.5660
  257MPD2    H1 3950   2.380   2.468  13.657 -2.7386 -1.9293  1.4981
  257MPD2    H2 3951   2.068   2.708  13.510  0.8174  0.5283 -0.4936
  257MPD2    H3 3952   2.238   2.655  13.669 -1.3537  0.2475 -0.7873
  257MPD2     N 3953   2.405   2.303  13.438  0.5638  0.0239 -0.0211
  257MPD2    H5 3954   2.398   2.240  13.359  2.0867  1.0082 -0.9512
  257MPD2    N1 3955   2.077   2.626  13.257  0.1333  0.7455 -0.3489
  257MPD2    H7 3956   2.043   2.721  13.270 -0.4666  0.6507 -1.2371
  258TMC3    C1 3957   2.567   2.128  13.501  0.0839  0.2916  0.6329
  258TMC3    C2 3958   2.527   2.048  13.391 -0.0500 -0.3170 -0.5064
  258TMC3    C3 3959   2.601   1.933  13.366 -0.0541 -0.1291  0.7307
  258TMC3    C4 3960   2.676   2.098  13.579 -0.2776 -0.2796  0.0525
  258TMC3    C5 3961   2.749   1.988  13.540  0.9452  0.2636  0.2625
  258TMC3    C6 3962   2.716   1.908  13.435  0.0473 -0.1641  0.2784
  258TMC3     C 3963   2.473   2.233  13.536  0.3635 -0.0588  0.0613
  258TMC3     O 3964   2.474   2.255  13.656  0.4100  0.1518 -0.2796
  258TMC3     H 3965   2.438   2.070  13.332  0.3043 -0.5545 -1.1250
  258TMC3    H1 3966   2.696   2.153  13.670 -2.8053  0.6440  0.0533
  258TMC3    H2 3967   2.787   1.833  13.403 -0.6814  1.0169 -4.1037
  258TMC3    C7 3968   2.868   1.949  13.616  0.2197 -0.2840  0.2522
  258TMC3    C8 3969   2.567   1.875  13.237 -0.9144  0.1948  0.1234
  258TMC3    O1 3970   2.918   1.838  13.584 -0.0409  0.4027  0.3783
  258TMC3    O2 3971   2.480   1.929  13.168 -0.1287  0.0695 -0.6465
  259MPD2     C 3972   1.265   0.230   0.654  0.0397  0.2150 -0.9617
  259MPD2    C1 3973   1.376   0.164   0.685 -0.0612 -0.1732 -0.1981
  259MPD2    C2 3974   1.445   0.087   0.591  0.4618 -0.5599 -0.4567
  259MPD2    C3 3975   1.403   0.083   0.460  0.7184 -0.0149  0.0513
  259MPD2    C4 3976   1.294   0.154   0.424 -0.2189  0.6122 -0.4134
  259MPD2    C5 3977   1.218   0.214   0.521 -0.6339  0.0093 -0.1411
  259MPD2     H 3978   1.539   0.041   0.617 -0.0785 -0.6794  1.3116
  259MPD2    H1 3979   1.268   0.158   0.318 -0.1084  2.0705 -0.3915
  259MPD2    H2 3980   1.212   0.296   0.721 -1.3373 -1.2912 -0.5780
  259MPD2    H3 3981   1.122   0.257   0.497 -0.5520  0.2572 -0.0324
  259MPD2     N 3982   1.479   0.003   0.369  0.7132  0.5558 -0.3197
  259MPD2    H5 3983   1.541   4.667   0.412 -1.7637 -1.2196  0.4429
  259MPD2    N1 3984   1.425   0.180   0.813 -0.6056 -0.1824  0.1439
  259MPD2    H7 3985   1.377   0.247   0.873 -0.4341 -0.7421  0.9042
  260TMC3    C1 3986   1.585   4.657   0.169 -0.0884 -0.4989 -0.4828
  260TMC3    C2 3987   1.570   4.640   0.034  0.7577 -0.3090  0.6592
  260TMC3    C3 3988   1.673   4.598  17.679 -0.4130 -0.1100 -0.7187
  260TMC3    C4 3989   1.707   4.652   0.223 -0.2367 -0.6582 -0.1147
  260TMC3    C5 3990   1.812   4.609   0.148 -0.7766 -0.1758 -0.3246
  260TMC3    C6 3991   1.798   4.585   0.010 -0.3909 -0.1638 -0.7092
  260TMC3     C 3992   1.483   0.007   0.228  0.1102  0.1256  0.8308
  260TMC3     O 3993   1.404   0.060   0.146 -0.6485  0.1969 -0.1707
  260TMC3     H 3994   1.474   4.634  17.712  2.1180  1.5350 -2.1613
  260TMC3    H1 3995   1.700   4.665   0.330 -0.6532 -1.2438 -0.0687
  260TMC3    H2 3996   1.880   4.553  17.675  0.5986  0.0699  0.4498
  260TMC3    C7 3997   1.886   4.507   0.216 -0.8404 -0.0958 -0.4222
  260TMC3    C8 3998   1.644   4.480  17.602 -0.3211  0.0112  0.6434
  260TMC3    O1 3999   1.889   4.402   0.157  0.3201 -0.4030 -0.0731
  260TMC3    O2 4000   1.568   4.482  17.504 -0.2601 -0.0378  0.1376
  261MPD2     C 4001   2.967   2.723  12.134  0.0526 -0.8336  0.1420
  261MPD2    C1 4002   3.089   2.791  12.134 -0.7094  0.3026 -0.6979
  261MPD2    C2 4003   3.095   2.917  12.084 -0.2186 -0.4016 -0.6352
  261MPD2    C3 4004   2.989   2.991  12.053 -0.0313 -0.1061  0.1141
  261MPD2    C4 4005   2.861   2.930  12.059  0.2044 -0.3418 -1.5415
  261MPD2    C5 4006   2.854   2.797  12.096  0.1293 -0.3464  0.0792
  261MPD2     H 4007   3.192   2.967  12.087 -0.5560  0.2114  0.0164
  261MPD2    H1 4008   2.765   2.975  12.036 -0.6556 -1.2467  0.3260
  261MPD2    H2 4009   2.948   2.624  12.174  0.7272 -0.8715  0.3743
  261MPD2    H3 4010   2.759   2.747  12.110 -0.4015  0.6709  0.1373
  261MPD2     N 4011   3.000   3.129  12.008 -0.0859  0.6694  0.0465
  261MPD2    H5 4012   3.092   3.169  12.003  1.1506 -1.9995  1.2457
  261MPD2    N1 4013   3.201   2.732  12.187  0.1108  0.1687 -0.6665
  261MPD2    H7 4014   3.271   2.795  12.224  0.3609 -1.0796  0.9913
  262TMC3    C1 4015   2.919   3.347  11.923  0.1579  0.4362 -0.0869
  262TMC3    C2 4016   2.823   3.435  11.962 -0.2245 -0.4522  0.2469
  262TMC3    C3 4017   2.862   3.560  11.935  0.9741 -0.7242 -0.1868
  262TMC3    C4 4018   3.048   3.367  11.886 -0.3734  0.5406 -0.6386
  262TMC3    C5 4019   3.075   3.497  11.843 -0.3286  0.5892 -0.5230
  262TMC3    C6 4020   2.983   3.593  11.867  0.5712 -0.1737 -0.5352
  262TMC3     C 4021   2.891   3.211  11.965  0.2616  0.6023 -0.8716
  262TMC3     O 4022   2.770   3.183  11.986 -0.1951 -0.2480 -0.1788
  262TMC3     H 4023   2.726   3.405  12.000  0.1109 -0.6982  0.9214
  262TMC3    H1 4024   3.107   3.286  11.843 -0.9444 -0.5696  0.6697
  262TMC3    H2 4025   3.025   3.692  11.873  0.9547 -0.3373 -0.5228
  262TMC3    C7 4026   3.214   3.545  11.805  0.2506 -0.0564  0.2419
  262TMC3    C8 4027   2.792   3.673  11.984  0.0071  0.3468  0.3609
  262TMC3    O1 4028   3.309   3.468  11.810 -0.3580  0.2557  0.2969
  262TMC3    O2 4029   2.840   3.779  11.947 -0.7411 -0.4646  0.2416
  263MPD2     C 4030   3.765   2.417  11.267 -0.1521 -0.7776  0.2352
  263MPD2    C1 4031   3.866   2.387  11.182  0.0494 -0.3369  0.2048
  263MPD2    C2 4032   3.897   2.463  11.071  0.9831  0.1837  0.3996
  263MPD2    C3 4033   3.820   2.575  11.047  0.0678  0.5593  0.1935
  263MPD2    C4 4034   3.718   2.604  11.136 -0.1887  0.2319  0.2264
  263MPD2    C5 4035   3.687   2.522  11.240 -0.3915 -0.4940 -0.0426
  263MPD2     H 4036   3.973   2.439  10.998  1.7602  0.8846  0.9752
  263MPD2    H1 4037   3.644   2.683  11.127  0.9702  1.3124  0.1931
  263MPD2    H2 4038   3.739   2.357  11.353 -0.5241  1.4761  1.7156
  263MPD2    H3 4039   3.603   2.545  11.304 -0.3326  0.0488 -0.1602
  263MPD2     N 4040   3.847   2.662  10.933  0.1245  0.0452 -0.3543
  263MPD2    H5 4041   3.920   2.631  10.870  1.5262  2.0478  0.2788
  263MPD2    N1 4042   3.945   2.279  11.220 -0.3628  0.2035 -0.1659
  263MPD2    H7 4043   3.926   2.247  11.314  0.9558 -1.6075 -0.5107
  264TMC3    C1 4044   3.833   2.858  10.793 -0.6892 -0.0448  0.5730
  264TMC3    C2 4045   3.782   2.983  10.790  0.5348  0.7527 -0.0076
  264TMC3    C3 4046   3.849   3.082  10.715 -0.3760  0.1130  0.2104
  264TMC3    C4 4047   3.939   2.824  10.712  0.5696  0.2841 -0.2622
  264TMC3    C5 4048   3.991   2.920  10.625  1.1757 -0.1909 -0.2494
  264TMC3    C6 4049   3.950   3.050  10.628  0.4982  0.2045  1.1445
  264TMC3     C 4050   3.780   2.777  10.900  0.1312  0.3742  0.0154
  264TMC3     O 4051   3.686   2.827  10.961 -0.4568  0.1522  0.1380
  264TMC3     H 4052   3.706   3.012  10.861  0.4200 -2.5676  1.2486
  264TMC3    H1 4053   3.997   2.733  10.729  1.4135  0.7546 -0.6362
  264TMC3    H2 4054   4.021   3.128  10.604 -0.2180  1.3612  2.8058
  264TMC3    C7 4055   4.106   2.889  10.535 -0.8624 -0.3664 -0.4253
  264TMC3    C8 4056   3.874   3.199  10.788  0.3252 -0.1087  1.2175
  264TMC3    O1 4057   4.168   2.785  10.541 -0.0766 -0.2428  0.1712
  264TMC3    O2 4058   3.931   3.294  10.735 -0.0797 -0.1432  0.3005
  265MPD2     C 4059   1.650   2.585  16.015 -0.0259 -0.1735 -0.2392
  265MPD2    C1 4060   1.579   2.656  15.923  0.0450  0.2569 -0.5815
  265MPD2    C2 4061   1.555   2.600  15.798 -0.6968 -0.2626  0.9224
  265MPD2    C3 4062   1.625   2.482  15.761  0.1365 -0.5730  0.1852
  265MPD2    C4 4063   1.709   2.429  15.848 -0.0249 -0.3724  0.3461
  265MPD2    C5 4064   1.723   2.482  15.971 -0.0110 -0.7944 -0.2143
  265MPD2     H 4065   1.494   2.653  15.726  0.1247 -2.0007 -1.0441
  265MPD2    H1 4066   1.768   2.343  15.816 -0.4308  0.3362 -2.3698
  265MPD2    H2 4067   1.669   2.617  16.117 -0.6142 -1.1789  0.1925
  265MPD2    H3 4068   1.798   2.435  16.034  0.4181 -1.7489 -1.4524
  265MPD2     N 4069   1.622   2.428  15.630  0.1265  0.1358 -0.3301
  265MPD2    H5 4070   1.686   2.350  15.614  0.5469  0.9127 -2.3706
  265MPD2    N1 4071   1.516   2.782  15.958 -0.5465  0.1966  0.3035
  265MPD2    H7 4072   1.457   2.819  15.885 -0.0919 -0.2336 -0.2794
  266TMC3    C1 4073   1.424   2.958  16.103 -0.5226 -0.3332 -0.1617
  266TMC3    C2 4074   1.383   2.994  16.231  1.0035 -0.0184 -0.0745
  266TMC3    C3 4075   1.316   3.113  16.241 -0.8690 -0.6021 -0.2105
  266TMC3    C4 4076   1.394   3.031  15.991 -0.3299 -0.8940 -0.3030
  266TMC3    C5 4077   1.321   3.143  16.011 -0.3743  0.2710  0.2220
  266TMC3    C6 4078   1.286   3.191  16.134  0.0056  0.2522 -0.0512
  266TMC3     C 4079   1.505   2.836  16.093  0.5642 -0.1698 -0.4416
  266TMC3     O 4080   1.557   2.791  16.198  0.4916  0.1742  0.3113
  266TMC3     H 4081   1.395   2.933  16.320 -0.7234  0.8477  0.7527
  266TMC3    H1 4082   1.438   3.005  15.895  0.8094  0.4759 -0.1583
  266TMC3    H2 4083   1.233   3.284  16.128 -0.9252 -0.3173 -0.5347
  266TMC3    C7 4084   1.320   3.238  15.900 -0.8418 -0.5445 -0.4758
  266TMC3    C8 4085   1.293   3.155  16.381 -0.5127 -0.2825  0.5224
  266TMC3    O1 4086   1.420   3.236  15.830 -0.0948  0.7755  0.3443
  266TMC3    O2 4087   1.330   3.089  16.476 -0.5341  0.2168 -0.0583
  267MPD2     C 4088   3.137   4.552   0.178  0.0356 -0.2794  0.5177
  267MPD2    C1 4089   3.229   4.640   0.113 -0.0723 -0.2254 -0.0325
  267MPD2    C2 4090   3.204   4.676  17.710 -0.2957  0.1319 -0.0535
  267MPD2    C3 4091   3.090   4.636  17.639 -0.6157 -0.0045 -0.6981
  267MPD2    C4 4092   3.007   4.555  17.705  0.7307  0.1152  0.1993
  267MPD2    C5 4093   3.021   4.519   0.106 -0.1727 -0.1479  0.4414
  267MPD2     H 4094   3.286   4.716  17.652 -2.3842  1.6645 -1.9387
  267MPD2    H1 4095   2.913   4.525  17.661  0.7297 -0.6257  0.7092
  267MPD2    H2 4096   3.164   4.508   0.273 -0.5884  2.0454  1.7521
  267MPD2    H3 4097   2.947   4.458   0.158 -1.9970  2.1827  0.5923
  267MPD2     N 4098   3.075   4.640  17.497  0.0817 -0.5051 -0.1346
  267MPD2    H5 4099   3.000   4.586  17.455  0.6409 -0.2249 -1.4651
  267MPD2    N1 4100   3.353   4.652   0.179 -0.2159  0.2773  0.3025
  267MPD2    H7 4101   3.358   4.588   0.258  1.6156 -0.7030 -0.6092
  268TMC3    C1 4102   3.589   4.714   0.208  0.2210 -0.4503  0.0395
  268TMC3    C2 4103   3.698   0.022   0.136  1.1737 -0.1366 -0.1529
  268TMC3    C3 4104   3.820   4.721   0.179  0.3455  0.0846 -0.2033
  268TMC3    C4 4105   3.607   4.651   0.331 -0.1454  0.0612  0.1224
  268TMC3    C5 4106   3.736   4.606   0.365  0.6676 -0.2263 -0.1030
  268TMC3    C6 4107   3.845   4.639   0.285 -0.4854 -0.6252 -0.7384
  268TMC3     C 4108   3.457   4.722   0.134  0.2102 -0.2858  0.1074
  268TMC3     O 4109   3.447   0.062   0.039 -0.5263  0.7566 -0.0172
  268TMC3     H 4110   3.678   0.059   0.036  1.4720  0.1361 -0.1096
  268TMC3    H1 4111   3.525   4.604   0.384  0.9416 -1.9745 -0.0438
  268TMC3    H2 4112   3.941   4.612   0.326 -0.7012  1.5461  1.1697
  268TMC3    C7 4113   3.762   4.538   0.488  0.1945 -0.1527 -0.2661
  268TMC3    C8 4114   3.933   4.731   0.089 -0.1971  0.4990 -0.2171
  268TMC3    O1 4115   3.847   4.454   0.499  0.2384  0.5232 -0.1116
  268TMC3    O2 4116   4.041   4.721   0.144 -0.3087  0.7696 -0.7235
  269MPD2     C 4117   4.247   3.254  16.087  0.0803 -0.0830  0.6133
  269MPD2    C1 4118   4.114   3.244  16.093  0.1989 -0.1189  0.5381
  269MPD2    C2 4119   4.032   3.343  16.037 -0.2083  0.2920 -0.7540
  269MPD2    C3 4120   4.094   3.446  15.959 -0.6083  1.3236  0.1954
  269MPD2    C4 4121   4.233   3.449  15.950 -0.7410 -0.3458 -0.4628
  269MPD2    C5 4122   4.310   3.348  16.010  0.3604  0.3184 -0.2271
  269MPD2     H 4123   3.924   3.336  16.035 -0.2425  0.9590 -1.0943
  269MPD2    H1 4124   4.280   3.529  15.895  1.2405 -1.4684 -0.4285
  269MPD2    H2 4125   4.313   3.177  16.127 -0.9619 -1.0037  0.5718
  269MPD2    H3 4126   4.418   3.345  16.002  0.4920 -0.3545  1.7105
  269MPD2     N 4127   4.011   3.544  15.901 -0.0792 -0.2589 -0.3339
  269MPD2    H5 4128   3.920   3.559  15.944  0.0540  0.0240 -0.1491
  269MPD2    N1 4129   4.074   3.134  16.166 -0.0030 -0.0640  0.8659
  269MPD2    H7 4130   4.146   3.065  16.186 -0.5563 -0.6226  0.9498
  270TMC3    C1 4131   3.914   2.962  16.204  0.1569 -0.2669  0.2865
  270TMC3    C2 4132   3.787   2.921  16.184  0.1434 -0.6409 -0.1439
  270TMC3    C3 4133   3.757   2.790  16.211  0.0019  0.3513 -0.5679
  270TMC3    C4 4134   4.019   2.878  16.232 -0.2701 -0.4000 -0.6263
  270TMC3    C5 4135   3.985   2.752  16.264  0.6031 -0.9184  0.2245
  270TMC3    C6 4136   3.858   2.712  16.256  0.1733 -0.1384 -0.1886
  270TMC3     C 4137   3.944   3.102  16.176  0.5834 -0.2967 -0.8130
  270TMC3     O 4138   3.848   3.173  16.151 -0.8037 -0.5178  0.0028
  270TMC3     H 4139   3.714   2.992  16.150 -3.4689 -4.1487  0.2778
  270TMC3    H1 4140   4.124   2.903  16.229 -0.2094 -0.9807 -3.2751
  270TMC3    H2 4141   3.831   2.607  16.257 -3.0107  0.7062  0.6072
  270TMC3    C7 4142   4.090   2.656  16.230  0.3283  0.7642 -0.2592
  270TMC3    C8 4143   3.701   2.733  16.092  0.3224  0.1878 -0.3010
  270TMC3    O1 4144   4.197   2.685  16.278 -0.0944  0.3728  0.3345
  270TMC3    O2 4145   3.758   2.634  16.045  0.0239 -0.4223 -0.4726
  271MPD2     C 4146   3.083   2.548  14.362  1.1231  0.2999  0.3172
  271MPD2    C1 4147   3.053   2.645  14.453  0.5118  0.0540  0.4256
  271MPD2    C2 4148   2.972   2.747  14.409  0.6658  0.6071 -0.2161
  271MPD2    C3 4149   2.933   2.764  14.271 -0.5483 -0.7587 -0.2699
  271MPD2    C4 4150   2.973   2.669  14.181  0.2792  0.9136  0.4512
  271MPD2    C5 4151   3.039   2.556  14.228  0.2581 -0.1830  0.0197
  271MPD2     H 4152   2.955   2.821  14.487  0.9945 -0.6363  1.0348
  271MPD2    H1 4153   2.940   2.675  14.078  0.1355 -0.6156  0.4040
  271MPD2    H2 4154   3.142   2.461  14.390 -1.7734 -1.4001  1.2032
  271MPD2    H3 4155   3.064   2.480  14.154  0.4341  1.2727 -1.4209
  271MPD2     N 4156   2.848   2.867  14.222 -0.0175  0.3898  0.0753
  271MPD2    H5 4157   2.824   2.869  14.123  1.9571 -2.5296 -0.4746
  271MPD2    N1 4158   3.089   2.641  14.588  0.4240  0.7878  0.4074
  271MPD2    H7 4159   3.072   2.724  14.644  0.2111  0.3287  1.0196
  272TMC3    C1 4160   3.206   2.560  14.781 -0.4342  0.4065  0.0791
  272TMC3    C2 4161   3.314   2.483  14.821  0.1541 -0.4316  0.1771
  272TMC3    C3 4162   3.375   2.506  14.942  0.3435  0.1259 -1.0265
  272TMC3    C4 4163   3.150   2.657  14.863 -0.6928  0.4053  0.3932
  272TMC3    C5 4164   3.200   2.664  14.987  0.1087 -0.3235 -0.6554
  272TMC3    C6 4165   3.313   2.593  15.025  0.0008 -0.2631  0.4146
  272TMC3     C 4166   3.167   2.545  14.645 -0.7076 -0.4802  0.7172
  272TMC3     O 4167   3.205   2.445  14.589 -0.3225  0.3409 -0.2532
  272TMC3     H 4168   3.361   2.410  14.756  0.9911 -0.8684  1.2745
  272TMC3    H1 4169   3.066   2.718  14.829 -1.2937  0.4047  1.9045
  272TMC3    H2 4170   3.344   2.594  15.129  1.3443  0.6841  0.0111
  272TMC3    C7 4171   3.127   2.734  15.085 -0.0091  0.4092  0.7526
  272TMC3    C8 4172   3.519   2.503  14.935 -0.2867  0.2352  0.1380
  272TMC3    O1 4173   3.011   2.750  15.057 -0.5772  0.0474  0.2518
  272TMC3    O2 4174   3.565   2.529  14.823 -0.1174 -0.3368 -0.0963
  273MPD2     C 4175   3.930   0.947  11.580 -0.3672  0.0834  0.0157
  273MPD2    C1 4176   4.036   1.031  11.567  0.5756 -0.2889 -0.2235
  273MPD2    C2 4177   4.078   1.053  11.439 -0.4867  0.2795  0.1812
  273MPD2    C3 4178   4.010   1.014  11.325 -0.2521  0.2271 -0.8315
  273MPD2    C4 4179   3.898   0.930  11.341 -0.3107  0.0957  0.4070
  273MPD2    C5 4180   3.860   0.899  11.469  0.3667 -0.2841  0.1170
  273MPD2     H 4181   4.168   1.110  11.414 -0.9229  0.4737 -0.9566
  273MPD2    H1 4182   3.844   0.896  11.253  0.3874 -1.7242  0.6797
  273MPD2    H2 4183   3.899   0.928  11.682 -1.4741  0.3899 -0.2610
  273MPD2    H3 4184   3.772   0.836  11.473  0.0133  0.3272  1.8885
  273MPD2     N 4185   4.039   1.047  11.193  0.1351 -0.4073 -0.4226
  273MPD2    H5 4186   3.966   1.009  11.133  0.0665 -1.2275  0.1735
  273MPD2    N1 4187   4.117   1.069  11.685  0.3474  0.0396 -0.0663
  273MPD2    H7 4188   4.077   1.033  11.771 -0.9136 -2.5367 -1.7439
  274TMC3    C1 4189   4.144   1.151  11.012  0.2830  0.0479 -0.1449
  274TMC3    C2 4190   4.025   1.171  10.951  0.1463  0.2850 -0.1079
  274TMC3    C3 4191   4.029   1.199  10.818 -0.5213  0.7205  0.6443
  274TMC3    C4 4192   4.271   1.168  10.959 -0.1951  0.1237 -0.3127
  274TMC3    C5 4193   4.271   1.216  10.832  0.4338 -0.1128 -0.2059
  274TMC3    C6 4194   4.155   1.224  10.755  0.4187  0.5122  0.3043
  274TMC3     C 4195   4.151   1.113  11.153  0.0270  0.0412 -0.2400
  274TMC3     O 4196   4.251   1.148  11.213 -0.2183  0.2588  0.2417
  274TMC3     H 4197   3.930   1.144  10.995  0.4617  4.5995  3.2358
  274TMC3    H1 4198   4.362   1.148  11.015 -1.2585 -0.6032  1.1393
  274TMC3    H2 4199   4.146   1.271  10.658  0.3758  1.4407  0.7572
  274TMC3    C7 4200   4.345   1.346  10.830 -0.2246  0.0806 -0.3797
  274TMC3    C8 4201   3.915   1.287  10.775  0.8908  0.1912  0.4314
  274TMC3    O1 4202   4.274   1.441  10.799  0.0718 -0.7745 -0.0279
  274TMC3    O2 4203   3.935   1.373  10.693  0.5470  0.4732 -0.1203
  275MPD2     C 4204   4.618   3.711  14.436  0.0082 -0.6041  0.1916
  275MPD2    C1 4205   4.581   3.720  14.565  0.0544  0.3618  1.0156
  275MPD2    C2 4206   4.471   3.657  14.612  0.6892  0.4867 -0.3030
  275MPD2    C3 4207   4.402   3.566  14.532  0.4301  0.1099  0.1614
  275MPD2    C4 4208   4.452   3.542  14.407 -0.3132  0.5423  0.1923
  275MPD2    C5 4209   4.557   3.617  14.362  0.0910 -0.1409  0.3530
  275MPD2     H 4210   4.450   3.661  14.718  2.6456 -1.6541  0.1722
  275MPD2    H1 4211   4.409   3.475  14.333  0.2394  1.6077 -1.1010
  275MPD2    H2 4212   4.690   3.777  14.387 -2.5400  1.4583 -0.7601
  275MPD2    H3 4213   4.598   3.597  14.264 -3.4854  0.2953 -1.2306
  275MPD2     N 4214   4.282   3.505  14.573 -0.7022  0.5692  0.2019
  275MPD2    H5 4215   4.238   3.447  14.503 -2.3052 -0.2929  1.9299
  275MPD2    N1 4216   4.631   3.815  14.653 -0.0015  0.7383 -0.6874
  275MPD2    H7 4217   4.568   3.831  14.731 -2.1781  1.2631 -2.5334
  276TMC3    C1 4218   4.723   4.000  14.749 -0.1197 -1.2590  0.9180
  276TMC3    C2 4219   4.662   3.972  14.866  0.2162  0.3934  0.1378
  276TMC3    C3 4220   4.643   4.077  14.956 -0.1019 -0.2604  0.0093
  276TMC3    C4 4221   0.069   4.115  14.735 -1.1192 -0.0074  0.4753
  276TMC3    C5 4222   0.051   4.218  14.827 -0.2774 -0.6042  0.6798
  276TMC3    C6 4223   4.696   4.201  14.935  0.3224  0.2543  0.1627
  276TMC3     C 4224   4.724   3.908  14.635 -0.5075 -0.4762 -0.3861
  276TMC3     O 4225   0.075   3.919  14.548  0.2028 -0.4620 -0.2414
  276TMC3     H 4226   4.629   3.872  14.894  0.6455  0.0853 -0.4482
  276TMC3    H1 4227   0.122   4.139  14.643  0.7344 -1.2912  1.2096
  276TMC3    H2 4228   4.696   4.278  15.011  0.5029  0.0807  0.3375
  276TMC3    C7 4229   0.166   4.300  14.853 -0.1566  0.2481  0.6474
  276TMC3    C8 4230   4.560   4.064  15.078  0.1305 -0.6914 -0.1813
  276TMC3    O1 4231   0.143   4.400  14.918 -0.1567 -0.6715 -0.0020
  276TMC3    O2 4232   4.494   4.165  15.119 -0.3544  0.0445 -0.7037
  277MPD2     C 4233   1.752   2.880  13.507 -0.3838  0.9599 -0.1818
  277MPD2    C1 4234   1.612   2.880  13.505 -0.2168 -0.0938 -0.3756
  277MPD2    C2 4235   1.544   2.826  13.619 -0.2130 -0.1314 -0.2250
  277MPD2    C3 4236   1.614   2.772  13.721 -0.2837 -1.1624 -0.0016
  277MPD2    C4 4237   1.749   2.773  13.720  0.2779  0.4431 -0.0604
  277MPD2    C5 4238   1.819   2.824  13.616  0.2289 -0.3211  0.1336
  277MPD2     H 4239   1.437   2.841  13.626  0.0124  0.8393  0.9637
  277MPD2    H1 4240   1.809   2.722  13.795  1.3992  1.0182 -0.5801
  277MPD2    H2 4241   1.807   2.928  13.426 -1.8975 -0.2303 -1.9305
  277MPD2    H3 4242   1.926   2.829  13.605  0.3842  0.8317  2.0103
  277MPD2     N 4243   1.537   2.730  13.829 -0.0265  0.1181 -0.1601
  277MPD2    H5 4244   1.441   2.761  13.843 -0.2000 -0.0851 -0.8808
  277MPD2    N1 4245   1.545   2.935  13.385  0.1625  0.3917  0.3970
  277MPD2    H7 4246   1.601   2.969  13.306  1.2953 -2.6222 -0.1130
  278TMC3    C1 4247   1.482   2.623  14.037 -0.3109 -0.2373  0.0475
  278TMC3    C2 4248   1.453   2.496  14.068  0.1736 -0.3461  0.0379
  278TMC3    C3 4249   1.319   2.459  14.082 -0.4135  0.1558  1.0755
  278TMC3    C4 4250   1.386   2.724  14.048 -0.7341  0.3890 -0.8755
  278TMC3    C5 4251   1.250   2.682  14.033  0.2433 -0.6859 -0.4396
  278TMC3    C6 4252   1.218   2.549  14.053  0.0398 -0.0780  0.0990
  278TMC3     C 4253   1.582   2.639  13.929 -0.4264 -0.3881 -0.0746
  278TMC3     O 4254   1.680   2.565  13.932  0.0461 -0.1227 -0.2056
  278TMC3     H 4255   1.518   2.410  14.059  1.4250  0.4737  1.2792
  278TMC3    H1 4256   1.423   2.824  14.027  0.1398  0.7018  2.2598
  278TMC3    H2 4257   1.113   2.520  14.054 -0.3091  1.2638  2.6160
  278TMC3    C7 4258   1.199   2.742  13.909  0.0956  0.6451 -0.7077
  278TMC3    C8 4259   1.285   2.328  14.143 -0.2058 -0.3396  0.2351
  278TMC3    O1 4260   1.278   2.804  13.842  0.0018  1.1229 -0.0474
  278TMC3    O2 4261   1.380   2.279  14.198  0.4392  1.1965  0.3021
  279MPD2     C 4262   0.805   3.273   0.670  0.1152  0.8795  0.2401
  279MPD2    C1 4263   0.719   3.381   0.659  0.5055 -0.2158  0.2653
  279MPD2    C2 4264   0.733   3.463   0.547  0.2282 -0.2931  0.2265
  279MPD2    C3 4265   0.824   3.430   0.449  1.1417  0.6667  0.5664
  279MPD2    C4 4266   0.906   3.319   0.460  0.2540  0.6905 -0.3466
  279MPD2    C5 4267   0.903   3.250   0.578 -0.1109  0.0114 -0.1274
  279MPD2     H 4268   0.669   3.549   0.530 -1.6288 -2.2597 -2.7165
  279MPD2    H1 4269   0.989   3.295   0.394  0.3414 -0.7216  0.2811
  279MPD2    H2 4270   0.803   3.203   0.753 -1.1458  0.4428 -0.1714
  279MPD2    H3 4271   0.980   3.176   0.598 -1.0177 -1.4559 -2.0471
  279MPD2     N 4272   0.844   3.506   0.333 -0.4676 -0.5875  0.0722
  279MPD2    H5 4273   0.924   3.471   0.282 -0.2357 -0.8505  0.6222
  279MPD2    N1 4274   0.632   3.410   0.769  0.1109 -0.1614 -0.7230
  279MPD2    H7 4275   0.665   3.375   0.859  0.7376  2.5534  0.0954
  280TMC3    C1 4276   0.445   3.494   0.653 -0.6138  0.4545  0.7127
  280TMC3    C2 4277   0.433   3.378   0.586 -0.0694  0.4173  0.1643
  280TMC3    C3 4278   0.347   3.362   0.479 -0.3247  0.0807 -0.4917
  280TMC3    C4 4279   0.366   3.595   0.625  0.0455 -0.6835  0.2356
  280TMC3    C5 4280   0.285   3.580   0.519 -0.1819  0.0817 -0.3147
  280TMC3    C6 4281   0.274   3.470   0.438 -0.0912 -0.2203  0.5142
  280TMC3     C 4282   0.539   3.507   0.766 -0.3534  0.0371 -0.4348
  280TMC3     O 4283   0.485   3.559   0.864  0.6231 -0.2121  0.9706
  280TMC3     H 4284   0.493   3.296   0.623 -0.4553  0.8734  1.8141
  280TMC3    H1 4285   0.363   3.681   0.690 -1.0511 -0.0961 -0.5804
  280TMC3    H2 4286   0.217   3.455   0.347  0.4260 -0.1682  0.1848
  280TMC3    C7 4287   0.240   3.702   0.457 -0.6814  0.6365  0.7209
  280TMC3    C8 4288   0.355   3.236   0.397 -0.3412  0.0731 -0.0215
  280TMC3    O1 4289   0.300   3.803   0.490  0.8523  0.6107 -0.0512
  280TMC3    O2 4290   0.284   3.233   0.299  0.2199 -0.3828  0.0310
  281TMC3    C1 4291   4.437   3.191  13.254  0.1155 -0.4080 -0.4503
  281TMC3    C2 4292   4.466   3.293  13.172 -0.1889 -0.7329  0.4071
  281TMC3    C3 4293   4.536   3.257  13.057  0.1481 -0.7150  0.8723
  281TMC3    C4 4294   4.472   3.062  13.237 -0.9978  0.4871  0.4626
  281TMC3    C5 4295   4.545   3.031  13.127 -0.1911 -0.0244 -0.0172
  281TMC3    C6 4296   4.576   3.129  13.040 -0.5442  0.4512 -0.3567
  281TMC3     C 4297   4.334   3.216  13.361 -0.2124  0.7579  0.0684
  281TMC3     O 4298   4.341   3.126  13.446  0.2480 -0.4208 -0.0613
  281TMC3     H 4299   4.436   3.396  13.188  2.5354  0.3819 -1.6125
  281TMC3    H1 4300   4.446   2.992  13.316 -1.7299  2.2604  1.7910
  281TMC3    H2 4301   4.624   3.097  12.948 -0.7098 -0.3416 -0.1684
  281TMC3    C7 4302   4.566   2.894  13.085  0.1955  0.1570  0.1989
  281TMC3    C8 4303   4.599   3.357  12.967 -0.4705 -0.2353 -0.0190
  281TMC3    O1 4304   4.651   2.882  12.995  0.0263  0.2800 -0.2344
  281TMC3    O2 4305   4.708   3.319  12.926 -0.0816  0.1128  0.3484
  282MPD2     C 4306   1.600   4.315  14.904  1.0823 -0.0435  0.3428
  282MPD2    C1 4307   1.471   4.354  14.920 -0.3769  0.1883  0.6447
  282MPD2    C2 4308   1.389   4.344  14.809 -0.0963 -0.2188  0.0966
  282MPD2    C3 4309   1.433   4.283  14.691 -0.2903 -0.2493 -0.2972
  282MPD2    C4 4310   1.567   4.242  14.681 -0.3349 -0.1213 -0.4098
  282MPD2    C5 4311   1.645   4.259  14.791  0.3836  0.1905  0.4436
  282MPD2     H 4312   1.297   4.402  14.807 -1.8791 -3.1241 -2.4376
  282MPD2    H1 4313   1.615   4.201  14.593 -1.0956 -0.5203 -0.6431
  282MPD2    H2 4314   1.671   4.334  14.984  0.4553 -1.8641  1.3285
  282MPD2    H3 4315   1.749   4.229  14.794 -0.5170 -2.8198  1.0924
  282MPD2     N 4316   1.350   4.282  14.573  0.6398  0.8988 -0.7812
  282MPD2    H5 4317   1.256   4.319  14.579  0.5299  0.2500  1.6662
  282MPD2    N1 4318   1.420   4.422  15.029 -0.0646  0.0072  0.1366
  282MPD2    H7 4319   1.321   4.441  15.033  0.1829  1.3515 -0.2920
  283TMC3    C1 4320   1.426   4.531  15.235  0.5792  0.1078  0.2625
  283TMC3    C2 4321   1.492   4.625  15.311 -0.5475  0.8435 -0.2438
  283TMC3    C3 4322   1.427   4.691  15.412 -0.2988  0.4394  0.6665
  283TMC3    C4 4323   1.298   4.487  15.263  0.6978 -0.4832 -0.5814
  283TMC3    C5 4324   1.227   4.570  15.349 -0.1612  0.2074  0.4738
  283TMC3    C6 4325   1.291   4.672  15.423  0.5853  0.4550  0.8385
  283TMC3     C 4326   1.499   4.467  15.134 -0.6331  0.0798 -0.3205
  283TMC3     O 4327   1.618   4.456  15.146  0.1996 -0.3718  0.1790
  283TMC3     H 4328   1.598   4.636  15.291 -0.2459 -0.8455  0.4407
  283TMC3    H1 4329   1.256   4.396  15.221 -1.3185  1.2320 -2.2485
  283TMC3    H2 4330   1.232   0.008  15.483 -1.0149 -0.6448  0.5288
  283TMC3    C7 4331   1.103   4.520  15.404 -0.5576  0.5234  0.6055
  283TMC3    C8 4332   1.482   0.092  15.426 -0.1816  0.0106  0.1824
  283TMC3    O1 4333   1.071   4.577  15.507  0.4204 -0.3624  0.6208
  283TMC3    O2 4334   1.603   0.106  15.434 -0.3276 -0.1540 -0.1354
  284MPD2     C 4335   4.042   3.901  11.972  0.0512  0.4813 -0.2123
  284MPD2    C1 4336   4.131   3.861  11.873  0.1966 -0.2255  0.6365
  284MPD2    C2 4337   4.150   3.731  11.838 -0.0028  0.0958  0.0394
  284MPD2    C3 4338   4.066   3.634  11.898 -0.0379 -0.3951  0.0933
  284MPD2    C4 4339   3.968   3.673  11.979  0.6729 -0.8523 -0.1575
  284MPD2    C5 4340   3.958   3.805  12.019  0.7778  1.0096 -0.2733
  284MPD2     H 4341   4.222   3.696  11.765 -2.2127 -2.5770 -0.8548
  284MPD2    H1 4342   3.885   3.615  12.017  0.2783  0.3599  0.8285
  284MPD2    H2 4343   4.025   4.001  12.011 -0.3352  0.9113 -1.4803
  284MPD2    H3 4344   3.884   3.835  12.092  1.0711  1.2155 -0.0596
  284MPD2     N 4345   4.070   3.497  11.863  0.6089 -0.3087 -0.1654
  284MPD2    H5 4346   4.007   3.435  11.912 -0.6992  1.2752  0.1444
  284MPD2    N1 4347   4.212   3.952  11.800 -0.3055  0.0797  0.2443
  284MPD2    H7 4348   4.278   3.912  11.734  0.5677  2.4096 -0.3235
  285TMC3    C1 4349   4.330   4.150  11.766  0.0131  0.4445 -0.1617
  285TMC3    C2 4350   4.431   4.068  11.720  0.1968  0.2146 -0.7612
  285TMC3    C3 4351   4.529   4.132  11.644  0.0579 -0.4161  0.3394
  285TMC3    C4 4352   4.321   4.290  11.744 -0.1626 -0.3662  0.0876
  285TMC3    C5 4353   4.429   4.349  11.671  0.0026 -0.2690  0.2428
  285TMC3    C6 4354   4.524   4.263  11.620 -0.2249 -0.2460 -0.1652
  285TMC3     C 4355   4.225   4.081  11.834  0.5820  1.0890  0.1779
  285TMC3     O 4356   4.144   4.153  11.891 -0.5681  0.1094  0.5788
  285TMC3     H 4357   4.443   3.963  11.744  0.6362  0.6314  0.8248
  285TMC3    H1 4358   4.240   4.344  11.790  0.6296  0.3326  0.6552
  285TMC3    H2 4359   4.602   4.314  11.565 -0.6739  0.7962  0.1682
  285TMC3    C7 4360   4.418   4.485  11.615  0.2137 -0.0403 -0.0451
  285TMC3    C8 4361   4.593   4.047  11.549 -0.5479 -0.0182  0.1446
  285TMC3    O1 4362   4.515   4.523  11.548 -0.0277  0.2912 -0.2764
  285TMC3    O2 4363   4.561   3.928  11.536  0.1732 -0.1418 -0.4955
  286MPD2     C 4364   4.501   3.304   1.497 -1.1149  0.0956 -0.2637
  286MPD2    C1 4365   4.446   3.234   1.395  0.5652  0.6595 -0.1668
  286MPD2    C2 4366   4.514   3.126   1.342  0.0597  0.2311 -0.2689
  286MPD2    C3 4367   4.631   3.081   1.397  0.6971 -1.3122 -0.6452
  286MPD2    C4 4368   4.674   3.141   1.519  0.2861 -0.3412  0.0523
  286MPD2    C5 4369   4.611   3.259   1.558 -0.3264  0.0077  0.2951
  286MPD2     H 4370   4.476   3.077   1.253  1.0870 -0.8973 -0.0855
  286MPD2    H1 4371   0.023   3.098   1.576  1.2928 -0.4506 -1.4444
  286MPD2    H2 4372   4.463   3.396   1.540  0.5681  1.4466 -1.6691
  286MPD2    H3 4373   4.652   3.324   1.633 -0.1703  1.2598 -0.8732
  286MPD2     N 4374   4.702   2.961   1.362  0.0690  0.1016  0.2138
  286MPD2    H5 4375   0.053   2.940   1.417  0.4589  3.5936  0.9332
  286MPD2    N1 4376   4.317   3.259   1.342 -0.2010  0.7411 -0.1454
  286MPD2    H7 4377   4.287   3.219   1.254  1.0821  1.6338 -0.9997
  287TMC3    C1 4378   0.039   2.753   1.264 -0.2596 -0.5562 -0.5665
  287TMC3    C2 4379   0.051   2.678   1.157  0.6034  1.2511  0.2477
  287TMC3    C3 4380   0.143   2.578   1.164  0.1163 -0.1428  0.3936
  287TMC3    C4 4381   0.094   2.724   1.388  0.2328  0.0181  0.1365
  287TMC3    C5 4382   0.177   2.610   1.395  0.2288  0.4162 -0.0376
  287TMC3    C6 4383   0.207   2.544   1.282  0.0762  0.2952  0.2662
  287TMC3     C 4384   4.685   2.871   1.256  0.0255  0.3156 -0.4404
  287TMC3     O 4385   4.605   2.881   1.169 -0.4750  0.4903 -0.0531
  287TMC3     H 4386   0.010   2.703   1.060  3.5123  0.8332 -1.0970
  287TMC3    H1 4387   0.056   2.766   1.480 -0.3454 -0.1560 -0.0261
  287TMC3    H2 4388   0.260   2.450   1.284 -0.0291  0.2508  1.1134
  287TMC3    C7 4389   0.259   2.593   1.515  0.1161 -0.4576 -0.2254
  287TMC3    C8 4390   0.156   2.488   1.047 -0.5728 -0.4254 -0.5274
  287TMC3    O1 4391   0.242   2.681   1.597  0.5860 -0.1247  0.2433
  287TMC3    O2 4392   0.084   2.493   0.947  0.2595 -0.7570 -0.2173
  288TMC3    C1 4393   1.835   2.478  14.644  0.3272 -0.4523 -0.3583
  288TMC3    C2 4394   1.717   2.502  14.706  0.3922 -0.0161 -0.3166
  288TMC3    C3 4395   1.671   2.628  14.700 -0.3550  0.0851  0.4510
  288TMC3    C4 4396   1.902   2.577  14.570 -0.0871 -0.1950 -0.1825
  288TMC3    C5 4397   1.841   2.704  14.573 -0.4014 -0.3044 -0.4339
  288TMC3    C6 4398   1.727   2.734  14.636  0.3335  0.0335  0.5861
  288TMC3     C 4399   1.902   2.351  14.669  0.1748  0.7183 -0.4716
  288TMC3     O 4400   1.821   2.272  14.710 -0.5226  0.3346 -0.1860
  288TMC3     H 4401   1.668   2.427  14.768  3.6388 -0.2126  2.0009
  288TMC3    H1 4402   1.989   2.553  14.510 -0.6156  0.5567 -1.2516
  288TMC3    H2 4403   1.685   2.832  14.653 -1.7589 -1.1557  2.3986
  288TMC3    C7 4404   1.877   2.805  14.477  0.4797 -0.7787  0.5655
  288TMC3    C8 4405   1.587   2.663  14.815 -0.2209  0.1647 -0.3930
  288TMC3    O1 4406   1.804   2.903  14.465  0.1365 -0.6411  0.3329
  288TMC3    O2 4407   1.650   2.725  14.904 -0.1730  0.2204  0.2463
  289MPD2     C 4408   1.487   1.412  14.572 -0.0047 -0.0047 -0.3242
  289MPD2    C1 4409   1.475   1.520  14.486 -0.2872 -0.2678  0.3138
  289MPD2    C2 4410   1.384   1.515  14.381  1.1745 -0.2806  0.2618
  289MPD2    C3 4411   1.301   1.398  14.372  0.8407  0.1801 -0.5642
  289MPD2    C4 4412   1.332   1.282  14.449  0.0382 -0.1316  0.6684
  289MPD2    C5 4413   1.428   1.291  14.544 -0.8789 -0.1342 -0.1367
  289MPD2     H 4414   1.368   1.597  14.313  0.4354 -1.7908 -1.4034
  289MPD2    H1 4415   1.277   1.189  14.456  1.1068 -0.7778  0.4672
  289MPD2    H2 4416   1.561   1.408  14.651 -0.0263 -0.7058 -0.3347
  289MPD2    H3 4417   1.456   1.205  14.605  2.6995  1.4954  0.4907
  289MPD2     N 4418   1.187   1.385  14.286  0.6474 -0.3236  0.6778
  289MPD2    H5 4419   1.154   1.290  14.273 -2.9532  0.9766  0.4152
  289MPD2    N1 4420   1.545   1.637  14.516  0.4388 -0.0985 -0.1166
  289MPD2    H7 4421   1.617   1.631  14.587 -0.7322 -2.4274  0.8756
  290TMC3    C1 4422   1.009   1.457  14.160  0.5456  0.5073 -0.6300
  290TMC3    C2 4423   0.914   1.561  14.156  0.2082  0.0822  0.3593
  290TMC3    C3 4424   0.801   1.540  14.089  0.1492  0.7237 -0.4221
  290TMC3    C4 4425   0.998   1.337  14.090  0.1667 -0.5607 -0.4111
  290TMC3    C5 4426   0.874   1.316  14.039  0.1139  0.1371  0.1126
  290TMC3    C6 4427   0.782   1.419  14.031  0.1463  0.8285 -0.0958
  290TMC3     C 4428   1.128   1.496  14.226 -0.0640 -0.0582  0.5302
  290TMC3     O 4429   1.153   1.612  14.234  0.0962 -0.5818  0.1189
  290TMC3     H 4430   0.933   1.653  14.211  0.4390  1.2511 -1.6610
  290TMC3    H1 4431   1.087   1.278  14.073  0.8287  0.1823  0.5103
  290TMC3    H2 4432   0.685   1.399  13.986 -0.4279  2.2590  0.4995
  290TMC3    C7 4433   0.869   1.221  13.936  0.4304 -0.4619 -0.0680
  290TMC3    C8 4434   0.696   1.644  14.080  0.3849  0.1170  0.8387
  290TMC3    O1 4435   0.801   1.261  13.840  0.4644  0.2914  0.8074
  290TMC3    O2 4436   0.582   1.610  14.053  0.5412 -0.1030  0.5758
  291MPD2     C 4437   1.420   1.504   0.951  0.3190  0.7103  0.3007
  291MPD2    C1 4438   1.348   1.499   0.836 -0.2018 -0.3384 -0.0153
  291MPD2    C2 4439   1.389   1.565   0.725 -0.3079  0.3616 -0.3746
  291MPD2    C3 4440   1.512   1.623   0.726  0.0664  0.2891  0.3616
  291MPD2    C4 4441   1.580   1.636   0.847  0.1540 -0.4227  0.1979
  291MPD2    C5 4442   1.536   1.575   0.960 -0.3988 -0.5770 -0.0509
  291MPD2     H 4443   1.328   1.558   0.636 -0.6880  0.2029 -0.1028
  291MPD2    H1 4444   1.673   1.691   0.845 -0.4370  0.4745 -2.5620
  291MPD2    H2 4445   1.379   1.452   1.036  0.9823  2.5095  1.7211
  291MPD2    H3 4446   1.589   1.586   1.054 -0.8486  2.9235 -0.2099
  291MPD2     N 4447   1.566   1.684   0.610  0.5243 -0.6610  0.4829
  291MPD2    H5 4448   1.645   1.747   0.621  0.1419  0.2268 -1.7729
  291MPD2    N1 4449   1.221   1.430   0.835 -0.4050  0.0910 -0.1846
  291MPD2    H7 4450   1.191   1.388   0.923 -0.6004 -0.9971 -0.7713
  292TMC3    C1 4451   1.014   1.364   0.739  0.4050  0.1538 -0.0945
  292TMC3    C2 4452   0.962   1.413   0.853  0.0030 -0.1912 -0.0648
  292TMC3    C3 4453   0.828   1.410   0.867 -0.3682  0.4452 -0.4108
  292TMC3    C4 4454   0.942   1.284   0.658  0.4898 -0.4352 -0.0655
  292TMC3    C5 4455   0.807   1.278   0.672  0.5457 -0.3793  0.7126
  292TMC3    C6 4456   0.747   1.345   0.778 -0.1653  0.6555  0.6107
  292TMC3     C 4457   1.149   1.401   0.713 -0.4228  0.1541 -0.0504
  292TMC3     O 4458   1.184   1.405   0.594  0.1907  0.5824  0.0435
  292TMC3     H 4459   1.015   1.484   0.915 -0.9420  1.3114 -0.9720
  292TMC3    H1 4460   0.996   1.251   0.569 -2.1605  1.5312 -2.3816
  292TMC3    H2 4461   0.642   1.370   0.780 -0.9240 -2.3698 -0.7516
  292TMC3    C7 4462   0.740   1.188   0.582 -0.1786 -0.2010  0.2909
  292TMC3    C8 4463   0.777   1.478   0.984 -0.5707 -0.5536 -0.6903
  292TMC3    O1 4464   0.805   1.143   0.490 -0.4167  0.0614  0.5156
  292TMC3    O2 4465   0.850   1.562   1.039  0.3590 -0.8969 -1.0265
  293MPD2     C 4466   2.666   2.232  13.072  0.2915 -0.2322 -0.6442
  293MPD2    C1 4467   2.583   2.335  13.090 -0.7268 -0.6429 -0.4932
  293MPD2    C2 4468   2.593   2.415  13.203  0.1667  0.6659  0.2413
  293MPD2    C3 4469   2.695   2.380  13.294  0.2840 -0.2176 -0.2541
  293MPD2    C4 4470   2.783   2.274  13.271  0.1950  0.5408  0.0602
  293MPD2    C5 4471   2.761   2.200  13.162 -0.2815 -0.0035 -0.0564
  293MPD2     H 4472   2.523   2.487  13.244  0.0484  0.7486 -0.1090
  293MPD2    H1 4473   2.871   2.254  13.331 -0.8254  2.5919  2.2660
  293MPD2    H2 4474   2.679   2.194  12.971  0.1280 -1.1711 -0.3023
  293MPD2    H3 4475   2.842   2.133  13.136  0.7851  2.2659 -2.5488
  293MPD2     N 4476   2.725   2.450  13.416 -0.1848  0.9513 -0.2007
  293MPD2    H5 4477   2.784   2.397  13.478  0.7515  0.3941 -1.5711
  293MPD2    N1 4478   2.505   2.371  12.979  0.0216  0.1170  0.0930
  293MPD2    H7 4479   2.498   2.306  12.901 -0.1897 -0.4761  0.6043
  294TMC3    C1 4480   2.357   2.464  12.845 -0.3962 -0.1484 -0.3524
  294TMC3    C2 4481   2.273   2.356  12.826  0.7233  0.1260  0.3823
  294TMC3    C3 4482   2.190   2.357  12.718  0.2411  0.0003  0.4319
  294TMC3    C4 4483   2.366   2.557  12.750  0.2147 -1.0469  0.7495
  294TMC3    C5 4484   2.304   2.537  12.627  0.0564  0.5021  0.0471
  294TMC3    C6 4485   2.204   2.448  12.611  0.1945 -0.1478  0.3345
  294TMC3     C 4486   2.440   2.485  12.960 -0.4211  0.1112 -0.3461
  294TMC3     O 4487   2.469   2.591  13.015 -0.2485 -0.5279 -0.3207
  294TMC3     H 4488   2.240   2.298  12.911  2.6780  1.0330  1.7656
  294TMC3    H1 4489   2.442   2.634  12.763 -1.1192  0.7856 -2.5321
  294TMC3    H2 4490   2.149   2.440  12.518  0.4737  2.5278 -0.0565
  294TMC3    C7 4491   2.309   2.635  12.527 -0.2560  0.2345  0.2125
  294TMC3    C8 4492   2.054   2.318  12.744  0.2105  0.5450  0.1928
  294TMC3    O1 4493   2.226   2.635  12.441 -0.3683 -0.2059 -0.7371
  294TMC3    O2 4494   2.003   2.342  12.854  0.1530 -0.2110  0.0484
  295MPD2     C 4495   2.659   2.266   1.710  0.8287 -0.5643 -0.2364
  295MPD2    C1 4496   2.683   2.223   1.580 -0.9944  0.2752  0.0709
  295MPD2    C2 4497   2.603   2.123   1.531 -0.5305  0.8077  0.0514
  295MPD2    C3 4498   2.505   2.061   1.612 -0.3308 -0.0881 -0.8573
  295MPD2    C4 4499   2.486   2.100   1.745 -0.5394  0.2201 -0.4053
  295MPD2    C5 4500   2.558   2.210   1.790  0.4443  0.6373 -0.0557
  295MPD2     H 4501   2.626   2.095   1.428 -5.2085  0.7826 -0.9794
  295MPD2    H1 4502   2.405   2.070   1.810  0.3929 -0.0200  0.6481
  295MPD2    H2 4503   2.704   2.356   1.748 -0.9769  0.1199  0.2591
  295MPD2    H3 4504   2.543   2.249   1.890  2.0073 -0.8700  0.7613
  295MPD2     N 4505   2.420   1.972   1.553  0.5739  0.5433 -0.2032
  295MPD2    H5 4506   2.339   1.952   1.612 -0.6541  0.3183 -1.9459
  295MPD2    N1 4507   2.781   2.284   1.492  0.4405  0.1183 -0.0232
  295MPD2    H7 4508   2.786   2.243   1.399 -3.8061  0.3874 -0.3301
  296TMC3    C1 4509   2.325   1.817   1.405  0.6788  0.2536  0.4270
  296TMC3    C2 4510   2.226   1.898   1.359 -0.0604  0.3342 -0.1279
  296TMC3    C3 4511   2.165   1.873   1.239 -0.1093 -0.5638  0.3271
  296TMC3    C4 4512   2.370   1.715   1.334  0.1713 -0.1245  0.1375
  296TMC3    C5 4513   2.298   1.689   1.215  0.7081  0.7428  0.3611
  296TMC3    C6 4514   2.202   1.768   1.162  0.2220 -0.2458  0.2985
  296TMC3     C 4515   2.438   1.902   1.441  0.1396 -0.1650 -0.0147
  296TMC3     O 4516   2.531   1.905   1.360  0.6776 -0.1226  0.0432
  296TMC3     H 4517   2.193   1.982   1.418  0.7314  2.0476 -2.1324
  296TMC3    H1 4518   2.441   1.644   1.374  0.1881 -1.1608 -1.7082
  296TMC3    H2 4519   2.153   1.746   1.068  0.9696  1.0753 -0.4066
  296TMC3    C7 4520   2.372   1.610   1.117 -0.5663  1.1405  0.0360
  296TMC3    C8 4521   2.055   1.957   1.216  0.0988  0.0748  0.3155
  296TMC3    O1 4522   2.315   1.583   1.012  0.3479  0.0600  0.0927
  296TMC3    O2 4523   1.948   1.904   1.208 -0.2735 -0.5260 -0.5155
  297MPD2     C 4524   0.478   3.630  16.120  0.4531 -0.3717 -1.0932
  297MPD2    C1 4525   0.504   3.656  15.987  0.1944  1.0212  0.1420
  297MPD2    C2 4526   0.627   3.704  15.949 -1.1260  0.0512  0.1974
  297MPD2    C3 4527   0.711   3.764  16.044 -0.1008  0.3385  0.4270
  297MPD2    C4 4528   0.688   3.728  16.180 -0.0508  0.2747  0.0470
  297MPD2    C5 4529   0.571   3.664  16.209 -0.2680 -0.5996 -0.3570
  297MPD2     H 4530   0.655   3.727  15.847  1.8030 -0.2215  0.9238
  297MPD2    H1 4531   0.747   3.773  16.258 -0.0121  0.6871 -0.2212
  297MPD2    H2 4532   0.388   3.588  16.163 -0.1366  1.2269 -0.7745
  297MPD2    H3 4533   0.538   3.649  16.312 -1.9299  0.2752 -0.7553
  297MPD2     N 4534   0.816   3.840  16.003  0.5993 -0.0252  0.7192
  297MPD2    H5 4535   0.840   3.844  15.904 -1.6343 -0.3472  0.1754
  297MPD2    N1 4536   0.405   3.635  15.883  0.6664 -1.3440  0.4098
  297MPD2    H7 4537   0.419   3.673  15.790 -2.3559  1.1411  0.9359
  298TMC3    C1 4538   0.194   3.598  15.792 -0.3130  0.4713  0.2275
  298TMC3    C2 4539   0.243   3.667  15.685  0.4481  0.0338 -0.0983
  298TMC3    C3 4540   0.146   3.735  15.609  0.2271 -0.4078 -0.2748
  298TMC3    C4 4541   0.066   3.608  15.835  0.3595 -0.8066 -0.0825
  298TMC3    C5 4542   4.710   3.688  15.759  0.0452  0.3058 -0.3970
  298TMC3    C6 4543   0.015   3.757  15.650 -0.0399 -0.0412 -0.2097
  298TMC3     C 4544   0.282   3.583  15.908 -1.0768  0.5582 -0.1802
  298TMC3     O 4545   0.233   3.532  16.007 -0.5899 -0.1497  0.5405
  298TMC3     H 4546   0.343   3.644  15.650  0.5595 -0.1488  0.3410
  298TMC3    H1 4547   0.032   3.544  15.915 -1.8921  0.3108 -0.1399
  298TMC3    H2 4548   4.673   3.815  15.596  0.6864  0.9824 -0.0930
  298TMC3    C7 4549   4.584   3.715  15.827  0.3740  0.3485  0.3721
  298TMC3    C8 4550   0.207   3.811  15.498 -0.2501  0.3049 -0.2719
  298TMC3    O1 4551   4.534   3.629  15.898  0.1945  0.1031 -0.0307
  298TMC3    O2 4552   0.311   3.766  15.459  0.8365 -0.6473 -0.4398
  299MPD2     C 4553   0.858   3.118  10.948 -0.1242  0.8575 -0.2078
  299MPD2    C1 4554   0.900   3.232  10.889 -0.5547  0.4781  0.1470
  299MPD2    C2 4555   0.855   3.260  10.763  0.2439  0.4482 -0.4173
  299MPD2    C3 4556   0.772   3.171  10.695  0.0292 -0.0342 -0.5068
  299MPD2    C4 4557   0.730   3.052  10.758 -0.5289 -0.8006  0.6771
  299MPD2    C5 4558   0.780   3.026  10.884 -0.1368  0.2468  0.5465
  299MPD2     H 4559   0.892   3.346  10.708  0.5908  0.8709  0.4838
  299MPD2    H1 4560   0.658   2.986  10.709 -3.0051  0.6529  2.3621
  299MPD2    H2 4561   0.887   3.082  11.046 -0.8962  1.5686  0.2730
  299MPD2    H3 4562   0.751   2.935  10.934  0.7933 -0.0465  0.5585
  299MPD2     N 4563   0.722   3.199  10.566 -0.3486  0.3760  0.4054
  299MPD2    H5 4564   0.652   3.135  10.529  1.6052 -1.4007 -0.2286
  299MPD2    N1 4565   0.981   3.319  10.963 -0.1692 -0.4053 -0.1397
  299MPD2    H7 4566   1.012   3.276  11.050  3.4679  1.3644 -0.5709
  300TMC3    C1 4567   0.666   3.331  10.375  0.3969 -0.0233 -0.0473
  300TMC3    C2 4568   0.695   3.428  10.286 -0.5279  0.1166  0.9126
  300TMC3    C3 4569   0.632   3.443  10.166  0.2721 -0.1656 -0.2235
  300TMC3    C4 4570   0.561   3.250  10.348  0.1886 -0.2138 -0.5682
  300TMC3    C5 4571   0.497   3.263  10.229 -0.4471  0.6977  0.2868
  300TMC3    C6 4572   0.534   3.353  10.130 -0.0169  0.2070 -0.7996
  300TMC3     C 4573   0.748   3.306  10.488 -0.1264  0.1780  0.0397
  300TMC3     O 4574   0.835   3.388  10.506 -0.3247 -0.0988 -0.2455
  300TMC3     H 4575   0.773   3.499  10.310 -0.4703  0.3217  0.0946
  300TMC3    H1 4576   0.517   3.198  10.433  0.4253 -0.0989 -0.3757
  300TMC3    H2 4577   0.477   3.363  10.038  0.2550 -1.0795 -1.1048
  300TMC3    C7 4578   0.359   3.221  10.228 -0.3215 -0.1627 -0.0662
  300TMC3    C8 4579   0.612   3.576  10.117  0.5702 -1.0413 -0.4539
  300TMC3    O1 4580   0.320   3.185  10.118  0.4657 -0.2639  0.3732
  300TMC3    O2 4581   0.564   3.591  10.004  0.4188 -0.0629 -0.3898
  301MPD2     C 4582   3.141   0.139   1.396 -0.2796 -0.7209  0.3160
  301MPD2    C1 4583   3.048   0.108   1.299 -0.4358 -0.1517  0.1912
  301MPD2    C2 4584   2.972   4.726   1.328 -0.6100 -0.8306  0.0554
  301MPD2    C3 4585   2.971   4.646   1.439 -0.0335 -0.4515  0.1749
  301MPD2    C4 4586   3.053   4.688   1.543  0.3246 -0.4084 -0.5105
  301MPD2    C5 4587   3.141   0.054   1.509  0.3595  0.0503 -0.7851
  301MPD2     H 4588   2.899   4.710   1.250 -1.8044  1.2701  0.7325
  301MPD2    H1 4589   3.057   4.639   1.639 -0.5519  0.6546  0.0743
  301MPD2    H2 4590   3.217   0.215   1.387 -1.8025  0.8267  0.4358
  301MPD2    H3 4591   3.216   0.080   1.583  0.2217 -1.1933 -0.2136
  301MPD2     N 4592   2.892   4.539   1.454  0.1476  0.2540  0.2906
  301MPD2    H5 4593   2.893   4.502   1.549 -3.2185 -1.3137 -0.2825
  301MPD2    N1 4594   3.026   0.176   1.177  0.5058 -0.3428  0.2550
  301MPD2    H7 4595   2.950   0.146   1.117  0.6226  1.0061 -0.5591
  302TMC3    C1 4596   2.755   4.354   1.397  0.4862  0.2724  0.1724
  302TMC3    C2 4597   2.799   4.270   1.499  0.2568  0.2812  0.3590
  302TMC3    C3 4598   2.717   4.179   1.545 -0.2838  0.4847 -0.0233
  302TMC3    C4 4599   2.634   4.341   1.344  0.4348  0.5021  1.1870
  302TMC3    C5 4600   2.554   4.242   1.390 -0.5019  0.2490 -0.4194
  302TMC3    C6 4601   2.595   4.160   1.489  0.2633  0.0663 -0.5931
  302TMC3     C 4602   2.827   4.476   1.357  0.3227  0.7322  0.9320
  302TMC3     O 4603   2.822   4.496   1.240 -0.2659 -0.1183  0.5717
  302TMC3     H 4604   2.898   4.285   1.540 -0.4199  0.2642  2.0292
  302TMC3    H1 4605   2.608   4.400   1.256  1.5551  0.9286  1.1473
  302TMC3    H2 4606   2.528   4.092   1.539 -2.0803  2.6515 -0.1929
  302TMC3    C7 4607   2.420   4.218   1.341  0.2270 -0.8597  0.5623
  302TMC3    C8 4608   2.790   4.063   1.583 -1.1028 -0.3250 -0.7623
  302TMC3    O1 4609   2.359   4.122   1.379  0.6538  0.0768 -0.2000
  302TMC3    O2 4610   2.911   4.063   1.562 -0.0738  0.2986  0.2861
  303MPD2     C 4611   3.078   3.287  10.641 -0.1737  0.2573 -0.0653
  303MPD2    C1 4612   2.948   3.246  10.618  0.7438 -0.0935  0.5908
  303MPD2    C2 4613   2.881   3.289  10.502 -0.3302 -0.3509  0.3972
  303MPD2    C3 4614   2.937   3.390  10.424 -0.2457 -0.4241 -0.0011
  303MPD2    C4 4615   3.061   3.437  10.459 -0.3877  0.0292  0.2882
  303MPD2    C5 4616   3.128   3.384  10.562  0.0620 -0.3180 -0.5551
  303MPD2     H 4617   2.777   3.264  10.485  0.0866 -1.4820 -0.4845
  303MPD2    H1 4618   3.105   3.519  10.403  1.8872  0.9489  3.4391
  303MPD2    H2 4619   3.140   3.257  10.726  0.1356  0.0977 -0.3477
  303MPD2    H3 4620   3.227   3.425  10.580 -0.8475  0.7880  1.8394
  303MPD2     N 4621   2.880   3.431  10.300  0.2261  0.3128 -0.3658
  303MPD2    H5 4622   2.938   3.484  10.235 -0.7118  1.5983 -0.1594
  303MPD2    N1 4623   2.896   3.160  10.720 -0.3759 -0.3610 -0.0696
  303MPD2    H7 4624   2.953   3.137  10.801 -0.8237 -0.0453  0.3329
  304TMC3    C1 4625   2.715   3.047  10.829 -0.3036  0.3485  0.0501
  304TMC3    C2 4626   2.591   3.083  10.872 -0.2104  0.6897  0.6687
  304TMC3    C3 4627   2.529   3.008  10.968 -0.0180 -0.3530 -0.4618
  304TMC3    C4 4628   2.781   2.939  10.877 -0.0058  0.3469  0.0973
  304TMC3    C5 4629   2.721   2.862  10.976 -0.0975  0.3927 -0.4059
  304TMC3    C6 4630   2.596   2.899  11.014  0.6379 -0.5359  0.2962
  304TMC3     C 4631   2.763   3.117  10.713  1.1288  0.1318 -0.2925
  304TMC3     O 4632   2.674   3.145  10.633 -0.7453  0.2441  0.1134
  304TMC3     H 4633   2.556   3.179  10.834  1.6773  1.4129  0.7453
  304TMC3    H1 4634   2.879   2.911  10.839  0.0325  0.6373 -0.0139
  304TMC3    H2 4635   2.558   2.834  11.091 -1.5534 -0.0957 -0.4255
  304TMC3    C7 4636   2.722   2.719  10.939  0.4631  0.4298  0.3745
  304TMC3    C8 4637   2.388   2.980  10.935 -0.6198  0.1763 -0.0653
  304TMC3    O1 4638   2.830   2.667  10.905  0.0571  0.2392 -0.0513
  304TMC3    O2 4639   2.361   2.861  10.944  0.2263  0.3785  0.5099
  305MPD2     C 4640   1.271   0.023  13.949  0.3776 -0.7336  0.2755
  305MPD2    C1 4641   1.328   4.628  13.977 -0.7035  0.4093 -0.2696
  305MPD2    C2 4642   1.317   4.530  13.875  0.1698 -0.5960 -0.4958
  305MPD2    C3 4643   1.250   4.557  13.753 -0.3788  0.0874  0.0904
  305MPD2    C4 4644   1.176   4.672  13.737  0.2791 -0.4386 -0.6310
  305MPD2    C5 4645   1.192   0.032  13.838  0.1637 -0.4138 -0.3274
  305MPD2     H 4646   1.362   4.434  13.896 -1.0463 -0.5007  2.5305
  305MPD2    H1 4647   1.110   4.687  13.652 -0.8069  1.7810  0.6001
  305MPD2    H2 4648   1.265   0.110  14.012 -0.1789 -0.4300 -0.1969
  305MPD2    H3 4649   1.158   0.134  13.831 -1.8391 -1.1416 -1.1118
  305MPD2     N 4650   1.248   4.464  13.647 -0.2112  0.5179 -0.8965
  305MPD2    H5 4651   1.195   4.485  13.563  2.0818  1.9513 -1.9836
  305MPD2    N1 4652   1.399   4.618  14.097  0.3647 -0.6688  0.2273
  305MPD2    H7 4653   1.415   4.701  14.154 -1.4350 -0.8316  0.9802
  306TMC3    C1 4654   1.534   4.529  14.257 -0.5673 -0.1588  1.1217
  306TMC3    C2 4655   1.659   4.450  14.266  0.3612 -0.3114  0.9333
  306TMC3    C3 4656   1.708   4.445  14.395 -0.1345 -0.4182  0.6410
  306TMC3    C4 4657   1.473   4.595  14.362  0.3022 -0.4518 -0.3075
  306TMC3    C5 4658   1.542   4.588  14.481 -0.1399  0.0196  0.3132
  306TMC3    C6 4659   1.656   4.516  14.501 -0.4324  0.2225 -0.0398
  306TMC3     C 4660   1.456   4.504  14.138 -0.0895 -0.4347  0.0528
  306TMC3     O 4661   1.484   4.404  14.077 -0.1441  0.1286 -0.2824
  306TMC3     H 4662   1.697   4.392  14.183 -1.4016  0.4632 -0.4300
  306TMC3    H1 4663   1.385   4.657  14.351  1.6481  1.0321 -2.6651
  306TMC3    H2 4664   1.700   4.491  14.597 -0.2127 -0.6175 -0.3525
  306TMC3    C7 4665   1.476   4.625  14.602 -0.3094 -0.3285 -0.2112
  306TMC3    C8 4666   1.822   4.355  14.417  0.7306  0.4777  0.1864
  306TMC3    O1 4667   1.357   4.646  14.589  0.0316  0.2798  0.2864
  306TMC3    O2 4668   1.845   4.278  14.326  0.7874  0.1791  0.5796
  307MPD2     C 4669   4.411   3.391   0.431 -0.0925  0.3047 -0.1586
  307MPD2    C1 4670   4.294   3.448   0.401 -0.0535  0.2846  0.6418
  307MPD2    C2 4671   4.199   3.475   0.492 -0.5159 -0.1972 -0.1864
  307MPD2    C3 4672   4.218   3.434   0.623 -0.8947 -0.6249  0.5617
  307MPD2    C4 4673   4.331   3.366   0.653 -0.2241 -0.1448  0.1208
  307MPD2    C5 4674   4.429   3.352   0.556 -0.2553 -0.1801  0.8369
  307MPD2     H 4675   4.106   3.521   0.463 -0.0949  0.6719 -0.1646
  307MPD2    H1 4676   4.354   3.331   0.753 -2.0766 -1.4167  0.1044
  307MPD2    H2 4677   4.477   3.363   0.350  0.6530  2.6041 -0.3515
  307MPD2    H3 4678   4.516   3.293   0.584  2.1151  1.8584 -2.1497
  307MPD2     N 4679   4.116   3.462   0.713  0.7257  0.0284 -0.6741
  307MPD2    H5 4680   4.039   3.520   0.683  0.4572  0.7057  1.2916
  307MPD2    N1 4681   4.267   3.499   0.271 -0.5289  0.0848  0.4285
  307MPD2    H7 4682   4.174   3.537   0.254 -0.2144  0.8231  0.3743
  308TMC3    C1 4683   3.778   3.358   0.981 -0.7486 -0.4653 -0.1528
  308TMC3    C2 4684   3.718   3.484   0.957  0.3744 -1.5436  0.5487
  308TMC3    C3 4685   3.786   3.579   0.899  0.6022 -0.2927  0.7400
  308TMC3    C4 4686   3.910   3.344   0.956  0.3066  0.7371  0.1809
  308TMC3    C5 4687   3.975   3.446   0.901 -0.1047  0.6972  0.1067
  308TMC3    C6 4688   3.920   3.570   0.874  0.2294 -0.3343 -0.5316
  308TMC3     C 4689   3.698   3.237   0.976 -0.6302 -1.0956 -0.3272
  308TMC3     O 4690   3.760   3.135   0.949 -0.1934  0.6222  0.0398
  308TMC3     H 4691   3.611   3.499   0.962  0.8743  2.3306 -0.7658
  308TMC3    H1 4692   3.968   3.253   0.969  0.5933  0.8916 -0.0274
  308TMC3    H2 4693   3.972   3.654   0.830  0.4310 -0.2876 -0.2009
  308TMC3    C7 4694   4.110   3.418   0.841  0.5676  0.4060  0.5897
  308TMC3    C8 4695   3.725   3.701   0.863 -0.3002  0.1036  0.1285
  308TMC3    O1 4696   4.181   3.348   0.914  0.1769  0.1476 -0.1978
  308TMC3    O2 4697   3.734   3.749   0.751 -0.3293  0.3349 -0.1318
  309MPD2     C 4698   3.205   3.237  17.584  0.5601 -0.2430 -0.2305
  309MPD2    C1 4699   3.141   3.231  17.459 -0.3403  0.0834  0.6035
  309MPD2    C2 4700   3.006   3.223  17.457 -0.0940  0.1150 -0.0691
  309MPD2    C3 4701   2.927   3.229  17.570  0.2175 -0.2392 -0.3616
  309MPD2    C4 4702   2.995   3.236  17.688  0.2902 -0.1082  0.0654
  309MPD2    C5 4703   3.132   3.237  17.699 -0.9576  0.2383  0.4617
  309MPD2     H 4704   2.950   3.213  17.365 -0.8872 -0.8631  0.5174
  309MPD2    H1 4705   2.930   3.243   0.046  0.4821  0.5277  0.1566
  309MPD2    H2 4706   3.313   3.243  17.591  0.8283 -1.6461 -2.9728
  309MPD2    H3 4707   3.178   3.242   0.069  0.9035  0.1842 -0.4038
  309MPD2     N 4708   2.787   3.240  17.568  0.0231 -0.8269 -0.3040
  309MPD2    H5 4709   2.741   3.231  17.658  0.6893 -0.3583  0.0869
  309MPD2    N1 4710   3.212   3.234  17.334 -0.5159 -0.4000  0.5566
  309MPD2    H7 4711   3.166   3.231  17.243 -0.3574 -0.0772  0.4629
  310TMC3    C1 4712   3.405   3.221  17.200  0.2956 -0.8966 -0.1188
  310TMC3    C2 4713   3.345   3.294  17.100  0.2325  0.2183  0.5272
  310TMC3    C3 4714   3.423   3.331  16.994 -0.4459  0.4298 -0.0773
  310TMC3    C4 4715   3.541   3.190  17.196 -0.4834 -0.6749  1.2628
  310TMC3    C5 4716   3.600   3.208  17.073 -0.1738  0.0188 -0.8368
  310TMC3    C6 4717   3.543   3.274  16.974  0.1403 -0.4413  0.2246
  310TMC3     C 4718   3.347   3.197  17.330 -0.0644  0.0505  0.4907
  310TMC3     O 4719   3.411   3.150  17.419 -0.1192 -0.4809  0.1903
  310TMC3     H 4720   3.248   3.342  17.108 -0.0760 -0.9790  3.7597
  310TMC3    H1 4721   3.584   3.137  17.280  2.6890  1.4937  1.0378
  310TMC3    H2 4722   3.597   3.301  16.884 -1.2133 -2.1963 -1.0916
  310TMC3    C7 4723   3.736   3.162  17.038  0.1493  0.0383  0.4198
  310TMC3    C8 4724   3.339   3.360  16.876  0.5713  0.3690  0.7148
  310TMC3    O1 4725   3.764   3.135  16.920  0.4724 -0.2915 -0.0211
  310TMC3    O2 4726   3.218   3.335  16.886 -0.1891 -0.0529 -0.2873
  311MPD2     C 4727   0.286   4.536  12.506  0.1116 -0.6537 -0.3850
  311MPD2    C1 4728   0.299   4.455  12.620 -0.6262  0.6273  0.4143
  311MPD2    C2 4729   0.188   4.397  12.671 -0.2435 -1.0913 -0.5753
  311MPD2    C3 4730   0.061   4.408  12.622 -0.6195  0.1438 -0.0626
  311MPD2    C4 4731   0.046   4.484  12.507  0.1026 -0.2940  0.3736
  311MPD2    C5 4732   0.159   4.549  12.454 -0.3082  0.0049  0.0308
  311MPD2     H 4733   0.208   4.338  12.759  1.8696  0.0950 -0.2578
  311MPD2    H1 4734   4.684   4.491  12.454  0.9528 -0.5849 -1.1916
  311MPD2    H2 4735   0.369   4.579  12.450  0.6135 -1.2939 -0.1348
  311MPD2    H3 4736   0.142   4.608  12.365 -0.7603 -1.2666 -0.7273
  311MPD2     N 4737   4.681   4.361  12.693 -0.3833  0.6219 -0.5804
  311MPD2    H5 4738   4.708   4.315  12.779 -0.0035 -1.1826 -1.6455
  311MPD2    N1 4739   0.421   4.428  12.690 -0.6785  0.0009 -0.1882
  311MPD2    H7 4740   0.406   4.360  12.764 -0.1101  1.2507  1.0659
  312TMC3    C1 4741   4.455   4.330  12.751 -0.7253  0.3168  0.5381
  312TMC3    C2 4742   4.341   4.397  12.770  0.0536  0.2341 -0.3334
  312TMC3    C3 4743   4.229   4.341  12.818 -0.4102  0.6502 -0.4183
  312TMC3    C4 4744   4.457   4.198  12.789  0.4481  0.4973  0.6670
  312TMC3    C5 4745   4.343   4.146  12.841 -0.9189  0.5164 -0.0922
  312TMC3    C6 4746   4.224   4.206  12.855  0.1331  0.5387 -0.0200
  312TMC3     C 4747   4.547   4.371  12.647 -0.4908 -0.8126 -0.2100
  312TMC3     O 4748   4.494   4.440  12.560  0.3498  0.4806  0.0496
  312TMC3     H 4749   4.338   4.498  12.731 -0.7114  0.4740  0.3553
  312TMC3    H1 4750   4.540   4.132  12.767 -1.2989 -2.0635  1.8026
  312TMC3    H2 4751   4.143   4.160  12.909  0.5436 -0.2911 -0.1100
  312TMC3    C7 4752   4.359   4.039  12.937  0.2283  0.2807  0.5584
  312TMC3    C8 4753   4.110   4.423  12.810 -0.3243 -0.0641  0.2851
  312TMC3    O1 4754   4.264   3.969  12.969 -0.4164  0.4600 -0.2233
  312TMC3    O2 4755   4.123   4.547  12.805  0.4648  0.1142 -0.5566
  313MPD2     C 4756   4.263   3.938  11.193  0.1905 -0.7092  0.9850
  313MPD2    C1 4757   4.306   4.053  11.131 -0.0298  0.1849 -0.1650
  313MPD2    C2 4758   4.341   4.045  10.995 -1.1426 -0.1372 -0.0044
  313MPD2    C3 4759   4.351   3.922  10.933 -0.3073  1.0583  0.4603
  313MPD2    C4 4760   4.311   3.808  10.997  0.3037  0.2897 -0.1744
  313MPD2    C5 4761   4.257   3.820  11.124  0.2936 -0.2810 -0.1291
  313MPD2     H 4762   4.383   4.132  10.945 -0.4191 -1.9963 -2.6556
  313MPD2    H1 4763   4.311   3.716  10.940 -1.5407 -0.0456  0.3772
  313MPD2    H2 4764   4.223   3.941  11.294 -1.6116  0.2612  0.2477
  313MPD2    H3 4765   4.214   3.730  11.167 -2.5161  0.4339 -1.4437
  313MPD2     N 4766   4.387   3.933  10.796  0.3073 -0.2640  0.0518
  313MPD2    H5 4767   4.387   4.029  10.764 -0.6257 -0.2831 -0.0221
  313MPD2    N1 4768   4.318   4.176  11.196 -0.2321  0.6576 -0.5196
  313MPD2    H7 4769   4.350   4.258  11.145  3.0888  1.1908  2.5027
  314TMC3    C1 4770   4.268   4.353  11.326  0.6571 -0.0043  0.2736
  314TMC3    C2 4771   4.377   4.423  11.281  0.1420 -0.6813  0.0226
  314TMC3    C3 4772   4.360   4.545  11.227  0.1582 -0.3560 -0.0516
  314TMC3    C4 4773   4.143   4.416  11.318 -0.3574  1.2783 -0.3768
  314TMC3    C5 4774   4.138   4.548  11.271  0.5763  0.8356 -0.6501
  314TMC3    C6 4775   4.243   4.614  11.224  0.1263  0.2626 -0.2630
  314TMC3     C 4776   4.258   4.210  11.313 -0.5099 -0.3629  0.1090
  314TMC3     O 4777   4.182   4.146  11.386 -0.4075  0.6788 -0.2157
  314TMC3     H 4778   4.475   4.377  11.290  0.4077 -0.8037 -3.3779
  314TMC3    H1 4779   4.056   4.375  11.367  1.7249  0.0251  2.2873
  314TMC3    H2 4780   4.242   4.721  11.206 -0.5274  0.5348  1.4556
  314TMC3    C7 4781   4.010   4.585  11.218 -0.1942 -0.0899 -0.6837
  314TMC3    C8 4782   4.475   4.622  11.192 -0.1045  0.4938  0.5042
  314TMC3    O1 4783   3.903   4.587  11.282  0.0849  0.4134  0.6186
  314TMC3    O2 4784   4.469   4.693  11.092 -0.1930 -0.6440 -0.5876
  315MPD2     C 4785   4.516   3.028  17.509  0.0104 -0.1741  0.2442
  315MPD2    C1 4786   4.588   3.098  17.603 -0.8709  0.2467  0.4639
  315MPD2    C2 4787   4.604   3.236  17.578 -0.1255 -0.0086  0.6176
  315MPD2    C3 4788   4.564   3.288  17.455 -0.4655 -0.2422 -0.1614
  315MPD2    C4 4789   4.491   3.214  17.363 -0.8460  0.1977  0.0423
  315MPD2    C5 4790   4.466   3.085  17.392 -0.1604  0.3664  0.3944
  315MPD2     H 4791   4.666   3.293  17.646  0.9450 -0.9285  0.4081
  315MPD2    H1 4792   4.445   3.259  17.277 -0.0772 -1.0834 -1.0460
  315MPD2    H2 4793   4.511   2.920  17.513  0.6327 -0.2287 -0.6440
  315MPD2    H3 4794   4.412   3.034  17.313  0.3667  0.2107  0.1346
  315MPD2     N 4795   4.606   3.416  17.419 -0.2235 -0.1056 -0.8563
  315MPD2    H5 4796   4.644   3.470  17.496  3.2918 -2.5509 -0.8582
  315MPD2    N1 4797   4.638   3.045  17.716 -0.5534  0.1643  0.8864
  315MPD2    H7 4798   4.700   3.105   0.042  1.3288 -0.7756 -0.2389
  316TMC3    C1 4799   4.638   3.623  17.288 -0.4445  1.1136 -0.3892
  316TMC3    C2 4800   4.703   3.685  17.390  0.2635 -0.1078 -0.6120
  316TMC3    C3 4801   4.700   3.817  17.396  0.2943 -0.3116  0.1947
  316TMC3    C4 4802   4.570   3.693  17.195  0.6429 -0.0612 -0.0247
  316TMC3    C5 4803   4.575   3.828  17.202  0.5363 -0.3393  0.5977
  316TMC3    C6 4804   4.637   3.892  17.298 -0.3512 -0.3960 -0.0849
  316TMC3     C 4805   4.609   3.478  17.289  1.0327  0.9672  0.5104
  316TMC3     O 4806   4.569   3.430  17.183  0.8099  0.4851  0.0662
  316TMC3     H 4807   0.036   3.626  17.454  1.1474  0.6564 -0.8000
  316TMC3    H1 4808   4.506   3.637  17.127  0.1749 -2.1071  2.1159
  316TMC3    H2 4809   4.631   4.000  17.297  1.3183 -0.3271 -3.1858
  316TMC3    C7 4810   4.464   3.912  17.162 -0.5300 -0.0333  0.1446
  316TMC3    C8 4811   0.034   3.895  17.495 -0.2658 -0.1621  0.1004
  316TMC3    O1 4812   4.426   4.000  17.238  0.7853 -0.0801 -0.2798
  316TMC3    O2 4813   0.022   4.015  17.484 -0.0530  0.2111 -0.0394
  317MPD2     C 4814   1.430   1.627  13.341 -0.8590 -0.5219  0.1226
  317MPD2    C1 4815   1.496   1.536  13.275  0.4769 -0.5082  0.4769
  317MPD2    C2 4816   1.566   1.438  13.342 -0.1539  0.1273 -0.4423
  317MPD2    C3 4817   1.574   1.435  13.478  0.7062  0.1756 -0.0469
  317MPD2    C4 4818   1.510   1.540  13.552  0.3632  0.0652 -0.4287
  317MPD2    C5 4819   1.436   1.632  13.477  0.2410 -0.0900  0.9261
  317MPD2     H 4820   1.612   1.363  13.279  1.0030 -0.0157  0.5682
  317MPD2    H1 4821   1.507   1.551  13.660 -2.4470 -2.6238 -0.2230
  317MPD2    H2 4822   1.367   1.700  13.292  1.3885  0.2962 -1.4943
  317MPD2    H3 4823   1.377   1.707  13.529 -0.2446  0.3251 -0.2228
  317MPD2     N 4824   1.638   1.322  13.542 -0.1922  0.2050 -0.5683
  317MPD2    H5 4825   1.689   1.255  13.486 -0.4760 -0.4596 -0.0273
  317MPD2    N1 4826   1.503   1.531  13.133 -0.1458 -0.3814  0.2422
  317MPD2    H7 4827   1.567   1.466  13.088  0.6292  1.4024 -1.2263
  318TMC3    C1 4828   1.773   1.228  13.707  0.0260  0.0880  0.9937
  318TMC3    C2 4829   1.745   1.102  13.660  0.5156 -0.5993 -0.2732
  318TMC3    C3 4830   1.822   1.002  13.710 -0.1405  0.1512  0.7193
  318TMC3    C4 4831   1.874   1.258  13.789  0.1286  0.4734 -0.6300
  318TMC3    C5 4832   1.958   1.159  13.823  0.2431  0.9439 -0.5073
  318TMC3    C6 4833   1.928   1.027  13.793 -0.1076  0.0209  0.2375
  318TMC3     C 4834   1.683   1.336  13.675  0.9016  0.5546 -0.0744
  318TMC3     O 4835   1.680   1.428  13.759 -0.0785 -0.1034  0.9035
  318TMC3     H 4836   1.652   1.087  13.606  0.3361 -2.0957  0.4682
  318TMC3    H1 4837   1.883   1.359  13.828 -1.0148  0.6303 -0.7737
  318TMC3    H2 4838   1.986   0.949  13.842 -2.5413 -2.0650 -0.2015
  318TMC3    C7 4839   2.098   1.200  13.818 -0.2441 -0.0018 -0.0100
  318TMC3    C8 4840   1.792   0.860  13.678 -0.0024 -0.7704  0.2710
  318TMC3    O1 4841   2.123   1.307  13.765  0.0510 -0.0115 -0.1570
  318TMC3    O2 4842   1.845   0.776  13.745 -0.0358  0.3617 -0.0860
  319MPD2     C 4843   3.036   2.583  16.676 -0.3843  0.7361 -0.1132
  319MPD2    C1 4844   2.961   2.523  16.779  0.2281  0.7354  0.8404
  319MPD2    C2 4845   2.826   2.519  16.765  0.0672 -0.0387 -0.1024
  319MPD2    C3 4846   2.764   2.574  16.655  0.0999  0.4581  0.3865
  319MPD2    C4 4847   2.834   2.635  16.554  0.1096 -0.2935 -0.1554
  319MPD2    C5 4848   2.971   2.636  16.565  0.3888  0.8452 -0.1192
  319MPD2     H 4849   2.775   2.483  16.854 -1.9398 -1.0704 -1.6597
  319MPD2    H1 4850   2.786   2.671  16.464 -0.1014  0.0184  0.0811
  319MPD2    H2 4851   3.144   2.590  16.670 -0.3609 -0.7665 -1.7276
  319MPD2    H3 4852   3.025   2.678  16.481  1.5450  1.1112  0.7571
  319MPD2     N 4853   2.624   2.578  16.638 -0.8915  0.0502  0.0098
  319MPD2    H5 4854   2.590   2.626  16.555 -0.2445 -2.2919 -1.6105
  319MPD2    N1 4855   3.015   2.460  16.890 -0.5614 -0.0615 -0.2050
  319MPD2    H7 4856   2.959   2.412  16.959  0.9039 -0.7532  0.5025
  320TMC3    C1 4857   2.395   2.544  16.688  0.2890 -0.2835  0.3821
  320TMC3    C2 4858   2.368   2.600  16.573 -0.3573  1.1146  0.1319
  320TMC3    C3 4859   2.238   2.587  16.536  0.0782  0.3958  0.0077
  320TMC3    C4 4860   2.310   2.472  16.768  0.2196 -0.7260 -0.1537
  320TMC3    C5 4861   2.184   2.459  16.726 -0.3717  0.0664 -0.2776
  320TMC3    C6 4862   2.148   2.514  16.606  0.1758  0.5693 -0.3891
  320TMC3     C 4863   2.534   2.530  16.726  0.1076  0.1189 -0.2237
  320TMC3     O 4864   2.559   2.466  16.827 -0.5478 -0.5320 -0.5480
  320TMC3     H 4865   2.431   2.674  16.524  2.6991 -0.7153  1.2646
  320TMC3    H1 4866   2.338   2.457  16.871 -2.5800 -0.8214  0.5990
  320TMC3    H2 4867   2.051   2.499  16.560  0.3778  0.5906 -0.8181
  320TMC3    C7 4868   2.119   2.329  16.750  0.2730  0.4503 -0.3529
  320TMC3    C8 4869   2.193   2.666  16.421 -0.0454 -0.1496 -0.1973
  320TMC3    O1 4870   2.053   2.284  16.658  0.5795  0.3706 -0.5530
  320TMC3    O2 4871   2.075   2.687  16.421 -0.5018  0.2287 -1.0155
  321TMC3    C1 4872   3.165   2.361  17.033 -0.1785 -0.0905 -0.3951
  321TMC3    C2 4873   3.087   2.248  17.053 -0.1648  0.1778 -0.5088
  321TMC3    C3 4874   3.136   2.147  17.135 -0.1418 -0.2695 -0.3247
  321TMC3    C4 4875   3.290   2.372  17.084 -0.2191  0.6859 -0.1658
  321TMC3    C5 4876   3.337   2.268  17.162  0.6952 -0.7041  0.5946
  321TMC3    C6 4877   3.261   2.159  17.191 -0.2179 -0.2569  0.3763
  321TMC3     C 4878   3.145   2.447  16.918  0.2467 -0.3941 -0.0187
  321TMC3     O 4879   3.246   2.495  16.866  0.3768  0.2374 -0.4210
  321TMC3     H 4880   2.993   2.234  16.999  0.3568  0.6227 -1.5201
  321TMC3    H1 4881   3.354   2.459  17.078  0.9532 -0.1653 -0.0371
  321TMC3    H2 4882   3.300   2.073  17.243 -0.4360 -0.5372  0.0756
  321TMC3    C7 4883   3.399   2.310  17.284  0.2062  0.0001  0.1709
  321TMC3    C8 4884   3.040   2.086  17.226 -0.4634 -0.2408 -1.0672
  321TMC3    O1 4885   3.506   2.360  17.302 -0.1656 -0.5679  0.0205
  321TMC3    O2 4886   3.083   2.057  17.334  0.2052 -0.6819 -1.0740
  322MPD2     C 4887   1.310   3.865  13.547  0.1471 -0.2659 -0.4603
  322MPD2    C1 4888   1.366   3.818  13.664  1.2730  0.5097 -0.0287
  322MPD2    C2 4889   1.400   3.684  13.669 -0.1539 -0.1994  0.3332
  322MPD2    C3 4890   1.378   3.592  13.569  0.2491 -0.9503 -0.1085
  322MPD2    C4 4891   1.319   3.640  13.451  0.2551 -0.5966  0.1814
  322MPD2    C5 4892   1.282   3.777  13.443 -0.5875  0.2110 -1.0005
  322MPD2     H 4893   1.444   3.655  13.763 -0.4645  3.8356  1.7487
  322MPD2    H1 4894   1.315   3.584  13.358 -1.2295 -1.4608  0.7637
  322MPD2    H2 4895   1.271   3.967  13.541  2.7568  0.7447 -0.0142
  322MPD2    H3 4896   1.251   3.818  13.347  1.7241 -0.8187 -2.2096
  322MPD2     N 4897   1.419   3.455  13.578  0.1599  0.1938 -0.2593
  322MPD2    H5 4898   1.444   3.422  13.671 -2.0205 -1.2607 -0.1892
  322MPD2    N1 4899   1.395   3.901  13.774  0.0181 -0.3470 -0.1453
  322MPD2    H7 4900   1.437   3.860  13.857  3.1024  1.9590 -0.5386
  323TMC3    C1 4901   1.474   4.081  13.886 -0.7870 -1.2378 -0.1637
  323TMC3    C2 4902   1.567   4.180  13.861 -0.0498  0.3312 -0.0098
  323TMC3    C3 4903   1.663   4.205  13.953 -0.1404  0.3119 -0.0478
  323TMC3    C4 4904   1.479   4.006  14.004  0.2756 -0.4496  0.9944
  323TMC3    C5 4905   1.579   4.042  14.095 -0.4849  0.0488 -0.1454
  323TMC3    C6 4906   1.676   4.131  14.070  0.0151  0.5939 -0.2914
  323TMC3     C 4907   1.395   4.032  13.773 -0.1630 -0.7790 -0.2345
  323TMC3     O 4908   1.369   4.103  13.678 -0.0954  0.4115 -0.0696
  323TMC3     H 4909   1.589   4.185  13.755 -0.3342 -2.0167 -0.1877
  323TMC3    H1 4910   1.405   3.930  14.023 -2.3986  1.6945 -0.7884
  323TMC3    H2 4911   1.769   4.128  14.126 -1.3819 -0.5271  1.9551
  323TMC3    C7 4912   1.592   3.955  14.206  0.3917  0.5298  0.6549
  323TMC3    C8 4913   1.777   4.293  13.923 -0.4024 -0.4923 -0.5760
  323TMC3    O1 4914   1.522   3.855  14.205  0.8061  0.0105 -0.3875
  323TMC3    O2 4915   1.886   4.273  13.983 -0.4282  0.0075  0.3572
  324MPD2     C 4916   2.834   0.026  14.608 -0.2228 -0.2365 -0.1636
  324MPD2    C1 4917   2.909   0.129  14.665  0.0186  0.6424 -0.2923
  324MPD2    C2 4918   2.841   0.219  14.743  0.0737 -0.2868 -0.1180
  324MPD2    C3 4919   2.699   0.204  14.764  0.5988 -0.1209  0.4557
  324MPD2    C4 4920   2.633   0.095  14.709 -0.3594  0.0534  0.0204
  324MPD2    C5 4921   2.697   0.015  14.621  0.3419 -0.0216 -0.1953
  324MPD2     H 4922   2.893   0.306  14.781 -0.0913 -0.9998  1.7056
  324MPD2    H1 4923   2.526   0.086  14.724  0.1402 -0.9007  2.8981
  324MPD2    H2 4924   2.889   4.687  14.547 -0.7136  0.4235 -1.3746
  324MPD2    H3 4925   2.638   4.678  14.562 -1.1488  0.5163  0.6786
  324MPD2     N 4926   2.626   0.305  14.831 -0.1538 -0.0550  0.5502
  324MPD2    H5 4927   2.536   0.276  14.868  0.4831 -0.6536  1.6532
  324MPD2    N1 4928   3.052   0.142  14.641  1.0289 -0.4637  0.6479
  324MPD2    H7 4929   3.094   0.221  14.690 -0.0041  0.2782  0.3390
  325TMC3    C1 4930   2.549   0.524  14.859  0.2912  0.0499  0.2732
  325TMC3    C2 4931   2.428   0.468  14.885  0.1704 -0.1795  0.1583
  325TMC3    C3 4932   2.317   0.530  14.841 -0.0482 -0.7751 -0.1338
  325TMC3    C4 4933   2.559   0.653  14.812  0.3653  0.3322  0.0616
  325TMC3    C5 4934   2.446   0.712  14.762 -0.2292  0.1807 -0.3350
  325TMC3    C6 4935   2.324   0.649  14.780 -0.1266  0.2366  0.0564
  325TMC3     C 4936   2.657   0.438  14.818 -0.5043  0.3244 -0.2057
  325TMC3     O 4937   2.737   0.482  14.736  0.2171  0.4334  0.0128
  325TMC3     H 4938   2.417   0.376  14.940  1.3017  0.1122  0.8891
  325TMC3    H1 4939   2.659   0.693  14.802  0.5162  0.4465  1.9709
  325TMC3    H2 4940   2.234   0.689  14.735 -1.1129 -0.2926  1.5534
  325TMC3    C7 4941   2.475   0.780  14.637 -0.2572  0.8820 -0.1093
  325TMC3    C8 4942   2.202   0.441  14.820 -0.1737 -0.1702 -0.1635
  325TMC3    O1 4943   2.574   0.751  14.569  0.7614 -0.3772 -0.4165
  325TMC3    O2 4944   2.236   0.323  14.793  0.2666  0.3471  0.7225
  326MPD2     C 4945   3.936   1.810  10.084  0.0424 -0.2853 -0.2531
  326MPD2    C1 4946   3.899   1.806  10.216  0.6053 -0.0109  0.1607
  326MPD2    C2 4947   4.005   1.817  10.310  0.1125  0.5024 -0.9651
  326MPD2    C3 4948   4.133   1.851  10.269  0.1118  0.0766  0.7058
  326MPD2    C4 4949   4.161   1.873  10.136 -0.0491 -0.3375  0.9679
  326MPD2    C5 4950   4.063   1.848  10.045 -1.4518  1.1432  0.3786
  326MPD2     H 4951   3.973   1.819  10.413 -0.5226 -0.7544 -1.1433
  326MPD2    H1 4952   4.259   1.905  10.102  0.9410 -2.2997  2.0152
  326MPD2    H2 4953   3.856   1.782  10.016 -1.7095  5.3396 -0.4603
  326MPD2    H3 4954   4.094   1.847   9.941  0.1241  0.2305  0.8519
  326MPD2     N 4955   4.239   1.873  10.367 -0.2311  0.2279  0.8306
  326MPD2    H5 4956   4.329   1.901  10.331 -1.5391  2.5471 -0.6369
  326MPD2    N1 4957   3.767   1.773  10.258 -0.6403  0.1224 -0.1969
  326MPD2    H7 4958   3.751   1.742  10.354  2.6936  0.6772  0.5421
  327TMC3    C1 4959   3.532   1.783  10.254 -0.5483 -0.0834 -0.0235
  327TMC3    C2 4960   3.467   1.904  10.253 -0.2379 -0.3594  0.9056
  327TMC3    C3 4961   3.368   1.928  10.347  0.1251  0.1983 -0.9217
  327TMC3    C4 4962   3.513   1.698  10.356  0.5889 -0.2882  0.3933
  327TMC3    C5 4963   3.424   1.729  10.460  0.3325  0.1886  0.0120
  327TMC3    C6 4964   3.344   1.838  10.447  0.2982 -0.0143 -0.1425
  327TMC3     C 4965   3.654   1.782  10.180 -0.6111 -0.2737  0.2990
  327TMC3     O 4966   3.648   1.817  10.066  0.1281  0.0285  0.3174
  327TMC3     H 4967   3.480   1.965  10.165 -1.3564 -2.4092 -0.6754
  327TMC3    H1 4968   3.560   1.602  10.339 -0.2602 -0.5651 -0.3618
  327TMC3    H2 4969   3.280   1.858  10.532 -0.2595  0.0563 -0.5769
  327TMC3    C7 4970   3.398   1.640  10.566  0.1829 -0.4028  0.0070
  327TMC3    C8 4971   3.292   2.056  10.334 -0.7120 -0.4176  0.0682
  327TMC3    O1 4972   3.284   1.637  10.600 -0.1665  0.5571 -0.0905
  327TMC3    O2 4973   3.323   2.124  10.238  0.4353 -0.5144 -0.0804
  328MPD2     C 4974   2.211   1.539  17.545 -0.0750  0.7242  0.7672
  328MPD2    C1 4975   2.186   1.480  17.425  0.2857  0.1924 -0.6066
  328MPD2    C2 4976   2.163   1.557  17.317 -0.4000  0.0680 -0.4637
  328MPD2    C3 4977   2.160   1.700  17.324  0.2461  0.5287  0.1798
  328MPD2    C4 4978   2.212   1.753  17.444 -0.0879  0.3583  0.1564
  328MPD2    C5 4979   2.228   1.673  17.551 -0.8012 -1.5133 -0.2914
  328MPD2     H 4980   2.143   1.504  17.224 -0.6033  0.7835 -0.8306
  328MPD2    H1 4981   2.207   1.861  17.459  3.3707  0.6731 -0.8332
  328MPD2    H2 4982   2.217   1.483  17.637  1.1249  0.8135  0.7356
  328MPD2    H3 4983   2.245   1.719  17.647 -0.7146 -2.7039  0.2612
  328MPD2     N 4984   2.113   1.786  17.224 -0.5667  0.0292  0.5329
  328MPD2    H5 4985   2.109   1.883  17.252  0.7931 -0.2468  1.6691
  328MPD2    N1 4986   2.157   1.341  17.432 -0.9799 -0.4933  0.1583
  328MPD2    H7 4987   2.139   1.303  17.525 -2.9627  1.4438  0.5676
  329TMC3    C1 4988   2.052   1.153  17.348 -0.6112 -0.6599  0.0358
  329TMC3    C2 4989   1.944   1.181  17.430 -0.2041 -0.1335 -0.4478
  329TMC3    C3 4990   1.822   1.122  17.391 -0.6163 -0.0082  0.0407
  329TMC3    C4 4991   2.034   1.086  17.230 -0.3286 -0.7725  0.1234
  329TMC3    C5 4992   1.912   1.025  17.211  0.1822  0.4247 -0.4174
  329TMC3    C6 4993   1.806   1.032  17.294  0.2581 -0.8567 -0.0255
  329TMC3     C 4994   2.141   1.262  17.324 -0.2254  0.2697 -0.0276
  329TMC3     O 4995   2.164   1.288  17.209  0.1864  0.6089 -0.6802
  329TMC3     H 4996   1.958   1.241  17.520 -0.3407  1.5951 -1.5815
  329TMC3    H1 4997   2.122   1.057  17.174  0.0995  0.1441  0.3217
  329TMC3    H2 4998   1.717   0.985  17.254  0.9468 -2.0765 -0.1323
  329TMC3    C7 4999   1.909   0.927  17.101  0.5203  0.0088  0.3668
  329TMC3    C8 5000   1.699   1.195  17.413  0.0988 -0.1927  0.5337
  329TMC3    O1 5001   1.866   0.818  17.131  0.0619 -0.8925  0.2515
  329TMC3    O2 5002   1.593   1.149  17.374  0.6000 -0.5849  0.5575
  330TMC3    C1 5003   4.027   1.373   9.334 -0.0847 -0.3624 -0.9432
  330TMC3    C2 5004   3.908   1.324   9.288 -0.4385  0.5477 -0.4521
  330TMC3    C3 5005   3.886   1.190   9.305 -0.3924 -0.5531 -0.6080
  330TMC3    C4 5006   4.129   1.300   9.387 -0.8256 -0.0232  0.8197
  330TMC3    C5 5007   4.104   1.165   9.391  0.1519 -0.4020  0.4494
  330TMC3    C6 5008   3.978   1.112   9.369  0.5462  0.4382  0.1216
  330TMC3     C 5009   4.055   1.514   9.317 -0.3125 -0.5574 -0.1248
  330TMC3     O 5010   4.176   1.541   9.304 -0.5311 -0.2192 -0.2172
  330TMC3     H 5011   3.841   1.385   9.228 -1.1434  1.7040  1.5059
  330TMC3    H1 5012   4.216   1.342   9.437  0.7416 -2.2296 -0.0402
  330TMC3    H2 5013   3.965   1.005   9.372  0.0469  0.4762 -0.6479
  330TMC3    C7 5014   4.208   1.090   9.456 -0.3562 -0.8504 -0.2263
  330TMC3    C8 5015   3.751   1.137   9.292 -0.1542  0.8951 -0.7408
  330TMC3    O1 5016   4.176   0.992   9.519  0.1199 -0.7983  0.1461
  330TMC3    O2 5017   3.687   1.182   9.196  0.0061 -0.8495 -0.4184
  331MPD2     C 5018   2.051   0.417  13.065 -0.3592 -0.1106  0.3444
  331MPD2    C1 5019   2.086   0.373  12.938  0.9084  0.0365  0.4390
  331MPD2    C2 5020   2.078   0.242  12.915  0.0715  0.1876  0.9149
  331MPD2    C3 5021   2.032   0.151  13.012  0.4245  0.8283 -0.6148
  331MPD2    C4 5022   1.996   0.194  13.139 -0.1494  0.2246 -0.2600
  331MPD2    C5 5023   2.004   0.332  13.162  0.3384  0.1965  0.6551
  331MPD2     H 5024   2.107   0.209  12.815 -1.8865  0.4686  0.2574
  331MPD2    H1 5025   1.958   0.129  13.217  1.2682 -2.9164 -2.1818
  331MPD2    H2 5026   2.054   0.523  13.089  0.2760  0.0767 -0.5338
  331MPD2    H3 5027   1.966   0.365  13.258 -0.9400 -1.3705  0.6916
  331MPD2     N 5028   2.043   0.011  12.990 -0.0058  0.1628 -0.1542
  331MPD2    H5 5029   2.072   4.711  12.898 -1.4115  0.6652 -0.7716
  331MPD2    N1 5030   2.146   0.471  12.853  0.4657 -0.5008 -0.3667
  331MPD2    H7 5031   2.153   0.568  12.885 -2.0543  0.7438 -3.5419
  332TMC3    C1 5032   2.090   4.523  13.012 -0.5359  0.2352  0.4821
  332TMC3    C2 5033   2.095   4.527  12.874  0.4739 -0.9517  0.2264
  332TMC3    C3 5034   2.176   4.443  12.811  0.0052 -0.3812 -0.4334
  332TMC3    C4 5035   2.173   4.437  13.079 -0.0672  0.1245  0.4290
  332TMC3    C5 5036   2.264   4.362  13.008 -0.1154  0.1517 -0.1667
  332TMC3    C6 5037   2.271   4.366  12.872  0.4310 -0.0946  1.1106
  332TMC3     C 5038   2.040   4.643  13.082  0.1093 -0.7348 -0.4984
  332TMC3     O 5039   2.031   4.644  13.206 -0.6727  0.0360 -0.0095
  332TMC3     H 5040   2.021   4.589  12.823  2.4207  1.7335  0.6300
  332TMC3    H1 5041   2.173   4.437  13.187  1.7293  0.3981  0.4174
  332TMC3    H2 5042   2.358   4.320  12.826 -0.1652  1.9459 -2.0899
  332TMC3    C7 5043   2.342   4.260  13.080 -0.3173 -0.5632  0.0461
  332TMC3    C8 5044   2.174   4.449  12.670 -0.5438  0.3323 -0.5212
  332TMC3    O1 5045   2.297   4.227  13.188 -0.3615  0.0670  0.0987
  332TMC3    O2 5046   2.149   4.558  12.616  0.3351  0.5127 -0.0274
  333MPD2     C 5047   2.636   0.044  11.792 -0.1804  0.8342 -0.2169
  333MPD2    C1 5048   2.653   4.715  11.670 -0.0233  0.5987  0.1963
  333MPD2    C2 5049   2.633   4.578  11.665 -0.4948 -0.4770  0.3284
  333MPD2    C3 5050   2.579   4.506  11.768  0.0417  0.7294 -0.3977
  333MPD2    C4 5051   2.575   4.562  11.893  0.2809 -0.6182  0.2775
  333MPD2    C5 5052   2.603   4.689  11.904  0.9404  0.9587  0.0370
  333MPD2     H 5053   2.635   4.531  11.567  0.4566  0.1756  0.0396
  333MPD2    H1 5054   2.554   4.509  11.985 -0.8520 -2.3919 -0.9905
  333MPD2    H2 5055   2.637   0.151  11.810  2.0023  0.6668  0.7419
  333MPD2    H3 5056   2.588   0.005  11.999  1.0959  1.3399 -0.1339
  333MPD2     N 5057   2.559   4.371  11.749  0.0766 -0.4840 -0.1227
  333MPD2    H5 5058   2.566   4.340  11.652 -2.1998 -0.6361 -0.2414
  333MPD2    N1 5059   2.707   0.063  11.574 -0.1416 -0.3024 -0.0099
  333MPD2    H7 5060   2.718   0.161  11.599 -0.1016 -0.0008 -1.2365
  334TMC3    C1 5061   2.854   0.117  11.408  0.1313  0.3265 -0.4443
  334TMC3    C2 5062   2.986   0.087  11.394  0.2068 -0.5782  0.1862
  334TMC3    C3 5063   3.071   0.185  11.354  0.1618  0.0469  0.4787
  334TMC3    C4 5064   2.799   0.235  11.378 -0.0505 -0.5009  0.5988
  334TMC3    C5 5065   2.895   0.326  11.336  0.6177  0.4414  0.7509
  334TMC3    C6 5066   3.029   0.305  11.315  0.6065 -0.3795  0.0040
  334TMC3     C 5067   2.773   0.015  11.467  0.5797  0.2448 -0.4354
  334TMC3     O 5068   2.784   4.634  11.427 -0.2418  0.4285  0.5239
  334TMC3     H 5069   3.023   4.720  11.419  0.1814 -0.9928 -1.4564
  334TMC3    H1 5070   2.696   0.262  11.398 -0.6411 -1.6669 -0.9486
  334TMC3    H2 5071   3.090   0.382  11.269  0.7675  0.0896  1.0055
  334TMC3    C7 5072   2.854   0.448  11.270 -0.5583  0.8068 -0.6141
  334TMC3    C8 5073   3.214   0.162  11.380  0.0173 -0.0254 -0.0475
  334TMC3    O1 5074   2.938   0.532  11.243 -0.5908 -0.2785  0.1335
  334TMC3    O2 5075   3.246   0.075  11.457  0.2770 -0.1113 -0.4821
  335TMC3    C1 5076   3.277   1.437  17.241 -0.4243  0.4731 -0.3979
  335TMC3    C2 5077   3.170   1.396  17.160 -0.5210 -0.4064 -0.9947
  335TMC3    C3 5078   3.207   1.319  17.053  1.0694  0.3166 -0.4988
  335TMC3    C4 5079   3.407   1.437  17.197  0.8768  0.1289 -0.6062
  335TMC3    C5 5080   3.433   1.369  17.082  0.6082  0.5477  0.5727
  335TMC3    C6 5081   3.336   1.307  17.011  0.3223  0.0800  0.1781
  335TMC3     C 5082   3.234   1.543  17.331 -0.4727 -0.4706  0.4508
  335TMC3     O 5083   3.117   1.582  17.327 -0.0933  0.4617 -0.2342
  335TMC3     H 5084   3.067   1.400  17.194 -0.6621 -3.3056 -1.0158
  335TMC3    H1 5085   3.487   1.490  17.248  1.1994 -0.7582 -0.1987
  335TMC3    H2 5086   3.347   1.253  16.917 -0.8150 -0.0573  0.1221
  335TMC3    C7 5087   3.574   1.354  17.049  0.0271 -0.2041 -0.4776
  335TMC3    C8 5088   3.110   1.306  16.949 -0.0142  0.1667 -0.7445
  335TMC3    O1 5089   3.652   1.405  17.129  0.2597 -0.2353 -0.7244
  335TMC3    O2 5090   3.157   1.300  16.835 -0.0539  0.0558 -0.3777
  336MPD2     C 5091   1.910   4.112  16.236  0.0494  0.5056 -0.3837
  336MPD2    C1 5092   1.929   4.050  16.116 -0.1393 -0.1169 -0.0812
  336MPD2    C2 5093   1.952   3.914  16.115 -0.4387  0.1611 -0.4234
  336MPD2    C3 5094   1.958   3.832  16.229  0.1542 -0.4536 -0.6209
  336MPD2    C4 5095   1.932   3.898  16.344  0.6163  0.6222 -0.1135
  336MPD2    C5 5096   1.907   4.033  16.350 -0.1680  0.2199  0.2308
  336MPD2     H 5097   1.970   3.870  16.017  0.6770  2.1507 -1.0996
  336MPD2    H1 5098   1.916   3.843  16.437 -0.6417  1.1059 -0.0335
  336MPD2    H2 5099   1.868   4.211  16.246  1.1732  0.7130  2.3026
  336MPD2    H3 5100   1.883   4.079  16.445 -0.5585  0.7720 -0.1364
  336MPD2     N 5101   1.986   3.690  16.235 -0.0373  0.2519  0.4072
  336MPD2    H5 5102   1.984   3.641  16.323 -1.4069 -0.5425 -0.0629
  336MPD2    N1 5103   1.920   4.116  15.995  0.2472 -0.1143 -0.1589
  336MPD2    H7 5104   1.911   4.056  15.914  1.2470  0.0705 -0.4117
  337TMC3    C1 5105   1.881   4.279  15.847 -0.4420 -0.0492 -0.3610
  337TMC3    C2 5106   1.758   4.232  15.816 -0.3662  0.2373  0.7649
  337TMC3    C3 5107   1.674   4.307  15.735 -0.0053 -0.3124  0.5796
  337TMC3    C4 5108   1.921   4.400  15.800  0.6624  0.0944  0.7862
  337TMC3    C5 5109   1.838   4.469  15.715  0.1141 -0.0633 -0.5315
  337TMC3    C6 5110   1.713   4.429  15.689  1.0347  0.7972  0.2873
  337TMC3     C 5111   1.923   4.244  15.982 -0.2659  0.3957  1.0822
  337TMC3     O 5112   1.915   4.348  16.051 -0.1355  0.4596 -0.4411
  337TMC3     H 5113   1.726   4.137  15.857 -1.1604 -0.2786 -1.0272
  337TMC3    H1 5114   2.017   4.436  15.837  0.8437  0.8435 -0.3694
  337TMC3    H2 5115   1.657   4.481  15.612  1.0113  1.2958  0.6389
  337TMC3    C7 5116   1.912   4.536  15.605  0.1080  0.8946  0.2990
  337TMC3    C8 5117   1.541   4.262  15.714  0.3236 -0.1842  0.2415
  337TMC3    O1 5118   1.891   4.500  15.487  0.2934  0.4372  0.0290
  337TMC3    O2 5119   1.477   4.205  15.807 -0.7553 -0.5273  0.2057
  338MPD2     C 5120   2.593   3.409   1.353  0.1493  0.5323  0.0676
  338MPD2    C1 5121   2.524   3.384   1.238  0.1520  0.3463 -0.0350
  338MPD2    C2 5122   2.405   3.447   1.217  0.2094 -0.2792  0.4168
  338MPD2    C3 5123   2.350   3.539   1.308 -0.7112 -0.5166  0.3153
  338MPD2    C4 5124   2.415   3.566   1.426 -0.8730 -0.9380 -0.1414
  338MPD2    C5 5125   2.534   3.495   1.448  0.2683 -0.8911  0.1958
  338MPD2     H 5126   2.347   3.427   1.128 -0.3330 -0.0998  0.7318
  338MPD2    H1 5127   2.364   3.633   1.495 -0.2787 -1.3511  0.6958
  338MPD2    H2 5128   2.697   3.391   1.376  0.7517 -0.4674 -3.5253
  338MPD2    H3 5129   2.581   3.526   1.541 -1.6749 -1.1470  1.2720
  338MPD2     N 5130   2.223   3.596   1.273 -0.2477  0.0328 -0.2358
  338MPD2    H5 5131   2.182   3.572   1.183 -2.3122 -0.2904  0.8123
  338MPD2    N1 5132   2.579   3.291   1.147  0.3986 -1.1113  0.1657
  338MPD2    H7 5133   2.527   3.278   1.060 -0.6752 -0.8977  0.7717
  339TMC3    C1 5134   2.056   3.743   1.252 -0.1711 -0.0637  0.1391
  339TMC3    C2 5135   1.953   3.812   1.314 -0.3181  0.1241 -0.6769
  339TMC3    C3 5136   1.867   3.878   1.236  0.2232 -0.2239 -0.4493
  339TMC3    C4 5137   2.092   3.751   1.114 -0.1919 -1.2343 -0.1367
  339TMC3    C5 5138   1.999   3.828   1.048 -0.2017 -0.5818 -0.7435
  339TMC3    C6 5139   1.883   3.888   1.096  0.4313 -0.3854  0.1832
  339TMC3     C 5140   2.155   3.693   1.343 -0.2040  0.0405 -0.0463
  339TMC3     O 5141   2.177   3.747   1.454 -0.1870  0.3672  0.3785
  339TMC3     H 5142   1.948   3.840   1.418 -1.6616 -2.9630  0.1048
  339TMC3    H1 5143   2.179   3.717   1.060  0.0450 -3.7775  1.8066
  339TMC3    H2 5144   1.817   3.935   1.024 -1.0351 -3.5031 -0.5411
  339TMC3    C7 5145   2.030   3.855   0.907 -0.0547  0.5925 -0.7032
  339TMC3    C8 5146   1.758   3.955   1.285  0.6165  0.2642 -0.4777
  339TMC3    O1 5147   1.945   3.867   0.821  0.5425  0.3050 -0.0998
  339TMC3    O2 5148   1.708   4.038   1.210 -0.0898  0.5633  0.0458
  340MPD2     C 5149   2.561   2.263  10.227 -0.0262  0.0482 -0.4384
  340MPD2    C1 5150   2.489   2.146  10.218  0.2654  0.0976  0.6029
  340MPD2    C2 5151   2.539   2.041  10.151 -0.5576  0.2129  0.1284
  340MPD2    C3 5152   2.664   2.042  10.094  0.5796  0.1848 -0.9732
  340MPD2    C4 5153   2.736   2.158  10.102  0.2740 -0.1974  0.1523
  340MPD2    C5 5154   2.685   2.265  10.174  1.0542 -0.0877  0.2746
  340MPD2     H 5155   2.473   1.956  10.138  1.3177 -0.9912 -1.4684
  340MPD2    H1 5156   2.833   2.161  10.053  0.3754 -3.7533  0.1531
  340MPD2    H2 5157   2.521   2.354  10.270  0.8796  0.7575 -1.1192
  340MPD2    H3 5158   2.738   2.357  10.198 -1.5160  1.1814  1.0339
  340MPD2     N 5159   2.718   1.929  10.021  0.5043  0.1332 -0.4612
  340MPD2    H5 5160   2.802   1.941   9.966 -0.1378  0.2522 -1.4232
  340MPD2    N1 5161   2.354   2.169  10.250  0.1120  0.1432 -0.8488
  340MPD2    H7 5162   2.357   2.227  10.333  0.4209  1.7201 -1.9533
  341TMC3    C1 5163   2.236   2.041  10.089 -0.4784  0.3169 -0.7348
  341TMC3    C2 5164   2.206   1.913  10.087  0.5039  0.5381  0.4191
  341TMC3    C3 5165   2.233   1.839   9.977  0.0709 -0.4552 -0.5519
  341TMC3    C4 5166   2.293   2.099   9.978 -0.3619 -0.3056 -0.1791
  341TMC3    C5 5167   2.319   2.019   9.870 -0.2393  0.0097 -0.6628
  341TMC3    C6 5168   2.293   1.887   9.871  0.1513 -0.2573  0.5890
  341TMC3     C 5169   2.242   2.107  10.218  0.1074 -0.1340 -0.3591
  341TMC3     O 5170   2.134   2.107  10.276 -0.3850  0.7818 -0.3796
  341TMC3     H 5171   2.146   1.868  10.166  1.3969  1.8437  1.8375
  341TMC3    H1 5172   2.303   2.207   9.975  0.4019 -0.3685  0.3234
  341TMC3    H2 5173   2.348   1.821   9.805  0.6167  4.5165 -3.8930
  341TMC3    C7 5174   2.397   2.070   9.766 -0.1306  0.3235 -0.9293
  341TMC3    C8 5175   2.209   1.698   9.991  0.0231  0.3627  0.6774
  341TMC3    O1 5176   2.398   2.002   9.663  0.3910  0.3429 -0.4466
  341TMC3    O2 5177   2.206   1.658  10.107 -0.0250 -0.4926 -0.2362
  342MPD2     C 5178   0.262   4.548   0.100 -0.1160  0.3553 -0.6443
  342MPD2    C1 5179   0.349   4.570  17.728 -0.5271 -0.1896  0.2635
  342MPD2    C2 5180   0.395   4.701  17.696  0.2103 -0.1284  0.4073
  342MPD2    C3 5181   0.359   0.072   0.052  0.1197 -0.4613 -0.1589
  342MPD2    C4 5182   0.271   0.047   0.151  0.2771 -0.5499 -0.0064
  342MPD2    C5 5183   0.223   4.656   0.166 -0.4450 -0.1050 -0.3043
  342MPD2     H 5184   0.473   4.718  17.623  1.1518  0.3319  1.5144
  342MPD2    H1 5185   0.236   0.119   0.224  1.4838 -0.1758  0.2001
  342MPD2    H2 5186   0.223   4.451   0.129  2.0938 -0.7797 -1.5023
  342MPD2    H3 5187   0.156   4.653   0.251 -0.2354  0.8257 -0.1077
  342MPD2     N 5188   0.417   0.200   0.035  0.0487 -0.7080  0.0926
  342MPD2    H5 5189   0.493   0.215  17.698  0.3669  1.2341  0.9039
  342MPD2    N1 5190   0.404   4.467  17.650  0.2276 -0.4276  0.0822
  342MPD2    H7 5191   0.467   4.498  17.576  0.4249  3.4747  1.8798
  343TMC3    C1 5192   0.445   4.240  17.563 -0.6964  0.4677  0.1504
  343TMC3    C2 5193   0.546   4.278  17.492  0.3218  0.0690 -0.1379
  343TMC3    C3 5194   0.633   4.182  17.430  0.0624  1.7290 -0.4047
  343TMC3    C4 5195   0.428   4.108  17.591  0.5738 -0.3767 -0.6209
  343TMC3    C5 5196   0.510   4.017  17.528  0.5126 -0.0947  0.8760
  343TMC3    C6 5197   0.611   4.047  17.440  0.2744  0.1433 -0.3223
  343TMC3     C 5198   0.368   4.336  17.646 -0.7733  0.9250  0.1083
  343TMC3     O 5199   0.276   4.289  17.706 -0.2864  0.1792 -0.1005
  343TMC3     H 5200   0.562   4.382  17.466 -4.0661  1.0956  1.2472
  343TMC3    H1 5201   0.339   4.072  17.641 -0.4346  0.7478 -1.6119
  343TMC3    H2 5202   0.662   3.978  17.375  0.5860 -2.4430  2.6715
  343TMC3    C7 5203   0.465   3.879  17.539  0.4706  0.4367 -0.0673
  343TMC3    C8 5204   0.741   4.232  17.350 -0.5692  0.4899  0.5967
  343TMC3    O1 5205   0.469   3.818  17.435  0.1569 -0.4448 -0.1355
  343TMC3    O2 5206   0.741   4.349  17.318  0.2749 -0.2294 -0.9878
  344MPD2     C 5207   1.582   3.971  11.245 -0.0128 -0.4376 -1.0415
  344MPD2    C1 5208   1.495   3.953  11.141  0.1820 -0.0886 -0.3349
  344MPD2    C2 5209   1.507   4.034  11.027  0.6120  0.7831  0.5752
  344MPD2    C3 5210   1.603   4.132  11.015  0.1548 -0.0387 -0.5283
  344MPD2    C4 5211   1.697   4.140  11.120  0.3020 -0.1376  0.2335
  344MPD2    C5 5212   1.683   4.068  11.238  0.2979 -0.0723 -0.2961
  344MPD2     H 5213   1.426   4.038  10.956  0.9041 -2.1508  0.0987
  344MPD2    H1 5214   1.780   4.208  11.101  0.4712 -1.0647 -2.3741
  344MPD2    H2 5215   1.590   3.903  11.329 -1.4946  0.1081 -0.4596
  344MPD2    H3 5216   1.756   4.081  11.318  0.4135 -1.8185 -0.1292
  344MPD2     N 5217   1.618   4.224  10.905 -0.1891  0.0442 -0.2194
  344MPD2    H5 5218   1.697   4.288  10.899  0.2279 -0.5483 -1.0486
  344MPD2    N1 5219   1.406   3.842  11.149 -0.3060  0.1112 -0.1880
  344MPD2    H7 5220   1.402   3.791  11.237  1.5928 -0.4719 -0.4446
  345TMC3    C1 5221   1.584   4.345  10.705  0.5871  0.5901 -0.7191
  345TMC3    C2 5222   1.707   4.398  10.741 -0.0459  0.8700  0.5412
  345TMC3    C3 5223   1.728   4.523  10.691  0.4507 -0.0123 -0.4108
  345TMC3    C4 5224   1.480   4.402  10.641  0.1182  0.5079 -0.0575
  345TMC3    C5 5225   1.507   4.532  10.603 -0.6984  0.0183 -0.3304
  345TMC3    C6 5226   1.628   4.593  10.632  0.2368 -0.2295  0.4342
  345TMC3     C 5227   1.543   4.228  10.794 -0.1145  0.2341 -0.3084
  345TMC3     O 5228   1.435   4.172  10.773  0.8767  0.2796 -0.1868
  345TMC3     H 5229   1.780   4.329  10.782  0.4943  1.0232 -0.1660
  345TMC3    H1 5230   1.387   4.354  10.613  0.4609  0.5360 -1.2441
  345TMC3    H2 5231   1.645   4.693  10.595 -0.2290 -0.6919 -1.0150
  345TMC3    C7 5232   1.403   4.601  10.520 -0.1372  0.1738  0.6496
  345TMC3    C8 5233   1.868   4.575  10.666 -0.0730 -0.2815 -0.3696
  345TMC3    O1 5234   1.446   4.703  10.465 -0.2952 -0.5512 -0.1716
  345TMC3    O2 5235   1.881   4.678  10.608 -0.3907  0.2183  0.6225
  346MPD2     C 5236   1.485   0.715  14.548 -0.1784  0.3914 -0.5160
  346MPD2    C1 5237   1.612   0.721  14.488 -0.2052  0.7185 -0.4280
  346MPD2    C2 5238   1.690   0.830  14.519  0.3650 -0.4254 -1.0937
  346MPD2    C3 5239   1.644   0.933  14.596 -0.6478 -0.3370  0.4738
  346MPD2    C4 5240   1.526   0.916  14.665 -0.2874  0.7197  0.6724
  346MPD2    C5 5241   1.447   0.810  14.639 -0.0926  0.4298 -0.8412
  346MPD2     H 5242   1.789   0.841  14.476  0.1720  0.1869 -1.3819
  346MPD2    H1 5243   1.494   0.984  14.743  0.8706  0.8513  1.0332
  346MPD2    H2 5244   1.414   0.635  14.528 -1.2101  1.1482  0.1478
  346MPD2    H3 5245   1.358   0.788  14.697 -0.2989  1.2328 -0.8513
  346MPD2     N 5246   1.726   1.051  14.614  0.0536  0.1240  0.2315
  346MPD2    H5 5247   1.796   1.070  14.543 -0.5600 -2.4362 -1.0821
  346MPD2    N1 5248   1.655   0.610  14.419  0.2984  0.3161  0.4657
  346MPD2    H7 5249   1.583   0.545  14.389 -1.0710  1.9346  0.2446
  347TMC3    C1 5250   1.793   1.264  14.676 -0.0279  0.1080  1.0058
  347TMC3    C2 5251   1.814   1.290  14.539  0.0830 -1.2205  0.0955
  347TMC3    C3 5252   1.934   1.333  14.494  0.9255  0.0467  0.3396
  347TMC3    C4 5253   1.884   1.294  14.767  0.8888 -0.2313  0.5889
  347TMC3    C5 5254   1.999   1.366  14.726  1.0286  0.3046 -0.1215
  347TMC3    C6 5255   2.019   1.389  14.594 -0.0971 -0.1298  0.2118
  347TMC3     C 5256   1.701   1.155  14.703  0.5059 -0.6025 -0.1505
  347TMC3     O 5257   1.632   1.163  14.807 -0.2257 -0.0167 -0.4305
  347TMC3     H 5258   1.746   1.264  14.459  0.5100  0.4806 -0.8275
  347TMC3    H1 5259   1.862   1.257  14.867 -0.6280  2.8775  1.4213
  347TMC3    H2 5260   2.081   1.470  14.557  0.7690 -1.1596 -0.5729
  347TMC3    C7 5261   2.116   1.332  14.811 -0.1316 -0.2038  0.1186
  347TMC3    C8 5262   2.005   1.216  14.445 -0.3308 -0.0851 -0.6960
  347TMC3    O1 5263   2.091   1.313  14.928  0.4506  0.0818 -0.0120
  347TMC3    O2 5264   1.957   1.112  14.486  0.1394  0.0851 -0.4518
  348MPD2     C 5265   4.432   0.170  11.979 -0.6278  0.7025 -0.2128
  348MPD2    C1 5266   4.558   0.220  11.956 -0.0278 -0.4040  0.1449
  348MPD2    C2 5267   4.557   0.334  11.880  0.4431  0.0280 -0.4595
  348MPD2    C3 5268   4.440   0.392  11.835 -0.6288 -0.1275  0.3168
  348MPD2    C4 5269   4.314   0.336  11.859 -0.0055 -0.5023  0.6668
  348MPD2    C5 5270   4.310   0.226  11.940 -0.1706  1.4823  0.7633
  348MPD2     H 5271   4.655   0.380  11.867  0.2126  0.5083 -0.4841
  348MPD2    H1 5272   4.220   0.375  11.823  0.4323 -0.1233 -0.0792
  348MPD2    H2 5273   4.420   0.085  12.046 -0.6207 -0.0816 -1.2168
  348MPD2    H3 5274   4.211   0.184  11.959  0.4292 -0.9540 -1.4489
  348MPD2     N 5275   4.454   0.500  11.746  0.1706 -0.3655 -0.4040
  348MPD2    H5 5276   4.545   0.539  11.725 -0.1656  1.4194  1.4052
  348MPD2    N1 5277   4.680   0.179  12.011  0.0545 -0.7371 -0.3581
  348MPD2    H7 5278   0.033   0.219  11.974  0.1278 -1.0541 -0.5376
  349TMC3    C1 5279   0.106   0.029  12.106 -0.9020 -0.5349 -0.1908
  349TMC3    C2 5280   0.131   4.624  12.093 -0.7297 -0.3071 -0.0673
  349TMC3    C3 5281   0.249   4.592  12.039 -0.0033  0.3286  0.2139
  349TMC3    C4 5282   0.204   0.118  12.070  0.0430  0.0137  0.2664
  349TMC3    C5 5283   0.308   0.073  11.991  0.0779 -0.2342 -0.5416
  349TMC3    C6 5284   0.339   4.674  11.982  0.0621 -0.3730  0.9153
  349TMC3     C 5285   4.704   0.074  12.099  0.0412 -0.0388  0.3314
  349TMC3     O 5286   4.615   0.003  12.152 -0.1439 -0.1637 -0.5095
  349TMC3     H 5287   0.063   4.544  12.121 -0.8238  0.3476  1.6000
  349TMC3    H1 5288   0.177   0.221  12.086  0.0862  0.1155 -0.3236
  349TMC3    H2 5289   0.412   4.639  11.910  2.2872  0.3929  2.8463
  349TMC3    C7 5290   0.321   0.166  11.882  0.8031  0.1326 -0.6528
  349TMC3    C8 5291   0.305   4.478  12.109  1.0719 -0.2866 -0.2732
  349TMC3    O1 5292   0.246   0.265  11.891 -0.1632  0.2847  0.1220
  349TMC3    O2 5293   0.237   4.421  12.194  0.1643 -0.1159 -0.2095
  350MPD2     C 5294   3.715   3.928  10.293  0.0776 -0.8343  0.6895
  350MPD2    C1 5295   3.792   3.819  10.250  0.6446 -0.1353  0.1470
  350MPD2    C2 5296   3.929   3.830  10.272 -0.4995 -0.0714  0.3189
  350MPD2    C3 5297   3.989   3.945  10.317 -0.1284  0.3062  0.1769
  350MPD2    C4 5298   3.911   4.053  10.339  0.4077 -0.4380  0.5770
  350MPD2    C5 5299   3.779   4.040  10.336  0.5796  0.1483  0.3418
  350MPD2     H 5300   3.992   3.748  10.240  0.3468  1.3230 -1.6296
  350MPD2    H1 5301   3.950   4.153  10.356  0.5119 -0.3819  0.0017
  350MPD2    H2 5302   3.607   3.930  10.301  0.1041 -0.6441  0.9987
  350MPD2    H3 5303   3.712   4.121  10.362  3.2862  1.5824  2.8853
  350MPD2     N 5304   4.131   3.949  10.327  0.8317 -0.5255 -0.2416
  350MPD2    H5 5305   4.170   3.857  10.311  1.6686  0.4625 -3.8317
  350MPD2    N1 5306   3.737   3.704  10.200  0.3077 -0.3511  0.1802
  350MPD2    H7 5307   3.803   3.631  10.174 -2.0479 -1.8013 -1.7265
  351TMC3    C1 5308   3.570   3.560  10.115 -0.1008  0.5622  0.0205
  351TMC3    C2 5309   3.671   3.470  10.092 -0.1372  0.1820  0.3911
  351TMC3    C3 5310   3.633   3.341  10.071 -0.2702 -0.0483  0.1369
  351TMC3    C4 5311   3.436   3.529  10.122  0.0015  0.9454  0.4080
  351TMC3    C5 5312   3.400   3.393  10.099 -0.3452 -0.1524  0.3723
  351TMC3    C6 5313   3.496   3.301  10.075  0.2524 -0.0854  0.0583
  351TMC3     C 5314   3.605   3.692  10.164  0.1322 -0.0469 -0.4952
  351TMC3     O 5315   3.513   3.770  10.181  0.0023 -0.4778  0.0116
  351TMC3     H 5316   3.777   3.492  10.090 -0.2586  0.7363  0.2412
  351TMC3    H1 5317   3.362   3.601  10.153 -1.2871 -0.4444  0.5353
  351TMC3    H2 5318   3.479   3.195  10.061  0.7550 -0.1531 -0.0531
  351TMC3    C7 5319   3.262   3.351  10.108 -0.5751 -0.5132 -0.3564
  351TMC3    C8 5320   3.733   3.244  10.103 -0.3314 -0.9525  0.6749
  351TMC3    O1 5321   3.186   3.422  10.171  0.5609 -0.2794 -0.0031
  351TMC3    O2 5322   3.848   3.266  10.056 -0.0585  0.3783  0.3319
  352MPD2     C 5323   2.942   1.129   1.071 -0.1938 -0.5366 -0.0150
  352MPD2    C1 5324   2.843   1.037   1.036 -0.0833 -0.7924  0.4048
  352MPD2    C2 5325   2.876   0.907   1.004  1.0506  0.1061  0.0207
  352MPD2    C3 5326   3.012   0.865   1.008  0.6624 -0.2006  0.3814
  352MPD2    C4 5327   3.105   0.957   1.039 -0.0408  0.5867 -0.9661
  352MPD2    C5 5328   3.072   1.082   1.071  0.4337  0.0048 -0.3282
  352MPD2     H 5329   2.804   0.830   0.978  0.2193  0.2430  1.8454
  352MPD2    H1 5330   3.209   0.928   1.029 -0.1379  0.0731 -0.4979
  352MPD2    H2 5331   2.923   1.234   1.090  0.9925 -0.0228 -1.6679
  352MPD2    H3 5332   3.151   1.155   1.081  0.1976 -0.0556  2.0792
  352MPD2     N 5333   3.059   0.733   0.969 -0.1591  0.4172 -0.1168
  352MPD2    H5 5334   3.158   0.723   0.989 -0.2592 -0.3607 -0.0431
  352MPD2    N1 5335   2.709   1.082   1.025  0.5405  0.4245 -0.8153
  352MPD2    H7 5336   2.690   1.171   1.070  0.9222  0.5240 -0.8532
  353TMC3    C1 5337   3.035   0.517   0.869  0.1018 -0.4109 -0.7026
  353TMC3    C2 5338   3.098   0.458   0.975  0.3634 -0.0631  1.3921
  353TMC3    C3 5339   3.065   0.326   1.004  0.1221 -0.1689  0.2367
  353TMC3    C4 5340   2.955   0.445   0.787 -0.3358 -0.2882  0.2092
  353TMC3    C5 5341   2.930   0.316   0.817 -0.4863 -0.1176  0.1343
  353TMC3    C6 5342   2.988   0.255   0.919  0.1133 -0.5865 -0.0787
  353TMC3     C 5343   2.978   0.648   0.899 -0.3772  0.2402 -0.5106
  353TMC3     O 5344   2.872   0.668   0.837  0.7975  0.2903 -0.2960
  353TMC3     H 5345   3.141   0.524   1.050  0.8857 -0.1728  1.1855
  353TMC3    H1 5346   2.923   0.491   0.694  1.4169  0.7744  0.1364
  353TMC3    H2 5347   2.945   0.160   0.948 -3.0594  0.3098 -1.8707
  353TMC3    C7 5348   2.785   0.300   0.814 -0.9199  0.3043 -0.3540
  353TMC3    C8 5349   3.092   0.286   1.142 -0.1052  0.8364  0.4757
  353TMC3    O1 5350   2.728   0.189   0.825 -0.1540  0.0250  0.1595
  353TMC3    O2 5351   3.165   0.359   1.206 -0.3598  0.0386  0.2112
  354TMC3    C1 5352   4.058   1.191  13.191  0.2252  0.2501  0.0083
  354TMC3    C2 5353   4.004   1.322  13.193 -0.5604 -0.6004  0.1940
  354TMC3    C3 5354   4.005   1.389  13.070  0.9232 -0.9124 -0.1199
  354TMC3    C4 5355   4.100   1.125  13.079  0.1306  0.8331  0.2575
  354TMC3    C5 5356   4.119   1.205  12.963 -1.6481 -0.2093  0.7780
  354TMC3    C6 5357   4.068   1.335  12.957 -1.2291  0.5641 -0.2587
  354TMC3     C 5358   4.120   1.143  13.313 -1.2821 -0.0548 -0.3579
  354TMC3     O 5359   4.144   1.025  13.315  0.0863  0.8239 -0.0080
  354TMC3     H 5360   3.964   1.374  13.279  1.7623 -0.7605  1.3619
  354TMC3    H1 5361   4.176   1.048  13.091 -0.4794  0.1787 -0.0326
  354TMC3    H2 5362   4.062   1.389  12.863  0.5471 -1.4126 -1.5319
  354TMC3    C7 5363   4.238   1.177  12.888  0.1579 -0.1996 -0.7363
  354TMC3    C8 5364   3.944   1.515  13.071 -0.6088  0.4792 -0.0038
  354TMC3    O1 5365   4.265   1.056  12.869  0.0934  0.1649 -0.0029
  354TMC3    O2 5366   3.876   1.545  13.167 -0.0104  0.9156 -0.1738
  355MPD2     C 5367   4.294   2.258  11.886 -0.2930 -0.0727 -0.6477
  355MPD2    C1 5368   4.282   2.313  11.758  0.5360  0.8648 -0.1493
  355MPD2    C2 5369   4.392   2.344  11.684  0.6554 -1.1212 -0.6070
  355MPD2    C3 5370   4.518   2.334  11.745 -0.1373 -0.2239 -0.4359
  355MPD2    C4 5371   4.533   2.271  11.866 -0.3919  0.0626  0.3941
  355MPD2    C5 5372   4.423   2.230  11.933  0.3746 -0.1291 -0.1627
  355MPD2     H 5373   4.377   2.367  11.579 -0.3267  1.8825  0.1888
  355MPD2    H1 5374   4.624   2.279  11.924 -0.8739 -0.3218  1.2204
  355MPD2    H2 5375   4.207   2.226  11.942  0.3069 -0.6157 -0.0273
  355MPD2    H3 5376   4.435   2.182  12.029 -1.5879  1.4744  0.8752
  355MPD2     N 5377   4.639   2.372  11.686 -0.3445  0.5165  0.3976
  355MPD2    H5 5378   0.001   2.364  11.724  0.0885 -0.4370 -0.8853
  355MPD2    N1 5379   4.144   2.326  11.703  0.5577 -0.3746 -0.0015
  355MPD2    H7 5380   4.070   2.287  11.760 -0.5575  0.2204 -1.0560
  356TMC3    C1 5381   0.019   2.538  11.591 -0.6665  0.7174  0.2536
  356TMC3    C2 5382   0.106   2.578  11.492 -0.4525  0.6073  0.5109
  356TMC3    C3 5383   0.202   2.670  11.521  0.1015  0.9102  0.4002
  356TMC3    C4 5384   0.022   2.601  11.715  0.3077  0.3232 -0.0339
  356TMC3    C5 5385   0.124   2.691  11.742 -0.3894  0.0010  0.0065
  356TMC3    C6 5386   0.223   2.716  11.651 -0.3260  0.5048  0.4965
  356TMC3     C 5387   4.649   2.434  11.568  0.2812 -0.0516 -0.4437
  356TMC3     O 5388   4.571   2.434  11.476 -0.7771  0.4068 -0.0220
  356TMC3     H 5389   0.087   2.546  11.390  0.3457  0.8190  0.2956
  356TMC3    H1 5390   4.678   2.580  11.789  0.9260  0.9929  0.7983
  356TMC3    H2 5391   0.318   2.763  11.671 -0.6236  2.0438 -1.7498
  356TMC3    C7 5392   0.150   2.721  11.882 -0.1781  0.2144 -0.4481
  356TMC3    C8 5393   0.268   2.729  11.411 -0.0849 -0.3826 -1.0532
  356TMC3    O1 5394   0.095   2.656  11.973 -0.3505 -0.1718 -0.6392
  356TMC3    O2 5395   0.235   2.690  11.299 -0.0069 -0.1105  0.0593
  357MPD2     C 5396   4.023   2.111  17.484 -0.5825  0.0088 -0.0067
  357MPD2    C1 5397   4.021   2.196  17.596 -0.2015  0.4124 -0.3988
  357MPD2    C2 5398   3.935   2.302  17.593 -0.3735 -0.1218 -0.2062
  357MPD2    C3 5399   3.851   2.325  17.483  0.5128 -0.1945  0.0829
  357MPD2    C4 5400   3.850   2.239  17.374  0.4048  0.3897 -0.1570
  357MPD2    C5 5401   3.943   2.134  17.373 -0.5316 -0.0343 -0.0283
  357MPD2     H 5402   3.919   2.372  17.674  0.7477 -1.8332  1.4702
  357MPD2    H1 5403   3.783   2.262  17.292  0.5214  1.0248 -0.0749
  357MPD2    H2 5404   4.086   2.022  17.484  0.0452  0.4545  0.0701
  357MPD2    H3 5405   3.951   2.070  17.287  0.4545 -0.8508  0.6681
  357MPD2     N 5406   3.744   2.424  17.485 -0.4017 -1.1543  0.0955
  357MPD2    H5 5407   3.680   2.423  17.405 -0.2288  0.1877 -0.0666
  357MPD2    N1 5408   4.100   2.177  17.715 -0.1247  0.0433 -0.2735
  357MPD2    H7 5409   4.082   2.243   0.061 -3.1154 -1.6379  0.5157
  358TMC3    C1 5410   4.254   2.103   0.127  0.0011 -0.6006 -0.4283
  358TMC3    C2 5411   4.392   2.106   0.127  0.3678 -0.8469  0.8459
  358TMC3    C3 5412   4.446   2.177   0.225  0.6099 -0.1215 -0.5036
  358TMC3    C4 5413   4.175   2.183   0.206  0.4200  0.1642 -0.1749
  358TMC3    C5 5414   4.235   2.238   0.310  0.5733 -0.1066  0.5843
  358TMC3    C6 5415   4.370   2.235   0.327 -0.9740 -0.4345  0.4395
  358TMC3     C 5416   4.195   2.079  17.725 -0.4468  0.2133  0.7421
  358TMC3     O 5417   4.252   2.013  17.640 -0.1973 -0.5657 -0.8991
  358TMC3     H 5418   4.445   2.072   0.039  1.0209 -1.2061  1.3839
  358TMC3    H1 5419   4.067   2.171   0.206  0.6535 -1.9569 -1.0542
  358TMC3    H2 5420   4.419   2.305   0.393 -0.1461  0.3991 -1.0557
  358TMC3    C7 5421   4.165   2.357   0.364 -0.3776  0.8816  0.5686
  358TMC3    C8 5422   4.588   2.202   0.246 -0.8373  0.2300 -0.1999
  358TMC3    O1 5423   4.061   2.382   0.308 -0.4279  0.1321  0.1435
  358TMC3    O2 5424   4.617   2.272   0.338  0.2623  0.1575 -0.1278
  359MPD2     C 5425   4.405   0.584  12.105 -0.5506  0.6334  0.0111
  359MPD2    C1 5426   4.314   0.686  12.120  0.2316 -0.1513 -0.9444
  359MPD2    C2 5427   4.201   0.657  12.196  0.1813  0.0237 -0.1497
  359MPD2    C3 5428   4.179   0.532  12.260 -0.5085 -0.1999 -0.0712
  359MPD2    C4 5429   4.266   0.426  12.235  0.7109 -0.2564 -0.0192
  359MPD2    C5 5430   4.387   0.459  12.167 -0.3139  0.0911 -0.1094
  359MPD2     H 5431   4.136   0.742  12.213  0.5272  0.7514 -2.5566
  359MPD2    H1 5432   4.255   0.325  12.273 -3.3699  0.4791  0.7737
  359MPD2    H2 5433   4.504   0.590  12.060 -0.9894  0.1801 -1.0329
  359MPD2    H3 5434   4.461   0.380  12.156 -0.0561  0.3927 -0.5170
  359MPD2     N 5435   4.071   0.504  12.341 -0.7121 -0.3461  0.2357
  359MPD2    H5 5436   4.057   0.409  12.373 -0.6959 -0.7315 -0.9098
  359MPD2    N1 5437   4.319   0.815  12.060 -0.6780 -0.4896 -0.3118
  359MPD2    H7 5438   4.242   0.881  12.065 -1.3222 -1.2271 -0.4188
  360TMC3    C1 5439   4.430   0.974  11.931 -0.5109  0.4218  0.1304
  360TMC3    C2 5440   4.538   1.053  11.935  0.1469 -0.3398 -0.0988
  360TMC3    C3 5441   4.515   1.181  11.894 -0.3136 -0.1312 -0.3075
  360TMC3    C4 5442   4.313   1.003  11.867  0.1683  0.1905  0.0865
  360TMC3    C5 5443   4.306   1.128  11.810  0.3143 -0.3014  0.3680
  360TMC3    C6 5444   4.400   1.221  11.830 -0.3849 -0.2355 -0.0899
  360TMC3     C 5445   4.441   0.850  11.999  0.2126 -0.0594 -0.1423
  360TMC3     O 5446   4.552   0.798  12.003  0.0889 -0.2999 -0.3678
  360TMC3     H 5447   4.611   1.029  12.012 -1.7759 -0.2093  1.7495
  360TMC3    H1 5448   4.235   0.933  11.843  2.4634 -2.4244  0.2841
  360TMC3    H2 5449   4.373   1.320  11.795 -1.9675  0.2933  2.6617
  360TMC3    C7 5450   4.233   1.143  11.687 -0.5757 -0.4740  0.1893
  360TMC3    C8 5451   4.611   1.285  11.929  0.9011 -0.3139  0.2532
  360TMC3    O1 5452   4.271   1.226  11.605  0.2475 -0.5881  0.4860
  360TMC3    O2 5453   4.576   1.403  11.912 -0.1419 -0.2349 -0.4563
  361MPD2     C 5454   2.024   4.653  16.574  0.2409  1.1298  0.5902
  361MPD2    C1 5455   1.962   4.699  16.689 -0.3657 -0.5680  0.0790
  361MPD2    C2 5456   2.002   4.644  16.810  0.8132  0.0541 -0.0562
  361MPD2    C3 5457   2.106   4.554  16.817 -0.5924 -0.0632 -0.4282
  361MPD2    C4 5458   2.169   4.508  16.710 -0.0983  0.0797 -0.0307
  361MPD2    C5 5459   2.121   4.552  16.585  0.1498 -0.2489  0.1827
  361MPD2     H 5460   1.951   4.670  16.903 -0.3035  1.1858 -0.9878
  361MPD2    H1 5461   2.251   4.437  16.710 -0.1640  0.0039  0.3651
  361MPD2    H2 5462   2.005   4.680  16.471 -1.3797  0.8149  0.7973
  361MPD2    H3 5463   2.168   4.511  16.497  1.4081  0.7917  0.3667
  361MPD2     N 5464   2.136   4.490  16.942  0.1428 -0.6918 -0.3735
  361MPD2    H5 5465   2.188   4.403  16.943  1.3667  0.0508  0.7586
  361MPD2    N1 5466   1.852   0.057  16.695 -0.2520  0.3806 -0.9456
  361MPD2    H7 5467   1.823   0.092  16.785  1.1142 -2.6927  0.6784
  362TMC3    C1 5468   1.697   0.213  16.630 -0.0479  0.8173 -0.5814
  362TMC3    C2 5469   1.673   0.240  16.766  0.0998 -0.1851 -0.4660
  362TMC3    C3 5470   1.578   0.339  16.790  0.0191  0.7637 -0.1092
  362TMC3    C4 5471   1.644   0.279  16.525 -0.0303  0.2896  0.6400
  362TMC3    C5 5472   1.566   0.382  16.558 -0.0169 -0.3033  0.1213
  362TMC3    C6 5473   1.536   0.419  16.690 -0.8297 -0.4146  0.1696
  362TMC3     C 5474   1.799   0.121  16.588 -0.6761  0.0496 -0.3051
  362TMC3     O 5475   1.824   0.098  16.475 -0.0648  0.3349  0.0024
  362TMC3     H 5476   1.712   0.194  16.856  0.8762  1.7439  0.1947
  362TMC3    H1 5477   1.675   0.262  16.423  1.5789  0.3748  1.1072
  362TMC3    H2 5478   1.482   0.511  16.712 -0.0295 -0.1269  0.9463
  362TMC3    C7 5479   1.533   0.485  16.459  0.2994 -0.1440 -0.3506
  362TMC3    C8 5480   1.587   0.398  16.922  1.2119  0.3368  0.0883
  362TMC3    O1 5481   1.530   0.597  16.507 -0.1975 -0.2345  0.1182
  362TMC3    O2 5482   1.692   0.385  16.984  0.3000  0.0986  0.1235
  363TMC3    C1 5483   2.541   2.762   9.129 -0.1133 -0.2178  0.4277
  363TMC3    C2 5484   2.425   2.767   9.201 -0.5344 -0.3364 -0.1547
  363TMC3    C3 5485   2.421   2.869   9.294 -0.2726 -0.4776 -0.1814
  363TMC3    C4 5486   2.648   2.842   9.151  0.2054 -0.2832 -0.3107
  363TMC3    C5 5487   2.638   2.935   9.248 -0.5400  0.4333 -0.4791
  363TMC3    C6 5488   2.528   2.956   9.320  0.8926  0.5283  0.1678
  363TMC3     C 5489   2.560   2.661   9.028 -0.7537 -0.1949  0.1063
  363TMC3     O 5490   2.649   2.666   8.947 -0.1456  0.2161  0.2477
  363TMC3     H 5491   2.337   2.718   9.162  1.1162 -2.7445 -0.8113
  363TMC3    H1 5492   2.743   2.831   9.099  0.4405  1.3460 -0.2307
  363TMC3    H2 5493   2.519   3.038   9.390 -1.1009  1.5200 -1.2317
  363TMC3    C7 5494   2.742   3.035   9.267  0.1271  0.2661 -0.4485
  363TMC3    C8 5495   2.307   2.874   9.383 -0.2267 -0.2672 -0.5410
  363TMC3    O1 5496   2.743   3.096   9.374  0.0546 -0.3686  0.6530
  363TMC3    O2 5497   2.295   2.977   9.450  0.3947  0.1664  0.0198
  364MPD2     C 5498   3.005   2.445  10.525  0.3375  0.0465 -0.1563
  364MPD2    C1 5499   3.108   2.443  10.431  0.4101 -0.3711  0.1338
  364MPD2    C2 5500   3.172   2.324  10.406  0.0721  0.0962 -0.6796
  364MPD2    C3 5501   3.133   2.207  10.461 -0.5791 -0.2216 -0.0123
  364MPD2    C4 5502   3.026   2.209  10.549 -0.6344  0.1951 -0.0177
  364MPD2    C5 5503   2.963   2.327  10.576  0.8448 -0.1070  0.3244
  364MPD2     H 5504   3.270   2.324  10.361  0.0556 -1.8076 -0.7112
  364MPD2    H1 5505   2.997   2.117  10.600 -0.5728  0.3533  0.3078
  364MPD2    H2 5506   2.950   2.536  10.544 -0.9898 -0.4792 -1.4810
  364MPD2    H3 5507   2.892   2.335  10.657 -0.7158  0.2370 -1.0810
  364MPD2     N 5508   3.197   2.082  10.434 -0.3844 -0.1755  0.3162
  364MPD2    H5 5509   3.171   2.003  10.493  0.2707 -0.7573 -0.1661
  364MPD2    N1 5510   3.129   2.564  10.372  0.0199  0.1552 -0.1821
  364MPD2    H7 5511   3.073   2.643  10.403 -1.2155 -0.8006  0.0265
  365TMC3    C1 5512   3.206   2.719  10.204  0.1776 -0.1004  0.3646
  365TMC3    C2 5513   3.275   2.720  10.086 -0.3058  0.1803  0.7537
  365TMC3    C3 5514   3.370   2.815  10.074  0.4082 -0.3425 -0.3206
  365TMC3    C4 5515   3.230   2.825  10.294  0.4347  0.1328 -0.3693
  365TMC3    C5 5516   3.321   2.923  10.262  0.5156 -0.2821  0.1171
  365TMC3    C6 5517   3.388   2.923  10.152  0.3956 -0.4733  0.6890
  365TMC3     C 5518   3.204   2.587  10.256  0.4229 -0.7359  0.6971
  365TMC3     O 5519   3.250   2.501  10.182 -0.1170  0.0590 -0.1269
  365TMC3     H 5520   3.257   2.649  10.006  0.7091  0.5752  0.1820
  365TMC3    H1 5521   3.192   2.802  10.393  0.1829 -1.1841 -0.7705
  365TMC3    H2 5522   3.461   3.000  10.130 -0.9994  1.3740  2.6420
  365TMC3    C7 5523   3.378   3.011  10.363 -0.1209 -0.3062 -0.2018
  365TMC3    C8 5524   3.479   2.799   9.979  0.2890  0.5500  0.4790
  365TMC3    O1 5525   3.449   3.101  10.318  0.0316 -0.2607  0.2394
  365TMC3    O2 5526   3.569   2.885   9.959 -0.1474 -0.6604 -0.4169
  366MPD2     C 5527   1.834   2.960  15.598  0.3553  0.1328  0.4913
  366MPD2    C1 5528   1.966   2.992  15.620 -0.0152 -0.1455 -0.1319
  366MPD2    C2 5529   2.049   2.892  15.673 -0.5502 -0.0494  0.5182
  366MPD2    C3 5530   1.996   2.764  15.688 -0.4244  0.6342  0.4428
  366MPD2    C4 5531   1.858   2.733  15.671  0.1971  0.3600  0.8117
  366MPD2    C5 5532   1.786   2.836  15.625 -0.1093  0.4013 -0.2930
  366MPD2     H 5533   2.152   2.919  15.694 -0.6638  1.1292 -0.4368
  366MPD2    H1 5534   1.822   2.632  15.682 -2.1337  1.5643  3.9971
  366MPD2    H2 5535   1.761   3.020  15.545  1.2940  1.3008  0.5288
  366MPD2    H3 5536   1.679   2.822  15.611 -0.2193 -0.3703  1.3775
  366MPD2     N 5537   2.087   2.648  15.698  0.1855  0.4316  0.1069
  366MPD2    H5 5538   2.035   2.578  15.751 -1.4343  1.6262  0.1173
  366MPD2    N1 5539   2.025   3.110  15.570  0.2441 -0.2872  0.2637
  366MPD2    H7 5540   2.121   3.135  15.590  0.5698 -0.8488 -0.5768
  367TMC3    C1 5541   2.040   3.337  15.499 -0.2569 -0.1319 -0.7949
  367TMC3    C2 5542   2.157   3.366  15.563  0.0015 -0.6694  0.6007
  367TMC3    C3 5543   2.200   3.494  15.552  0.4709 -0.3218 -0.4426
  367TMC3    C4 5544   1.982   3.435  15.415  0.1499 -0.1593  0.0025
  367TMC3    C5 5545   2.033   3.560  15.396  0.7591  0.1341 -0.3262
  367TMC3    C6 5546   2.141   3.594  15.470 -0.2338  1.0504  0.3111
  367TMC3     C 5547   1.966   3.211  15.503 -0.3984  0.0975 -0.7866
  367TMC3     O 5548   1.856   3.215  15.457  0.0020 -0.3619  0.8526
  367TMC3     H 5549   2.202   3.301  15.638  0.8451 -2.1195 -1.1737
  367TMC3    H1 5550   1.889   3.408  15.367 -1.2219 -0.1011  2.6300
  367TMC3    H2 5551   2.186   3.692  15.470  0.5190  0.7106  0.7072
  367TMC3    C7 5552   1.970   3.640  15.293 -0.6683  0.6841  0.0110
  367TMC3    C8 5553   2.319   3.532  15.633  0.5891  0.0238 -0.4219
  367TMC3    O1 5554   1.881   3.584  15.235 -0.2811  0.4675 -0.3687
  367TMC3    O2 5555   2.409   3.451  15.642 -0.1563  0.4969 -0.5438
  368MPD2     C 5556   2.387   0.093  12.998  0.1998  1.0424  0.0210
  368MPD2    C1 5557   2.493   0.180  13.010  0.9900 -0.1849 -0.1356
  368MPD2    C2 5558   2.563   0.215  12.899 -0.7303 -0.3064  0.0237
  368MPD2    C3 5559   2.530   0.155  12.777  0.2346  0.2864  0.5040
  368MPD2    C4 5560   2.423   0.064  12.764  0.3726 -0.2053 -0.2067
  368MPD2    C5 5561   2.359   0.035  12.875 -0.2358  0.9120 -0.3803
  368MPD2     H 5562   2.636   0.294  12.895  0.6297 -1.5316  0.7726
  368MPD2    H1 5563   2.396   0.021  12.669  2.1475 -1.4959 -0.1223
  368MPD2    H2 5564   2.331   0.060  13.085  2.4880  0.4730  1.2754
  368MPD2    H3 5565   2.289   4.685  12.860 -1.1201  1.1171  2.4670
  368MPD2     N 5566   2.596   0.174  12.657  0.1414 -0.8437 -0.0096
  368MPD2    H5 5567   2.569   0.108  12.584  0.7621 -1.5131  0.3641
  368MPD2    N1 5568   2.522   0.237  13.139  0.1668  0.6045 -0.2770
  368MPD2    H7 5569   2.459   0.207  13.212  0.4936  1.9611  0.5498
  369TMC3    C1 5570   2.611   0.378  13.304  0.5378  0.1999 -0.1836
  369TMC3    C2 5571   2.673   0.496  13.309 -0.8771 -0.3493  0.5598
  369TMC3    C3 5572   2.609   0.607  13.342 -0.1874 -0.3648  0.6020
  369TMC3    C4 5573   2.486   0.370  13.357  0.8049  0.4533 -0.0469
  369TMC3    C5 5574   2.424   0.479  13.402 -1.0098  0.0614 -0.0809
  369TMC3    C6 5575   2.480   0.600  13.394 -0.0948 -0.8646  0.4861
  369TMC3     C 5576   2.626   0.322  13.165  0.0559  0.3423  0.3320
  369TMC3     O 5577   2.722   0.365  13.100  0.2577 -0.1145 -0.1453
  369TMC3     H 5578   2.776   0.495  13.274 -1.1539 -2.8663 -0.2003
  369TMC3    H1 5579   2.456   0.270  13.385 -0.5170  0.7809 -0.2665
  369TMC3    H2 5580   2.419   0.688  13.414  1.0276 -0.2244  1.1103
  369TMC3    C7 5581   2.343   0.440  13.506  0.0791  1.3178 -0.1601
  369TMC3    C8 5582   2.656   0.723  13.266  0.9841  0.3671 -0.1463
  369TMC3    O1 5583   2.383   0.350  13.582 -1.1477  0.6486 -0.1865
  369TMC3    O2 5584   2.568   0.776  13.201  0.1470  0.3586 -0.6632
  370TMC3    C1 5585   2.910   1.071  16.303 -0.0842 -0.1681  0.2359
  370TMC3    C2 5586   2.853   0.994  16.405  0.4626  0.1778 -0.2132
  370TMC3    C3 5587   2.831   0.861  16.383 -0.4423 -0.7412 -0.0186
  370TMC3    C4 5588   2.939   1.018  16.179 -0.5334  0.2464  0.0952
  370TMC3    C5 5589   2.905   0.884  16.157  0.6952  0.0815 -0.0201
  370TMC3    C6 5590   2.850   0.808  16.257 -0.5451 -0.4291 -0.1120
  370TMC3     C 5591   2.995   1.181  16.363  0.1875  0.0326  0.0534
  370TMC3     O 5592   2.999   1.166  16.482 -0.0013  0.4764 -0.0364
  370TMC3     H 5593   2.816   1.035  16.498  1.4990  0.6732 -0.0213
  370TMC3    H1 5594   3.005   1.064  16.107 -1.8982  1.4142 -0.4088
  370TMC3    H2 5595   2.807   0.712  16.235 -1.8249  0.5633 -1.9407
  370TMC3    C7 5596   2.954   0.819  16.039  0.5662  0.0981 -1.0910
  370TMC3    C8 5597   2.794   0.772  16.489 -0.0695 -0.5697 -0.2391
  370TMC3    O1 5598   3.012   0.893  15.957 -0.5607  0.1576 -0.0833
  370TMC3    O2 5599   2.744   0.669  16.453 -0.0461  0.4542 -0.2481
  371TMC3    C1 5600   3.950   3.743  15.774 -0.5423 -0.0179 -0.0371
  371TMC3    C2 5601   3.830   3.739  15.832  0.3743  0.1718 -0.5139
  371TMC3    C3 5602   3.758   3.856  15.837 -0.3735  0.5415 -0.1691
  371TMC3    C4 5603   3.999   3.858  15.712  0.5603  0.9267  0.2301
  371TMC3    C5 5604   3.926   3.974  15.722  0.0143  0.5138 -0.1056
  371TMC3    C6 5605   3.807   3.970  15.785 -0.0577 -0.5867  0.4216
  371TMC3     C 5606   4.047   3.637  15.803 -0.6893  0.8051  0.1935
  371TMC3     O 5607   4.154   3.631  15.740 -0.4321  0.1767  0.3388
  371TMC3     H 5608   3.789   3.642  15.860 -0.6779  0.7759  0.0111
  371TMC3    H1 5609   4.091   3.857  15.655 -0.6806 -0.3042 -1.7561
  371TMC3    H2 5610   3.747   4.060  15.787 -2.0134 -1.7972 -4.3794
  371TMC3    C7 5611   3.967   4.098  15.655 -0.2284 -0.4125  1.2568
  371TMC3    C8 5612   3.621   3.848  15.881 -0.2175  0.2694  0.3432
  371TMC3    O1 5613   3.937   4.201  15.705  0.3807  0.0714  0.1417
  371TMC3    O2 5614   3.564   3.735  15.878  0.2806 -0.0669 -0.1767
  372MPD2     C 5615   3.711   0.450  13.204  0.4097  0.1601 -0.3155
  372MPD2    C1 5616   3.798   0.394  13.294 -0.0106  0.3384 -0.1412
  372MPD2    C2 5617   3.740   0.321  13.398 -0.1089  0.1725 -0.5460
  372MPD2    C3 5618   3.607   0.311  13.418  0.4380  0.4830 -0.2380
  372MPD2    C4 5619   3.521   0.376  13.330  0.7612  0.2598 -0.5191
  372MPD2    C5 5620   3.577   0.450  13.226  0.0623  0.3191 -0.1306
  372MPD2     H 5621   3.805   0.265  13.464 -1.2689 -0.3351  0.1718
  372MPD2    H1 5622   3.414   0.362  13.336  0.6595  1.2393 -0.2034
  372MPD2    H2 5623   3.753   0.506  13.122 -1.2322 -1.0945 -1.9991
  372MPD2    H3 5624   3.505   0.497  13.160  0.5301 -0.6581 -1.3290
  372MPD2     N 5625   3.572   0.224  13.526 -0.2098 -0.2676  0.6411
  372MPD2    H5 5626   3.644   0.164  13.566  0.2058  0.3191  0.7608
  372MPD2    N1 5627   3.938   0.385  13.277 -0.7140  0.8420  0.2919
  372MPD2    H7 5628   3.981   0.339  13.357 -1.9553 -1.5209 -0.4165
  373TMC3    C1 5629   3.436   0.095  13.671 -0.5232  0.4481  0.3882
  373TMC3    C2 5630   3.346   0.126  13.770  0.6456  1.0247 -0.2430
  373TMC3    C3 5631   3.291   0.025  13.847  0.3120  0.0653 -0.0538
  373TMC3    C4 5632   3.461   4.702  13.635  0.0833 -0.4990 -1.3008
  373TMC3    C5 5633   3.400   4.609  13.708 -0.9221 -0.6037 -0.4500
  373TMC3    C6 5634   3.316   4.629  13.814 -0.6457 -0.0583 -0.4125
  373TMC3     C 5635   3.446   0.202  13.578  0.5292  1.2763 -0.0720
  373TMC3     O 5636   3.368   0.294  13.588  0.1515 -0.0438  0.5678
  373TMC3     H 5637   3.329   0.229  13.798 -0.0323  0.6013  0.9137
  373TMC3    H1 5638   3.507   4.687  13.538  1.5463  1.3842 -0.8951
  373TMC3    H2 5639   3.249   4.560  13.864 -0.7172 -1.4272 -2.3984
  373TMC3    C7 5640   3.441   4.476  13.666  0.0441 -0.2212  0.3327
  373TMC3    C8 5641   3.209   0.066  13.959  0.0917  0.0486 -0.0438
  373TMC3    O1 5642   3.516   4.465  13.569 -0.3677 -0.1180  0.0086
  373TMC3    O2 5643   3.135   0.160  13.935  0.3805  0.3301 -0.0946
  374TMC3    C1 5644   3.357   1.147   9.836 -0.8917  0.1224 -0.2145
  374TMC3    C2 5645   3.497   1.140   9.833 -0.1215 -0.3409  0.5950
  374TMC3    C3 5646   3.559   1.198   9.725 -0.1053  0.3922  0.5549
  374TMC3    C4 5647   3.280   1.198   9.736  0.2728  0.4028 -0.0115
  374TMC3    C5 5648   3.346   1.261   9.637 -0.0755  0.0705 -0.1270
  374TMC3    C6 5649   3.483   1.256   9.626  0.6844  0.0954 -0.7555
  374TMC3     C 5650   3.296   1.044   9.909 -0.0764 -0.2327  0.3352
  374TMC3     O 5651   3.196   1.000   9.856 -0.2413  0.1484  0.3231
  374TMC3     H 5652   3.553   1.069   9.892 -0.7873  0.4635  2.2254
  374TMC3    H1 5653   3.174   1.209   9.756  0.7890  1.2503  2.2265
  374TMC3    H2 5654   3.535   1.308   9.546  2.2738  1.8873  1.4444
  374TMC3    C7 5655   3.278   1.267   9.512 -0.1888 -0.5492 -0.2899
  374TMC3    C8 5656   3.700   1.235   9.732  0.5024 -0.3568 -0.2920
  374TMC3    O1 5657   3.304   1.361   9.441 -0.1161  0.4778  0.5768
  374TMC3    O2 5658   3.744   1.289   9.631 -0.0669  0.2225  0.5540
  375MPD2     C 5659   4.459   1.005  17.404 -0.0428 -0.4407 -0.3404
  375MPD2    C1 5660   4.428   1.056  17.279  0.3740 -0.1204  0.1191
  375MPD2    C2 5661   4.467   0.983  17.169 -0.3847  0.5583 -0.1748
  375MPD2    C3 5662   4.540   0.870  17.192  0.0861  0.0168 -0.2889
  375MPD2    C4 5663   4.585   0.829  17.317  0.5189  0.5128  0.0499
  375MPD2    C5 5664   4.538   0.895  17.428  1.0909  0.2838  0.0223
  375MPD2     H 5665   4.441   1.020  17.070 -0.4558  1.7931  0.3096
  375MPD2    H1 5666   4.657   0.749  17.330  1.3271  1.4052  0.9928
  375MPD2    H2 5667   4.410   1.054  17.486 -0.1317 -1.9723  0.5237
  375MPD2    H3 5668   4.559   0.866  17.530  0.1313  0.4735  0.2776
  375MPD2     N 5669   4.603   0.790  17.091  0.0622 -0.4540  0.6379
  375MPD2    H5 5670   4.651   0.706  17.124  0.4681 -0.3893  0.2075
  375MPD2    N1 5671   4.383   1.188  17.253  0.3912  0.0249 -0.3753
  375MPD2    H7 5672   4.377   1.214  17.155 -1.0182  2.6002  0.4021
  376TMC3    C1 5673   4.673   0.730  16.874 -0.0798 -0.1606 -0.0305
  376TMC3    C2 5674   0.073   0.718  16.912 -0.1939 -0.5684  0.4730
  376TMC3    C3 5675   0.154   0.650  16.830 -1.2903 -0.2964 -0.2409
  376TMC3    C4 5676   4.622   0.686  16.754 -0.6419  0.3942 -0.4084
  376TMC3    C5 5677   4.710   0.624  16.671 -0.4419  0.4300  0.2199
  376TMC3    C6 5678   0.109   0.599  16.709 -0.2634  0.1400 -0.4835
  376TMC3     C 5679   4.585   0.806  16.956 -1.0337 -0.0586 -0.1227
  376TMC3     O 5680   4.497   0.862  16.894 -0.5292 -0.6868  0.5561
  376TMC3     H 5681   0.108   0.772  16.999  1.8931 -0.8552 -0.1842
  376TMC3    H1 5682   4.517   0.687  16.726 -1.5800  0.9980  3.0923
  376TMC3    H2 5683   0.185   0.563  16.641 -0.4149  1.1184 -1.1828
  376TMC3    C7 5684   4.697   0.674  16.538 -0.2688  0.2278 -0.0660
  376TMC3    C8 5685   0.280   0.692  16.831 -0.6758 -0.3669 -0.7453
  376TMC3    O1 5686   4.612   0.760  16.529  0.6205 -0.1066  0.8204
  376TMC3    O2 5687   0.291   0.814  16.804 -0.0898 -0.6329  0.6310
  377MPD2     C 5688   1.885   0.870  13.257 -0.2704 -0.0677 -0.1509
  377MPD2    C1 5689   1.893   0.875  13.118  0.1595  0.3513  0.2023
  377MPD2    C2 5690   1.856   0.765  13.037  0.6079 -0.3104 -0.2447
  377MPD2    C3 5691   1.804   0.651  13.096  0.3568 -1.0265 -0.3359
  377MPD2    C4 5692   1.801   0.653  13.233 -0.1667  0.0433 -0.0140
  377MPD2    C5 5693   1.844   0.757  13.314 -0.4279  0.3545  0.4598
  377MPD2     H 5694   1.863   0.771  12.929 -0.6019  1.8998 -0.1941
  377MPD2    H1 5695   1.750   0.573  13.286 -1.6952  2.3826  2.0618
  377MPD2    H2 5696   1.914   0.954  13.319 -1.7300  1.2532 -1.2427
  377MPD2    H3 5697   1.835   0.754  13.422  0.3439 -3.7382  0.4115
  377MPD2     N 5698   1.757   0.539  13.020 -0.0172  0.0172  0.1295
  377MPD2    H5 5699   1.740   0.453  13.072 -1.5252  0.2883  0.0878
  377MPD2    N1 5700   1.945   0.995  13.063 -0.0646 -0.1557 -0.9736
  377MPD2    H7 5701   1.978   1.062  13.132 -0.9552 -0.5910 -0.1077
  378TMC3    C1 5702   2.049   1.231  12.689 -0.0509 -0.1808 -0.2231
  378TMC3    C2 5703   1.957   1.196  12.788 -0.0469 -0.4102 -0.4980
  378TMC3    C3 5704   2.008   1.123  12.885 -0.7884  0.2695  0.1215
  378TMC3    C4 5705   2.175   1.172  12.681 -0.7944  0.2859  0.1959
  378TMC3    C5 5706   2.219   1.100  12.784 -0.2470 -0.1535 -0.3626
  378TMC3    C6 5707   2.135   1.079  12.890  0.3721  0.9658  0.2118
  378TMC3     C 5708   2.003   1.327  12.588  0.3264  0.1736  0.3531
  378TMC3     O 5709   1.887   1.360  12.596 -0.1885  0.1205 -0.4419
  378TMC3     H 5710   1.860   1.244  12.798 -0.0225 -0.4944  0.1466
  378TMC3    H1 5711   2.236   1.178  12.591  0.9202 -2.1697  1.2084
  378TMC3    H2 5712   2.177   1.016  12.967  0.1704  2.7522  1.7723
  378TMC3    C7 5713   2.306   0.988  12.752 -0.6275 -0.1429  0.2236
  378TMC3    C8 5714   1.915   1.035  12.937  0.5732 -0.4243  0.1888
  378TMC3    O1 5715   2.308   0.901  12.836  0.2883  0.0517 -0.1155
  378TMC3    O2 5716   1.814   1.009  12.873  0.2028  0.4510 -0.0071
  379MPD2     C 5717   3.317   3.485  16.386  0.4452 -0.5009  0.4431
  379MPD2    C1 5718   3.215   3.435  16.460  0.3448 -0.1056  0.2643
  379MPD2    C2 5719   3.244   3.389  16.591 -0.0151 -0.1339 -0.0184
  379MPD2    C3 5720   3.371   3.413  16.637  0.6631 -0.1794 -0.3086
  379MPD2    C4 5721   3.466   3.471  16.555  0.0686 -0.4962 -0.0191
  379MPD2    C5 5722   3.443   3.501  16.425  0.4487 -0.0540  0.4253
  379MPD2     H 5723   3.169   3.345  16.655  0.5257 -0.4064  0.4256
  379MPD2    H1 5724   3.562   3.507  16.588  0.0012  0.7840 -1.2471
  379MPD2    H2 5725   3.290   3.519  16.286  0.7289 -2.4531 -0.2899
  379MPD2    H3 5726   3.520   3.554  16.369 -1.7629  2.4061 -0.2899
  379MPD2     N 5727   3.416   3.399  16.767  0.4544  0.6458  0.1153
  379MPD2    H5 5728   3.516   3.413  16.774  0.7108 -1.5971  0.8748
  379MPD2    N1 5729   3.086   3.418  16.398  0.0108  0.4678  0.2136
  379MPD2    H7 5730   3.069   3.453  16.305  1.5781 -0.3549 -0.3733
  380TMC3    C1 5731   2.894   3.316  16.353 -0.7545 -0.0466  0.3980
  380TMC3    C2 5732   2.962   3.258  16.252 -0.0432 -0.2197  0.4310
  380TMC3    C3 5733   2.928   3.285  16.119 -0.3614  0.0826  0.6747
  380TMC3    C4 5734   2.803   3.412  16.327 -0.1015 -0.4777  0.5374
  380TMC3    C5 5735   2.770   3.445  16.198 -0.1754 -0.0488 -0.3665
  380TMC3    C6 5736   2.831   3.378  16.094 -0.4055  0.3063 -0.2848
  380TMC3     C 5737   2.975   3.358  16.462  0.1498 -0.5519 -0.8760
  380TMC3     O 5738   2.952   3.359  16.576 -0.0058 -0.1745 -0.4132
  380TMC3     H 5739   3.049   3.200  16.280  0.3634  0.5753  0.8082
  380TMC3    H1 5740   2.763   3.458  16.416 -0.7010  0.1327 -0.0491
  380TMC3    H2 5741   2.802   3.407  15.993 -0.8494  0.8371 -0.0083
  380TMC3    C7 5742   2.668   3.542  16.182  0.2605 -0.2083 -0.1432
  380TMC3    C8 5743   3.036   3.317  16.031  0.0678  0.1431 -0.2437
  380TMC3    O1 5744   2.617   3.585  16.282  0.3534 -0.7161 -0.9681
  380TMC3    O2 5745   3.009   3.390  15.940  0.0816 -0.2306  0.5955
  381TMC3    C1 5746   2.605   0.165  16.079  0.0305 -0.3354 -0.6198
  381TMC3    C2 5747   2.732   0.193  16.116 -0.1143 -0.6338 -0.3796
  381TMC3    C3 5748   2.748   0.250  16.239 -0.3143  0.5770  0.1548
  381TMC3    C4 5749   2.494   0.206  16.152  0.3250  0.0782  0.2936
  381TMC3    C5 5750   2.516   0.279  16.267  0.1028  0.3473  0.0353
  381TMC3    C6 5751   2.644   0.300  16.317 -0.7944  0.0933  0.4277
  381TMC3     C 5752   2.575   0.121  15.943  0.5336  0.3480  0.1295
  381TMC3     O 5753   2.464   0.146  15.906 -0.6600  0.2714 -0.2856
  381TMC3     H 5754   2.821   0.155  16.065  1.2022 -0.0465  1.4840
  381TMC3    H1 5755   2.395   0.168  16.130  0.0552  1.6978 -1.3021
  381TMC3    H2 5756   2.643   0.349  16.414 -0.9827 -0.4352  0.6905
  381TMC3    C7 5757   2.422   0.245  16.373  0.6109  0.4603 -0.9860
  381TMC3    C8 5758   2.879   0.263  16.289  0.1715 -0.4479 -0.4600
  381TMC3    O1 5759   2.404   0.123  16.387 -0.0445 -0.1385 -0.1591
  381TMC3    O2 5760   2.960   0.198  16.227 -0.0425  0.7704 -0.0880
  382MPD2     C 5761   2.228   2.591   0.097 -0.4444 -0.5965 -0.2512
  382MPD2    C1 5762   2.085   2.572   0.125  0.2836 -0.0201 -0.0831
  382MPD2    C2 5763   2.028   2.450   0.083  0.0460 -0.1063  0.1137
  382MPD2    C3 5764   2.107   2.361   0.009 -0.5274 -0.4979  0.5946
  382MPD2    C4 5765   2.245   2.374   0.002 -0.5888 -0.3949 -0.0636
  382MPD2    C5 5766   2.305   2.493   0.042 -0.0440  0.0850  0.2555
  382MPD2     H 5767   1.924   2.430   0.103 -0.1945  0.9451 -0.1009
  382MPD2    H1 5768   2.313   2.295  17.698  0.9185  0.8446  0.0765
  382MPD2    H2 5769   2.284   2.678   0.127  0.2670 -0.6366 -1.4705
  382MPD2    H3 5770   2.409   2.508   0.016 -0.1601 -0.8721 -0.7949
  382MPD2     N 5771   2.062   2.242  17.674 -0.5721 -0.1221  0.3315
  382MPD2    H5 5772   2.135   2.178  17.644 -1.4083  0.2574 -2.4748
  382MPD2    N1 5773   2.006   2.656   0.203  0.5916  0.7346 -0.0439
  382MPD2    H7 5774   1.917   2.614   0.230  0.8041 -0.1833 -0.7714
  383TMC3    C1 5775   1.922   2.076  17.608 -0.4558  1.1026  0.1856
  383TMC3    C2 5776   1.855   2.051  17.494 -1.3755  0.7134 -0.0824
  383TMC3    C3 5777   1.815   1.918  17.476 -0.3675 -0.3355  0.6220
  383TMC3    C4 5778   1.956   1.978  17.702 -0.6361 -0.0462 -0.6842
  383TMC3    C5 5779   1.902   1.852  17.685  0.0666 -0.2334  0.0300
  383TMC3    C6 5780   1.841   1.821  17.569 -0.6274 -0.2524  0.4507
  383TMC3     C 5781   1.935   2.212  17.649  0.3242  0.4311 -0.7190
  383TMC3     O 5782   1.837   2.284  17.649 -0.0613  0.5063  0.0519
  383TMC3     H 5783   1.835   2.121  17.414 -2.0456 -1.0613 -1.4720
  383TMC3    H1 5784   2.012   2.011   0.061 -0.2708 -1.9659 -0.2048
  383TMC3    H2 5785   1.807   1.719  17.553 -0.6365 -0.3187  0.8879
  383TMC3    C7 5786   1.884   1.761   0.072 -0.3795  0.6456 -0.2348
  383TMC3    C8 5787   1.769   1.881  17.343  0.1873  0.8708  0.6712
  383TMC3    O1 5788   1.851   1.646   0.049  0.2056  0.5693 -0.5636
  383TMC3    O2 5789   1.702   1.958  17.275  0.4598 -0.2585 -0.8868
  384MPD2     C 5790   2.894   3.740  12.410  0.1311 -0.1143 -0.1160
  384MPD2    C1 5791   2.949   3.625  12.369 -0.0156 -0.1008  0.2155
  384MPD2    C2 5792   3.074   3.630  12.306 -0.4589 -0.0216 -0.2385
  384MPD2    C3 5793   3.139   3.751  12.295  0.2958  0.1563 -0.5786
  384MPD2    C4 5794   3.082   3.869  12.337  1.1934  0.3132 -0.8152
  384MPD2    C5 5795   2.951   3.869  12.387  0.4040 -0.1405  0.1440
  384MPD2     H 5796   3.137   3.543  12.293 -0.2970  0.2506 -1.3108
  384MPD2    H1 5797   3.147   3.956  12.331  0.2485  1.2824  2.9619
  384MPD2    H2 5798   2.798   3.751  12.459 -0.1072 -0.1959 -0.5664
  384MPD2    H3 5799   2.897   3.950  12.434 -2.4561 -1.9340 -0.0297
  384MPD2     N 5800   3.273   3.755  12.245  0.5603  0.2267 -0.0392
  384MPD2    H5 5801   3.325   3.837  12.273  0.8962  0.0957 -0.2855
  384MPD2    N1 5802   2.879   3.501  12.399  0.6820 -0.4472 -0.3143
  384MPD2    H7 5803   2.792   3.514  12.451  0.2433 -0.9003 -0.9408
  385TMC3    C1 5804   3.477   3.662  12.145  0.3673 -0.1355  0.7699
  385TMC3    C2 5805   3.512   3.584  12.040  0.7487  0.4536 -0.4783
  385TMC3    C3 5806   3.610   3.489  12.064 -0.6620 -0.3358 -0.4433
  385TMC3    C4 5807   3.539   3.662  12.265  0.2006 -0.1012  0.0281
  385TMC3    C5 5808   3.613   3.546  12.288 -0.1132 -0.1410  0.1339
  385TMC3    C6 5809   3.649   3.460  12.188  0.3946 -0.4137  0.0745
  385TMC3     C 5810   3.327   3.657  12.166 -0.2309  0.0150  0.4455
  385TMC3     O 5811   3.286   3.556  12.110  0.0668  0.2928 -0.2147
  385TMC3     H 5812   3.461   3.586  11.944 -0.5710 -1.6410  0.1787
  385TMC3    H1 5813   3.497   3.721  12.345 -1.1706 -0.5197 -0.3917
  385TMC3    H2 5814   3.715   3.374  12.199  2.9020  1.4053 -0.8282
  385TMC3    C7 5815   3.546   3.464  12.405 -0.3807  0.3979 -0.3705
  385TMC3    C8 5816   3.671   3.412  11.958  0.6169  0.0741 -0.0657
  385TMC3    O1 5817   3.463   3.529  12.470  0.6746 -0.0022 -0.0616
  385TMC3    O2 5818   3.778   3.362  11.983  0.2335 -0.4323  0.7651
  386TMC3    C1 5819   3.675   1.058  11.939  0.1766 -0.0897  0.3710
  386TMC3    C2 5820   3.687   1.157  11.846  0.6671  0.4634  0.0967
  386TMC3    C3 5821   3.591   1.253  11.844 -0.6687 -0.5587 -0.3886
  386TMC3    C4 5822   3.575   1.050  12.035 -0.2176  0.0006  0.2258
  386TMC3    C5 5823   3.499   1.168  12.042  0.0660 -0.1301  0.0616
  386TMC3    C6 5824   3.505   1.269  11.947  0.7574 -0.1533  0.8585
  386TMC3     C 5825   3.779   0.960  11.950  0.0272  0.0869 -0.1052
  386TMC3     O 5826   3.893   0.995  11.914  1.0723  0.2406 -0.0573
  386TMC3     H 5827   3.769   1.155  11.776  1.4080 -2.9916  1.0539
  386TMC3    H1 5828   3.574   0.981  12.118  2.2134 -0.6023 -0.2405
  386TMC3    H2 5829   3.443   1.357  11.950  0.9480  0.0805 -1.6088
  386TMC3    C7 5830   3.363   1.143  12.078 -0.7754  0.3476  0.3939
  386TMC3    C8 5831   3.512   1.250  11.725  1.2615 -0.1578 -0.6852
  386TMC3    O1 5832   3.354   1.094  12.188  0.1159  0.4400  0.5527
  386TMC3    O2 5833   3.394   1.259  11.747 -0.5138  0.0429  0.1566
  387MPD2     C 5834   0.722   0.934   9.551 -0.5087 -0.1195 -0.4597
  387MPD2    C1 5835   0.851   0.937   9.605  0.2494  0.2669  0.3231
  387MPD2    C2 5836   0.899   0.821   9.664  0.3215  0.6240  0.4523
  387MPD2    C3 5837   0.821   0.705   9.684  0.0532 -0.0494  0.0672
  387MPD2    C4 5838   0.697   0.704   9.629 -0.9220  0.0224  0.4298
  387MPD2    C5 5839   0.651   0.816   9.571 -0.2391  0.2387  0.6655
  387MPD2     H 5840   1.002   0.820   9.698  1.0511  0.3714 -1.7500
  387MPD2    H1 5841   0.619   0.629   9.632 -2.1171  1.1935 -1.6965
  387MPD2    H2 5842   0.674   1.013   9.494  0.8759  0.8008 -0.3569
  387MPD2    H3 5843   0.549   0.810   9.533  0.5073  2.1298 -1.5878
  387MPD2     N 5844   0.880   0.600   9.757 -0.1352  0.0851 -0.1938
  387MPD2    H5 5845   0.976   0.613   9.786  0.0586 -1.4331 -0.1157
  387MPD2    N1 5846   0.944   1.042   9.581 -0.2307 -0.4095 -0.1376
  387MPD2    H7 5847   1.036   1.026   9.621 -0.1719  0.3643  0.0491
  388TMC3    C1 5848   1.010   1.269   9.572 -0.4628 -0.2409  0.0691
  388TMC3    C2 5849   0.975   1.398   9.560  1.0430 -0.0573 -0.2819
  388TMC3    C3 5850   1.056   1.486   9.631  0.3267  0.5461 -0.3139
  388TMC3    C4 5851   1.124   1.220   9.639 -1.0552 -0.1293 -0.3406
  388TMC3    C5 5852   1.185   1.308   9.728 -0.1789 -0.4682  0.4497
  388TMC3    C6 5853   1.145   1.441   9.726  0.2703 -0.8918 -0.4057
  388TMC3     C 5854   0.912   1.168   9.534  0.2763  0.7902  0.5550
  388TMC3     O 5855   0.800   1.212   9.503 -0.8490 -0.4243  0.3772
  388TMC3     H 5856   0.913   1.432   9.478 -0.2139  1.3572  1.2729
  388TMC3    H1 5857   1.164   1.120   9.625 -1.6139 -0.4325  0.2251
  388TMC3    H2 5858   1.180   1.504   9.807 -0.8303  0.7179 -1.1876
  388TMC3    C7 5859   1.245   1.258   9.851  0.3349  0.1955  0.2389
  388TMC3    C8 5860   0.997   1.617   9.648 -0.0624 -0.0588 -0.1221
  388TMC3    O1 5861   1.282   1.344   9.933  0.9139 -0.6561  0.4720
  388TMC3    O2 5862   0.906   1.649   9.572 -0.0081  0.0715 -0.1941
  389MPD2     C 5863   0.702   3.916  11.313 -0.6290 -0.0907  0.3981
  389MPD2    C1 5864   0.613   3.899  11.210 -0.5409 -1.0967 -0.2893
  389MPD2    C2 5865   0.536   3.784  11.218 -0.2985  0.0041 -0.4677
  389MPD2    C3 5866   0.531   3.700  11.318  1.1355 -0.4006 -0.5032
  389MPD2    C4 5867   0.622   3.719  11.422  0.7956 -0.5639  0.2619
  389MPD2    C5 5868   0.708   3.823  11.413 -0.0292  0.1263 -0.2419
  389MPD2     H 5869   0.476   3.764  11.130  1.3224  0.6766 -1.7288
  389MPD2    H1 5870   0.627   3.658  11.512 -3.2204  3.5670  3.2939
  389MPD2    H2 5871   0.765   4.004  11.319 -1.6651  0.6440  0.5909
  389MPD2    H3 5872   0.779   3.832  11.494  0.8744  0.6332 -1.0836
  389MPD2     N 5873   0.448   3.586  11.319 -0.0952  0.5799 -0.0322
  389MPD2    H5 5874   0.452   3.534  11.406  0.8658 -0.9706 -0.9875
  389MPD2    N1 5875   0.622   3.988  11.107  0.7544  0.0651 -0.1326
  389MPD2    H7 5876   0.683   4.068  11.115  0.3026  0.5816 -1.7508
  390TMC3    C1 5877   0.279   3.444  11.231 -0.3638  0.2172  0.3537
  390TMC3    C2 5878   0.306   3.351  11.329 -0.3580  0.5738 -0.6931
  390TMC3    C3 5879   0.245   3.227  11.314 -0.0863  1.0003  0.7544
  390TMC3    C4 5880   0.214   3.407  11.116  0.6579  0.1709 -0.5767
  390TMC3    C5 5881   0.181   3.275  11.089  0.4626 -0.3060  0.3064
  390TMC3    C6 5882   0.200   3.181  11.195  0.1786  0.0629  0.2338
  390TMC3     C 5883   0.352   3.568  11.219 -0.8245 -0.0624 -1.1122
  390TMC3     O 5884   0.316   3.631  11.126 -0.1414 -0.1739 -0.5627
  390TMC3     H 5885   0.343   3.383  11.426  1.2822  0.6338 -1.3389
  390TMC3    H1 5886   0.191   3.483  11.043 -1.5411  0.2376  0.2000
  390TMC3    H2 5887   0.132   3.097  11.183  0.4416 -0.0404 -0.5550
  390TMC3    C7 5888   0.046   3.260  11.040 -0.0524 -0.5470  0.6369
  390TMC3    C8 5889   0.200   3.168  11.441 -0.4399 -0.7959 -0.5137
  390TMC3    O1 5890   0.033   3.194  10.938  0.2216  0.0321  0.7469
  390TMC3    O2 5891   0.248   3.215  11.544 -0.2653  0.6059 -0.2161
  391MPD2     C 5892   4.021   0.676  11.115  0.4338  0.3436  0.0526
  391MPD2    C1 5893   4.151   0.734  11.116  0.4966  0.0706 -0.1060
  391MPD2    C2 5894   4.207   0.785  10.997 -0.3156  0.1932  0.4849
  391MPD2    C3 5895   4.131   0.786  10.883 -0.0005  0.0190 -0.0085
  391MPD2    C4 5896   4.004   0.741  10.893  0.2503 -0.3721 -0.1437
  391MPD2    C5 5897   3.947   0.668  10.999 -0.6484  0.2125 -0.6323
  391MPD2     H 5898   4.310   0.819  10.994 -0.3861  0.6210  2.6351
  391MPD2    H1 5899   3.935   0.755  10.810 -0.7596 -0.5721  0.6621
  391MPD2    H2 5900   3.970   0.648  11.206 -0.7182 -0.7675 -0.9298
  391MPD2    H3 5901   3.843   0.638  10.993  0.4335 -3.6109 -0.0871
  391MPD2     N 5902   4.188   0.834  10.765  0.0627  0.1684  0.4757
  391MPD2    H5 5903   4.285   0.863  10.771  0.2572 -0.1321 -1.3302
  391MPD2    N1 5904   4.209   0.738  11.243  0.1491 -0.0402 -0.4010
  391MPD2    H7 5905   4.148   0.708  11.318  1.9835 -0.0188  1.0869
  392TMC3    C1 5906   4.184   0.925  10.542  0.2085  0.2014  0.2736
  392TMC3    C2 5907   4.123   0.936  10.423  0.4817  0.0718  0.3967
  392TMC3    C3 5908   4.193   0.990  10.323 -0.0507  0.2913  0.6195
  392TMC3    C4 5909   4.305   0.988  10.565 -0.2842  0.0109  0.9152
  392TMC3    C5 5910   4.357   1.061  10.469  0.5737 -0.4904 -0.3599
  392TMC3    C6 5911   4.302   1.057  10.346 -0.3229 -0.1817 -0.0474
  392TMC3     C 5912   4.116   0.839  10.642 -0.1789 -0.2274 -0.0860
  392TMC3     O 5913   4.011   0.799  10.604 -0.2107 -0.0527 -0.2070
  392TMC3     H 5914   4.034   0.886  10.389  0.7406  0.1387 -0.3648
  392TMC3    H1 5915   4.347   0.994  10.665 -0.3687 -0.5798  0.9857
  392TMC3    H2 5916   4.336   1.128  10.272 -0.3053  0.1647  0.2913
  392TMC3    C7 5917   4.468   1.143  10.499 -0.9072  1.2247  0.4539
  392TMC3    C8 5918   4.109   1.045  10.219  0.9626 -1.1385  0.0270
  392TMC3    O1 5919   4.483   1.175  10.617 -0.2533 -0.5347  0.1678
  392TMC3    O2 5920   3.994   1.053  10.254  0.0062 -0.2837  0.0939
  393TMC3    C1 5921   3.428   3.608  10.620 -0.1679  0.2017  0.3227
  393TMC3    C2 5922   3.422   3.593  10.756 -0.4915 -0.2615  0.7673
  393TMC3    C3 5923   3.535   3.537  10.806  0.7240  0.0542 -0.2535
  393TMC3    C4 5924   3.530   3.573  10.538 -0.2374  0.5259  0.5503
  393TMC3    C5 5925   3.644   3.531  10.598 -0.6913 -0.3478  0.3561
  393TMC3    C6 5926   3.648   3.517  10.737  0.0102 -0.1107 -0.4116
  393TMC3     C 5927   3.363   3.730  10.579  0.0443 -0.4353 -0.1750
  393TMC3     O 5928   3.274   3.729  10.491  0.2788  0.4642  0.7445
  393TMC3     H 5929   3.340   3.630  10.817 -0.3367 -1.8513  1.9421
  393TMC3    H1 5930   3.526   3.597  10.432 -1.4718  3.7649  1.3238
  393TMC3    H2 5931   3.738   3.482  10.787 -0.2951 -0.6444 -0.2399
  393TMC3    C7 5932   3.746   3.482  10.511 -0.2106 -0.1413 -1.0343
  393TMC3    C8 5933   3.551   3.526  10.947 -0.3978  0.3850  0.3733
  393TMC3    O1 5934   3.696   3.423  10.416 -0.8534 -0.4196 -0.2385
  393TMC3    O2 5935   3.664   3.547  10.994  0.1949 -0.0004 -0.2542
  394TMC3    C1 5936   0.603   4.066  10.884 -0.2856  0.9372 -0.1585
  394TMC3    C2 5937   0.535   4.061  10.758 -0.7837 -0.3757  0.3476
  394TMC3    C3 5938   0.555   4.171  10.671  0.5149  0.0899  0.1509
  394TMC3    C4 5939   0.669   4.177  10.921  0.1030  0.7599  0.0563
  394TMC3    C5 5940   0.685   4.282  10.836  0.7769  0.4729 -0.7692
  394TMC3    C6 5941   0.618   4.282  10.716  1.0591 -0.7309  0.0627
  394TMC3     C 5942   0.556   3.972  10.987 -0.1748 -0.1358 -0.1109
  394TMC3     O 5943   0.458   3.908  10.960 -0.5089  0.0415  0.5539
  394TMC3     H 5944   0.505   3.967  10.715 -2.7489 -0.6319  2.2950
  394TMC3    H1 5945   0.736   4.176  11.006  2.7497  1.8734 -1.9955
  394TMC3    H2 5946   0.647   4.359  10.644 -0.1133  0.7374  1.1675
  394TMC3    C7 5947   0.792   4.386  10.849  0.3066 -0.0072 -0.2420
  394TMC3    C8 5948   0.541   4.156  10.529  0.2482  0.4319  0.8654
  394TMC3    O1 5949   0.759   4.499  10.816 -0.0371 -0.7708 -0.8537
  394TMC3    O2 5950   0.512   4.257  10.468  0.2595 -0.0524  1.0013
  395TMC3    C1 5951   0.090   1.305  14.782 -0.5841  0.3664  0.9076
  395TMC3    C2 5952   0.091   1.242  14.666 -0.1334  0.1049 -0.4366
  395TMC3    C3 5953   0.158   1.305  14.562  0.4143 -0.8261  0.2003
  395TMC3    C4 5954   0.149   1.429  14.797  0.2871 -0.0303 -0.5603
  395TMC3    C5 5955   0.219   1.479  14.692  0.1202 -0.5951 -0.6386
  395TMC3    C6 5956   0.225   1.421  14.575  0.2788 -0.1928 -1.0447
  395TMC3     C 5957   0.043   1.252  14.907 -0.2988 -0.0471 -0.0209
  395TMC3     O 5958   0.093   1.298  15.010  0.0322  0.1265  0.2651
  395TMC3     H 5959   0.051   1.141  14.660 -1.5824  0.5932  1.0600
  395TMC3    H1 5960   0.139   1.485  14.889 -0.1235 -2.3653  0.8117
  395TMC3    H2 5961   0.289   1.438  14.490 -0.3695  1.5800 -1.1949
  395TMC3    C7 5962   0.290   1.602  14.725 -0.3735 -0.3443  0.2693
  395TMC3    C8 5963   0.148   1.254  14.423 -0.0689 -0.1752 -0.0170
  395TMC3    O1 5964   0.311   1.636  14.840  0.2920 -0.1098 -0.7187
  395TMC3    O2 5965   0.150   1.330  14.330 -0.2521  0.0695  0.0642
  396MPD2     C 5966   0.673   2.135   0.090 -0.4460 -0.8248 -0.1064
  396MPD2    C1 5967   0.739   2.118  17.703 -0.5350 -0.4080 -0.1345
  396MPD2    C2 5968   0.731   2.219  17.611  0.6263  0.4958 -0.7917
  396MPD2    C3 5969   0.653   2.335  17.627  0.0697 -0.2192  0.7547
  396MPD2    C4 5970   0.581   2.351   0.018 -0.3162 -0.3919  0.3268
  396MPD2    C5 5971   0.591   2.247   0.112  0.2635 -0.1526 -0.1116
  396MPD2     H 5972   0.771   2.206  17.511 -2.5731  0.7498 -2.1054
  396MPD2    H1 5973   0.508   2.430   0.033  2.1049  1.7924  0.5416
  396MPD2    H2 5974   0.668   2.059   0.167  3.3651  0.3554  1.2761
  396MPD2    H3 5975   0.537   2.249   0.205  1.6615 -0.9948  0.7151
  396MPD2     N 5976   0.652   2.433  17.525 -0.4204  0.0195  0.5799
  396MPD2    H5 5977   0.686   2.409  17.433 -2.9215 -2.8327  0.3781
  396MPD2    N1 5978   0.817   2.001  17.697 -0.3945  0.6334  0.5770
  396MPD2    H7 5979   0.805   1.929   0.039 -2.4961  1.1109  0.7010
  397TMC3    C1 5980   0.908   1.816  17.576 -0.5840  0.3133 -0.0457
  397TMC3    C2 5981   0.968   1.794  17.456  0.3093  0.4259  0.1853
  397TMC3    C3 5982   0.911   1.718  17.353 -0.2295 -0.1923 -0.1795
  397TMC3    C4 5983   0.796   1.744  17.602 -0.1198  0.4424  0.0226
  397TMC3    C5 5984   0.753   1.648  17.512 -0.9517 -0.3679  1.1424
  397TMC3    C6 5985   0.813   1.629  17.386  0.3934  0.0009  0.2616
  397TMC3     C 5986   0.895   1.962  17.590  0.9160 -0.0342 -0.0214
  397TMC3     O 5987   0.917   2.027  17.489  0.4154  0.1225  0.0293
  397TMC3     H 5988   1.052   1.859  17.436  0.3559 -0.3729 -2.2083
  397TMC3    H1 5989   0.749   1.754  17.699 -4.4580  0.9844 -2.1831
  397TMC3    H2 5990   0.760   1.574  17.309 -2.1818  1.4516  0.9854
  397TMC3    C7 5991   0.641   1.565  17.538  0.4056  0.3488 -0.0842
  397TMC3    C8 5992   0.910   1.774  17.221  0.0868 -0.1640 -0.0818
  397TMC3    O1 5993   0.639   1.452  17.494  0.0509 -0.5003 -0.1625
  397TMC3    O2 5994   0.835   1.716  17.142 -0.9918 -0.3351 -0.1538
  398MPD2     C 5995   2.861   3.803   0.422  0.0017 -0.2977  0.0892
  398MPD2    C1 5996   2.989   3.756   0.388  0.1208  0.9381  0.6827
  398MPD2    C2 5997   3.096   3.848   0.370 -0.7717  0.0086 -0.1998
  398MPD2    C3 5998   3.075   3.987   0.383  0.0539 -0.2680  0.0183
  398MPD2    C4 5999   2.946   4.032   0.405  0.1102 -0.1564  0.7860
  398MPD2    C5 6000   2.847   3.937   0.414  0.0348  0.1200  0.4696
  398MPD2     H 6001   3.198   3.812   0.360  0.0836  1.9536  1.6640
  398MPD2    H1 6002   2.910   4.134   0.398 -0.2818 -0.2504  1.5184
  398MPD2    H2 6003   2.766   3.753   0.441 -0.6600  0.5160 -1.0978
  398MPD2    H3 6004   2.744   3.971   0.411 -0.0122 -0.2011 -2.2435
  398MPD2     N 6005   3.187   4.075   0.384  0.1556 -0.0308 -0.5434
  398MPD2    H5 6006   3.283   4.043   0.371 -0.2756 -1.1865 -0.8495
  398MPD2    N1 6007   3.015   3.618   0.394  0.3668 -0.1988 -0.1673
  398MPD2    H7 6008   3.111   3.588   0.380  1.1550  2.4963 -0.6124
  399TMC3    C1 6009   2.967   3.381   0.400 -0.0032  0.2118  0.0288
  399TMC3    C2 6010   3.106   3.361   0.406  0.9718 -0.5753 -0.3996
  399TMC3    C3 6011   3.147   3.233   0.399 -0.1054 -0.9579  0.3840
  399TMC3    C4 6012   2.878   3.282   0.386 -0.3269  0.3183  0.3761
  399TMC3    C5 6013   2.926   3.155   0.385  0.5395 -0.0814 -0.7402
  399TMC3    C6 6014   3.060   3.133   0.387 -0.6975 -0.2027 -0.4242
  399TMC3     C 6015   2.918   3.521   0.400 -0.8876 -0.4550  0.1172
  399TMC3     O 6016   2.796   3.529   0.418 -0.2757  0.3422  0.7341
  399TMC3     H 6017   3.174   3.440   0.436 -0.2017 -0.5806  2.2724
  399TMC3    H1 6018   2.771   3.299   0.390 -0.3574  0.3788 -0.5875
  399TMC3    H2 6019   3.101   3.033   0.379 -0.3869 -0.1697  0.6401
  399TMC3    C7 6020   2.830   3.048   0.384 -0.1749  0.2823 -1.0588
  399TMC3    C8 6021   3.286   3.201   0.413 -1.0281  0.3824 -0.5273
  399TMC3    O1 6022   2.717   3.071   0.423 -0.2570  0.1662 -0.0737
  399TMC3    O2 6023   3.353   3.285   0.475  0.2579 -0.0568 -0.1296
  400TMC3    C1 6024   2.023   1.846  17.022  0.2995  0.0985  0.1600
  400TMC3    C2 6025   1.920   1.795  16.945 -0.3346 -0.1514 -0.0876
  400TMC3    C3 6026   1.824   1.884  16.925  0.5829 -0.1721  0.2695
  400TMC3    C4 6027   2.027   1.977  17.072 -0.3089  0.6642 -0.8365
  400TMC3    C5 6028   1.923   2.067  17.048 -0.6541 -0.2318  0.6142
  400TMC3    C6 6029   1.815   2.014  16.984 -0.5723  0.3819 -0.6915
  400TMC3     C 6030   2.096   1.748  17.093 -0.1309 -0.2226  0.8745
  400TMC3     O 6031   2.107   1.643  17.031 -0.1809  0.3721 -0.1186
  400TMC3     H 6032   1.922   1.697  16.899 -0.3375  0.1578 -0.7492
  400TMC3    H1 6033   2.113   2.017  17.124  0.5312 -0.9684 -0.9992
  400TMC3    H2 6034   1.740   2.087  16.957 -0.2272  0.5476 -1.2030
  400TMC3    C7 6035   1.920   2.189  17.109 -0.2630 -0.0903 -0.4269
  400TMC3    C8 6036   1.697   1.844  16.863  0.1913 -0.4428  0.7483
  400TMC3    O1 6037   2.029   2.247  17.129 -0.5235 -0.0641  0.8189
  400TMC3    O2 6038   1.592   1.904  16.892  0.0448 -0.0266 -0.3439
  401MPD2     C 6039   4.380   0.976   0.865  0.0007 -0.0954 -0.0102
  401MPD2    C1 6040   4.487   0.939   0.936  0.2053  0.1788 -0.3933
  401MPD2    C2 6041   4.537   0.815   0.923  0.0749 -0.6831 -0.4668
  401MPD2    C3 6042   4.479   0.718   0.841 -0.6213 -0.0004 -0.0821
  401MPD2    C4 6043   4.360   0.753   0.770 -0.0473 -0.4946 -0.4785
  401MPD2    C5 6044   4.318   0.882   0.788 -0.3656  0.7201  0.4154
  401MPD2     H 6045   4.635   0.793   0.965 -0.4952 -1.4034  0.4746
  401MPD2    H1 6046   4.291   0.689   0.716  0.7891 -1.7396 -0.0826
  401MPD2    H2 6047   4.329   1.071   0.867 -0.0933 -0.1305 -1.0239
  401MPD2    H3 6048   4.233   0.920   0.732 -1.0678  0.1329  1.0949
  401MPD2     N 6049   4.533   0.592   0.842  0.0294  0.5564  1.0215
  401MPD2    H5 6050   4.615   0.575   0.899 -0.8005 -1.4230  1.6411
  401MPD2    N1 6051   4.547   1.026   1.031  0.3001 -0.5213 -0.1994
  401MPD2    H7 6052   4.632   0.993   1.074  0.5023  1.3125  0.8205
  402TMC3    C1 6053   4.570   0.371   0.763 -0.3161  0.6174 -0.7951
  402TMC3    C2 6054   4.603   0.337   0.893  0.1974 -0.0458 -0.0308
  402TMC3    C3 6055   4.646   0.209   0.920 -0.0711 -0.3253 -1.2205
  402TMC3    C4 6056   4.571   0.280   0.660  0.4846 -0.2635  0.4625
  402TMC3    C5 6057   4.631   0.159   0.688 -0.6376 -0.2250  0.4153
  402TMC3    C6 6058   4.678   0.132   0.813 -0.4707  0.0271  0.1141
  402TMC3     C 6059   4.488   0.497   0.750 -0.5530  0.5517 -0.2566
  402TMC3     O 6060   4.413   0.508   0.652 -0.5443 -0.1137 -0.0288
  402TMC3     H 6061   4.583   0.409   0.972  2.0435  1.7744 -1.2155
  402TMC3    H1 6062   4.537   0.315   0.563  0.8042 -0.0763  0.4167
  402TMC3    H2 6063   0.001   0.038   0.825 -1.9809 -0.7251  1.1760
  402TMC3    C7 6064   4.621   0.057   0.588  1.4929 -0.7237 -0.0481
  402TMC3    C8 6065   4.723   0.188   1.042  0.0560 -0.7665 -0.0867
  402TMC3    O1 6066   4.538   0.083   0.510  0.2183 -0.1344  0.5798
  402TMC3    O2 6067   0.063   0.091   1.049 -0.0452  0.6324 -0.0559
  403MPD2     C 6068   2.691   3.211  13.709  0.2172 -0.2928 -0.2792
  403MPD2    C1 6069   2.773   3.121  13.775 -0.2985 -0.5370  0.3830
  403MPD2    C2 6070   2.849   3.162  13.884  0.6394 -0.1742 -0.0520
  403MPD2    C3 6071   2.853   3.293  13.926 -0.5494  0.3465 -0.1633
  403MPD2    C4 6072   2.761   3.380  13.861 -0.4179  0.7004  0.1351
  403MPD2    C5 6073   2.689   3.342  13.746 -0.3205  0.1337  0.9557
  403MPD2     H 6074   2.910   3.089  13.935  1.2399  1.6688  1.8370
  403MPD2    H1 6075   2.764   3.485  13.889  1.9110  1.1366 -1.7187
  403MPD2    H2 6076   2.625   3.191  13.626 -0.7723  2.1039 -0.0700
  403MPD2    H3 6077   2.611   3.399  13.696  0.6987 -1.2827 -2.2575
  403MPD2     N 6078   2.927   3.322  14.043 -0.2095 -0.7795 -0.2837
  403MPD2    H5 6079   2.995   3.252  14.071  0.2534  0.1260  0.8273
  403MPD2    N1 6080   2.753   2.982  13.746  0.6111  0.6559 -0.6847
  403MPD2    H7 6081   2.701   2.957  13.663 -2.1876  0.9692  0.9718
  404TMC3    C1 6082   2.764   2.744  13.776 -0.2648 -0.2790  0.2301
  404TMC3    C2 6083   2.757   2.643  13.866 -1.1076 -0.1009 -0.2290
  404TMC3    C3 6084   2.729   2.512  13.826 -0.7398 -0.3432 -0.8240
  404TMC3    C4 6085   2.715   2.726  13.642  1.1676 -0.2953 -0.0352
  404TMC3    C5 6086   2.706   2.600  13.603 -0.3598 -0.3723 -0.8374
  404TMC3    C6 6087   2.712   2.495  13.691  0.1207 -0.1678  0.2618
  404TMC3     C 6088   2.797   2.874  13.822 -0.7870  0.2269  0.2327
  404TMC3     O 6089   2.835   2.876  13.936  0.2007 -0.7813 -0.1716
  404TMC3     H 6090   2.790   2.663  13.967 -1.0056  0.1658 -0.3134
  404TMC3    H1 6091   2.735   2.802  13.567 -0.7614  2.2806  2.0635
  404TMC3    H2 6092   2.698   2.394  13.655  1.8847 -0.2655 -0.1829
  404TMC3    C7 6093   2.685   2.576  13.458 -0.9111  0.1008  0.7342
  404TMC3    C8 6094   2.759   2.401  13.916 -0.0950  0.1870 -0.3035
  404TMC3    O1 6095   2.637   2.670  13.393 -0.2582 -0.0618 -0.4611
  404TMC3    O2 6096   2.799   2.298  13.862  0.1620  0.1619  0.2946
  405MPD2     C 6097   3.419   3.989  15.167  0.9714 -0.4286  0.0735
  405MPD2    C1 6098   3.364   3.881  15.100 -0.8366 -0.1981  0.5699
  405MPD2    C2 6099   3.240   3.894  15.058  0.3647 -0.7042 -0.3001
  405MPD2    C3 6100   3.163   4.010  15.063  0.4132  0.1764  0.3190
  405MPD2    C4 6101   3.228   4.120  15.123 -0.1221 -0.2247  0.2968
  405MPD2    C5 6102   3.353   4.115  15.173 -0.1401 -0.0032  0.6152
  405MPD2     H 6103   3.183   3.816  15.008 -2.6271  1.4132 -0.1797
  405MPD2    H1 6104   3.172   4.212  15.122 -1.2331 -0.8920  0.9970
  405MPD2    H2 6105   3.516   3.979  15.214  0.9081  3.3326  1.0290
  405MPD2    H3 6106   3.390   4.206  15.219 -0.2868  1.9123 -3.0274
  405MPD2     N 6107   3.032   4.004  15.002 -0.1962  0.8302  0.2957
  405MPD2    H5 6108   3.002   3.917  14.959  2.2701 -0.8358  1.8841
  405MPD2    N1 6109   3.436   3.761  15.098  0.4630 -0.4934  0.0541
  405MPD2    H7 6110   3.531   3.752  15.131  0.2888  1.0509  0.9846
  406TMC3    C1 6111   2.685   4.116  14.721 -0.7426 -0.1016  0.8876
  406TMC3    C2 6112   2.665   3.990  14.689  0.7992  0.7040 -0.6728
  406TMC3    C3 6113   2.733   3.892  14.759  0.5476 -0.1737  0.5287
  406TMC3    C4 6114   2.759   4.155  14.830 -0.3059  0.3863  0.8078
  406TMC3    C5 6115   2.832   4.059  14.901  0.4933  0.5583  0.3710
  406TMC3    C6 6116   2.824   3.929  14.863  1.0554  0.4367  0.0881
  406TMC3     C 6117   2.618   4.215  14.646  0.1563 -0.0304 -0.0643
  406TMC3     O 6118   2.579   4.312  14.705 -0.3700 -0.5144 -0.5964
  406TMC3     H 6119   2.601   3.954  14.609 -1.8423 -3.0944  3.1204
  406TMC3    H1 6120   2.790   4.258  14.848  0.5702  0.3297 -0.3419
  406TMC3    H2 6121   2.874   3.851  14.920  0.7363  0.0334 -0.1872
  406TMC3    C7 6122   2.938   4.097  14.992 -0.3259 -0.1550  0.3408
  406TMC3    C8 6123   2.730   3.753  14.721 -0.2723  0.7486  0.3914
  406TMC3    O1 6124   2.956   4.213  15.019  0.8355 -0.3399 -0.4058
  406TMC3    O2 6125   2.632   3.685  14.694 -0.2453 -0.2121  0.7111
  407MPD2     C 6126   0.727   1.266   9.831 -0.2868  0.3195  0.4854
  407MPD2    C1 6127   0.742   1.399   9.858  0.2412 -0.1412 -0.6791
  407MPD2    C2 6128   0.820   1.435   9.972  0.3484 -0.1846  0.6233
  407MPD2    C3 6129   0.895   1.340  10.038  0.0267 -0.5998  1.0482
  407MPD2    C4 6130   0.893   1.209   9.991  0.0212  0.3354  0.2387
  407MPD2    C5 6131   0.803   1.172   9.894  0.2572 -0.4705 -0.0949
  407MPD2     H 6132   0.832   1.537  10.007  2.8911  0.7689 -3.0241
  407MPD2    H1 6133   0.960   1.135  10.033  1.1399  0.0616 -2.0281
  407MPD2    H2 6134   0.664   1.230   9.751 -0.3893 -0.8802  1.0927
  407MPD2    H3 6135   0.808   1.073   9.852 -1.9539 -1.0844  1.1048
  407MPD2     N 6136   0.985   1.384  10.137 -0.6605 -0.8116 -0.4571
  407MPD2    H5 6137   0.988   1.484  10.155  0.5163 -0.6239 -1.7623
  407MPD2    N1 6138   0.684   1.492   9.766 -0.4586 -0.2623  0.6934
  407MPD2    H7 6139   0.634   1.453   9.687  0.2844 -1.2541  0.7051
  408TMC3    C1 6140   0.612   1.697   9.684  0.1954 -0.1937 -0.4377
  408TMC3    C2 6141   0.620   1.640   9.563 -0.3732  0.0194 -0.2103
  408TMC3    C3 6142   0.558   1.704   9.464  0.1611  0.3123 -0.6731
  408TMC3    C4 6143   0.529   1.799   9.720  0.1869 -0.4330 -0.4052
  408TMC3    C5 6144   0.449   1.848   9.619  0.1375 -0.8505  0.5449
  408TMC3    C6 6145   0.464   1.803   9.488 -0.9958  0.1697  0.1273
  408TMC3     C 6146   0.666   1.626   9.794 -0.0349  0.5713  0.5644
  408TMC3     O 6147   0.674   1.685   9.904  0.7117 -0.3925  1.0010
  408TMC3     H 6148   0.678   1.553   9.533 -2.6190 -1.6288  0.2309
  408TMC3    H1 6149   0.523   1.847   9.817 -0.8120 -3.7808  1.2043
  408TMC3    H2 6150   0.420   1.854   9.403 -1.7714 -1.6619 -0.5471
  408TMC3    C7 6151   0.360   1.962   9.642  0.7762 -1.1249 -0.3861
  408TMC3    C8 6152   0.603   1.678   9.330  0.3131 -0.2622  0.1322
  408TMC3    O1 6153   0.331   2.038   9.552 -0.4049  0.1142 -0.4378
  408TMC3    O2 6154   0.536   1.715   9.234  0.3823 -0.7137  0.3410
  409MPD2     C 6155   0.542   1.203  17.016  0.1938  0.6770  0.0981
  409MPD2    C1 6156   0.674   1.154  17.020  0.9143  0.3887  0.0829
  409MPD2    C2 6157   0.776   1.242  16.994  0.0804 -0.3871  0.4441
  409MPD2    C3 6158   0.754   1.378  16.966 -0.3836  0.5460 -0.4524
  409MPD2    C4 6159   0.627   1.417  16.966  0.0097 -0.6176 -0.3454
  409MPD2    C5 6160   0.517   1.334  16.989  0.1899  1.0207  0.0203
  409MPD2     H 6161   0.877   1.204  16.990  0.0538 -0.5978  1.7351
  409MPD2    H1 6162   0.614   1.520  16.936  0.8153 -1.0399 -2.1683
  409MPD2    H2 6163   0.461   1.131  17.019 -0.3562  1.3214  0.9760
  409MPD2    H3 6164   0.417   1.375  16.994  0.0402  0.8863 -1.7942
  409MPD2     N 6165   0.848   1.475  16.932 -0.2113 -0.3139 -0.1876
  409MPD2    H5 6166   0.810   1.563  16.899  0.8470  0.8142  1.6396
  409MPD2    N1 6167   0.711   1.023  17.068  0.8333 -0.0997 -0.1167
  409MPD2    H7 6168   0.809   0.999  17.071  0.5980 -1.1235 -0.6525
  410TMC3    C1 6169   1.056   1.581  16.916  0.1160 -0.1760 -0.4047
  410TMC3    C2 6170   1.174   1.589  16.983 -0.1339  0.7265 -0.0357
  410TMC3    C3 6171   1.251   1.693  16.948 -0.9205  0.6865  0.2623
  410TMC3    C4 6172   1.009   1.674  16.826  0.1355  0.4362  0.2993
  410TMC3    C5 6173   1.085   1.784  16.807 -0.4382  0.6438  0.1332
  410TMC3    C6 6174   1.205   1.795  16.875 -0.0382  0.1203  0.1960
  410TMC3     C 6175   0.985   1.456  16.933  0.7529 -0.1409  0.1966
  410TMC3     O 6176   1.041   1.370  16.999  0.1297  0.5513 -0.1114
  410TMC3     H 6177   1.193   1.518  17.063  1.2273  2.8321  1.5251
  410TMC3    H1 6178   0.917   1.663  16.771 -0.5639  0.1581  1.5218
  410TMC3    H2 6179   1.273   1.875  16.850 -0.4600 -0.1109 -1.7072
  410TMC3    C7 6180   1.072   1.852  16.680 -0.1685  0.0735 -0.6331
  410TMC3    C8 6181   1.361   1.725  17.037 -0.5992 -0.0937 -0.2247
  410TMC3    O1 6182   1.018   1.784  16.594  0.0936 -0.8119  0.7558
  410TMC3    O2 6183   1.371   1.835  17.084 -0.1582 -0.4772 -0.4873
  411MPD2     C 6184   0.622   2.524  14.683  0.7475 -0.3589 -0.3921
  411MPD2    C1 6185   0.584   2.459  14.800  0.2717 -0.1484  0.1796
  411MPD2    C2 6186   0.495   2.346  14.790  0.1200 -0.1333  0.0432
  411MPD2    C3 6187   0.448   2.309  14.671 -1.0053 -0.6994  0.3841
  411MPD2    C4 6188   0.487   2.378  14.557 -0.1240  0.8065 -0.3703
  411MPD2    C5 6189   0.566   2.489  14.563  0.0916 -0.0043 -0.4097
  411MPD2     H 6190   0.462   2.293  14.878  2.0772  0.2418  1.0077
  411MPD2    H1 6191   0.434   2.368  14.463 -0.1420  0.5450 -0.3324
  411MPD2    H2 6192   0.688   2.609  14.669 -2.2263  1.7892 -1.2247
  411MPD2    H3 6193   0.600   2.550  14.481  2.2367 -1.3083 -0.4898
  411MPD2     N 6194   0.364   2.199  14.634 -1.0127 -0.4175 -0.5520
  411MPD2    H5 6195   0.354   2.189  14.533  1.0916 -1.0530 -0.6821
  411MPD2    N1 6196   0.639   2.509  14.925  0.6578  0.1731 -0.2354
  411MPD2    H7 6197   0.680   2.601  14.925  0.8699  0.0898  1.0132
  412TMC3    C1 6198   0.177   2.054  14.663 -0.3432  0.2330  0.3321
  412TMC3    C2 6199   0.105   2.112  14.564  0.3458 -0.8490  0.2005
  412TMC3    C3 6200   4.708   2.081  14.560 -0.6345 -0.6179  0.0525
  412TMC3    C4 6201   0.123   1.955  14.741 -0.2117 -0.5626 -0.1222
  412TMC3    C5 6202   4.730   1.920  14.727 -0.1393 -0.5081 -0.4724
  412TMC3    C6 6203   4.647   1.996  14.649 -0.7289  0.1224  0.3088
  412TMC3     C 6204   0.290   2.121  14.725 -0.7254  0.2099  0.4023
  412TMC3     O 6205   0.290   2.134  14.849  0.1605 -0.1992 -0.1973
  412TMC3     H 6206   0.154   2.171  14.488  3.4638 -1.3598  1.8159
  412TMC3    H1 6207   0.188   1.897  14.806  1.5038  0.6310 -0.7793
  412TMC3    H2 6208   4.541   1.976  14.635 -0.7937 -0.5681  1.7171
  412TMC3    C7 6209   4.693   1.789  14.719 -0.0137  0.5930  0.3464
  412TMC3    C8 6210   4.652   2.054  14.432 -0.2163 -0.7815  0.1656
  412TMC3    O1 6211   4.725   1.717  14.813  0.7533 -0.2438  0.2837
  412TMC3    O2 6212   4.562   1.969  14.421  0.2958 -0.7076  0.1754
  413MPD2     C 6213   2.493   0.520  15.376  0.9378  0.7784  0.0958
  413MPD2    C1 6214   2.436   0.428  15.288 -0.0954 -0.3132 -0.1544
  413MPD2    C2 6215   2.512   0.316  15.260  0.2332  0.4120  0.1498
  413MPD2    C3 6216   2.625   0.280  15.326  0.2302 -0.3273  1.1584
  413MPD2    C4 6217   2.677   0.372  15.416 -0.1764 -0.1550  0.3396
  413MPD2    C5 6218   2.609   0.487  15.442 -0.5200  0.0389  0.0420
  413MPD2     H 6219   2.474   0.256  15.179  0.6037  0.1725  0.1533
  413MPD2    H1 6220   2.775   0.354  15.459 -0.0682  0.1924  0.2348
  413MPD2    H2 6221   2.446   0.614  15.399  0.3285  0.6951 -0.8229
  413MPD2    H3 6222   2.660   0.553  15.512 -0.8222  0.4435 -0.1214
  413MPD2     N 6223   2.688   0.165  15.282  0.4042  0.9883  0.0438
  413MPD2    H5 6224   2.629   0.099  15.233  0.6576  1.2808 -0.6683
  413MPD2    N1 6225   2.305   0.454  15.243  0.3504  0.2103 -0.4676
  413MPD2    H7 6226   2.264   0.540  15.280  1.4995  1.1673 -1.4315
  414TMC3    C1 6227   2.851   4.732  15.254  0.0159 -0.3817 -0.3661
  414TMC3    C2 6228   2.915   4.641  15.335 -0.8139  0.3882  0.0490
  414TMC3    C3 6229   2.929   4.518  15.280  1.1831  0.4885  0.2796
  414TMC3    C4 6230   2.795   4.702  15.127 -0.5110  1.2249  0.8831
  414TMC3    C5 6231   2.801   4.570  15.095 -0.3359  1.0054  0.3979
  414TMC3    C6 6232   2.865   4.477  15.171  0.9338  0.1503  0.3057
  414TMC3     C 6233   2.812   0.126  15.320  0.1327  0.0968  0.1630
  414TMC3     O 6234   2.881   0.169  15.413  0.5020  0.0511 -0.0254
  414TMC3     H 6235   2.971   4.668  15.424 -0.8815 -2.1937  0.8590
  414TMC3    H1 6236   2.742   0.041  15.065  0.1273  1.5159  0.6678
  414TMC3    H2 6237   2.855   4.376  15.133  0.0410  0.1232  0.5952
  414TMC3    C7 6238   2.712   4.520  14.989 -0.3279  0.2182 -0.0747
  414TMC3    C8 6239   3.001   4.427  15.362 -0.0162 -1.0767 -0.2115
  414TMC3    O1 6240   2.598   4.512  15.025 -0.4383  0.2259  0.2344
  414TMC3    O2 6241   2.949   4.316  15.364  0.0505 -0.1179  0.0859
  415TMC3    C1 6242   2.745   3.375  10.100  0.0851  0.1514  0.4381
  415TMC3    C2 6243   2.852   3.399  10.029  0.0340  0.4396 -0.2898
  415TMC3    C3 6244   2.850   3.363   9.901 -0.3390 -0.8444  0.4030
  415TMC3    C4 6245   2.634   3.308  10.049  0.3512  0.0739  0.7280
  415TMC3    C5 6246   2.632   3.271   9.922  0.7582  0.0791  0.8547
  415TMC3    C6 6247   2.738   3.307   9.845  0.5422  0.1261 -0.4881
  415TMC3     C 6248   2.761   3.386  10.251 -0.2895  0.3709 -0.3524
  415TMC3     O 6249   2.670   3.330  10.313  0.7574 -0.1889 -0.2636
  415TMC3     H 6250   2.946   3.425  10.074 -0.0702  2.2415 -1.1116
  415TMC3    H1 6251   2.543   3.298  10.107 -1.3295 -0.1837 -1.9131
  415TMC3    H2 6252   2.742   3.272   9.742 -1.5477 -2.1386  0.1925
  415TMC3    C7 6253   2.534   3.186   9.868  0.5051  0.3084  0.6413
  415TMC3    C8 6254   2.965   3.374   9.816 -0.9983  0.2878  0.9660
  415TMC3    O1 6255   2.532   3.164   9.748  0.6631 -0.5091  0.0422
  415TMC3    O2 6256   2.963   3.303   9.717 -0.4766  0.3770 -0.2869
  416MPD2     C 6257   4.591   1.599  11.209 -0.8785 -0.2438 -0.3058
  416MPD2    C1 6258   4.483   1.643  11.130  0.1057  0.0500 -0.4594
  416MPD2    C2 6259   4.442   1.570  11.013  0.5787 -0.0479 -0.2465
  416MPD2    C3 6260   4.502   1.446  10.994  0.8004  0.2582  0.3642
  416MPD2    C4 6261   4.615   1.411  11.071 -0.4324 -0.2240 -0.3152
  416MPD2    C5 6262   4.658   1.484  11.181 -0.5662 -0.3881 -0.0262
  416MPD2     H 6263   4.355   1.603  10.959  0.9538 -0.8207 -1.3277
  416MPD2    H1 6264   4.661   1.314  11.055  1.5671  0.6086  0.3882
  416MPD2    H2 6265   4.612   1.655  11.299 -0.1910  0.1520 -0.7166
  416MPD2    H3 6266   0.014   1.464  11.242 -1.5517 -1.9857  0.8662
  416MPD2     N 6267   4.455   1.344  10.913 -0.7027 -0.1074  0.0802
  416MPD2    H5 6268   4.508   1.258  10.910  1.9592  1.5759 -0.4165
  416MPD2    N1 6269   4.422   1.766  11.165  0.2647  0.0335 -0.3957
  416MPD2    H7 6270   4.464   1.821  11.239 -0.1130 -0.6796  0.3487
  417TMC3    C1 6271   4.264   1.925  11.183  0.1023  0.4995  0.5923
  417TMC3    C2 6272   4.248   1.886  11.317 -0.0008  0.0685  0.4411
  417TMC3    C3 6273   4.160   1.960  11.395  0.6153  0.1398 -0.5192
  417TMC3    C4 6274   4.198   2.028  11.127 -0.6752  0.5063 -0.4666
  417TMC3    C5 6275   4.114   2.104  11.212  0.6482 -0.2021  0.5947
  417TMC3    C6 6276   4.087   2.061  11.335 -0.5429  0.1921 -0.0242
  417TMC3     C 6277   4.323   1.825  11.096  1.0772  0.6525 -0.3911
  417TMC3     O 6278   4.264   1.807  10.993 -0.8297 -0.4011 -0.2155
  417TMC3     H 6279   4.301   1.800  11.357 -2.1062 -1.1916  0.4926
  417TMC3    H1 6280   4.204   2.046  11.020 -0.2651  3.7646  0.1253
  417TMC3    H2 6281   4.018   2.118  11.396  0.3323  0.3070  0.8745
  417TMC3    C7 6282   4.034   2.208  11.143 -0.8590  0.1790 -0.0716
  417TMC3    C8 6283   4.144   1.939  11.544 -0.0340  0.3540  0.0373
  417TMC3    O1 6284   4.038   2.206  11.018  0.1909 -0.3575 -0.2802
  417TMC3    O2 6285   4.068   2.010  11.602  0.4008  0.0626 -0.1706
  418TMC3    C1 6286   3.511   4.267   0.297  0.4284  0.8867 -0.3133
  418TMC3    C2 6287   3.376   4.280   0.279 -0.1605 -0.3641 -0.0305
  418TMC3    C3 6288   3.305   4.268   0.395  1.6879 -0.4342 -0.2482
  418TMC3    C4 6289   3.563   4.253   0.416  0.1378  0.5426  1.2547
  418TMC3    C5 6290   3.484   4.232   0.528 -0.5737  0.5321  0.0577
  418TMC3    C6 6291   3.351   4.243   0.515 -0.5236 -0.3634 -0.5631
  418TMC3     C 6292   3.610   4.297   0.192 -0.6366 -0.0991  0.3818
  418TMC3     O 6293   3.578   4.382   0.106 -0.4113  0.2178  0.6160
  418TMC3     H 6294   3.329   4.291   0.182  1.6021  2.0211 -0.6134
  418TMC3    H1 6295   3.670   4.266   0.426  0.3464 -0.6055  0.5583
  418TMC3    H2 6296   3.287   4.217   0.598 -0.7017  0.2897 -0.4914
  418TMC3    C7 6297   3.535   4.147   0.633 -0.7711  0.6261  1.4245
  418TMC3    C8 6298   3.174   4.212   0.380  0.0847  0.8357 -0.5029
  418TMC3    O1 6299   3.640   4.091   0.602 -0.0975 -0.4435 -0.2016
  418TMC3    O2 6300   3.087   4.286   0.405 -0.3284 -0.3460  0.6494
  419MPD2     C 6301   2.296   1.970  12.739 -0.0369 -0.1475 -0.1193
  419MPD2    C1 6302   2.157   1.948  12.723  0.1789  0.0176 -0.5481
  419MPD2    C2 6303   2.068   1.980  12.828 -0.2105 -0.4378  0.3299
  419MPD2    C3 6304   2.113   2.018  12.950  0.3276  0.4923 -0.6586
  419MPD2    C4 6305   2.249   2.027  12.967 -0.4009 -0.1066 -0.2220
  419MPD2    C5 6306   2.341   2.004  12.867 -0.4878 -0.4156  0.1638
  419MPD2     H 6307   1.963   1.964  12.808  0.1037 -0.9367 -0.8985
  419MPD2    H1 6308   2.288   2.052  13.065  1.7598 -3.6904 -0.1615
  419MPD2    H2 6309   2.368   1.954  12.660  0.9466 -1.3441  1.0337
  419MPD2    H3 6310   2.441   2.042  12.884  0.3527 -2.1275 -0.9929
  419MPD2     N 6311   2.023   2.053  13.049 -0.4222 -0.5166  0.0390
  419MPD2    H5 6312   1.926   2.065  13.020 -0.8234 -0.8203  1.2543
  419MPD2    N1 6313   2.100   1.899  12.605 -0.4391  0.1550  0.3080
  419MPD2    H7 6314   1.998   1.892  12.605 -0.3638 -0.8730  1.4426
  420TMC3    C1 6315   1.939   2.156  13.236  0.3078  0.3562  0.4097
  420TMC3    C2 6316   1.867   2.246  13.166 -0.0964 -0.8436 -0.6902
  420TMC3    C3 6317   1.741   2.276  13.206 -0.0492  0.5534 -0.2863
  420TMC3    C4 6318   1.886   2.099  13.350  0.0798 -0.1949 -0.4073
  420TMC3    C5 6319   1.764   2.144  13.389  0.2789 -0.5548  0.5496
  420TMC3    C6 6320   1.684   2.222  13.317 -0.3284 -0.2444  0.3200
  420TMC3     C 6321   2.049   2.078  13.176  0.4079  0.3360 -0.0796
  420TMC3     O 6322   2.141   2.042  13.251 -0.1674  0.2523  0.4484
  420TMC3     H 6323   1.916   2.287  13.079  0.6778  2.5973  1.3741
  420TMC3    H1 6324   1.944   2.021  13.398 -0.7195 -1.6717 -1.8613
  420TMC3    H2 6325   1.589   2.254  13.358 -0.7817 -1.7083  0.4282
  420TMC3    C7 6326   1.705   2.053  13.484  0.0507  0.5637  0.6474
  420TMC3    C8 6327   1.658   2.355  13.121 -0.6156  0.4547  0.1158
  420TMC3    O1 6328   1.783   1.996  13.564  0.1768 -0.0529 -0.8268
  420TMC3    O2 6329   1.538   2.344  13.149  0.4769  0.5019  0.1904
  421TMC3    C1 6330   3.017   3.426  14.239 -0.1522 -0.4690  0.6169
  421TMC3    C2 6331   3.056   3.543  14.303  0.8365  0.6174  0.0949
  421TMC3    C3 6332   3.165   3.536  14.389  0.5318  0.2343 -0.4775
  421TMC3    C4 6333   3.084   3.304  14.265 -0.2447  0.4392  0.1264
  421TMC3    C5 6334   3.185   3.305  14.358  0.2271 -0.6573 -0.3542
  421TMC3    C6 6335   3.228   3.418  14.413 -0.4502 -0.2756 -0.6042
  421TMC3     C 6336   2.927   3.433  14.123 -0.2134  0.3063  0.3524
  421TMC3     O 6337   2.867   3.536  14.101 -0.0176  0.3601  0.2836
  421TMC3     H 6338   3.006   3.631  14.265  1.3568 -0.0855 -2.2587
  421TMC3    H1 6339   3.055   3.207  14.224 -0.0190  0.2934  0.3098
  421TMC3    H2 6340   3.318   3.412  14.473 -0.0280  2.9397 -0.9469
  421TMC3    C7 6341   3.299   3.223  14.347  0.1202  0.5521  0.4301
  421TMC3    C8 6342   3.216   3.651  14.467 -0.6809  0.7140 -0.0514
  421TMC3    O1 6343   3.401   3.283  14.314  0.0079  0.3115 -0.4436
  421TMC3    O2 6344   3.334   3.644  14.493  0.0458  0.6542  0.3706
  422TMC3    C1 6345   0.870   4.477  12.778  0.3197  0.1578  0.0587
  422TMC3    C2 6346   0.872   4.593  12.859  0.1415 -0.7512  1.0362
  422TMC3    C3 6347   0.748   4.643  12.894  0.4300 -0.3344 -0.2749
  422TMC3    C4 6348   0.755   4.421  12.741  0.2217  0.6488  0.0187
  422TMC3    C5 6349   0.637   4.477  12.770 -0.0595 -0.2719  0.9881
  422TMC3    C6 6350   0.631   4.594  12.847 -0.6941  0.0378 -0.3164
  422TMC3     C 6351   0.969   4.489  12.673  0.2522  1.2840  1.0825
  422TMC3     O 6352   1.016   4.602  12.646  0.0255 -0.9803  0.6629
  422TMC3     H 6353   0.964   4.649  12.872  0.3037 -0.0525 -3.0209
  422TMC3    H1 6354   0.759   4.337  12.673 -2.3042  0.8991 -0.4389
  422TMC3    H2 6355   0.533   4.634  12.872 -0.3020  0.0980  1.0842
  422TMC3    C7 6356   0.543   4.483  12.660 -0.7037 -0.2711  0.1296
  422TMC3    C8 6357   0.752   0.048  12.940 -0.5543  0.1450 -0.0195
  422TMC3    O1 6358   0.571   4.551  12.564  0.0546  0.1289 -0.3281
  422TMC3    O2 6359   0.845   0.073  13.012 -0.9293 -0.6490 -0.1411
  423MPD2     C 6360   1.939   0.753   0.794 -0.0424 -0.1064 -0.2017
  423MPD2    C1 6361   2.057   0.797   0.740 -0.4084  0.8286 -0.0570
  423MPD2    C2 6362   2.082   0.784   0.606 -0.1495  0.7408 -0.1304
  423MPD2    C3 6363   1.991   0.712   0.521  0.2408  0.7824  0.0618
  423MPD2    C4 6364   1.877   0.666   0.584  0.1457 -0.4657 -0.4759
  423MPD2    C5 6365   1.849   0.688   0.716  0.4521  0.6497 -0.6360
  423MPD2     H 6366   2.177   0.828   0.576 -1.3359  2.1662 -1.7913
  423MPD2    H1 6367   1.804   0.605   0.531 -1.2533  0.5684  0.2826
  423MPD2    H2 6368   1.907   0.768   0.896  0.5193  1.1174 -0.2038
  423MPD2    H3 6369   1.759   0.653   0.765 -1.1271  1.7829 -2.7436
  423MPD2     N 6370   2.015   0.682   0.386 -0.2611 -0.2338 -0.4129
  423MPD2    H5 6371   1.952   0.612   0.348  0.5738 -0.6496 -1.0205
  423MPD2    N1 6372   2.144   0.881   0.812 -0.0840 -0.5342 -0.5904
  423MPD2    H7 6373   2.219   0.929   0.762 -0.2688 -0.5747 -0.9057
  424TMC3    C1 6374   2.241   1.006   0.981  0.4189 -0.2491  0.4476
  424TMC3    C2 6375   2.368   0.996   0.932 -0.5544 -0.6129 -0.0798
  424TMC3    C3 6376   2.469   1.071   0.989  0.2383  0.6412 -1.3106
  424TMC3    C4 6377   2.208   1.088   1.085  0.1067 -0.3983  0.4843
  424TMC3    C5 6378   2.309   1.171   1.131 -0.0083 -0.6025  0.0809
  424TMC3    C6 6379   2.444   1.165   1.085 -0.0951 -0.3518 -0.3966
  424TMC3     C 6380   2.135   0.910   0.944 -0.7291  0.4468 -0.0750
  424TMC3     O 6381   2.050   0.880   1.029 -0.1764  0.3064  0.1226
  424TMC3     H 6382   2.390   0.923   0.855 -1.0924  0.7422 -1.5433
  424TMC3    H1 6383   2.104   1.103   1.109 -0.5456 -0.2831 -2.3859
  424TMC3    H2 6384   2.528   1.222   1.123 -0.0475 -0.6237 -0.0956
  424TMC3    C7 6385   2.278   1.268   1.235 -0.2942  0.1047 -0.4497
  424TMC3    C8 6386   2.600   1.007   0.981  0.2726  0.1219  0.3595
  424TMC3    O1 6387   2.161   1.301   1.252  0.4280 -0.5451 -0.0422
  424TMC3    O2 6388   2.591   0.888   0.950 -0.5402  0.2492  0.6499
  425MPD2     C 6389   1.178   0.434  17.477 -0.4799 -0.0921 -0.4125
  425MPD2    C1 6390   1.096   0.327  17.483  0.4801 -0.1279  0.2905
  425MPD2    C2 6391   0.975   0.352  17.541  0.5869 -0.6422  0.0705
  425MPD2    C3 6392   0.951   0.460  17.624 -0.5236 -0.4564 -0.2658
  425MPD2    C4 6393   1.045   0.561  17.627  0.0281  0.4010  0.4177
  425MPD2    C5 6394   1.150   0.549  17.545 -0.5713  0.3078  0.3629
  425MPD2     H 6395   0.890   0.285  17.537 -1.3639  1.9347 -1.1915
  425MPD2    H1 6396   1.031   0.654  17.680  0.0843  0.6141  0.0592
  425MPD2    H2 6397   1.265   0.433  17.411 -1.2554  1.3748 -1.4537
  425MPD2    H3 6398   1.219   0.632  17.537 -0.6316  0.5395  2.1459
  425MPD2     N 6399   0.826   0.464  17.686 -0.3546  0.3893 -0.7184
  425MPD2    H5 6400   0.757   0.399  17.651 -2.1319  1.2541  1.1541
  425MPD2    N1 6401   1.129   0.214  17.409 -0.1637 -0.4198 -0.2124
  425MPD2    H7 6402   1.212   0.226  17.353 -0.0400 -0.3516 -0.0137
  426TMC3    C1 6403   1.105   4.725  17.337 -0.0106  0.4785 -0.5415
  426TMC3    C2 6404   1.171   0.013  17.219 -0.1939 -0.1532  0.1233
  426TMC3    C3 6405   1.220   4.636  17.152  0.2921 -0.5796  0.1526
  426TMC3    C4 6406   1.101   4.604  17.394  0.0122 -0.0587 -0.1816
  426TMC3    C5 6407   1.157   4.497  17.336  0.7799  0.0819  0.0458
  426TMC3    C6 6408   1.218   4.508  17.212 -0.9793 -0.3954  0.1195
  426TMC3     C 6409   1.051   0.106  17.408  0.3457 -0.2754  0.1040
  426TMC3     O 6410   0.945   0.075  17.462  0.2157 -0.2089 -0.1205
  426TMC3     H 6411   1.169   0.110  17.171 -1.1101  0.4409  1.3545
  426TMC3    H1 6412   1.043   4.590  17.484  0.4663 -2.4250 -0.2489
  426TMC3    H2 6413   1.287   4.433  17.175 -0.8313 -0.9730  1.5677
  426TMC3    C7 6414   1.227   4.415  17.426  1.2717  1.0081  0.5486
  426TMC3    C8 6415   1.303   4.659  17.035 -0.2219 -0.0779  0.6433
  426TMC3    O1 6416   1.281   4.312  17.383  0.2884  0.1779 -0.2384
  426TMC3    O2 6417   1.335   0.043  17.022  0.1402  0.2285 -0.4128
  427MPD2     C 6418   0.007   2.285  15.379 -0.3004 -0.1473 -0.5209
  427MPD2    C1 6419   4.713   2.226  15.502  0.0132  0.6276 -0.1558
  427MPD2    C2 6420   4.579   2.221  15.545  0.0055  0.1332 -0.1769
  427MPD2    C3 6421   4.477   2.283  15.476 -0.3703 -0.0045  0.2287
  427MPD2    C4 6422   4.503   2.321  15.346  0.6776 -0.1366 -0.1367
  427MPD2    C5 6423   4.630   2.333  15.301 -0.2189 -0.1876  0.9425
  427MPD2     H 6424   4.555   2.164  15.634  3.1532  0.3398  0.8112
  427MPD2    H1 6425   4.414   2.355  15.293  0.8488  2.3422  1.1828
  427MPD2    H2 6426   0.106   2.293  15.334  1.3141  1.0184  3.1802
  427MPD2    H3 6427   4.659   2.373  15.204  0.7738  0.8725  1.6797
  427MPD2     N 6428   4.340   2.276  15.523  0.0239 -0.1200 -0.1089
  427MPD2    H5 6429   4.267   2.294  15.455  0.8381 -1.5733 -1.3657
  427MPD2    N1 6430   0.085   2.168  15.580 -0.5805 -0.5497 -0.3785
  427MPD2    H7 6431   0.063   2.124  15.669  0.5645  1.1198  0.7256
  428TMC3    C1 6432   0.289   2.056  15.621  0.6517 -0.6983  0.3705
  428TMC3    C2 6433   0.233   1.960  15.702  0.1359  0.4683  0.0220
  428TMC3    C3 6434   0.319   1.879  15.766 -0.0588 -0.0636 -0.1471
  428TMC3    C4 6435   0.423   2.070  15.606 -0.2073 -0.2529 -0.4862
  428TMC3    C5 6436   0.507   1.981  15.670 -0.1687  0.2800  0.2144
  428TMC3    C6 6437   0.457   1.886  15.754  0.7311  0.6832  0.9473
  428TMC3     C 6438   0.211   2.143  15.534 -0.5239  0.5848  0.0042
  428TMC3     O 6439   0.266   2.167  15.423 -0.2075 -0.3358 -0.2565
  428TMC3     H 6440   0.127   1.935  15.703  0.1524  0.3909 -0.1780
  428TMC3    H1 6441   0.453   2.169  15.573 -4.8247  1.8909  1.7572
  428TMC3    H2 6442   0.527   1.818  15.801 -1.0801 -1.5701  0.3608
  428TMC3    C7 6443   0.645   2.026  15.681 -0.4691 -0.1857  0.1013
  428TMC3    C8 6444   0.265   1.753  15.809  0.2057  0.8097 -0.8664
  428TMC3    O1 6445   0.703   1.972  15.771  0.0711 -0.2368 -0.2441
  428TMC3    O2 6446   0.167   1.704  15.752 -0.3409 -0.2732 -0.1339
  429MPD2     C 6447   1.004   1.885   0.423  0.0460  0.8426  0.5067
  429MPD2    C1 6448   1.053   1.840   0.299 -0.8611 -0.2815  0.1302
  429MPD2    C2 6449   1.090   1.935   0.208 -0.1415  0.6281 -0.5073
  429MPD2    C3 6450   1.067   2.073   0.222  0.2822 -0.1663  0.8937
  429MPD2    C4 6451   1.008   2.117   0.337 -0.5749  0.0823  0.1966
  429MPD2    C5 6452   0.986   2.022   0.443 -1.0937 -0.4875  0.0997
  429MPD2     H 6453   1.145   1.898   0.122  1.6048  2.1077 -0.0007
  429MPD2    H1 6454   0.988   2.222   0.350 -2.9943 -0.9288  4.8955
  429MPD2    H2 6455   0.986   1.820   0.508  2.5181 -1.2509 -0.5539
  429MPD2    H3 6456   0.945   2.065   0.533  0.6060 -0.8727  1.0591
  429MPD2     N 6457   1.100   2.151   0.114  0.2644  0.4893 -0.1785
  429MPD2    H5 6458   1.147   2.113   0.032  1.6929  0.2499  0.7595
  429MPD2    N1 6459   1.070   1.706   0.267 -0.1248  0.3764  0.0983
  429MPD2    H7 6460   1.112   1.687   0.177  2.4634 -0.8910  1.5666
  430TMC3    C1 6461   1.100   2.342  17.706 -0.6521  0.7667 -0.5275
  430TMC3    C2 6462   1.032   2.446  17.652 -0.1802  0.1085  1.0954
  430TMC3    C3 6463   1.100   2.521  17.557 -0.1382 -0.4957 -0.4918
  430TMC3    C4 6464   1.227   2.312  17.663  0.1760 -0.5214 -0.0826
  430TMC3    C5 6465   1.290   2.386  17.571  0.4887 -1.0693  0.0224
  430TMC3    C6 6466   1.233   2.501  17.522 -0.5566 -0.0729 -0.4033
  430TMC3     C 6467   1.049   2.279   0.097 -0.4393  0.1409  0.4082
  430TMC3     O 6468   0.966   2.342   0.165 -0.1821  0.2110  0.2671
  430TMC3     H 6469   0.931   2.470  17.681  0.2090  1.1457  1.5941
  430TMC3    H1 6470   1.278   2.230  17.713  0.0214 -1.8663 -2.1146
  430TMC3    H2 6471   1.289   2.555  17.446  0.5794  1.0248  1.2025
  430TMC3    C7 6472   1.415   2.342  17.513 -0.3798  0.1488  0.0142
  430TMC3    C8 6473   1.040   2.640  17.491  0.1247  0.2127  0.4829
  430TMC3    O1 6474   1.441   2.221  17.523 -0.0264  0.1373 -0.0039
  430TMC3    O2 6475   0.933   2.676  17.534  0.3930  0.3951 -0.3599
  431MPD2     C 6476   1.790   2.179  12.747 -1.1607  0.0555  0.4106
  431MPD2    C1 6477   1.871   2.185  12.634 -0.2679 -0.2347 -0.1222
  431MPD2    C2 6478   1.823   2.117  12.525 -0.0787  0.5224 -0.4834
  431MPD2    C3 6479   1.708   2.041  12.521  0.0181 -0.1267  0.3420
  431MPD2    C4 6480   1.624   2.050  12.628  0.4650  0.9310  0.1347
  431MPD2    C5 6481   1.663   2.122  12.741 -0.1506  0.5601 -0.0845
  431MPD2     H 6482   1.889   2.120  12.439  1.2930  1.2056  0.5989
  431MPD2    H1 6483   1.531   1.994  12.630  1.5465 -0.8800 -0.7431
  431MPD2    H2 6484   1.816   2.215  12.846 -0.4623  3.2952 -0.9421
  431MPD2    H3 6485   1.601   2.125  12.829  1.3852  0.7429  0.9937
  431MPD2     N 6486   1.658   1.969  12.412 -0.2013 -0.4808 -0.6145
  431MPD2    H5 6487   1.562   1.937  12.422 -1.1178  1.8837 -1.8476
  431MPD2    N1 6488   2.002   2.255  12.635  0.0026  0.0208  0.1775
  431MPD2    H7 6489   2.054   2.246  12.549  0.3127 -1.0739  0.4876
  432TMC3    C1 6490   1.866   1.939  12.280  0.3936  0.0145 -0.7045
  432TMC3    C2 6491   1.924   1.953  12.162  0.3863  0.0191  0.1682
  432TMC3    C3 6492   2.056   1.934  12.142  0.8900 -0.5583  0.1693
  432TMC3    C4 6493   1.944   1.886  12.385 -0.5306  0.1636 -0.2145
  432TMC3    C5 6494   2.080   1.876  12.367 -0.1579 -0.3545 -0.1504
  432TMC3    C6 6495   2.143   1.898  12.250  0.5131  0.1684 -0.0279
  432TMC3     C 6496   1.725   1.936  12.290  0.0326 -0.3639 -0.0616
  432TMC3     O 6497   1.664   1.907  12.190 -0.7550  0.0593 -0.0567
  432TMC3     H 6498   1.858   1.985  12.082 -0.8627 -0.2835  1.0815
  432TMC3    H1 6499   1.893   1.843  12.471 -3.6358 -0.3189 -2.2848
  432TMC3    H2 6500   2.251   1.905  12.236  0.2212 -0.1117 -2.4390
  432TMC3    C7 6501   2.166   1.888  12.486  0.2108 -0.0457 -0.0796
  432TMC3    C8 6502   2.105   1.921  12.005 -0.0655 -0.0294  0.3104
  432TMC3    O1 6503   2.289   1.898  12.460 -0.3219 -0.1824 -0.0145
  432TMC3    O2 6504   2.031   1.869  11.917  0.9676 -0.2950  0.2957
  433MPD2     C 6505   0.502   0.999  11.025 -0.1210  0.1868  0.6702
  433MPD2    C1 6506   0.637   0.982  11.024 -0.0503  0.7534  0.0451
  433MPD2    C2 6507   0.716   1.049  11.119 -0.1108  0.9261  0.5857
  433MPD2    C3 6508   0.669   1.118  11.228 -0.0052 -0.6439  0.1639
  433MPD2    C4 6509   0.532   1.133  11.224 -0.2525 -0.3527 -0.2652
  433MPD2    C5 6510   0.451   1.073  11.124 -0.4123 -0.1976 -0.2003
  433MPD2     H 6511   0.824   1.048  11.107  0.0884 -1.4241  2.4717
  433MPD2    H1 6512   0.476   1.185  11.300  0.8785  0.1885  0.1969
  433MPD2    H2 6513   0.432   0.965  10.949  0.3871 -0.1853  0.3702
  433MPD2    H3 6514   0.344   1.077  11.143 -0.1127 -1.1397  1.7404
  433MPD2     N 6515   0.756   1.164  11.336  0.1997  0.3930  0.2047
  433MPD2    H5 6516   0.848   1.124  11.349  0.7359  1.2022 -1.1141
  433MPD2    N1 6517   0.692   0.916  10.915 -0.0737  0.0293 -0.8622
  433MPD2    H7 6518   0.627   0.869  10.853 -0.7711  0.4268 -0.4383
  434TMC3    C1 6519   0.845   0.802  10.781  0.5976 -0.5666  0.3320
  434TMC3    C2 6520   0.942   0.710  10.811  0.3805 -0.4060  0.0558
  434TMC3    C3 6521   0.923   0.582  10.772  0.3271  0.5460 -0.0570
  434TMC3    C4 6522   0.736   0.767  10.708 -0.1370 -0.0001  0.4049
  434TMC3    C5 6523   0.723   0.636  10.671 -0.0227  0.4793  0.6308
  434TMC3    C6 6524   0.813   0.539  10.707 -0.2632 -0.2762  0.4208
  434TMC3     C 6525   0.828   0.897  10.885  0.0383 -0.5197 -0.4027
  434TMC3     O 6526   0.923   0.921  10.954  0.9168  0.7376  0.4085
  434TMC3     H 6527   1.034   0.737  10.861  0.6394 -0.4360 -0.3994
  434TMC3    H1 6528   0.661   0.832  10.665 -0.4248  0.4660  1.6162
  434TMC3    H2 6529   0.809   0.437  10.672  1.8001 -0.1458 -0.1795
  434TMC3    C7 6530   0.597   0.594  10.591 -0.1386 -0.4051  0.3423
  434TMC3    C8 6531   1.004   0.484  10.842 -0.3213 -0.2000  0.0529
  434TMC3    O1 6532   0.551   0.670  10.508 -0.1592 -0.1999  0.4026
  434TMC3    O2 6533   0.949   0.380  10.883  0.0712 -0.5155 -1.0489
  435MPD2     C 6534   3.297   1.024  15.561  1.2138  1.1349 -0.1730
  435MPD2    C1 6535   3.230   0.987  15.677  0.0603  0.2421 -0.2163
  435MPD2    C2 6536   3.280   0.894  15.766 -0.2297 -0.1701 -0.2906
  435MPD2    C3 6537   3.404   0.831  15.751 -0.1999 -0.0360  0.7335
  435MPD2    C4 6538   3.473   0.876  15.642 -0.1310  0.9961 -0.0353
  435MPD2    C5 6539   3.425   0.971  15.556 -0.3029  0.7977 -0.5103
  435MPD2     H 6540   3.222   0.880  15.856 -0.8327  1.3638 -0.4371
  435MPD2    H1 6541   3.569   0.835  15.613 -1.6067 -2.3965 -0.1932
  435MPD2    H2 6542   3.275   1.101  15.488  0.2531 -1.2418 -2.3926
  435MPD2    H3 6543   3.485   0.988  15.468  0.2459 -0.6771 -0.4249
  435MPD2     N 6544   3.454   0.729  15.841 -0.1267  1.0941 -0.1244
  435MPD2    H5 6545   3.412   0.730  15.933 -2.1899  0.3217 -1.0629
  435MPD2    N1 6546   3.105   1.042  15.703 -0.5665  0.2724 -0.1960
  435MPD2    H7 6547   3.065   1.018  15.794  0.0341 -2.7464 -0.7424
  436TMC3    C1 6548   2.773   1.197  15.873  0.1541  0.1244 -0.1842
  436TMC3    C2 6549   2.893   1.166  15.817 -0.4036 -0.7684 -0.8145
  436TMC3    C3 6550   2.900   1.137  15.683 -0.8002  0.3280  0.1689
  436TMC3    C4 6551   2.664   1.214  15.794 -0.0658  0.1366  0.2712
  436TMC3    C5 6552   2.675   1.185  15.664 -0.5531  0.4807 -0.4754
  436TMC3    C6 6553   2.789   1.145  15.603 -0.2873 -0.2058 -0.9757
  436TMC3     C 6554   2.792   1.259  16.006  0.0307 -0.4962  0.2965
  436TMC3     O 6555   2.905   1.290  16.034 -0.9297 -0.0263 -0.1966
  436TMC3     H 6556   2.983   1.155  15.876 -1.2382  3.2521  1.2346
  436TMC3    H1 6557   2.577   1.252  15.847 -1.0327  1.1423 -2.0636
  436TMC3    H2 6558   2.788   1.128  15.495  2.9250 -1.7051 -0.7695
  436TMC3    C7 6559   2.553   1.210  15.584 -0.1487 -1.0522 -0.3083
  436TMC3    C8 6560   3.023   1.116  15.617  0.1634 -0.8111  0.0617
  436TMC3    O1 6561   2.475   1.298  15.623 -0.5442  0.1245  0.1350
  436TMC3    O2 6562   3.021   1.130  15.493 -0.8830 -0.0264  0.1195
  437TMC3    C1 6563   0.973   2.512  13.470 -0.2160 -0.3772  0.1224
  437TMC3    C2 6564   0.853   2.568  13.505  0.0839  0.1677  0.2448
  437TMC3    C3 6565   0.791   2.641  13.407 -0.0624  0.2573  0.2654
  437TMC3    C4 6566   1.032   2.544  13.352 -1.0192  0.2573  0.0109
  437TMC3    C5 6567   0.967   2.617  13.258  0.1517  0.1694 -0.1134
  437TMC3    C6 6568   0.839   2.663  13.283  0.9855  0.1258 -0.6679
  437TMC3     C 6569   1.041   2.441  13.583  0.0935 -0.5799  0.1526
  437TMC3     O 6570   0.968   2.396  13.672  0.1584  0.1091 -0.1885
  437TMC3     H 6571   0.808   2.564  13.604  0.1256  0.7881  0.2907
  437TMC3    H1 6572   1.128   2.499  13.329 -0.9480 -0.2480  1.2953
  437TMC3    H2 6573   0.787   2.721  13.208  1.1542  0.0634 -0.8323
  437TMC3    C7 6574   1.031   2.669  13.135  0.6616 -0.4118  0.3786
  437TMC3    C8 6575   0.652   2.669  13.421  1.1774  0.1926  0.1995
  437TMC3    O1 6576   0.953   2.708  13.047 -0.3911 -0.1416  0.2460
  437TMC3    O2 6577   0.598   2.740  13.333 -0.0412 -0.6919 -0.5441
  438MPD2     C 6578   3.830   3.725  16.998  0.6019  1.0383 -0.2278
  438MPD2    C1 6579   3.886   3.613  17.067 -0.2847 -0.3157 -0.4689
  438MPD2    C2 6580   3.886   3.615  17.201 -0.1911  0.5360 -0.2431
  438MPD2    C3 6581   3.819   3.710  17.271  0.3476 -0.0472 -0.0900
  438MPD2    C4 6582   3.763   3.820  17.201 -0.4828  0.1340  0.2661
  438MPD2    C5 6583   3.769   3.826  17.067 -0.0292 -0.5860  0.3994
  438MPD2     H 6584   3.939   3.533  17.248 -3.4313  0.1412  2.7601
  438MPD2    H1 6585   3.705   3.897  17.251  0.1319 -0.1421  1.4155
  438MPD2    H2 6586   3.831   3.730  16.889 -1.3935  2.6058 -0.1679
  438MPD2    H3 6587   3.733   3.918  17.021  0.6768 -0.7597 -0.5157
  438MPD2     N 6588   3.795   3.699  17.411 -0.3689  0.3239  0.5704
  438MPD2    H5 6589   3.758   3.781  17.457  0.1149  1.3387 -0.8373
  438MPD2    N1 6590   3.961   3.508  17.001  0.2694 -0.1121 -0.6685
  438MPD2    H7 6591   4.009   3.445  17.065 -0.0004 -0.3514 -0.7030
  439TMC3    C1 6592   4.067   3.391  16.828  0.5756  0.2310  0.6557
  439TMC3    C2 6593   4.137   3.422  16.721 -0.0052  0.3198 -0.2000
  439TMC3    C3 6594   4.219   3.324  16.667 -0.0470  0.1459 -0.4971
  439TMC3    C4 6595   4.087   3.272  16.893  0.1710  0.4064 -0.1525
  439TMC3    C5 6596   4.170   3.176  16.845  0.6029  0.3236  0.4672
  439TMC3    C6 6597   4.232   3.203  16.726  0.1625  0.0997 -0.0001
  439TMC3     C 6598   3.970   3.489  16.868  0.3052 -0.6738 -0.3722
  439TMC3     O 6599   3.920   3.558  16.777  0.2309 -0.1887  0.3357
  439TMC3     H 6600   4.131   3.520  16.676 -0.6925  0.9919  1.3665
  439TMC3    H1 6601   4.039   3.260  16.989 -0.0610 -2.3686 -0.6314
  439TMC3    H2 6602   4.313   3.145  16.682 -2.8906 -2.3698 -2.3723
  439TMC3    C7 6603   4.248   3.109  16.940 -0.6717  0.0913  0.1621
  439TMC3    C8 6604   4.331   3.353  16.579  0.1264  0.4216 -0.4879
  439TMC3    O1 6605   4.280   3.173  17.042  0.1257 -0.0978  0.2393
  439TMC3    O2 6606   4.393   3.267  16.519 -0.4721  0.2392 -0.0741
  440MPD2     C 6607   2.636   3.770  15.075 -0.4504 -0.1889  0.4349
  440MPD2    C1 6608   2.685   3.860  15.176  0.1062 -0.4165  0.0495
  440MPD2    C2 6609   2.807   3.849  15.239 -0.3344 -0.5270 -1.0244
  440MPD2    C3 6610   2.890   3.745  15.212  0.0638  0.3428  0.3431
  440MPD2    C4 6611   2.846   3.652  15.118 -0.4332 -0.1357 -1.2854
  440MPD2    C5 6612   2.728   3.668  15.050  0.2343 -0.0579  0.3167
  440MPD2     H 6613   2.846   3.916  15.314 -1.0184  0.2576 -1.3808
  440MPD2    H1 6614   2.907   3.567  15.090  0.4882 -0.0110  0.3621
  440MPD2    H2 6615   2.544   3.770  15.019 -0.4778 -1.4207  0.4839
  440MPD2    H3 6616   2.712   3.602  14.966 -1.8485  0.8108  0.0330
  440MPD2     N 6617   3.015   3.754  15.278  0.1463  0.1839  0.1799
  440MPD2    H5 6618   3.023   3.818  15.357 -2.0452  0.1074  0.4669
  440MPD2    N1 6619   2.616   3.975  15.205 -0.3666  0.2069 -0.2231
  440MPD2    H7 6620   2.650   4.026  15.286 -1.0532 -0.6257  0.5898
  441TMC3    C1 6621   3.228   3.685  15.353 -0.6728 -0.2918  0.3830
  441TMC3    C2 6622   3.248   3.810  15.414  0.4573 -0.1158 -0.5521
  441TMC3    C3 6623   3.333   3.818  15.523  0.1042  0.1709 -0.2609
  441TMC3    C4 6624   3.283   3.566  15.410 -0.8241 -0.3600  0.6408
  441TMC3    C5 6625   3.363   3.579  15.526 -0.5060  0.2354  0.2401
  441TMC3    C6 6626   3.401   3.706  15.570  0.3003  0.1215  0.3269
  441TMC3     C 6627   3.120   3.666  15.265 -0.1649 -0.5464  0.1703
  441TMC3     O 6628   3.136   3.574  15.192 -0.1237  0.8656  0.0971
  441TMC3     H 6629   3.212   3.893  15.354 -0.7760  1.0241  1.7433
  441TMC3    H1 6630   3.250   3.471  15.371  0.2122 -0.5584  0.2792
  441TMC3    H2 6631   3.456   3.711  15.664  1.2645 -0.5022 -0.2020
  441TMC3    C7 6632   3.338   3.483  15.631 -0.4804  0.1092 -0.1841
  441TMC3    C8 6633   3.391   3.950  15.549 -0.0343  0.1435  0.3533
  441TMC3    O1 6634   3.251   3.402  15.606  0.6910  0.3666 -0.3597
  441TMC3    O2 6635   3.513   3.954  15.569  0.7114  0.3959 -0.2604
  442MPD2     C 6636   1.569   4.631  16.218 -0.7138 -0.1365  0.1168
  442MPD2    C1 6637   1.455   4.604  16.275 -0.3744 -0.3630  0.0110
  442MPD2    C2 6638   1.386   4.486  16.245  0.0407 -0.1299  0.7665
  442MPD2    C3 6639   1.432   4.406  16.137 -0.2112 -0.0795  0.1072
  442MPD2    C4 6640   1.559   4.437  16.083 -0.2632  0.6960 -0.7639
  442MPD2    C5 6641   1.626   4.549  16.128 -0.1750 -0.1637 -0.0695
  442MPD2     H 6642   1.297   4.465  16.303  0.3265  1.3179  1.7321
  442MPD2    H1 6643   1.590   4.388  15.991  0.2032 -0.0826 -0.2024
  442MPD2    H2 6644   1.616   4.728  16.226 -0.7221 -0.0892 -0.4152
  442MPD2    H3 6645   1.703   4.592  16.064  1.2767 -0.9439  1.1842
  442MPD2     N 6646   1.360   4.294  16.086  0.3419  0.0771 -0.0015
  442MPD2    H5 6647   1.400   4.233  16.015  0.2336  1.5294 -1.3108
  442MPD2    N1 6648   1.386   4.692  16.360  0.1158  0.1860 -0.3831
  442MPD2    H7 6649   1.302   4.657  16.405  1.1061 -0.8067  0.7276
  443TMC3    C1 6650   1.294   0.167  16.429 -0.1091 -0.6364 -0.7459
  443TMC3    C2 6651   1.200   0.212  16.348  0.3249 -0.4506  0.0986
  443TMC3    C3 6652   1.073   0.220  16.402  0.0145 -0.9293  0.3580
  443TMC3    C4 6653   1.268   0.122  16.557 -0.3349  1.0123 -0.1846
  443TMC3    C5 6654   1.143   0.138  16.599 -0.5764  0.4393  0.7059
  443TMC3    C6 6655   1.038   0.178  16.525  0.0485 -0.5721  0.0771
  443TMC3     C 6656   1.403   0.096  16.362 -0.8305  0.0576 -0.6153
  443TMC3     O 6657   1.458   0.164  16.278 -0.3393  0.1185  0.1700
  443TMC3     H 6658   1.228   0.225  16.244 -1.4751 -2.5188 -0.6692
  443TMC3    H1 6659   1.346   0.086  16.624 -0.8177  1.1159  0.4244
  443TMC3    H2 6660   0.940   0.188  16.572 -0.1564  2.5540 -0.9837
  443TMC3    C7 6661   1.096   0.087  16.728  0.0236  0.2579  0.6131
  443TMC3    C8 6662   0.955   0.185  16.318  0.3734 -0.6710  0.0291
  443TMC3    O1 6663   1.089   4.697  16.743 -0.3426  0.1545  0.2520
  443TMC3    O2 6664   0.874   0.114  16.370 -0.3620 -0.2607 -0.0937
  444MPD2     C 6665   0.949   4.232  17.148  0.2638  0.0962  0.1074
  444MPD2    C1 6666   0.938   4.133  17.244  0.6633 -0.4117  0.3983
  444MPD2    C2 6667   1.024   4.027  17.237  0.4007  0.4181 -0.7943
  444MPD2    C3 6668   1.134   4.029  17.156  0.0381  0.1566 -0.3121
  444MPD2    C4 6669   1.152   4.139  17.070 -0.0754  0.3341 -0.0364
  444MPD2    C5 6670   1.052   4.235  17.061 -0.2469 -0.7467 -0.1996
  444MPD2     H 6671   1.011   3.946  17.307 -0.2809  0.4487 -0.8874
  444MPD2    H1 6672   1.242   4.148  17.010  1.0894  1.2138  1.8233
  444MPD2    H2 6673   0.882   4.317  17.139 -1.1440 -0.9979  0.3167
  444MPD2    H3 6674   1.069   4.324  17.003 -1.8723 -0.5123 -0.3055
  444MPD2     N 6675   1.230   3.920  17.173 -0.0480 -0.1029  1.0707
  444MPD2    H5 6676   1.203   3.857  17.248 -2.4672 -0.2070  0.1142
  444MPD2    N1 6677   0.840   4.133  17.337  0.0006  0.1340  0.7339
  444MPD2    H7 6678   0.838   4.052  17.398 -4.0594 -1.0231 -0.9564
  445TMC3    C1 6679   1.416   3.781  17.128  0.5776 -0.3079 -0.2446
  445TMC3    C2 6680   1.399   3.704  17.240  0.3355 -0.0168 -0.5945
  445TMC3    C3 6681   1.474   3.591  17.247  0.7216  0.1221 -0.3214
  445TMC3    C4 6682   1.493   3.737  17.021  0.2304 -0.6086  0.3403
  445TMC3    C5 6683   1.570   3.625  17.040  0.3355 -0.8247 -0.1824
  445TMC3    C6 6684   1.559   3.546  17.154 -0.1369  0.1641  0.6050
  445TMC3     C 6685   1.354   3.906  17.107  0.4139  0.4247 -0.1162
  445TMC3     O 6686   1.405   3.987  17.032 -0.5777  0.0288  0.4845
  445TMC3     H 6687   1.332   3.720  17.324  0.6181 -2.1412  0.0294
  445TMC3    H1 6688   1.514   3.806  16.940 -0.4745 -0.5299  0.2253
  445TMC3    H2 6689   1.623   3.460  17.169 -1.1988 -0.5335  1.1759
  445TMC3    C7 6690   1.662   3.577  16.931 -0.0656 -0.1733  0.1994
  445TMC3    C8 6691   1.433   3.513  17.364  0.1026  0.4206  0.3000
  445TMC3    O1 6692   1.680   3.657  16.839 -0.8279 -0.3859  0.1663
  445TMC3    O2 6693   1.420   3.570  17.469 -0.2139 -0.0095 -0.2077
  446MPD2     C 6694   0.530   0.583  11.312 -0.1940 -0.0982  0.9548
  446MPD2    C1 6695   0.555   0.600  11.175 -0.1495  0.4374  0.6536
  446MPD2    C2 6696   0.680   0.637  11.130  0.6561  0.2574 -0.3283
  446MPD2    C3 6697   0.789   0.637  11.214  0.3000 -0.4512 -0.3151
  446MPD2    C4 6698   0.765   0.605  11.343  0.4312  0.4127 -0.1151
  446MPD2    C5 6699   0.640   0.597  11.393 -0.5960 -0.3439 -0.0761
  446MPD2     H 6700   0.686   0.652  11.022 -0.4275 -0.4676 -0.4863
  446MPD2    H1 6701   0.848   0.608  11.413 -1.8573 -2.0793  2.7022
  446MPD2    H2 6702   0.433   0.551  11.347 -0.1387 -0.6755  0.5837
  446MPD2    H3 6703   0.636   0.579  11.499  2.4785  0.8767  0.2659
  446MPD2     N 6704   0.919   0.656  11.168  0.1274 -0.4703 -0.3360
  446MPD2    H5 6705   0.925   0.707  11.080 -1.8316  2.8541  1.4577
  446MPD2    N1 6706   0.438   0.588  11.090  0.1463 -0.8953  0.2460
  446MPD2    H7 6707   0.356   0.553  11.138 -0.8538 -0.9993 -1.5780
  447TMC3    C1 6708   1.159   0.664  11.187 -0.2652 -0.5479  0.0393
  447TMC3    C2 6709   1.174   0.753  11.089 -0.1767 -0.3719 -0.0894
  447TMC3    C3 6710   1.302   0.797  11.066  0.5541 -0.0111  0.1559
  447TMC3    C4 6711   1.267   0.623  11.263 -0.1376 -0.2417 -0.0961
  447TMC3    C5 6712   1.389   0.685  11.255  0.2517 -0.6220  0.6100
  447TMC3    C6 6713   1.414   0.767  11.148 -0.6807  0.2816  1.1232
  447TMC3     C 6714   1.031   0.611  11.234  0.0762 -0.0745  0.3793
  447TMC3     O 6715   1.037   0.522  11.317  0.5301  0.7517  0.4606
  447TMC3     H 6716   1.087   0.799  11.045 -0.1405 -0.0927  0.1250
  447TMC3    H1 6717   1.242   0.559  11.347 -1.4288 -0.0023 -0.3029
  447TMC3    H2 6718   1.511   0.814  11.137 -0.5358 -0.0513  0.9560
  447TMC3    C7 6719   1.504   0.611  11.293  0.6375  0.3520  0.1282
  447TMC3    C8 6720   1.318   0.888  10.950 -0.7708  0.2831  0.2633
  447TMC3    O1 6721   1.608   0.628  11.226 -0.7707  0.0939  0.2480
  447TMC3    O2 6722   1.217   0.932  10.898 -0.0343  1.1015 -0.7621
  448TMC3    C1 6723   3.893   0.101  16.782  0.1549  0.1722  0.7226
  448TMC3    C2 6724   3.863   4.724  16.713  0.3864 -0.5549 -0.3773
  448TMC3    C3 6725   3.862   4.601  16.777  0.0312 -0.2034  0.3500
  448TMC3    C4 6726   3.936   0.091  16.911  0.0288  0.0578  0.4563
  448TMC3    C5 6727   3.916   4.702  16.976  0.5021 -0.1887  0.2319
  448TMC3    C6 6728   3.893   4.588  16.905  0.7058  0.5328  0.7591
  448TMC3     C 6729   3.921   0.229  16.722  0.5904 -0.4342 -0.8264
  448TMC3     O 6730   3.958   0.316  16.799 -0.1430  0.0204  0.6320
  448TMC3     H 6731   3.832   4.731  16.609 -0.7407 -0.1407 -0.0100
  448TMC3    H1 6732   3.984   0.166  16.973 -1.6611  0.5184  1.2032
  448TMC3    H2 6733   3.871   4.495  16.956 -0.8778  0.4980 -0.0053
  448TMC3    C7 6734   4.002   4.673  17.087 -0.2721 -0.1429 -0.0500
  448TMC3    C8 6735   3.803   4.485  16.709 -0.7208  0.0658 -0.5564
  448TMC3    O1 6736   4.114   4.631  17.067 -0.0975 -0.6048  0.4075
  448TMC3    O2 6737   3.823   4.378  16.766  0.3000  0.2761  0.2170
  449MPD2     C 6738   0.495   3.178  14.052  0.2373  0.2530  0.6989
  449MPD2    C1 6739   0.381   3.237  13.996  0.1897 -0.4753  0.1622
  449MPD2    C2 6740   0.254   3.215  14.039  0.0889  0.0705 -0.1706
  449MPD2    C3 6741   0.236   3.120  14.127 -0.0188 -0.3674  0.3208
  449MPD2    C4 6742   0.334   3.054  14.188  0.7719  0.3738  0.4216
  449MPD2    C5 6743   0.463   3.087  14.151  0.0303  0.1138  0.7658
  449MPD2     H 6744   0.167   3.260  13.991 -1.2734 -1.7198  0.5866
  449MPD2    H1 6745   0.320   2.979  14.264  0.5972  0.9218  0.9309
  449MPD2    H2 6746   0.600   3.184  14.030 -0.2943  2.1320 -1.2798
  449MPD2    H3 6747   0.544   3.053  14.214 -1.1162 -0.6078  1.8313
  449MPD2     N 6748   0.101   3.074  14.145 -0.1684 -0.3886  0.0216
  449MPD2    H5 6749   0.039   3.093  14.067 -1.1685  1.5944  1.2892
  449MPD2    N1 6750   0.393   3.317  13.879 -0.0258 -0.4551 -0.2427
  449MPD2    H7 6751   0.306   3.345  13.834 -0.4482 -0.4657  0.5663
  450TMC3    C1 6752   0.479   3.431  13.690  0.3285 -0.8765  0.4143
  450TMC3    C2 6753   0.495   3.363  13.571  0.2744  0.0503  0.4937
  450TMC3    C3 6754   0.391   3.373  13.481 -0.1099 -0.0192  0.0725
  450TMC3    C4 6755   0.369   3.509  13.719  0.1170 -0.1428 -0.1535
  450TMC3    C5 6756   0.267   3.515  13.629 -0.0073 -0.7806  0.5606
  450TMC3    C6 6757   0.281   3.451  13.509  0.1494  0.5608 -0.1501
  450TMC3     C 6758   0.508   3.346  13.806  0.3327 -0.1602 -0.0071
  450TMC3     O 6759   0.623   3.312  13.822 -0.3385  0.2421 -0.2297
  450TMC3     H 6760   0.580   3.298  13.560  1.0212  1.1077 -0.0173
  450TMC3    H1 6761   0.364   3.560  13.815  2.1290 -2.2309  1.0610
  450TMC3    H2 6762   0.203   3.465  13.435 -0.2808 -1.0709  0.0030
  450TMC3    C7 6763   0.138   3.491  13.695 -0.2529  0.3849 -0.8723
  450TMC3    C8 6764   0.404   3.320  13.349  0.2695 -0.1366  0.8724
  450TMC3    O1 6765   0.149   3.446  13.809  0.3584 -0.0888  0.0000
  450TMC3    O2 6766   0.305   3.308  13.277  0.3494  0.1352  0.6255
  451MPD2     C 6767   1.483   3.725   1.178  0.9365 -0.6368 -0.5835
  451MPD2    C1 6768   1.495   3.681   1.308 -0.0488 -0.2883 -0.1368
  451MPD2    C2 6769   1.617   3.622   1.346 -0.4854  0.2770 -0.3956
  451MPD2    C3 6770   1.711   3.577   1.249 -0.2056  0.1674 -0.5156
  451MPD2    C4 6771   1.686   3.609   1.119 -0.9118  0.1881  0.0566
  451MPD2    C5 6772   1.578   3.688   1.085  0.9593  0.3961  0.2764
  451MPD2     H 6773   1.633   3.612   1.452 -0.1149  1.4010 -0.3441
  451MPD2    H1 6774   1.760   3.588   1.043  0.2657  0.9408  0.9968
  451MPD2    H2 6775   1.391   3.773   1.147  1.0484  1.1180  1.8022
  451MPD2    H3 6776   1.574   3.724   0.983  3.9480 -0.6578 -0.2236
  451MPD2     N 6777   1.827   3.498   1.273  0.0858 -0.4567 -0.1364
  451MPD2    H5 6778   1.884   3.465   1.195 -1.5556 -0.4456 -1.3375
  451MPD2    N1 6779   1.385   3.712   1.399  0.6090  0.1345 -0.4748
  451MPD2    H7 6780   1.303   3.747   1.351  0.4289  0.6096  0.1918
  452TMC3    C1 6781   1.956   3.348   1.396 -0.0252  0.1137 -0.7291
  452TMC3    C2 6782   2.071   3.360   1.473  0.5524  0.0674 -0.2325
  452TMC3    C3 6783   2.176   3.268   1.458  0.3698 -0.1420 -0.0506
  452TMC3    C4 6784   1.947   3.250   1.299 -0.1409  0.1739  0.4729
  452TMC3    C5 6785   2.051   3.157   1.292  0.3101  0.6071 -0.1520
  452TMC3    C6 6786   2.172   3.171   1.365 -0.0805 -0.5750  0.4286
  452TMC3     C 6787   1.865   3.464   1.401  0.2454  0.1005  0.5237
  452TMC3     O 6788   1.856   3.527   1.510  0.4214  0.1089 -0.8439
  452TMC3     H 6789   2.069   3.426   1.559 -2.2413 -0.5074  0.1328
  452TMC3    H1 6790   1.853   3.235   1.248  0.3831 -2.6299  0.3082
  452TMC3    H2 6791   2.257   3.107   1.348  1.3295  1.6811 -0.9524
  452TMC3    C7 6792   2.034   3.049   1.206 -0.3505  0.5630  0.0420
  452TMC3    C8 6793   2.291   3.253   1.553  0.4245 -0.5965 -0.3616
  452TMC3    O1 6794   2.137   2.995   1.164  0.0102 -0.4301  0.6810
  452TMC3    O2 6795   2.355   3.149   1.533  0.5895  0.0211 -0.2667
  453TMC3    C1 6796   2.981   4.388  12.169  0.3246  0.1660 -0.6078
  453TMC3    C2 6797   2.887   4.295  12.216  0.0386 -0.3195  0.3536
  453TMC3    C3 6798   2.761   4.332  12.242 -0.4855  0.3117 -0.6447
  453TMC3    C4 6799   2.945   4.516  12.148 -0.5400  0.0531  0.3506
  453TMC3    C5 6800   2.819   4.553  12.193 -0.0391  0.2789 -0.6061
  453TMC3    C6 6801   2.730   4.466  12.247 -0.0592 -0.7421  0.4883
  453TMC3     C 6802   3.125   4.360  12.172 -0.5886  0.3642 -0.4767
  453TMC3     O 6803   3.195   4.457  12.191  0.1048 -0.0673 -0.1904
  453TMC3     H 6804   2.928   4.198  12.238  0.0138 -0.1252  1.2475
  453TMC3    H1 6805   3.012   4.587  12.103 -0.3521 -0.5270 -0.2852
  453TMC3    H2 6806   2.626   4.489  12.269 -0.1012 -0.5889  0.1187
  453TMC3    C7 6807   2.783   4.695  12.196  0.5615 -0.2140  0.3140
  453TMC3    C8 6808   2.662   4.228  12.280 -0.0518  0.1339 -0.6677
  453TMC3    O1 6809   2.670   4.719  12.242 -0.2874 -0.4762 -0.3589
  453TMC3    O2 6810   2.592   4.254  12.379 -0.5449 -0.3904 -0.0722
  454MPD2     C 6811   1.628   3.445  16.411  0.2999 -0.5676  0.3754
  454MPD2    C1 6812   1.657   3.483  16.289 -0.3646 -0.2144 -0.4458
  454MPD2    C2 6813   1.649   3.617  16.271 -0.2900 -0.5191  0.7341
  454MPD2    C3 6814   1.614   3.704  16.373  0.5608  0.1796 -0.6918
  454MPD2    C4 6815   1.601   3.660  16.499 -0.0190  0.8438 -0.4000
  454MPD2    C5 6816   1.600   3.527  16.517 -0.3842 -0.4961  0.5608
  454MPD2     H 6817   1.668   3.657  16.172 -0.0778 -1.7734  0.2683
  454MPD2    H1 6818   1.575   3.734  16.574  1.6187  0.9830  0.0326
  454MPD2    H2 6819   1.635   3.340  16.439  0.2432 -0.8593 -0.7082
  454MPD2    H3 6820   1.571   3.479  16.610  2.7095  0.6015  2.0942
  454MPD2     N 6821   1.568   3.841  16.360 -0.7964 -0.0132 -0.2431
  454MPD2    H5 6822   1.564   3.897  16.444 -1.7687  1.7320 -1.4687
  454MPD2    N1 6823   1.687   3.397  16.177 -0.2885  0.4973  0.7830
  454MPD2    H7 6824   1.703   3.444  16.088 -0.5642  1.3338  1.1703
  455TMC3    C1 6825   1.401   3.967  16.293 -0.0620  0.2810  0.1101
  455TMC3    C2 6826   1.422   4.063  16.391 -0.7179  0.4317 -0.3232
  455TMC3    C3 6827   1.311   4.087  16.473 -0.4876 -1.1156 -0.6142
  455TMC3    C4 6828   1.280   3.903  16.272  0.0315 -0.4695  0.2507
  455TMC3    C5 6829   1.180   3.924  16.364 -0.3838  0.0369 -0.4652
  455TMC3    C6 6830   1.190   4.018  16.457 -0.6142  0.3957 -0.2888
  455TMC3     C 6831   1.511   3.886  16.248  0.1778 -0.2793 -0.1721
  455TMC3     O 6832   1.505   3.832  16.143 -0.8503 -0.2498 -0.2175
  455TMC3     H 6833   1.521   4.100  16.414 -0.5736 -0.6161  0.7789
  455TMC3    H1 6834   1.274   3.827  16.195  0.5962  2.1776 -2.4241
  455TMC3    H2 6835   1.109   4.023  16.528 -1.3792  0.6815 -1.1867
  455TMC3    C7 6836   1.141   3.789  16.398 -0.3688  0.1989 -0.2886
  455TMC3    C8 6837   1.320   4.180  16.583  0.0182 -0.2499 -0.7510
  455TMC3    O1 6838   1.097   3.729  16.303 -0.1756  0.2019 -0.4473
  455TMC3    O2 6839   1.231   4.168  16.667  0.6273 -0.5363 -0.2519
  456MPD2     C 6840   4.377   4.022  15.811  0.0987 -0.2713 -0.5168
  456MPD2    C1 6841   4.412   3.898  15.857 -0.2884 -0.3259 -0.8187
  456MPD2    C2 6842   4.329   3.837  15.957 -0.1670  0.1109 -0.7537
  456MPD2    C3 6843   4.216   3.899  16.002 -0.4188 -0.5659 -0.5160
  456MPD2    C4 6844   4.186   4.024  15.956  0.6834 -0.3361  0.1242
  456MPD2    C5 6845   4.269   4.085  15.870  0.4965  0.3316 -0.8677
  456MPD2     H 6846   4.362   3.741  15.993  0.4648  1.0424  1.1145
  456MPD2    H1 6847   4.101   4.072  16.003 -0.7759 -0.0015 -2.8647
  456MPD2    H2 6848   4.445   4.069  15.741  1.3257 -1.7330 -0.3311
  456MPD2    H3 6849   4.247   4.184  15.832 -2.1862 -0.1737 -0.6715
  456MPD2     N 6850   4.141   3.835  16.100 -0.2070  0.1230  0.0391
  456MPD2    H5 6851   4.175   3.741  16.119 -2.3804 -0.4858  0.8125
  456MPD2    N1 6852   4.526   3.837  15.800  0.1747  0.0240  0.1341
  456MPD2    H7 6853   4.572   3.900  15.734 -2.0320 -0.0208 -1.4460
  457TMC3    C1 6854   3.973   3.813  16.274 -0.1026  0.0609 -0.1308
  457TMC3    C2 6855   3.851   3.856  16.312 -0.6640  0.6918  0.3345
  457TMC3    C3 6856   3.825   3.853  16.443  0.2308  0.3478 -0.3024
  457TMC3    C4 6857   4.065   3.776  16.360  0.0525  0.5795 -0.9683
  457TMC3    C5 6858   4.030   3.773  16.495 -0.4405 -0.4338  0.4124
  457TMC3    C6 6859   3.901   3.789  16.534  0.0980  0.0630 -0.5973
  457TMC3     C 6860   4.024   3.881  16.155 -0.0700 -0.7127  0.0642
  457TMC3     O 6861   3.952   3.977  16.130  0.8038 -0.0050 -0.8258
  457TMC3     H 6862   3.782   3.911  16.249 -0.8062  1.0779  0.8295
  457TMC3    H1 6863   4.169   3.751  16.341  0.7095  0.6172  2.6389
  457TMC3    H2 6864   3.858   3.772  16.632 -0.4577  1.4935 -0.5973
  457TMC3    C7 6865   4.122   3.794  16.605 -0.2506  0.2105 -0.5304
  457TMC3    C8 6866   3.778   3.981  16.499 -0.6982 -0.7025 -0.6868
  457TMC3    O1 6867   4.219   3.725  16.613  0.2162 -0.1088  0.1101
  457TMC3    O2 6868   3.834   4.018  16.600 -0.2283  0.4875 -0.1150
  458MPD2     C 6869   1.429   2.865  12.890  0.2961  0.1464  0.5308
  458MPD2    C1 6870   1.474   2.792  12.997  0.3324 -1.3483  0.4558
  458MPD2    C2 6871   1.386   2.714  13.069 -0.1110 -0.1365 -0.0926
  458MPD2    C3 6872   1.249   2.725  13.049  0.5094  0.4636 -0.6845
  458MPD2    C4 6873   1.207   2.800  12.944 -0.1264 -0.8476 -0.4769
  458MPD2    C5 6874   1.295   2.871  12.862  0.5044  0.1528 -0.9512
  458MPD2     H 6875   1.418   2.645  13.145 -1.6632 -2.7320 -1.7896
  458MPD2    H1 6876   1.103   2.820  12.921 -0.0222 -0.7913 -0.8940
  458MPD2    H2 6877   1.492   2.921  12.822  0.1587  0.0508  0.3254
  458MPD2    H3 6878   1.260   2.938  12.785  0.4271  1.7797  0.5028
  458MPD2     N 6879   1.166   2.660  13.138 -0.4150  0.7400 -0.1256
  458MPD2    H5 6880   1.207   2.613  13.218  0.3177  1.3989 -0.1131
  458MPD2    N1 6881   1.610   2.771  13.025  0.0935 -0.4810  0.7880
  458MPD2    H7 6882   1.627   2.677  13.058  1.2487 -0.0428  1.4296
  459TMC3    C1 6883   1.837   2.810  12.976  0.1148 -0.0973  0.5357
  459TMC3    C2 6884   1.909   2.867  12.873 -0.1426  0.4858  0.1056
  459TMC3    C3 6885   2.035   2.820  12.848  0.0517 -0.2490 -0.4689
  459TMC3    C4 6886   1.887   2.728  13.064 -0.4212 -0.3279  0.4792
  459TMC3    C5 6887   2.009   2.676  13.035  0.4241  0.1674 -0.2836
  459TMC3    C6 6888   2.082   2.719  12.927  0.3129  0.4129  0.2999
  459TMC3     C 6889   1.701   2.872  12.998  0.4778  0.8135  0.5663
  459TMC3     O 6890   1.676   2.987  12.957 -0.1089 -0.6567 -0.3364
  459TMC3     H 6891   1.862   2.948  12.817 -1.9294 -0.9856 -0.5469
  459TMC3    H1 6892   1.831   2.704  13.153 -0.0498 -4.0452 -0.2900
  459TMC3    H2 6893   2.181   2.677  12.911  0.8532  2.2256 -1.2001
  459TMC3    C7 6894   2.082   2.586  13.121  0.0815  0.4851  0.2889
  459TMC3    C8 6895   2.137   2.903  12.777 -0.5760 -0.1419  0.1011
  459TMC3    O1 6896   2.138   2.495  13.070  0.4366  0.1021  0.4929
  459TMC3    O2 6897   2.252   2.870  12.808 -0.4699  0.2204 -0.0362
  460MPD2     C 6898   1.633   1.020  10.827  0.1360 -0.3628 -0.4750
  460MPD2    C1 6899   1.497   1.005  10.829  0.3107 -1.0369 -0.4017
  460MPD2    C2 6900   1.418   1.083  10.745  0.1512 -0.4309  0.5608
  460MPD2    C3 6901   1.471   1.180  10.668 -0.9718  0.2845  0.1530
  460MPD2    C4 6902   1.609   1.197  10.666  0.0891 -0.0804  0.2609
  460MPD2    C5 6903   1.682   1.116  10.746 -0.2866  0.0330 -0.6814
  460MPD2     H 6904   1.310   1.079  10.752  0.0629  0.3070 -0.3216
  460MPD2    H1 6905   1.654   1.274  10.604  0.3104 -0.5802 -0.1966
  460MPD2    H2 6906   1.697   0.962  10.892 -0.4680  0.9188  1.2520
  460MPD2    H3 6907   1.790   1.131  10.745  0.1641 -3.1134 -0.1964
  460MPD2     N 6908   1.393   1.261  10.584 -0.5051 -0.3332 -0.7265
  460MPD2    H5 6909   1.299   1.232  10.559 -1.0023  1.9241 -1.4670
  460MPD2    N1 6910   1.448   0.909  10.922 -0.3937  0.2827 -0.1828
  460MPD2    H7 6911   1.517   0.862  10.979 -1.2380  0.1143  0.6883
  461TMC3    C1 6912   1.335   1.438  10.429  0.1620  0.0593  0.8167
  461TMC3    C2 6913   1.248   1.350  10.370 -1.2385  0.5763 -0.1968
  461TMC3    C3 6914   1.185   1.385  10.251 -0.2717  0.3773  0.1408
  461TMC3    C4 6915   1.360   1.560  10.367 -0.3568 -0.4718  0.2059
  461TMC3    C5 6916   1.301   1.582  10.246  0.6088  0.8656 -0.0934
  461TMC3    C6 6917   1.205   1.502  10.188 -0.2003  0.2804 -0.4162
  461TMC3     C 6918   1.431   1.380  10.523  0.1719  0.7223 -0.5290
  461TMC3     O 6919   1.515   1.458  10.571  0.0187  0.4170  0.6883
  461TMC3     H 6920   1.214   1.256  10.411  0.6432  0.3668  0.8950
  461TMC3    H1 6921   1.448   1.616  10.398  0.3785 -1.2155 -0.5534
  461TMC3    H2 6922   1.173   1.513  10.086  1.8506 -0.8904 -1.1969
  461TMC3    C7 6923   1.354   1.683  10.158 -0.0152 -0.6311  0.3317
  461TMC3    C8 6924   1.070   1.306  10.206 -0.1097 -0.1375 -0.0543
  461TMC3    O1 6925   1.348   1.670  10.038  0.1401 -0.2523  0.2595
  461TMC3    O2 6926   1.070   1.183  10.223 -0.2554  1.0570 -0.4093
  462TMC3    C1 6927   1.443   1.979   0.336  0.3375  0.0203  0.1747
  462TMC3    C2 6928   1.447   1.951   0.199 -0.2097  0.1746  0.4407
  462TMC3    C3 6929   1.516   1.835   0.171 -0.2064 -0.4497  0.5035
  462TMC3    C4 6930   1.500   1.899   0.432 -0.4218  0.2926 -0.1600
  462TMC3    C5 6931   1.541   1.773   0.395 -0.0068  0.0559  0.4336
  462TMC3    C6 6932   1.549   1.741   0.264  0.6329  0.0820 -0.3952
  462TMC3     C 6933   1.383   2.104   0.380  0.3817 -0.2728 -0.6446
  462TMC3     O 6934   1.308   2.107   0.479  0.1828 -0.4677 -0.7075
  462TMC3     H 6935   1.402   2.011   0.121 -0.4115 -1.2031 -0.5110
  462TMC3    H1 6936   1.476   1.927   0.534 -2.1214  0.1311 -0.5213
  462TMC3    H2 6937   1.605   1.650   0.240 -1.5092 -0.8653 -1.7896
  462TMC3    C7 6938   1.513   1.669   0.486 -0.1197 -0.3443 -0.6012
  462TMC3    C8 6939   1.486   1.789   0.036  0.3422 -0.0094 -0.4411
  462TMC3    O1 6940   1.456   1.574   0.433 -0.5896 -0.0356  0.8834
  462TMC3    O2 6941   1.405   1.852  17.706 -0.0749  0.1238  0.0552
  463MPD2     C 6942   3.069   0.725   1.363  0.3996  0.2304  0.1343
  463MPD2    C1 6943   2.964   0.820   1.350  0.2964  0.1237  0.5784
  463MPD2    C2 6944   2.993   0.953   1.373 -0.1371  0.2240  0.4216
  463MPD2    C3 6945   3.128   0.991   1.389  0.0784 -0.8520 -0.2424
  463MPD2    C4 6946   3.224   0.895   1.395 -0.1474 -0.7337 -0.1294
  463MPD2    C5 6947   3.199   0.762   1.388  0.1291 -0.2269 -0.1430
  463MPD2     H 6948   2.904   1.015   1.368  0.7227  1.1614 -3.0322
  463MPD2    H1 6949   3.326   0.932   1.402  1.0255 -3.1776 -4.3055
  463MPD2    H2 6950   3.058   0.617   1.358 -1.7894  0.5157 -1.2552
  463MPD2    H3 6951   3.285   0.697   1.386  0.9700  0.8537  1.2043
  463MPD2     N 6952   3.169   1.129   1.407 -0.3625 -0.8415  0.4559
  463MPD2    H5 6953   3.268   1.149   1.415 -0.5472  0.1793  0.1874
  463MPD2    N1 6954   2.831   0.785   1.311  0.3402  0.1920  0.1133
  463MPD2    H7 6955   2.775   0.869   1.301  0.8963  0.7832  2.0770
  464TMC3    C1 6956   2.661   0.642   1.242  0.1331  0.5430 -0.1495
  464TMC3    C2 6957   2.574   0.745   1.260  0.2325  0.0545  0.0756
  464TMC3    C3 6958   2.438   0.710   1.257  0.0556  0.7626 -0.4391
  464TMC3    C4 6959   2.616   0.519   1.212  0.6357 -0.1357 -0.1992
  464TMC3    C5 6960   2.485   0.485   1.202  0.2301  0.9426 -0.3181
  464TMC3    C6 6961   2.394   0.586   1.239  0.5482  0.0720  0.4779
  464TMC3     C 6962   2.800   0.656   1.272  0.1877  0.3514  0.4329
  464TMC3     O 6963   2.869   0.553   1.274  0.2703 -0.0507 -0.1704
  464TMC3     H 6964   2.608   0.848   1.254 -0.0789  0.2261  1.0991
  464TMC3    H1 6965   2.675   0.432   1.188  1.4606  0.7414 -1.3453
  464TMC3    H2 6966   2.287   0.574   1.243  0.7974 -2.2299  0.5605
  464TMC3    C7 6967   2.442   0.344   1.191  0.0919 -0.1497 -0.6319
  464TMC3    C8 6968   2.340   0.808   1.305 -0.0150 -0.3140  0.2159
  464TMC3    O1 6969   2.527   0.259   1.182  0.7328 -0.1000 -0.6063
  464TMC3    O2 6970   2.229   0.791   1.260  0.6086 -0.1673  0.2962
  465MPD2     C 6971   3.463   3.772  16.856  0.4128  0.4902 -0.0200
  465MPD2    C1 6972   3.332   3.726  16.877  0.4607 -0.1882 -0.5514
  465MPD2    C2 6973   3.240   3.732  16.779  0.8095  0.0226  0.4234
  465MPD2    C3 6974   3.280   3.774  16.655 -0.6897 -0.1296  0.2474
  465MPD2    C4 6975   3.403   3.830  16.635 -0.3077  0.1278  0.3349
  465MPD2    C5 6976   3.494   3.824  16.735 -0.2527  0.2737  0.3413
  465MPD2     H 6977   3.146   3.689  16.812 -0.2956  1.4893 -0.8319
  465MPD2    H1 6978   3.443   3.874  16.544 -1.4643  0.5997  0.0595
  465MPD2    H2 6979   3.536   3.785  16.935  2.1146 -1.2089 -1.3067
  465MPD2    H3 6980   3.597   3.851  16.717  0.1787 -1.0117  0.8839
  465MPD2     N 6981   3.171   3.790  16.561 -0.4172  0.3169  0.3005
  465MPD2    H5 6982   3.079   3.765  16.598  0.7948 -2.2034  1.5960
  465MPD2    N1 6983   3.294   3.699  17.009  0.6106  0.2287  0.1429
  465MPD2    H7 6984   3.197   3.683  17.035  0.0075  1.2593 -1.4849
  466TMC3    C1 6985   2.818   3.847  16.409  0.2454  0.8474  0.6182
  466TMC3    C2 6986   2.796   3.953  16.327 -0.8567 -0.1506  0.4623
  466TMC3    C3 6987   2.902   4.015  16.277  0.5829  0.1064  0.4886
  466TMC3    C4 6988   2.946   3.786  16.435  0.8303 -0.9631  0.0002
  466TMC3    C5 6989   3.048   3.855  16.374  0.3205  0.3200  0.7062
  466TMC3    C6 6990   3.026   3.967  16.306  0.2399 -0.2843 -0.7280
  466TMC3     C 6991   2.707   3.798  16.495 -0.6122  0.1884  0.0801
  466TMC3     O 6992   2.734   3.713  16.577 -0.0385  0.3745 -0.3169
  466TMC3     H 6993   2.694   3.987  16.312 -0.5756 -0.1641 -1.5190
  466TMC3    H1 6994   2.962   3.701  16.501 -0.6561 -0.2010  1.3339
  466TMC3    H2 6995   3.114   4.018  16.271  0.7826  0.1214  1.2549
  466TMC3    C7 6996   3.177   3.848  16.435 -1.1358  0.6987  0.8273
  466TMC3    C8 6997   2.882   4.155  16.239  0.3392 -0.3806 -0.4244
  466TMC3    O1 6998   3.283   3.889  16.383 -0.3604  0.4881 -0.7006
  466TMC3    O2 6999   2.971   4.221  16.192 -1.1834 -0.4079 -0.3802
  467TMC3    C1 7000   4.305   2.234  13.664  0.3321 -0.7470  0.1080
  467TMC3    C2 7001   4.351   2.183  13.541 -0.7393 -0.1221 -0.4054
  467TMC3    C3 7002   4.265   2.193  13.439 -0.5738 -0.1617  0.0750
  467TMC3    C4 7003   4.172   2.274  13.685 -0.2062  0.4654  0.3000
  467TMC3    C5 7004   4.091   2.281  13.572  0.0359  0.0842 -0.5896
  467TMC3    C6 7005   4.140   2.241  13.449 -0.3371 -0.5135 -0.3458
  467TMC3     C 7006   4.403   2.333  13.709  0.0377  0.0772  0.7202
  467TMC3     O 7007   4.505   2.352  13.640  0.1941 -0.3148 -0.2261
  467TMC3     H 7008   4.456   2.177  13.516 -0.3302  1.6325  0.8883
  467TMC3    H1 7009   4.143   2.300  13.786 -3.5128 -0.2671 -0.4599
  467TMC3    H2 7010   4.079   2.260  13.362  1.4281  0.4609 -1.3669
  467TMC3    C7 7011   3.966   2.348  13.573 -0.0465 -0.0712  0.3015
  467TMC3    C8 7012   4.340   2.236  13.322  0.7288  0.4597 -0.2648
  467TMC3    O1 7013   3.938   2.395  13.466  0.4780  0.0195  0.1428
  467TMC3    O2 7014   4.420   2.152  13.283 -0.2908 -0.1907  0.3795
  468MPD2     C 7015   2.540   0.774  11.034 -0.1904  0.1025 -0.1768
  468MPD2    C1 7016   2.664   0.786  11.094  0.1096 -0.3916 -0.3082
  468MPD2    C2 7017   2.713   0.680  11.171 -0.4995  0.8195  0.0998
  468MPD2    C3 7018   2.661   0.552  11.162 -0.4702  0.9051 -0.1194
  468MPD2    C4 7019   2.546   0.541  11.084 -0.1117 -0.4857 -0.1157
  468MPD2    C5 7020   2.485   0.652  11.030  0.2829 -0.2339 -0.0620
  468MPD2     H 7021   2.799   0.713  11.228  0.5476 -1.7152 -0.0240
  468MPD2    H1 7022   2.493   0.447  11.077 -1.2462  0.0772  0.9124
  468MPD2    H2 7023   2.493   0.857  10.982  1.4363 -0.1568 -2.0811
  468MPD2    H3 7024   2.387   0.640  10.985  0.6310 -1.1018 -0.6074
  468MPD2     N 7025   2.721   0.439  11.225 -0.0290  0.2333  0.0740
  468MPD2    H5 7026   2.671   0.352  11.210  1.7077 -0.7717  0.0980
  468MPD2    N1 7027   2.740   0.906  11.101  0.4472  0.2502  0.1232
  468MPD2    H7 7028   2.824   0.898  11.157  0.6471 -1.4067 -0.4354
  469TMC3    C1 7029   2.807   1.124  11.081  0.0379  0.3102  0.6079
  469TMC3    C2 7030   2.934   1.075  11.110  0.2961 -0.1333 -0.2228
  469TMC3    C3 7031   3.003   1.145  11.211 -0.4563  0.4955 -0.0336
  469TMC3    C4 7032   2.752   1.230  11.158  0.1767  0.3135  0.2822
  469TMC3    C5 7033   2.826   1.290  11.259 -0.6823 -0.4984 -0.3069
  469TMC3    C6 7034   2.951   1.243  11.295  0.0195 -0.1559 -0.1129
  469TMC3     C 7035   2.708   1.027  11.048  0.4399  0.4658  0.1960
  469TMC3     O 7036   2.599   1.062  11.010  0.2794 -0.2217  0.3943
  469TMC3     H 7037   2.984   1.009  11.041  0.5136 -2.3555  2.0561
  469TMC3    H1 7038   2.647   1.255  11.148 -0.1709 -0.8399  1.1262
  469TMC3    H2 7039   3.012   1.294  11.368 -1.9308  0.9982  0.7100
  469TMC3    C7 7040   2.754   1.374  11.352 -0.5501 -0.8860  0.0520
  469TMC3    C8 7041   3.146   1.149  11.185 -0.2752  0.5050 -0.2403
  469TMC3    O1 7042   2.641   1.399  11.322  1.0288 -1.0006 -0.1118
  469TMC3    O2 7043   3.192   1.135  11.072 -0.2198 -0.8012 -0.7951
  470TMC3    C1 7044   0.355   1.781   0.978  0.5578 -0.5333  0.3680
  470TMC3    C2 7045   0.446   1.837   1.056  0.5708 -0.1186  0.0911
  470TMC3    C3 7046   0.405   1.939   1.131  0.5618 -0.4275 -0.2188
  470TMC3    C4 7047   0.226   1.812   0.975  0.0044 -1.1557  0.8160
  470TMC3    C5 7048   0.185   1.913   1.057 -0.0118 -0.3029  0.0050
  470TMC3    C6 7049   0.276   1.980   1.140  0.8421 -0.3482  0.1071
  470TMC3     C 7050   0.416   1.706   0.868  0.6079  0.0278  0.4434
  470TMC3     O 7051   0.533   1.730   0.846 -0.3976 -0.0519 -0.0918
  470TMC3     H 7052   0.552   1.811   1.050  0.2471 -1.1229 -1.1990
  470TMC3    H1 7053   0.158   1.768   0.902  0.9050  0.7315 -1.1865
  470TMC3    H2 7054   0.253   2.073   1.192 -2.3753 -1.2390  0.2257
  470TMC3    C7 7055   0.072   1.988   1.013  0.2447  0.2430 -0.4456
  470TMC3    C8 7056   0.501   2.006   1.220 -0.5693  0.8423 -0.4662
  470TMC3    O1 7057   0.012   1.954   0.912 -0.2400 -0.5110  0.3889
  470TMC3    O2 7058   0.451   2.068   1.312  0.0730 -0.1758  0.0128
  471MPD2     C 7059   0.968   2.914  17.058  0.0469  0.4899  0.2850
  471MPD2    C1 7060   1.062   2.819  17.037  0.6087 -0.1526  0.3128
  471MPD2    C2 7061   1.093   2.731  17.140 -0.0290  0.0672 -0.5383
  471MPD2    C3 7062   1.039   2.746  17.268 -0.2791 -0.1718  0.0807
  471MPD2    C4 7063   0.956   2.857  17.290 -0.6187 -0.1497 -0.6953
  471MPD2    C5 7064   0.925   2.937  17.186 -0.3121  0.2839 -0.4781
  471MPD2     H 7065   1.154   2.643  17.117 -1.7387 -1.2703  0.0701
  471MPD2    H1 7066   0.916   2.873  17.390  1.6035 -0.0623  0.1815
  471MPD2    H2 7067   0.932   2.970  16.972  1.2782  0.4911 -0.2347
  471MPD2    H3 7068   0.868   3.026  17.209 -0.8017 -0.8160  2.7065
  471MPD2     N 7069   1.087   2.656  17.367 -0.0423  0.4242 -0.5268
  471MPD2    H5 7070   1.162   2.595  17.337 -0.1043 -0.9785  2.2167
  471MPD2    N1 7071   1.117   2.784  16.910  0.2294 -0.0853  0.3728
  471MPD2    H7 7072   1.161   2.695  16.888  1.0711  0.5263 -0.4269
  472TMC3    C1 7073   1.169   2.798  16.683 -0.3811  0.5821 -0.2560
  472TMC3    C2 7074   1.132   2.841  16.556  0.4542 -0.0022 -0.3771
  472TMC3    C3 7075   1.178   2.770  16.452 -0.1476 -0.4980 -0.3757
  472TMC3    C4 7076   1.252   2.692  16.704 -0.6422  0.3404 -0.4303
  472TMC3    C5 7077   1.297   2.620  16.594  0.6307 -0.4163 -0.7747
  472TMC3    C6 7078   1.259   2.664  16.472  0.7248 -0.2164 -0.2548
  472TMC3     C 7079   1.120   2.868  16.801 -0.9200  0.0659  0.2034
  472TMC3     O 7080   1.099   2.988  16.792 -0.3642  0.7034 -0.1953
  472TMC3     H 7081   1.081   2.936  16.548  1.2270  0.3656 -0.9223
  472TMC3    H1 7082   1.291   2.664  16.801 -1.0560 -0.7489 -0.5871
  472TMC3    H2 7083   1.308   2.623  16.384 -1.8407 -2.2930 -0.7250
  472TMC3    C7 7084   1.287   2.478  16.611 -0.3173  0.0592  0.6509
  472TMC3    C8 7085   1.087   2.743  16.340  0.4880  0.0597  1.5446
  472TMC3    O1 7086   1.270   2.447  16.729 -0.2906 -0.3325 -0.0997
  472TMC3    O2 7087   1.023   2.841  16.303 -0.0339  0.0661  0.4661
  473MPD2     C 7088   0.815   4.327  13.711 -0.1949 -0.2197 -0.1560
  473MPD2    C1 7089   0.727   4.432  13.696  0.2190 -0.1329  0.2764
  473MPD2    C2 7090   0.731   4.548  13.769  0.5229  0.4967  0.3280
  473MPD2    C3 7091   0.839   4.558  13.857  1.0216  0.0730 -0.6090
  473MPD2    C4 7092   0.933   4.464  13.874  0.0323  0.0737  0.3295
  473MPD2    C5 7093   0.924   4.351  13.797 -0.4737  0.0837  0.3409
  473MPD2     H 7094   0.650   4.620  13.765 -0.8448 -1.0143  0.7784
  473MPD2    H1 7095   1.025   4.483  13.928 -0.5116  0.7120  1.0220
  473MPD2    H2 7096   0.818   4.242  13.644  0.5158 -0.6945  0.4770
  473MPD2    H3 7097   1.008   4.283  13.804 -0.7693 -0.3629 -0.5958
  473MPD2     N 7098   0.857   4.678  13.928 -0.6921  0.3930 -0.2109
  473MPD2    H5 7099   0.917   4.671  14.010  0.2329 -0.7254 -0.9793
  473MPD2    N1 7100   0.622   4.422  13.602 -0.0433 -0.4211 -0.0505
  473MPD2    H7 7101   0.563   4.504  13.591 -0.3678 -0.3564  2.0958
  474TMC3    C1 7102   0.863   0.166  13.977 -0.2786 -0.8331  0.2024
  474TMC3    C2 7103   0.842   0.292  13.927 -0.3770 -0.6917 -0.1640
  474TMC3    C3 7104   0.911   0.397  13.976 -0.3762  0.6697  0.1655
  474TMC3    C4 7105   0.943   0.149  14.083 -0.4756 -0.5106 -0.2615
  474TMC3    C5 7106   1.010   0.253  14.133  0.4379 -0.6324 -0.4200
  474TMC3    C6 7107   0.992   0.378  14.083  0.2518  0.1107  0.4512
  474TMC3     C 7108   0.807   0.066  13.893 -0.9476 -0.5428 -0.8062
  474TMC3     O 7109   0.759   0.101  13.783  0.3273  0.4482 -0.1879
  474TMC3     H 7110   0.775   0.311  13.844  1.1025 -0.7151 -1.3655
  474TMC3    H1 7111   0.933   0.064  14.150 -3.8599 -1.6367 -2.2368
  474TMC3    H2 7112   1.032   0.463  14.136 -0.1106 -0.0393  0.9702
  474TMC3    C7 7113   1.083   0.229  14.255  0.0287 -1.0041  0.4995
  474TMC3    C8 7114   0.935   0.504  13.878  0.0137  0.5457  0.2765
  474TMC3    O1 7115   1.098   0.110  14.278  0.0127 -0.2899  0.1261
  474TMC3    O2 7116   0.897   0.484  13.763 -0.4487  0.1295  0.6919
  475MPD2     C 7117   4.186   3.490  10.253  0.4485  0.5692  0.1451
  475MPD2    C1 7118   4.192   3.570  10.361  0.2091 -0.0221  0.8214
  475MPD2    C2 7119   4.096   3.576  10.457  0.3718  0.5376  0.0822
  475MPD2    C3 7120   3.978   3.501  10.439 -0.2344 -0.5815  0.2896
  475MPD2    C4 7121   3.967   3.427  10.324  0.8534  0.0368  0.2688
  475MPD2    C5 7122   4.073   3.417  10.233 -0.0410  0.4821 -0.3362
  475MPD2     H 7123   4.110   3.652  10.533 -0.8801  0.5507  0.3082
  475MPD2    H1 7124   3.879   3.366  10.307  1.2974 -0.2359 -1.0552
  475MPD2    H2 7125   4.256   3.483  10.171  3.0117  0.1873  2.3409
  475MPD2    H3 7126   4.060   3.351  10.148  2.4664 -1.1479  0.5626
  475MPD2     N 7127   3.873   3.509  10.537 -0.1286 -0.2462  0.6896
  475MPD2    H5 7128   3.876   3.568  10.619  1.8071 -0.2948  0.6647
  475MPD2    N1 7129   4.309   3.643  10.385  0.7545 -0.2025 -0.5368
  475MPD2    H7 7130   4.329   3.668  10.482  1.9074 -1.3923 -0.4655
  476TMC3    C1 7131   4.456   3.816  10.353  0.0014 -0.0087 -0.1280
  476TMC3    C2 7132   4.384   3.924  10.315  0.3613  0.1800 -0.0690
  476TMC3    C3 7133   4.334   4.012  10.410  0.0958 -0.5333 -0.0154
  476TMC3    C4 7134   4.483   3.799  10.485  0.2314 -0.5825 -0.1806
  476TMC3    C5 7135   4.435   3.884  10.577 -0.5323 -0.1771  1.0343
  476TMC3    C6 7136   4.363   3.992  10.543  0.1031 -1.0358  0.7414
  476TMC3     C 7137   4.400   3.694  10.296 -0.0880  0.3888  0.9258
  476TMC3     O 7138   4.392   3.685  10.173 -0.1593 -0.4103 -0.0825
  476TMC3     H 7139   4.363   3.938  10.209  2.0350  1.2079 -0.2655
  476TMC3    H1 7140   4.530   3.704  10.511  0.9228 -0.2605 -0.2611
  476TMC3    H2 7141   4.304   4.055  10.610 -0.7489 -3.0718  1.9033
  476TMC3    C7 7142   4.416   3.829  10.708  0.6520  0.2167 -0.0031
  476TMC3    C8 7143   4.204   4.056  10.385 -0.1055  0.3150  0.0113
  476TMC3    O1 7144   4.428   3.706  10.724  0.4808 -0.0461 -0.1201
  476TMC3    O2 7145   4.177   4.172  10.404 -0.0386  0.5745  0.1477
  477MPD2     C 7146   1.712   4.600  11.705 -0.5724 -0.4657  0.3414
  477MPD2    C1 7147   1.586   4.601  11.759 -0.7578 -0.4722  0.2488
  477MPD2    C2 7148   1.573   4.536  11.882 -0.8170 -0.3098 -0.2789
  477MPD2    C3 7149   1.685   4.476  11.937  0.9633 -0.4318 -0.2110
  477MPD2    C4 7150   1.802   4.467  11.874  0.5351  0.5931  0.2329
  477MPD2    C5 7151   1.815   4.535  11.754 -0.5258  0.4042 -0.2978
  477MPD2     H 7152   1.473   4.526  11.923 -1.0356 -0.5374 -0.8591
  477MPD2    H1 7153   1.883   4.414  11.923 -1.1914 -1.1810  1.1701
  477MPD2    H2 7154   1.731   4.646  11.609 -0.8821  0.8244  0.8956
  477MPD2    H3 7155   1.905   4.524  11.694 -1.7095 -0.6668 -1.8718
  477MPD2     N 7156   1.669   4.397  12.056 -0.0812 -0.3132  0.4712
  477MPD2    H5 7157   1.745   4.335  12.079 -0.3307  0.2199  2.7373
  477MPD2    N1 7158   1.482   4.664  11.691  0.6153 -0.2612  0.4284
  477MPD2    H7 7159   1.501   4.694  11.595  0.0797 -0.0007  0.4063
  478TMC3    C1 7160   1.275   0.015  11.619  0.5228 -0.0131 -0.7135
  478TMC3    C2 7161   1.154   0.040  11.643 -0.1849  0.0307 -0.2815
  478TMC3    C3 7162   1.092   0.133  11.562 -0.3424 -0.8496  0.2317
  478TMC3    C4 7163   1.345   0.059  11.504 -0.0341  0.1160 -0.8008
  478TMC3    C5 7164   1.274   0.150  11.423  0.1838  0.0846 -0.3046
  478TMC3    C6 7165   1.147   0.191  11.452 -0.5064 -0.2661 -0.0979
  478TMC3     C 7166   1.352   4.676  11.723  0.3436  0.6369  0.0356
  478TMC3     O 7167   1.298   4.634  11.824  0.1443 -0.3521  0.0873
  478TMC3     H 7168   1.104   0.019  11.737 -1.0471 -0.4607 -0.8635
  478TMC3    H1 7169   1.439   0.010  11.483  0.9499  0.9807  1.5562
  478TMC3    H2 7170   1.088   0.267  11.401 -2.5609 -1.3938  0.5875
  478TMC3    C7 7171   1.338   0.187  11.301  0.0830  0.3838 -0.4044
  478TMC3    C8 7172   0.964   0.175  11.611  0.2745 -0.0279  0.3112
  478TMC3    O1 7173   1.453   0.150  11.288 -0.1338  0.0191  0.8201
  478TMC3    O2 7174   0.896   0.092  11.671  0.5181 -0.3944  0.3067
  479MPD2     C 7175   0.805   2.312  15.529  0.6596 -0.8054 -0.6456
  479MPD2    C1 7176   0.801   2.199  15.604  0.4484 -0.0981 -0.0451
  479MPD2    C2 7177   0.899   2.178  15.701 -0.2002 -0.3690 -0.4423
  479MPD2    C3 7178   1.000   2.267  15.727  0.2367 -0.2737  0.7414
  479MPD2    C4 7179   0.991   2.387  15.658 -0.7736  0.2268  0.4674
  479MPD2    C5 7180   0.900   2.407  15.561 -0.6593  0.1236  0.7132
  479MPD2     H 7181   0.899   2.077  15.740 -2.3430  0.3504  1.4334
  479MPD2    H1 7182   1.057   2.472  15.671  0.9059 -0.9137 -0.6677
  479MPD2    H2 7183   0.732   2.330  15.451  1.0038  0.0635 -0.7785
  479MPD2    H3 7184   0.894   2.504  15.512 -1.3672  0.9349  2.4120
  479MPD2     N 7185   1.095   2.250  15.834 -0.0312 -0.3126 -0.6999
  479MPD2    H5 7186   1.182   2.302  15.829 -0.5646  0.5561 -1.0789
  479MPD2    N1 7187   0.686   2.124  15.596 -0.1124  0.2366 -0.1174
  479MPD2    H7 7188   0.617   2.148  15.526  1.4162  2.9222 -0.6752
  480TMC3    C1 7189   0.811   1.992  16.112 -0.0801 -0.4662  1.1942
  480TMC3    C2 7190   0.712   2.089  16.125  0.4347 -0.0315 -0.4970
  480TMC3    C3 7191   0.731   2.211  16.066 -1.0110 -0.8133 -0.7927
  480TMC3    C4 7192   0.927   2.011  16.036 -0.2205 -0.1573  0.1416
  480TMC3    C5 7193   0.944   2.139  15.982  0.4310 -0.5232  0.5897
  480TMC3    C6 7194   0.852   2.240  15.999  0.0419 -1.0181  0.3461
  480TMC3     C 7195   0.815   1.883  16.203  0.3186 -0.3989  0.5163
  480TMC3     O 7196   0.922   1.824  16.226 -1.0488  0.1540 -0.0184
  480TMC3     H 7197   0.618   2.062  16.171  0.8486 -1.3487 -0.4359
  480TMC3    H1 7198   1.008   1.940  16.047 -0.3560  0.1811  3.5094
  480TMC3    H2 7199   0.880   2.340  15.970 -2.5924 -0.0459  1.1971
  480TMC3    C7 7200   1.076   2.167  15.940  0.8104 -0.1959 -0.4885
  480TMC3    C8 7201   0.610   2.256  16.010  0.3263 -0.2648 -0.1234
  480TMC3    O1 7202   1.155   2.110  16.010 -0.1940  1.0761 -0.8015
  480TMC3    O2 7203   0.510   2.194  16.052 -0.1024  0.4184 -0.5969
  481MPD2     C 7204   1.996   1.924  14.273  0.2109  0.0566 -0.3686
  481MPD2    C1 7205   1.936   1.802  14.303  0.4123 -0.5456 -0.4813
  481MPD2    C2 7206   1.938   1.753  14.428  0.6765 -0.2179 -0.9106
  481MPD2    C3 7207   2.006   1.821  14.526 -0.2950  0.5829  0.2413
  481MPD2    C4 7208   2.082   1.934  14.490 -0.0305 -0.4420  0.2209
  481MPD2    C5 7209   2.072   1.989  14.364 -0.3556 -0.2523 -0.1289
  481MPD2     H 7210   1.878   1.667  14.457 -0.4832  0.0228 -2.5850
  481MPD2    H1 7211   2.140   1.986  14.566  0.8713 -0.6231 -0.3532
  481MPD2    H2 7212   1.985   1.966  14.174  1.8544  2.0431  0.2779
  481MPD2    H3 7213   2.121   2.084  14.342 -1.0561 -0.4912 -2.5976
  481MPD2     N 7214   1.999   1.771  14.659  0.5753  0.0877 -0.3019
  481MPD2    H5 7215   2.066   1.803  14.728  1.3612 -1.1739 -0.4886
  481MPD2    N1 7216   1.853   1.736  14.211 -0.0990 -0.1755 -0.1792
  481MPD2    H7 7217   1.826   1.784  14.126  1.4565  0.7515 -0.1481
  482TMC3    C1 7218   1.726   1.562  14.113  0.7599  0.3073  0.3074
  482TMC3    C2 7219   1.691   1.427  14.129 -0.1911 -0.7457 -0.7094
  482TMC3    C3 7220   1.574   1.376  14.088  0.4491  0.2102 -0.5543
  482TMC3    C4 7221   1.631   1.643  14.065  0.4991 -0.3147 -0.3223
  482TMC3    C5 7222   1.509   1.593  14.026 -0.0957 -0.4407  0.3049
  482TMC3    C6 7223   1.481   1.460  14.036 -0.3446 -0.2034  0.0026
  482TMC3     C 7224   1.814   1.607  14.215 -0.0391  0.0299  0.0878
  482TMC3     O 7225   1.848   1.516  14.293 -0.1444 -0.1711  0.0867
  482TMC3     H 7226   1.764   1.360  14.174  0.6709  0.7235  0.0844
  482TMC3    H1 7227   1.641   1.749  14.046 -3.1759  0.0700 -0.1308
  482TMC3    H2 7228   1.389   1.423  13.994 -0.1850  0.2027 -0.7181
  482TMC3    C7 7229   1.419   1.675  13.939  0.0754 -0.6322 -0.3365
  482TMC3    C8 7230   1.587   1.240  14.053  0.3833 -0.2814 -0.0166
  482TMC3    O1 7231   1.301   1.634  13.931  0.1496  0.1087  0.1290
  482TMC3    O2 7232   1.651   1.173  14.129  0.1369  0.2037  0.8359
  483TMC3    C1 7233   4.592   1.193   1.171 -0.0735  0.2629  0.3512
  483TMC3    C2 7234   4.654   1.316   1.151 -0.6749  0.3290 -0.2143
  483TMC3    C3 7235   0.022   1.353   1.231 -0.6146 -0.0430  0.0168
  483TMC3    C4 7236   4.638   1.105   1.264 -0.6627  0.4700  0.0077
  483TMC3    C5 7237   0.008   1.148   1.342 -0.1632  0.2378  0.2627
  483TMC3    C6 7238   0.054   1.274   1.340 -0.5007  0.0411  0.4587
  483TMC3     C 7239   4.493   1.144   1.075  0.2343  0.0437  0.0352
  483TMC3     O 7240   4.388   1.199   1.051 -0.3745 -0.0671  0.6749
  483TMC3     H 7241   4.626   1.374   1.063  0.8605  0.2499 -0.7410
  483TMC3    H1 7242   4.597   1.005   1.276 -0.3719  0.1752 -1.4524
  483TMC3    H2 7243   0.151   1.300   1.381 -0.4557 -1.4027  1.2594
  483TMC3    C7 7244   0.096   1.052   1.395 -0.2490 -0.1504  0.2892
  483TMC3    C8 7245   0.143   1.389   1.164 -0.2653 -0.0985 -0.1770
  483TMC3    O1 7246   0.092   0.948   1.343  0.0892 -0.2489  0.0816
  483TMC3    O2 7247   0.173   1.312   1.078  0.2352 -0.3583  0.2216
  484MPD2     C 7248   2.095   3.144  12.505 -0.4551 -0.8981 -0.1617
  484MPD2    C1 7249   2.158   3.078  12.605 -0.3679  0.5057 -0.4537
  484MPD2    C2 7250   2.296   3.107  12.628 -0.1610  0.4492  0.2077
  484MPD2    C3 7251   2.367   3.196  12.542 -0.6664 -0.9415 -0.3432
  484MPD2    C4 7252   2.300   3.255  12.439 -0.0973  0.5484 -0.7284
  484MPD2    C5 7253   2.166   3.235  12.423  0.2986 -0.0073  0.7777
  484MPD2     H 7254   2.365   3.053  12.691  0.9618  1.5764 -0.0418
  484MPD2    H1 7255   2.356   3.317  12.370  0.6144  0.9678  0.2168
  484MPD2    H2 7256   1.994   3.116  12.477 -0.7265 -0.6766  0.5867
  484MPD2    H3 7257   2.108   3.271  12.338  0.2279 -1.6079  0.1544
  484MPD2     N 7258   2.504   3.221  12.544 -0.4501 -0.6826 -0.0382
  484MPD2    H5 7259   2.541   3.284  12.473  0.8866 -0.0409  1.2190
  484MPD2    N1 7260   2.085   2.985  12.687  0.2078  0.0870 -0.0147
  484MPD2    H7 7261   1.985   2.978  12.674  0.2814  0.6060 -0.8561
  485TMC3    C1 7262   2.727   3.181  12.585  0.6915 -0.0274 -1.0585
  485TMC3    C2 7263   2.827   3.085  12.610  0.0132 -0.4085  0.5901
  485TMC3    C3 7264   2.930   3.075  12.523 -0.0395  0.0578 -0.1935
  485TMC3    C4 7265   2.756   3.278  12.493 -0.0558  0.6840 -0.4515
  485TMC3    C5 7266   2.864   3.260  12.415  0.0534 -0.5927  0.4903
  485TMC3    C6 7267   2.942   3.151  12.413  0.0113  0.1030 -0.4650
  485TMC3     C 7268   2.595   3.166  12.629  0.6684 -0.7300  0.2492
  485TMC3     O 7269   2.581   3.074  12.714  0.0941  0.2493 -0.0212
  485TMC3     H 7270   2.821   3.017  12.694  1.2136  0.1452  1.1296
  485TMC3    H1 7271   2.690   3.359  12.463 -1.6789 -0.4513  0.0603
  485TMC3    H2 7272   2.994   3.120  12.323 -1.2664  1.3673 -1.6593
  485TMC3    C7 7273   2.923   3.375  12.352 -0.0684  0.8948 -0.0436
  485TMC3    C8 7274   3.058   3.048  12.577  0.4668 -0.0333 -0.1326
  485TMC3    O1 7275   3.016   3.354  12.280 -0.2044  0.1698  0.1975
  485TMC3    O2 7276   3.075   2.958  12.654  0.1347 -0.1517  0.4590
  486MPD2     C 7277   0.294   2.320  12.869  0.0708 -0.6647  0.2442
  486MPD2    C1 7278   0.194   2.233  12.846 -0.3141  0.2971 -0.5005
  486MPD2    C2 7279   0.073   2.286  12.798 -0.5134  0.5082  1.1904
  486MPD2    C3 7280   0.056   2.421  12.764 -0.0360 -0.7193  0.1240
  486MPD2    C4 7281   0.157   2.508  12.785 -0.3479 -0.5617  0.1391
  486MPD2    C5 7282   0.270   2.452  12.839  0.4409  0.4577 -0.0752
  486MPD2     H 7283   4.722   2.218  12.784  0.4702  0.2372 -3.3182
  486MPD2    H1 7284   0.148   2.616  12.779  1.9453 -0.3450  0.4922
  486MPD2    H2 7285   0.387   2.284  12.911  2.0399  2.2710 -1.5663
  486MPD2    H3 7286   0.353   2.522  12.847  0.1558  0.7771  0.1178
  486MPD2     N 7287   4.657   2.469  12.732 -0.4777 -0.3751  0.2404
  486MPD2    H5 7288   4.579   2.404  12.729  0.6789 -1.6653 -1.7715
  486MPD2    N1 7289   0.213   2.100  12.887 -0.2874 -0.1578 -0.2097
  486MPD2    H7 7290   0.299   2.073  12.933 -1.2733 -0.1458  1.6346
  487TMC3    C1 7291   0.167   1.869  12.917 -0.3834 -0.1145  0.3464
  487TMC3    C2 7292   0.131   1.756  12.853 -0.2220 -0.3680  0.6186
  487TMC3    C3 7293   0.173   1.634  12.899 -0.2706  0.3652 -0.1521
  487TMC3    C4 7294   0.241   1.855  13.030 -0.1154 -0.4179  0.4719
  487TMC3    C5 7295   0.284   1.737  13.078 -0.4537  0.4362  0.5398
  487TMC3    C6 7296   0.257   1.622  13.006  0.7984  0.5490  0.2463
  487TMC3     C 7297   0.115   2.002  12.875  0.5828 -0.0329  0.5650
  487TMC3     O 7298   0.006   2.002  12.818  0.0916  0.2179 -0.0364
  487TMC3     H 7299   0.075   1.765  12.760  0.4333 -1.0214  0.1568
  487TMC3    H1 7300   0.238   1.937  13.100 -1.1301  1.4180 -1.7268
  487TMC3    H2 7301   0.264   1.526  13.056 -2.1492 -0.1307 -0.6791
  487TMC3    C7 7302   0.261   1.715  13.221 -0.2659 -0.3897 -0.5793
  487TMC3    C8 7303   0.132   1.512  12.838  0.0785 -0.2836 -0.3202
  487TMC3    O1 7304   0.177   1.784  13.278 -0.1150 -0.5094 -0.2639
  487TMC3    O2 7305   0.218   1.430  12.801  0.0120 -0.4646  0.6230
  488MPD2     C 7306   0.411   3.958  16.475  0.2346 -0.7358 -0.2431
  488MPD2    C1 7307   0.496   4.075  16.461  0.2047 -0.3257 -0.1100
  488MPD2    C2 7308   0.534   4.147  16.580  0.6399 -0.3798 -0.1432
  488MPD2    C3 7309   0.483   4.116  16.699  0.1894 -0.4077 -0.2799
  488MPD2    C4 7310   0.389   4.019  16.708 -0.0540  0.0089  0.0196
  488MPD2    C5 7311   0.356   3.944  16.597  0.1229  0.7752 -0.5219
  488MPD2     H 7312   0.614   4.220  16.580  1.0146 -0.7911 -0.9961
  488MPD2    H1 7313   0.339   3.981  16.796  1.6403 -2.6763 -0.1584
  488MPD2    H2 7314   0.385   3.897  16.390  0.1557 -0.6012 -0.3169
  488MPD2    H3 7315   0.297   3.855  16.617 -1.2018  1.9472  0.8705
  488MPD2     N 7316   0.510   4.212  16.807 -0.3872  0.0556  0.7452
  488MPD2    H5 7317   0.568   4.294  16.795 -1.0053  0.4840  0.6891
  488MPD2    N1 7318   0.561   4.127  16.343 -0.0114 -0.2005  0.2743
  488MPD2    H7 7319   0.622   4.207  16.355  2.0513 -1.7051 -0.2685
  489TMC3    C1 7320   0.487   4.305  17.023  0.6104 -0.5639  0.6480
  489TMC3    C2 7321   0.605   4.370  17.010  0.7194  0.2105  0.2329
  489TMC3    C3 7322   0.624   4.490  17.074 -0.6083 -0.0957 -0.7878
  489TMC3    C4 7323   0.400   4.351  17.112  0.0957 -0.3381 -0.3942
  489TMC3    C5 7324   0.423   4.471  17.178 -0.9775 -0.5405 -0.4640
  489TMC3    C6 7325   0.533   4.546  17.153  0.4328 -0.3474  0.0940
  489TMC3     C 7326   0.447   4.203  16.929 -0.2624 -0.0017  0.3692
  489TMC3     O 7327   0.348   4.139  16.967 -0.0072  0.3078  0.4590
  489TMC3     H 7328   0.687   4.332  16.951  1.1080 -1.5839  1.8997
  489TMC3    H1 7329   0.311   4.291  17.131  0.0620  0.5893  2.4399
  489TMC3    H2 7330   0.537   4.648  17.190  2.2507 -0.4907  0.3168
  489TMC3    C7 7331   0.333   4.515  17.285 -0.0020  0.0224  0.0523
  489TMC3    C8 7332   0.731   4.572  17.035 -1.0043 -0.1159 -0.3587
  489TMC3    O1 7333   0.380   4.604  17.358  0.2506  0.1128 -0.2033
  489TMC3    O2 7334   0.801   4.527  16.943  0.3132 -0.2614 -0.0929
  490MPD2     C 7335   1.191   3.951  17.596  0.1843  0.3172  0.0234
  490MPD2    C1 7336   1.151   3.913  17.723 -0.5355  0.4061 -0.4211
  490MPD2    C2 7337   1.244   3.885   0.089 -0.0968  0.8504 -0.0194
  490MPD2    C3 7338   1.378   3.881   0.061  0.1079  0.2719 -0.5873
  490MPD2    C4 7339   1.421   3.918  17.665 -0.4436 -0.3089 -1.0091
  490MPD2    C5 7340   1.325   3.944  17.563  0.3161 -0.0897  0.1823
  490MPD2     H 7341   1.198   3.842   0.177  0.5797  0.8988  0.3574
  490MPD2    H1 7342   1.524   3.911  17.633 -0.0957  1.1767 -0.2121
  490MPD2    H2 7343   1.127   3.964  17.510  0.0815  0.9125  0.1898
  490MPD2    H3 7344   1.347   3.964  17.458  3.9642 -0.3854  0.8930
  490MPD2     N 7345   1.481   3.841   0.147  1.0445  0.0235  0.2677
  490MPD2    H5 7346   1.577   3.854   0.119  0.3932  2.2424 -0.9913
  490MPD2    N1 7347   1.017   3.886   0.024  0.2031  0.0095  0.4269
  490MPD2    H7 7348   1.011   3.849   0.118  0.2672 -0.8883  0.0807
  491TMC3    C1 7349   0.811   3.798  17.712  0.7242 -0.5847  0.1620
  491TMC3    C2 7350   0.805   3.773   0.115 -0.0736 -0.0863  0.5435
  491TMC3    C3 7351   0.799   3.651   0.158  0.2622 -0.5022 -0.7367
  491TMC3    C4 7352   0.805   3.693  17.621 -0.2614  0.1226  0.4556
  491TMC3    C5 7353   0.781   3.568  17.667 -0.0957 -0.3217  0.5701
  491TMC3    C6 7354   0.782   3.543   0.070 -1.0025 -0.3731 -0.5124
  491TMC3     C 7355   0.907   3.896  17.675  0.6032 -0.3405  0.3521
  491TMC3     O 7356   0.889   3.939  17.561  0.4653 -0.1688 -0.4748
  491TMC3     H 7357   0.797   3.862   0.176  1.3914  1.1224 -1.0253
  491TMC3    H1 7358   0.814   3.716  17.515  1.3761 -0.2957  0.5052
  491TMC3    H2 7359   0.756   3.442   0.101 -0.3375 -0.5936 -0.6731
  491TMC3    C7 7360   0.727   3.476  17.576  0.2567 -0.1808 -0.6282
  491TMC3    C8 7361   0.784   3.624   0.301  0.1835 -0.1843  0.1606
  491TMC3    O1 7362   0.740   3.362  17.613  0.0883  0.1274 -0.0299
  491TMC3    O2 7363   0.711   3.701   0.362  0.1665 -0.0496 -0.0378
  492MPD2     C 7364   1.359   3.293  11.592  0.7462  0.0298 -0.2950
  492MPD2    C1 7365   1.247   3.265  11.517  0.0104  0.4177 -0.5771
  492MPD2    C2 7366   1.148   3.192  11.577  0.0456  0.3585  0.7222
  492MPD2    C3 7367   1.151   3.155  11.713  0.5425 -0.2994 -0.4233
  492MPD2    C4 7368   1.269   3.189  11.783  0.0183 -0.9056 -0.1086
  492MPD2    C5 7369   1.370   3.258  11.724 -0.5351  0.2219  0.2318
  492MPD2     H 7370   1.066   3.166  11.511  0.9322 -1.8370  0.4745
  492MPD2    H1 7371   1.288   3.151  11.882  1.6102 -0.8104 -0.3825
  492MPD2    H2 7372   1.445   3.343  11.549  0.9596 -1.3017 -1.4038
  492MPD2    H3 7373   1.459   3.279  11.782 -0.7278  0.0615  0.5930
  492MPD2     N 7374   1.049   3.088  11.785  0.3221 -0.3506 -0.2128
  492MPD2    H5 7375   1.070   3.070  11.883  0.2131  2.0698  0.2596
  492MPD2    N1 7376   1.234   3.307  11.380  0.2687  0.1400  0.2020
  492MPD2    H7 7377   1.143   3.290  11.339  0.1493 -1.9063  1.3154
  493TMC3    C1 7378   1.255   3.471  11.214 -0.3015 -0.7644  0.3325
  493TMC3    C2 7379   1.296   3.601  11.201 -0.4356 -0.2704  0.2619
  493TMC3    C3 7380   1.263   3.669  11.082  0.0199  0.0466  0.5659
  493TMC3    C4 7381   1.176   3.413  11.113 -0.4187  0.0267 -0.2253
  493TMC3    C5 7382   1.131   3.490  11.011 -0.4009  0.6116  0.1804
  493TMC3    C6 7383   1.172   3.620  10.993 -0.1108 -0.2948  0.0774
  493TMC3     C 7384   1.315   3.398  11.320 -0.0525  0.5228 -0.5476
  493TMC3     O 7385   1.433   3.427  11.349  0.1835 -0.2754  0.6563
  493TMC3     H 7386   1.368   3.639  11.273 -0.4607 -0.3918  0.3504
  493TMC3    H1 7387   1.172   3.306  11.099  0.5238  0.0755 -0.9371
  493TMC3    H2 7388   1.154   3.670  10.898 -0.5018 -0.1957  0.2009
  493TMC3    C7 7389   1.040   3.439  10.918 -0.6571  0.0041  0.0393
  493TMC3    C8 7390   1.332   3.793  11.045 -0.1888  0.1067  0.1562
  493TMC3    O1 7391   1.007   3.509  10.825 -0.0776  0.2343  0.0533
  493TMC3    O2 7392   1.330   3.819  10.922  0.0546  0.3186  0.0009
  494TMC3    C1 7393   1.815   1.002   0.397  0.1285 -0.2151 -0.3399
  494TMC3    C2 7394   1.712   0.913   0.385 -0.5617 -0.6721 -0.1610
  494TMC3    C3 7395   1.717   0.837   0.271 -0.2963  0.5195  0.5755
  494TMC3    C4 7396   1.895   1.038   0.297 -0.1713  0.1350 -0.0524
  494TMC3    C5 7397   1.887   0.967   0.178 -0.0638  0.1706  0.1563
  494TMC3    C6 7398   1.803   0.863   0.162 -0.4498 -0.3008  0.1042
  494TMC3     C 7399   1.833   1.066   0.524  0.5828 -0.1461 -0.2474
  494TMC3     O 7400   1.740   1.052   0.598 -0.1207  0.2536 -0.0090
  494TMC3     H 7401   1.645   0.894   0.468  0.6569  3.7692  1.8249
  494TMC3    H1 7402   1.949   1.132   0.300 -1.9760  1.1478  1.0516
  494TMC3    H2 7403   1.809   0.812   0.066  2.0768 -1.0483  0.6755
  494TMC3    C7 7404   1.982   0.995   0.066  1.0403 -0.3159 -0.3451
  494TMC3    C8 7405   1.654   0.705   0.287  0.0978  0.3532  0.0765
  494TMC3    O1 7406   1.955   0.948  17.682  0.8799 -0.5576 -0.0136
  494TMC3    O2 7407   1.601   0.685   0.396 -0.3825  0.4658 -0.6504
  495TMC3    C1 7408   0.682   2.553  15.149  0.3580 -0.7925 -0.4060
  495TMC3    C2 7409   0.762   2.654  15.113 -0.1545 -0.0973 -0.3867
  495TMC3    C3 7410   0.772   2.770  15.192  0.0272  0.0949  0.1571
  495TMC3    C4 7411   0.632   2.546  15.278  0.3168  0.0015  0.2870
  495TMC3    C5 7412   0.646   2.659  15.356  0.2846  0.4985  1.0761
  495TMC3    C6 7413   0.718   2.773  15.320  0.3754 -0.3757 -0.2014
  495TMC3     C 7414   0.610   2.467  15.056  0.3815  0.1207 -0.0827
  495TMC3     O 7415   0.537   2.380  15.097 -0.0678  0.0341  0.1786
  495TMC3     H 7416   0.810   2.650  15.016 -2.0892  0.5898 -1.3825
  495TMC3    H1 7417   0.583   2.457  15.316 -2.4844  1.3843 -0.1135
  495TMC3    H2 7418   0.702   2.866  15.373 -2.9657 -0.3475 -1.2709
  495TMC3    C7 7419   0.618   2.653  15.500  0.0873 -0.5989  0.4658
  495TMC3    C8 7420   0.710   2.876  15.119 -0.1543  0.2863  0.3340
  495TMC3    O1 7421   0.702   2.701  15.574 -0.2001  0.8557  0.2414
  495TMC3    O2 7422   0.623   2.938  15.177  0.6122  0.0017  0.6520
  496MPD2     C 7423   2.568   2.075  15.087  0.1445  0.2115 -0.1986
  496MPD2    C1 7424   2.623   2.028  15.201 -0.1454  0.7020 -0.7042
  496MPD2    C2 7425   2.548   2.047  15.315 -0.0604 -0.4153  0.1900
  496MPD2    C3 7426   2.431   2.123  15.307 -0.2341  0.6371 -0.0763
  496MPD2    C4 7427   2.375   2.164  15.190 -0.4125  0.6146 -0.1029
  496MPD2    C5 7428   2.450   2.139  15.075  0.6752  0.8731 -0.2355
  496MPD2     H 7429   2.584   2.005  15.408  0.4087  1.5553  0.8951
  496MPD2    H1 7430   2.282   2.219  15.189 -0.6950  0.1398  0.7375
  496MPD2    H2 7431   2.621   2.053  14.995 -0.1140  2.6801 -0.9340
  496MPD2    H3 7432   2.418   2.161  14.974 -1.8350 -1.8221 -0.0266
  496MPD2     N 7433   2.356   2.162  15.420 -0.0969  0.3020  0.1554
  496MPD2    H5 7434   2.279   2.227  15.404  0.4103  0.4041 -1.8966
  496MPD2    N1 7435   2.742   1.954  15.189 -0.5221  0.1303 -0.1365
  496MPD2    H7 7436   2.775   1.938  15.095  1.7785  4.6760 -0.0831
  497TMC3    C1 7437   2.267   2.158  15.621 -0.0855 -0.0218  1.2068
  497TMC3    C2 7438   2.156   2.107  15.563  0.2448  0.8511 -0.4579
  497TMC3    C3 7439   2.040   2.174  15.603 -0.1824  0.1689  0.1642
  497TMC3    C4 7440   2.270   2.254  15.721  1.0073 -0.1443 -0.9475
  497TMC3    C5 7441   2.150   2.300  15.756  0.1083  0.2342  0.0007
  497TMC3    C6 7442   2.034   2.263  15.699  0.0360 -0.9581 -0.4583
  497TMC3     C 7443   2.382   2.127  15.550 -0.3951  1.0785 -0.6353
  497TMC3     O 7444   2.477   2.069  15.607 -0.0227 -0.1611 -0.0985
  497TMC3     H 7445   2.163   2.031  15.485 -0.8233  1.6137 -1.2976
  497TMC3    H1 7446   2.367   2.299  15.740  0.4295  1.2447 -1.2673
  497TMC3    H2 7447   1.944   2.316  15.730  1.3532  0.4361  1.0001
  497TMC3    C7 7448   2.138   2.332  15.898  0.2552 -0.3663 -0.3344
  497TMC3    C8 7449   1.908   2.143  15.549 -0.5159 -0.2974 -0.2152
  497TMC3    O1 7450   2.048   2.409  15.930  0.0742  0.0583 -0.0891
  497TMC3    O2 7451   1.818   2.223  15.567 -0.1136  0.5179 -0.2430
  498MPD2     C 7452   3.420   3.552   9.709  0.0808 -0.3571 -0.0742
  498MPD2    C1 7453   3.368   3.628   9.808 -0.4488 -0.7552 -0.4400
  498MPD2    C2 7454   3.248   3.604   9.867 -0.2331  0.0358  0.1885
  498MPD2    C3 7455   3.183   3.494   9.820 -0.0957 -0.6340  0.2945
  498MPD2    C4 7456   3.233   3.414   9.718  0.1937 -0.0424 -0.4810
  498MPD2    C5 7457   3.352   3.444   9.666  0.2297  0.1455  0.3766
  498MPD2     H 7458   3.210   3.666   9.948 -0.9974  1.1965 -1.0546
  498MPD2    H1 7459   3.188   3.322   9.682  0.3858 -0.3295  0.0131
  498MPD2    H2 7460   3.513   3.586   9.664 -0.0519  0.0375 -0.0505
  498MPD2    H3 7461   3.394   3.372   9.597 -0.2417  0.5648 -0.3392
  498MPD2     N 7462   3.052   3.472   9.865  0.0044 -0.3258  0.2506
  498MPD2    H5 7463   3.021   3.539   9.936 -1.7627 -0.8846  0.0035
  498MPD2    N1 7464   3.437   3.745   9.863  0.7595  0.3210  0.2450
  498MPD2    H7 7465   3.383   3.801   9.928  2.4562  1.8711  0.2970
  499TMC3    C1 7466   3.600   3.909   9.879  0.5371  0.7949  0.4966
  499TMC3    C2 7467   3.724   3.930   9.935  0.0720 -0.2113 -0.5711
  499TMC3    C3 7468   3.744   4.050   9.991  0.4740  0.4166  0.4839
  499TMC3    C4 7469   3.494   3.989   9.911  0.5618  0.6474  0.2876
  499TMC3    C5 7470   3.519   4.104   9.974  0.6962  0.2659 -0.4053
  499TMC3    C6 7471   3.641   4.143  10.013 -0.4029 -0.8202  0.0316
  499TMC3     C 7472   3.563   3.780   9.833  0.7835  0.5237 -0.7253
  499TMC3     O 7473   3.654   3.716   9.783 -0.3974  0.4092  0.2548
  499TMC3     H 7474   3.804   3.878   9.883  1.3945  1.6194 -0.4014
  499TMC3    H1 7475   3.404   3.973   9.852 -2.0691  0.8850  4.2349
  499TMC3    H2 7476   3.663   4.238  10.059 -1.5694 -1.0833  1.1407
  499TMC3    C7 7477   3.406   4.195   9.999  0.3045 -0.2299 -0.2650
  499TMC3    C8 7478   3.879   4.103   9.987 -0.1656 -0.1137 -0.7141
  499TMC3    O1 7479   3.430   4.315  10.002  0.1274  0.7416  0.2845
  499TMC3    O2 7480   3.902   4.224   9.986  0.2442  0.3571 -0.0454
  500MPD2     C 7481   4.582   4.314  10.407 -0.6223  0.2783 -0.4408
  500MPD2    C1 7482   4.582   4.434  10.473  0.8322 -0.2443 -0.0211
  500MPD2    C2 7483   4.482   4.521  10.437 -0.7734 -0.8908  0.1327
  500MPD2    C3 7484   4.382   4.497  10.345  0.4485  0.2919 -0.1654
  500MPD2    C4 7485   4.385   4.378  10.278 -0.4425  0.4746  0.0385
  500MPD2    C5 7486   4.487   4.289  10.311  0.3857  0.7389 -0.0193
  500MPD2     H 7487   4.493   4.623  10.471  1.8002 -0.5481 -1.6903
  500MPD2    H1 7488   4.309   4.362  10.203 -1.9002 -1.0637  1.8211
  500MPD2    H2 7489   4.659   4.240  10.427  1.3021  2.1137 -1.1120
  500MPD2    H3 7490   4.494   4.191  10.265  1.0938  1.5156 -1.5769
  500MPD2     N 7491   4.293   4.602  10.318  0.0393 -0.0603  0.1091
  500MPD2    H5 7492   4.307   4.685  10.374 -1.3731  1.9630 -2.5280
  500MPD2    N1 7493   4.675   4.471  10.570 -0.1324  0.6111  0.1563
  500MPD2    H7 7494   4.675   4.569  10.597 -2.3356  0.3874  0.9513
  501TMC3    C1 7495   0.105   4.446  10.735  0.4786  0.4450 -0.0404
  501TMC3    C2 7496   0.150   4.576  10.699  0.5716  0.1997 -0.0656
  501TMC3    C3 7497   0.223   4.637  10.800 -0.6212  0.1896 -0.3915
  501TMC3    C4 7498   0.129   4.394  10.859  0.7528 -0.4497  0.1964
  501TMC3    C5 7499   0.203   4.456  10.953  0.3271  0.6490  0.8700
  501TMC3    C6 7500   0.245   4.581  10.926  0.0880 -0.4677  0.0582
  501TMC3     C 7501   0.004   4.383  10.658 -0.2919 -0.4245  0.0394
  501TMC3     O 7502   4.698   4.270  10.692 -0.3625 -0.0796 -0.2940
  501TMC3     H 7503   0.142   4.618  10.599 -0.2708  1.3418  0.4882
  501TMC3    H1 7504   0.094   4.294  10.881  1.2254 -0.5139  0.6717
  501TMC3    H2 7505   0.292   4.643  11.001 -1.6655  0.8644  0.0521
  501TMC3    C7 7506   0.232   4.405  11.090  0.8701  0.5337 -0.9593
  501TMC3    C8 7507   0.288   0.037  10.778 -1.4964  0.7594 -0.2050
  501TMC3    O1 7508   0.150   4.324  11.135 -0.0805 -0.6275  0.3126
  501TMC3    O2 7509   0.371   0.076  10.861  1.2251 -0.0184  1.2481
  502TMC3    C1 7510   0.155   3.306  15.577 -0.5768 -0.1017  0.6749
  502TMC3    C2 7511   0.104   3.400  15.493  0.0888  0.6473  0.1701
  502TMC3    C3 7512   4.701   3.413  15.476  0.5923 -0.2261 -0.2244
  502TMC3    C4 7513   0.068   3.219  15.633 -0.5170  0.2205  0.0220
  502TMC3    C5 7514   4.663   3.232  15.618  0.4084  0.3139 -0.6621
  502TMC3    C6 7515   4.612   3.341  15.545  0.3198 -0.6845  0.4106
  502TMC3     C 7516   0.293   3.321  15.619  0.0937 -0.6672 -0.5236
  502TMC3     O 7517   0.369   3.400  15.554  0.2750 -0.5162  0.3179
  502TMC3     H 7518   0.177   3.464  15.444 -0.1846 -0.2149 -1.3704
  502TMC3    H1 7519   0.100   3.153  15.713 -0.4696  0.0283 -0.1553
  502TMC3    H2 7520   4.507   3.359  15.526  0.4615 -0.2419  0.0622
  502TMC3    C7 7521   4.583   3.131  15.684 -0.0432 -0.5052  0.1797
  502TMC3    C8 7522   4.665   3.537  15.412  0.6044  0.4427  0.4353
  502TMC3    O1 7523   4.639   3.033  15.735  0.1853  0.2079  0.0348
  502TMC3    O2 7524   0.021   3.581  15.340  0.1036 -0.6704  0.3994
  503MPD2     C 7525   1.983   3.784  17.147  0.0891  0.1387  0.1291
  503MPD2    C1 7526   2.056   3.845  17.249 -0.7131  0.2333  0.5832
  503MPD2    C2 7527   2.147   3.764  17.317 -0.2317  0.0028  0.4887
  503MPD2    C3 7528   2.172   3.640  17.262  0.2044 -0.4132  0.2840
  503MPD2    C4 7529   2.111   3.589  17.154  0.1623  0.1558  0.3267
  503MPD2    C5 7530   2.004   3.655  17.110  0.0893  0.7151 -0.0572
  503MPD2     H 7531   2.207   3.808  17.396  0.8435 -1.0382  0.2536
  503MPD2    H1 7532   2.119   3.487  17.118 -1.3767  0.1342  0.0245
  503MPD2    H2 7533   1.894   3.826  17.103 -0.4219 -0.9343  0.1285
  503MPD2    H3 7534   1.940   3.611  17.035 -1.7048 -0.8317  2.3632
  503MPD2     N 7535   2.259   3.558  17.333 -0.3422 -0.1707 -0.3711
  503MPD2    H5 7536   2.299   3.600  17.416  0.8248  0.3128 -1.1622
  503MPD2    N1 7537   2.040   3.985  17.287  0.2227  0.6175 -0.0492
  503MPD2    H7 7538   2.086   4.018  17.371  0.9013  1.3184 -0.6956
  504TMC3    C1 7539   2.388   3.383  17.400 -1.5928  0.8328 -0.1306
  504TMC3    C2 7540   2.331   3.401  17.523  0.2529 -0.4423  0.1768
  504TMC3    C3 7541   2.400   3.352  17.630 -0.3606  0.0743 -0.1353
  504TMC3    C4 7542   2.499   3.316  17.368 -0.4576 -0.3391  0.2238
  504TMC3    C5 7543   2.570   3.271  17.477  0.0687  1.0104 -0.3852
  504TMC3    C6 7544   2.523   3.290  17.610  0.2562 -0.4585  0.1369
  504TMC3     C 7545   2.328   3.445  17.290 -0.4902  0.0214 -0.4917
  504TMC3     O 7546   2.341   3.396  17.176  0.1262  0.0924  0.4454
  504TMC3     H 7547   2.233   3.446  17.531  0.5103 -0.0083  0.8746
  504TMC3    H1 7548   2.540   3.314  17.268  1.0317  1.1374  0.8085
  504TMC3    H2 7549   2.593   3.275  17.692 -0.9356  0.1569  1.2573
  504TMC3    C7 7550   2.706   3.227  17.454  0.1986 -0.4612  0.4221
  504TMC3    C8 7551   2.352   3.376   0.032 -0.6935  0.0770 -0.2593
  504TMC3    O1 7552   2.743   3.229  17.336 -0.7766  0.0367  0.6955
  504TMC3    O2 7553   2.250   3.448   0.043  0.3707 -0.0500 -0.0066
  505MPD2     C 7554   2.053   3.093  10.575 -0.1328 -0.0134  0.4045
  505MPD2    C1 7555   2.093   2.977  10.621 -0.7074 -0.1946 -0.1565
  505MPD2    C2 7556   2.187   2.970  10.720  1.0860 -0.2556  0.2398
  505MPD2    C3 7557   2.232   3.090  10.782  0.2976  0.6140 -0.8517
  505MPD2    C4 7558   2.175   3.210  10.742 -0.1636  0.3382 -0.4738
  505MPD2    C5 7559   2.097   3.210  10.631 -0.2771 -0.4951  0.0833
  505MPD2     H 7560   2.237   2.879  10.750 -0.8013 -1.3591  0.0054
  505MPD2    H1 7561   2.206   3.302  10.790 -1.2183  1.1891 -1.4096
  505MPD2    H2 7562   1.981   3.103  10.495  0.1185 -1.0678  0.0525
  505MPD2    H3 7563   2.057   3.300  10.584  0.9005 -0.7639 -1.4276
  505MPD2     N 7564   2.333   3.093  10.873 -0.0989 -0.3895  0.0138
  505MPD2    H5 7565   2.375   3.182  10.898  1.1528 -1.0375  0.2150
  505MPD2    N1 7566   2.037   2.865  10.561  0.0347 -0.4837  0.9463
  505MPD2    H7 7567   1.970   2.886  10.488  0.7927  1.5071  0.8204
  506TMC3    C1 7568   2.010   2.642  10.497 -0.1538  0.3572  1.2120
  506TMC3    C2 7569   2.050   2.676  10.371 -0.3291 -0.5217 -0.0508
  506TMC3    C3 7570   2.115   2.580  10.306 -0.0665  0.5561 -0.6331
  506TMC3    C4 7571   2.055   2.519  10.542  0.1670 -0.3719 -0.0062
  506TMC3    C5 7572   2.126   2.428  10.471 -0.4584 -0.4416 -0.4866
  506TMC3    C6 7573   2.144   2.456  10.342 -0.3521 -0.0400  0.3493
  506TMC3     C 7574   2.049   2.733  10.603  0.5887 -0.2804  0.1241
  506TMC3     O 7575   2.112   2.687  10.694  0.0670  0.2901 -0.4110
  506TMC3     H 7576   2.037   2.776  10.332  0.6432 -1.0110 -1.6331
  506TMC3    H1 7577   2.002   2.483  10.629 -1.1429  0.3892 -0.4876
  506TMC3    H2 7578   2.206   2.395  10.277 -0.4030  1.1617 -0.8469
  506TMC3    C7 7579   2.237   2.364  10.541 -0.0637 -0.5448  0.9002
  506TMC3    C8 7580   2.153   2.616  10.170 -0.1081 -0.3881  0.1968
  506TMC3    O1 7581   2.289   2.266  10.486  0.5525 -0.3333 -0.8145
  506TMC3    O2 7582   2.134   2.535  10.078  0.4137 -0.8148  0.0502
  507TMC3    C1 7583   3.478   3.338  15.082 -0.2524  0.3135  0.8629
  507TMC3    C2 7584   3.463   3.288  14.961 -1.1086  0.3084  0.7609
  507TMC3    C3 7585   3.449   3.369  14.850  0.6912  0.5419  0.7400
  507TMC3    C4 7586   3.494   3.471  15.096 -0.5309  0.1438  0.7823
  507TMC3    C5 7587   3.487   3.553  14.991 -0.9165  0.7251 -0.2358
  507TMC3    C6 7588   3.477   3.501  14.859  0.0081 -0.1479  0.4721
  507TMC3     C 7589   3.544   3.251  15.174  0.0347 -0.0568  0.4734
  507TMC3     O 7590   3.484   3.190  15.256 -0.2127 -0.3557  0.3106
  507TMC3     H 7591   3.439   3.183  14.947 -0.3955 -0.1820  3.1375
  507TMC3    H1 7592   3.482   3.511  15.196  1.3828  1.2073  0.5777
  507TMC3    H2 7593   3.488   3.560  14.769 -1.2109  0.7110  0.8789
  507TMC3    C7 7594   3.405   3.674  15.003  0.1280  0.3606  0.3096
  507TMC3    C8 7595   3.331   3.340  14.780 -0.3355  0.1820  0.0873
  507TMC3    O1 7596   3.336   3.690  14.901  0.5185 -0.2237  0.1400
  507TMC3    O2 7597   3.301   3.225  14.766 -0.0919 -0.6740  0.1764
  508MPD2     C 7598   0.071   0.544  16.212  0.4526 -0.5159  0.4151
  508MPD2    C1 7599   0.012   0.630  16.301 -1.1607 -0.6155 -0.6797
  508MPD2    C2 7600   4.671   0.728  16.235 -0.8325 -0.5946  0.7812
  508MPD2    C3 7601   4.648   0.738  16.105 -1.1523  0.2115  0.0677
  508MPD2    C4 7602   4.702   0.645  16.018 -0.1023  0.2893 -0.0046
  508MPD2    C5 7603   0.051   0.550  16.077  0.0372  0.2466  0.3863
  508MPD2     H 7604   4.629   0.808  16.295 -1.8781 -1.8580  1.7522
  508MPD2    H1 7605   4.686   0.638  15.911 -0.4184 -1.9473  0.1773
  508MPD2    H2 7606   0.133   0.465  16.254  0.4514 -0.9033 -0.3128
  508MPD2    H3 7607   0.096   0.477  16.011  0.1323  1.0884 -0.4855
  508MPD2     N 7608   4.569   0.850  16.067  0.0636  0.1436  0.3012
  508MPD2    H5 7609   4.540   0.920  16.134 -0.4272 -2.2617  2.5847
  508MPD2    N1 7610   0.028   0.601  16.438  0.3285 -0.3331 -0.4773
  508MPD2    H7 7611   0.091   0.525  16.459 -1.1786 -1.9572 -1.8621
  509TMC3    C1 7612   4.475   1.219  15.806 -0.5888  0.3346 -0.5163
  509TMC3    C2 7613   4.534   1.305  15.897  0.9814  0.0634 -0.3749
  509TMC3    C3 7614   4.608   1.248  16.001 -0.2787  0.1467  0.5388
  509TMC3    C4 7615   4.479   1.085  15.808  0.1645 -0.0822  0.2797
  509TMC3    C5 7616   4.548   1.032  15.917  0.9156  0.0112  0.4982
  509TMC3    C6 7617   4.631   1.115  15.995 -1.4898 -0.0295 -0.0684
  509TMC3     C 7618   4.404   1.273  15.687 -0.3320 -0.2000  0.1743
  509TMC3     O 7619   4.376   1.196  15.594 -0.1060 -0.2355  0.1643
  509TMC3     H 7620   4.534   1.411  15.875 -0.5437  0.0720 -0.3348
  509TMC3    H1 7621   4.440   1.016  15.735 -0.4231 -1.5759  1.9840
  509TMC3    H2 7622   4.699   1.071  16.066 -1.2068 -2.1993 -1.6782
  509TMC3    C7 7623   4.544   0.883  15.932 -0.1116 -0.5429 -0.0821
  509TMC3    C8 7624   4.692   1.319  16.095  0.2597 -0.4955 -0.3624
  509TMC3    O1 7625   4.543   0.813  15.830  0.3428 -0.1161 -0.3167
  509TMC3    O2 7626   4.731   1.251  16.189  0.1077 -0.0269  0.0097
  510MPD2     C 7627   1.968   2.725  14.907 -0.3295 -0.2455  0.0086
  510MPD2    C1 7628   1.996   2.632  15.003 -0.4058 -0.5285 -0.2379
  510MPD2    C2 7629   2.124   2.582  15.007  0.3109  0.0050  0.1980
  510MPD2    C3 7630   2.222   2.619  14.912 -0.3158  0.3845  0.1605
  510MPD2    C4 7631   2.199   2.721  14.824  0.6632 -0.2207  0.0210
  510MPD2    C5 7632   2.071   2.772  14.819 -0.0597 -0.1691  0.3721
  510MPD2     H 7633   2.154   2.500  15.071 -0.9940  0.1662  0.9955
  510MPD2    H1 7634   2.259   2.763  14.744  0.5681  0.0861  0.1090
  510MPD2    H2 7635   1.887   2.797  14.900  1.2301  1.6785  1.5811
  510MPD2    H3 7636   2.049   2.850  14.747 -2.6090 -0.9923  0.2598
  510MPD2     N 7637   2.351   2.561  14.919 -0.0834  0.0011  0.0551
  510MPD2    H5 7638   2.382   2.513  15.003 -0.8477  0.3120  0.5120
  510MPD2    N1 7639   1.885   2.592  15.090  0.1295  0.4711 -0.5299
  510MPD2    H7 7640   1.798   2.625  15.048 -0.3416  0.8705  0.7785
  511TMC3    C1 7641   1.753   2.478  15.244  0.2541  0.2786  0.3561
  511TMC3    C2 7642   1.724   2.476  15.376 -0.2717 -0.0091  0.8784
  511TMC3    C3 7643   1.593   2.439  15.401  0.8188 -1.0812 -0.0926
  511TMC3    C4 7644   1.668   2.434  15.148 -0.4118  0.1198 -0.2668
  511TMC3    C5 7645   1.546   2.383  15.186  0.3647  0.0246 -0.1575
  511TMC3    C6 7646   1.498   2.393  15.309  0.4712  0.2794 -0.0236
  511TMC3     C 7647   1.886   2.525  15.206  0.3111 -0.7046 -0.2985
  511TMC3     O 7648   1.979   2.522  15.286 -0.0659 -0.0621 -0.0032
  511TMC3     H 7649   1.783   2.521  15.454  0.1166  1.0586 -0.0387
  511TMC3    H1 7650   1.697   2.445  15.044 -1.6116 -0.4293 -0.6517
  511TMC3    H2 7651   1.396   2.388  15.346  0.8993  0.2721  1.1512
  511TMC3    C7 7652   1.474   2.315  15.078 -0.1550 -0.0282  0.7793
  511TMC3    C8 7653   1.546   2.479  15.530 -0.3171  0.0652 -0.1355
  511TMC3    O1 7654   1.523   2.327  14.966 -0.1210 -0.1562 -0.1379
  511TMC3    O2 7655   1.452   2.560  15.527 -0.0512 -0.1760 -0.4025
  512TMC3    C1 7656   0.576   1.919  13.629  0.0878 -0.1130 -0.0618
  512TMC3    C2 7657   0.662   1.892  13.733  0.0880 -0.4287 -0.1519
  512TMC3    C3 7658   0.771   1.814  13.717  0.0942  0.0142  0.5747
  512TMC3    C4 7659   0.588   1.826  13.525 -0.6831  0.2667 -0.5149
  512TMC3    C5 7660   0.698   1.738  13.520  0.2831  0.5290 -0.5657
  512TMC3    C6 7661   0.796   1.740  13.611 -0.4297 -0.1009 -0.6079
  512TMC3     C 7662   0.453   1.990  13.653  0.5520 -0.5585 -0.2446
  512TMC3     O 7663   0.415   1.987  13.766  0.6676  0.1424  0.0027
  512TMC3     H 7664   0.654   1.951  13.824 -2.2466 -2.0285  0.7021
  512TMC3    H1 7665   0.510   1.807  13.451 -2.1238  4.5008 -0.0595
  512TMC3    H2 7666   0.883   1.676  13.604 -0.4429 -0.3115  1.0105
  512TMC3    C7 7667   0.732   1.684  13.387  0.1618  0.0526 -0.0925
  512TMC3    C8 7668   0.875   1.808  13.818 -0.0489 -0.7415  1.4932
  512TMC3    O1 7669   0.662   1.732  13.294  0.5991 -0.3389  0.4856
  512TMC3    O2 7670   0.932   1.701  13.831  0.6684 -0.0218  0.2103
  513MPD2     C 7671   3.178   2.170  13.195  0.4819 -0.4351 -0.1008
  513MPD2    C1 7672   3.160   2.036  13.195  0.4120 -0.4383  0.0302
  513MPD2    C2 7673   3.201   1.953  13.292  0.1677 -0.9630 -0.2128
  513MPD2    C3 7674   3.258   2.007  13.399  0.6061 -0.0417  0.1593
  513MPD2    C4 7675   3.288   2.141  13.397  0.2390 -0.6542  0.7601
  513MPD2    C5 7676   3.240   2.226  13.300  0.0442  0.8404 -0.1161
  513MPD2     H 7677   3.194   1.845  13.285 -1.9883 -0.9064  1.0302
  513MPD2    H1 7678   3.342   2.183  13.481 -0.3704  1.7841 -0.0611
  513MPD2    H2 7679   3.149   2.233  13.112  0.4420  0.8041  0.8485
  513MPD2    H3 7680   3.276   2.329  13.306 -1.9005  1.5948 -1.8543
  513MPD2     N 7681   3.289   1.915  13.496 -0.2537  0.7543  0.1921
  513MPD2    H5 7682   3.250   1.823  13.478  1.2751 -0.3526  2.6473
  513MPD2    N1 7683   3.099   1.974  13.083  0.7455  0.3866 -0.4028
  513MPD2    H7 7684   3.112   1.874  13.081  2.8397  0.6209  1.4347
  514TMC3    C1 7685   2.988   1.923  12.892  0.3836  0.0832  0.0410
  514TMC3    C2 7686   3.036   1.917  12.768 -0.5185 -0.3560 -0.6222
  514TMC3    C3 7687   3.050   1.797  12.709 -0.8104  0.4645  0.1857
  514TMC3    C4 7688   2.963   1.806  12.963  0.1427 -0.2765  0.6435
  514TMC3    C5 7689   3.000   1.685  12.911  0.1825 -0.1364  0.4758
  514TMC3    C6 7690   3.048   1.685  12.785  0.6113 -0.5407 -0.4053
  514TMC3     C 7691   3.047   2.031  12.968  0.5744  0.6277 -0.2641
  514TMC3     O 7692   3.045   2.147  12.932  0.3823 -0.1817  0.2337
  514TMC3     H 7693   3.060   2.010  12.718 -1.5748  1.8848  3.0369
  514TMC3    H1 7694   2.929   1.802  13.066  1.7717 -3.0206  1.1001
  514TMC3    H2 7695   3.088   1.595  12.740 -2.1629 -1.4065 -1.1185
  514TMC3    C7 7696   3.074   1.608  13.004 -0.2614  0.0614 -0.5554
  514TMC3    C8 7697   3.153   1.790  12.606  0.3557 -0.5112  0.4008
  514TMC3    O1 7698   3.128   1.678  13.092 -0.5963  0.1605 -0.0461
  514TMC3    O2 7699   3.255   1.721  12.631  0.2513 -0.5442  0.4532
  515MPD2     C 7700   1.075   3.233  14.610 -0.3262  0.0042 -0.2813
  515MPD2    C1 7701   0.993   3.337  14.646  0.2875 -0.1204 -0.5068
  515MPD2    C2 7702   1.043   3.442  14.713  0.2617  0.5072 -0.1956
  515MPD2    C3 7703   1.179   3.455  14.740 -0.2646  0.3660 -0.4452
  515MPD2    C4 7704   1.262   3.356  14.691 -0.3466 -0.4437  0.0668
  515MPD2    C5 7705   1.206   3.239  14.649  0.2730 -0.0633 -0.3184
  515MPD2     H 7706   0.971   3.519  14.740  1.1464  1.9721 -1.9927
  515MPD2    H1 7707   1.369   3.362  14.707 -0.2801 -1.2576 -0.0316
  515MPD2    H2 7708   1.041   3.137  14.572 -0.3976 -1.2412  2.9401
  515MPD2    H3 7709   1.266   3.155  14.618 -2.4093 -1.7071 -1.0527
  515MPD2     N 7710   1.240   3.570  14.790 -0.1183 -0.0723 -0.2125
  515MPD2    H5 7711   1.341   3.572  14.792 -0.1963  0.2473  2.8407
  515MPD2    N1 7712   0.858   3.335  14.627 -0.5071  0.9320 -0.9071
  515MPD2    H7 7713   0.804   3.398  14.685 -1.7124  0.6063 -1.6616
  516TMC3    C1 7714   0.653   3.274  14.544 -0.1747  0.1309 -0.5336
  516TMC3    C2 7715   0.584   3.291  14.435  0.5175  0.1737  0.1565
  516TMC3    C3 7716   0.448   3.307  14.443 -0.1800 -0.5262  0.6722
  516TMC3    C4 7717   0.589   3.251  14.666  0.1843 -0.6376 -0.8984
  516TMC3    C5 7718   0.451   3.252  14.670 -0.4736 -0.2025  0.3057
  516TMC3    C6 7719   0.382   3.267  14.558 -0.6065 -0.0527  0.6713
  516TMC3     C 7720   0.796   3.247  14.538  0.4103  0.3185  0.5868
  516TMC3     O 7721   0.844   3.171  14.454  0.0041  0.1766  0.2163
  516TMC3     H 7722   0.632   3.293  14.337  0.1696  0.4144 -0.0095
  516TMC3    H1 7723   0.636   3.220  14.759 -2.2822  0.5577  0.7469
  516TMC3    H2 7724   0.274   3.279  14.561 -0.6546 -0.9158  2.1626
  516TMC3    C7 7725   0.391   3.248  14.798 -0.3468  0.5696  0.1378
  516TMC3    C8 7726   0.372   3.378  14.343  0.1749 -0.7256 -0.5214
  516TMC3    O1 7727   0.459   3.294  14.887  0.2252  0.2779 -0.0086
  516TMC3    O2 7728   0.248   3.388  14.359 -0.3754 -0.2237 -0.3358
  517MPD2     C 7729   0.313   0.900   0.478  0.4591  0.4504 -0.4519
  517MPD2    C1 7730   0.432   0.902   0.410  0.7562 -0.0056 -0.0725
  517MPD2    C2 7731   0.539   0.987   0.452  0.1175  0.6233  0.1110
  517MPD2    C3 7732   0.517   1.079   0.554 -1.0283  0.1451  0.1931
  517MPD2    C4 7733   0.400   1.078   0.615 -0.7664 -0.3152 -0.3079
  517MPD2    C5 7734   0.298   0.992   0.579  0.1247  0.4783  0.5054
  517MPD2     H 7735   0.630   0.998   0.394  0.7931 -3.5510  0.3727
  517MPD2    H1 7736   0.384   1.129   0.709  1.5581  1.2738 -0.7840
  517MPD2    H2 7737   0.228   0.840   0.448  1.4037 -1.6763  1.1860
  517MPD2    H3 7738   0.205   0.989   0.634  0.9488  2.1173  1.9795
  517MPD2     N 7739   0.606   1.175   0.602  0.0085  0.1243 -0.8497
  517MPD2    H5 7740   0.576   1.225   0.685 -0.0334  0.5247 -1.1093
  517MPD2    N1 7741   0.460   0.810   0.313 -0.0456  0.2223  0.0958
  517MPD2    H7 7742   0.556   0.819   0.281  0.1612  0.9756  0.9288
  518TMC3    C1 7743   0.447   0.648   0.150 -0.1855  0.3131 -0.4114
  518TMC3    C2 7744   0.371   0.543   0.107 -0.3959 -0.5660 -0.2072
  518TMC3    C3 7745   0.435   0.429   0.063 -0.9073 -0.0538  0.5221
  518TMC3    C4 7746   0.580   0.646   0.142 -0.0791  0.4665 -0.1301
  518TMC3    C5 7747   0.640   0.536   0.087  0.0588 -0.2695  0.3256
  518TMC3    C6 7748   0.573   0.427   0.047 -0.5147 -0.3625  0.3179
  518TMC3     C 7749   0.375   0.735   0.235  0.1161  0.4491  0.5846
  518TMC3     O 7750   0.253   0.733   0.244  0.2259 -0.8730  0.4964
  518TMC3     H 7751   0.262   0.545   0.114 -0.3752 -0.5851  0.1141
  518TMC3    H1 7752   0.643   0.725   0.181  1.7534 -0.4286 -1.2668
  518TMC3    H2 7753   0.628   0.337   0.020  1.0958  0.4651  0.8283
  518TMC3    C7 7754   0.781   0.566   0.045  0.3278 -0.1286  0.0174
  518TMC3    C8 7755   0.369   0.309   0.109  0.1084  0.1515  0.4979
  518TMC3    O1 7756   0.847   0.655   0.104  0.1618  0.1819  0.0636
  518TMC3    O2 7757   0.297   0.331   0.207 -0.0265  0.6795  0.0618
  519MPD2     C 7758   2.187   3.539  14.560  0.2893 -0.0693  0.1230
  519MPD2    C1 7759   2.207   3.569  14.422 -0.8952 -0.6669  0.5325
  519MPD2    C2 7760   2.323   3.519  14.362  0.5669 -0.0348 -0.0678
  519MPD2    C3 7761   2.427   3.452  14.429 -0.0816  0.8073 -0.3956
  519MPD2    C4 7762   2.406   3.425  14.561 -0.1723  0.3315 -0.3971
  519MPD2    C5 7763   2.286   3.464  14.623  0.0332  0.0179 -0.1782
  519MPD2     H 7764   2.339   3.520  14.255  2.1243  1.3222  0.1851
  519MPD2    H1 7765   2.478   3.363  14.614 -1.4245 -0.3243  0.5589
  519MPD2    H2 7766   2.103   3.571  14.619  1.0232  1.1994  0.4686
  519MPD2    H3 7767   2.268   3.433  14.725 -0.9165  0.6004 -0.1585
  519MPD2     N 7768   2.527   3.369  14.362  0.5035  0.2202  0.2775
  519MPD2    H5 7769   2.575   3.301  14.420 -0.5550 -0.8866 -0.1591
  519MPD2    N1 7770   2.111   3.646  14.351  0.1300  0.6190  0.2608
  519MPD2    H7 7771   2.022   3.661  14.397  0.5387  0.8532  0.9573
  520TMC3    C1 7772   2.617   3.258  14.170  0.7119 -0.7995  0.0042
  520TMC3    C2 7773   2.549   3.207  14.061  0.0951  0.2545 -0.0105
  520TMC3    C3 7774   2.557   3.069  14.037  0.6529  0.9991 -0.4362
  520TMC3    C4 7775   2.692   3.181  14.253 -0.0307  0.2424 -1.1771
  520TMC3    C5 7776   2.697   3.047  14.222  0.3172 -0.7137  0.1987
  520TMC3    C6 7777   2.640   2.994  14.113  0.1552  0.2181  0.1927
  520TMC3     C 7778   2.568   3.384  14.229  0.3095 -0.3275 -0.0250
  520TMC3     O 7779   2.538   3.476  14.158  0.0661 -0.2317  0.2481
  520TMC3     H 7780   2.490   3.278  14.004  1.9606 -0.4137 -2.7586
  520TMC3    H1 7781   2.750   3.219  14.337 -0.2969 -0.3625 -0.7258
  520TMC3    H2 7782   2.634   2.886  14.102  2.5561 -0.0184  1.2373
  520TMC3    C7 7783   2.786   2.966  14.298  0.1706 -0.1329  0.2410
  520TMC3    C8 7784   2.468   2.999  13.940 -0.4431 -0.6475  0.5985
  520TMC3    O1 7785   2.782   2.983  14.420  0.2554 -0.7901  0.0912
  520TMC3    O2 7786   2.512   2.892  13.898  0.7685 -0.4228  0.0782
  521MPD2     C 7787   3.764   1.188  16.787  0.8939 -0.5274 -0.0781
  521MPD2    C1 7788   3.744   1.275  16.888 -0.8569  0.2488  0.5219
  521MPD2    C2 7789   3.854   1.347  16.936  0.5137  0.8210 -0.9443
  521MPD2    C3 7790   3.977   1.335  16.875 -0.0921 -0.3678 -0.0540
  521MPD2    C4 7791   3.998   1.245  16.773 -0.2180 -0.3904 -0.1055
  521MPD2    C5 7792   3.888   1.172  16.729  0.5345 -0.0129  0.2107
  521MPD2     H 7793   3.844   1.412  17.022  1.5016 -1.5744  0.9698
  521MPD2    H1 7794   4.087   1.233  16.714  0.7360 -1.1174  1.4769
  521MPD2    H2 7795   3.689   1.120  16.748  0.0831  1.1263 -1.3832
  521MPD2    H3 7796   3.906   1.107  16.644 -0.0084 -0.2587  0.2888
  521MPD2     N 7797   4.090   1.395  16.929 -0.0502 -0.2728 -0.0580
  521MPD2    H5 7798   4.180   1.355  16.907 -0.3046 -0.4509 -0.7921
  521MPD2    N1 7799   3.610   1.278  16.941  0.3117 -0.0373 -0.7396
  521MPD2    H7 7800   3.529   1.240  16.894 -0.8852 -0.5443  1.7074
  522TMC3    C1 7801   4.205   1.521  17.101  0.0306 -0.3067 -0.6009
  522TMC3    C2 7802   4.259   1.399  17.144  0.9368 -0.0355 -0.0961
  522TMC3    C3 7803   4.265   1.387  17.279 -0.5163  0.4214 -0.5488
  522TMC3    C4 7804   4.173   1.628  17.178 -0.1301 -0.3463  0.2752
  522TMC3    C5 7805   4.175   1.611  17.312 -0.0707 -0.9445 -0.1527
  522TMC3    C6 7806   4.211   1.486  17.361 -0.3219 -0.0557  0.4243
  522TMC3     C 7807   4.095   1.506  17.004  0.6361 -0.7831 -0.4179
  522TMC3     O 7808   4.002   1.584  17.017 -0.2699 -0.0493  0.2272
  522TMC3     H 7809   4.296   1.320  17.079 -0.7653 -0.5880 -0.3966
  522TMC3    H1 7810   4.144   1.720  17.128  2.0402 -1.1792 -2.5308
  522TMC3    H2 7811   4.218   1.460  17.466 -0.2962 -1.6955  0.0311
  522TMC3    C7 7812   4.053   1.664  17.369 -1.0263 -0.1906  0.2843
  522TMC3    C8 7813   4.327   1.275  17.343  0.0356  0.4203 -0.2872
  522TMC3    O1 7814   4.053   1.694  17.489  0.1513 -0.2111 -0.6065
  522TMC3    O2 7815   4.302   1.252  17.468  0.1277  0.0685 -0.5636
  523MPD2     C 7816   1.417   2.033  10.267  0.4003  0.4865 -0.5051
  523MPD2    C1 7817   1.421   1.925  10.181 -0.2158 -0.5979  0.6935
  523MPD2    C2 7818   1.461   1.943  10.053  0.2277  0.1114  0.0708
  523MPD2    C3 7819   1.484   2.079  10.006  0.4749 -0.2845  0.0378
  523MPD2    C4 7820   1.472   2.184  10.094  0.5313 -0.5176  0.7642
  523MPD2    C5 7821   1.447   2.160  10.228 -0.4280 -0.0258 -0.6337
  523MPD2     H 7822   1.467   1.863   9.980  1.1437 -0.9948  1.3544
  523MPD2    H1 7823   1.493   2.287  10.068  1.9850 -0.9175  0.3897
  523MPD2    H2 7824   1.389   2.001  10.367 -1.5190 -0.2127 -1.2617
  523MPD2    H3 7825   1.454   2.241  10.299 -0.1445 -0.2873 -0.3664
  523MPD2     N 7826   1.526   2.117   9.875 -0.6056  0.2546 -0.3490
  523MPD2    H5 7827   1.534   2.218   9.872  0.1445  0.1703 -1.5305
  523MPD2    N1 7828   1.391   1.797  10.225  0.4679 -0.3669  0.4526
  523MPD2    H7 7829   1.363   1.793  10.322 -0.7350 -0.9982  0.0791
  524TMC3    C1 7830   1.604   2.108   9.653  0.1859 -0.4902  0.1266
  524TMC3    C2 7831   1.631   2.037   9.542  0.8672 -0.9290  0.0562
  524TMC3    C3 7832   1.711   2.098   9.449  0.4350 -0.0302 -0.1111
  524TMC3    C4 7833   1.641   2.236   9.671  0.1918 -0.7132 -0.4209
  524TMC3    C5 7834   1.723   2.291   9.573  0.1974 -0.1746 -0.7452
  524TMC3    C6 7835   1.751   2.224   9.462  0.2999  0.1927  0.7638
  524TMC3     C 7836   1.552   2.037   9.765 -0.1075 -0.2336  0.7493
  524TMC3     O 7837   1.524   1.921   9.749 -0.3990 -0.5686 -0.1314
  524TMC3     H 7838   1.628   1.929   9.551 -0.9096 -1.1671 -3.3018
  524TMC3    H1 7839   1.624   2.293   9.762 -1.1341  0.3276 -1.3110
  524TMC3    H2 7840   1.805   2.265   9.377  1.4291 -0.5418  1.1275
  524TMC3    C7 7841   1.758   2.435   9.595  0.6928  0.2974  0.0133
  524TMC3    C8 7842   1.737   2.046   9.316 -0.3508  0.2919 -0.0789
  524TMC3    O1 7843   1.705   2.508   9.675  0.2558 -0.3530  0.0430
  524TMC3    O2 7844   1.816   2.102   9.242  0.4138  0.0781 -0.1946
  525MPD2     C 7845   3.522   2.887  14.884 -0.2876  0.8913  0.4580
  525MPD2    C1 7846   3.652   2.911  14.929  0.3892  0.7233  0.0563
  525MPD2    C2 7847   3.741   2.985  14.847 -0.5050  0.2632  0.1412
  525MPD2    C3 7848   3.698   3.049  14.731 -0.5823  0.4892  0.0326
  525MPD2    C4 7849   3.560   3.041  14.699  0.5400 -0.6382  0.6263
  525MPD2    C5 7850   3.481   2.955  14.771 -0.2544  0.2318  0.9608
  525MPD2     H 7851   3.841   2.999  14.885  0.2345 -2.1772 -0.9288
  525MPD2    H1 7852   3.519   3.086  14.609  4.0873 -1.3661 -1.3514
  525MPD2    H2 7853   3.455   2.817  14.932  1.0688  0.9101  2.3705
  525MPD2    H3 7854   3.378   2.933  14.747 -0.0129  0.2196 -0.0558
  525MPD2     N 7855   3.778   3.138  14.656  0.1368 -0.8384  0.2436
  525MPD2    H5 7856   3.735   3.183  14.576  0.9321 -1.5215 -0.5758
  525MPD2    N1 7857   3.698   2.856  15.046 -0.0090 -0.2221 -0.2074
  525MPD2    H7 7858   3.798   2.862  15.064  0.1415 -1.1683 -0.6927
  526TMC3    C1 7859   3.705   2.742  15.242 -0.5586 -0.1227 -0.0786
  526TMC3    C2 7860   3.632   2.678  15.343 -0.5186 -0.4064  0.0285
  526TMC3    C3 7861   3.715   2.637  15.443  1.0409  0.0956  0.2807
  526TMC3    C4 7862   3.841   2.744  15.226 -0.4119  0.6169 -0.1619
  526TMC3    C5 7863   3.913   2.685  15.326 -0.4904 -0.1313  0.0528
  526TMC3    C6 7864   3.855   2.632  15.434 -0.1100 -0.5589  0.6599
  526TMC3     C 7865   3.621   2.788  15.136 -0.2608  1.0401  0.3684
  526TMC3     O 7866   3.500   2.793  15.149 -0.0036 -0.0441  0.3109
  526TMC3     H 7867   3.525   2.693  15.348 -0.6753 -0.9091 -1.7851
  526TMC3    H1 7868   3.888   2.764  15.131 -0.3359  1.1337 -0.0159
  526TMC3    H2 7869   3.922   2.586  15.505 -1.0833 -1.2407  1.1277
  526TMC3    C7 7870   4.059   2.683  15.318 -0.2318 -0.7753  0.6598
  526TMC3    C8 7871   3.666   2.618  15.573  0.5574  0.0840  0.6881
  526TMC3    O1 7872   4.101   2.702  15.206  0.2878 -0.9052 -1.0156
  526TMC3    O2 7873   3.738   2.553  15.650  0.5929  0.0546 -0.1766
  527MPD2     C 7874   2.369   1.554   1.652  0.6528  0.0467  0.5530
  527MPD2    C1 7875   2.490   1.520   1.593 -0.3036  0.5811  0.2658
  527MPD2    C2 7876   2.499   1.429   1.490  0.3466  0.4282 -0.5055
  527MPD2    C3 7877   2.382   1.385   1.431 -0.6636 -0.0840  0.1823
  527MPD2    C4 7878   2.259   1.425   1.490 -0.3052  0.7203 -0.1370
  527MPD2    C5 7879   2.259   1.508   1.592  0.0665  0.1866  0.1172
  527MPD2     H 7880   2.595   1.393   1.454  1.7456  3.5628  0.1184
  527MPD2    H1 7881   2.161   1.397   1.456  0.8027 -0.5162 -2.2991
  527MPD2    H2 7882   2.364   1.633   1.727 -1.5190  0.4741 -0.0398
  527MPD2    H3 7883   2.161   1.534   1.632 -0.3524 -0.4396 -0.4882
  527MPD2     N 7884   2.383   1.297   1.315 -0.3161  0.7763 -0.5518
  527MPD2    H5 7885   2.472   1.248   1.308 -0.3438  0.5028  1.0008
  527MPD2    N1 7886   2.606   1.585   1.622 -0.7261  0.1855 -0.5504
  527MPD2    H7 7887   2.691   1.546   1.584  0.1634  1.0475  0.5754
  528TMC3    C1 7888   2.748   1.766   1.651  0.4551  0.5449  0.7705
  528TMC3    C2 7889   2.787   1.866   1.735  0.1002  0.5210 -0.3313
  528TMC3    C3 7890   2.899   1.938   1.699 -0.0273  0.0427 -0.2050
  528TMC3    C4 7891   2.825   1.728   1.542 -0.2620 -0.1215 -0.1682
  528TMC3    C5 7892   2.937   1.801   1.517  0.2156 -0.2317 -0.1752
  528TMC3    C6 7893   2.979   1.901   1.599 -0.3081  0.3068 -0.4437
  528TMC3     C 7894   2.623   1.705   1.691 -0.0585 -0.4135  0.2477
  528TMC3     O 7895   2.550   1.755   1.773  0.6509  0.1107 -0.0072
  528TMC3     H 7896   2.727   1.891   1.822 -2.3609  0.1389 -1.9169
  528TMC3    H1 7897   2.801   1.658   1.463 -1.5296 -1.4868  1.4230
  528TMC3    H2 7898   3.056   1.971   1.568  0.3229 -0.8621 -1.5109
  528TMC3    C7 7899   3.011   1.785   1.396 -0.2599  0.8360  0.3342
  528TMC3    C8 7900   2.928   2.065   1.759 -0.6797  0.0669 -0.8202
  528TMC3    O1 7901   2.951   1.743   1.296 -0.0853 -0.1377  0.6917
  528TMC3    O2 7902   2.993   2.150   1.701  0.0008  0.0784  0.3226
  529MPD2     C 7903   3.582   4.405   0.958 -0.4062 -0.5355  0.0680
  529MPD2    C1 7904   3.706   4.378   0.897  0.1242  0.1699 -0.1984
  529MPD2    C2 7905   3.731   4.429   0.775 -0.3179 -0.1336  0.2637
  529MPD2    C3 7906   3.638   4.499   0.699 -0.6354 -0.5264 -0.1348
  529MPD2    C4 7907   3.518   4.530   0.761  0.3785 -0.1285  0.0668
  529MPD2    C5 7908   3.490   4.480   0.886  0.3226  0.4352 -0.0616
  529MPD2     H 7909   3.829   4.424   0.728 -0.2428 -0.4583  0.4558
  529MPD2    H1 7910   3.438   4.588   0.716  0.5931 -1.2935 -1.8104
  529MPD2    H2 7911   3.551   4.376   1.058  0.9290 -2.8098 -0.1886
  529MPD2    H3 7912   3.392   4.497   0.928  0.5143 -0.7218  0.8660
  529MPD2     N 7913   3.669   4.569   0.580 -0.2735 -0.2421 -0.3306
  529MPD2    H5 7914   3.603   4.643   0.556  0.7193  1.5489  2.4862
  529MPD2    N1 7915   3.806   4.306   0.965  0.3808  0.1930  0.0465
  529MPD2    H7 7916   3.902   4.310   0.932  0.3651 -0.9073 -0.1264
  530TMC3    C1 7917   3.911   4.210   1.124 -0.4423  0.1805  0.1390
  530TMC3    C2 7918   4.017   4.300   1.121  0.0184  0.7174  0.9396
  530TMC3    C3 7919   4.126   4.270   1.200  0.4694  0.0413  0.2504
  530TMC3    C4 7920   3.914   4.098   1.199 -0.4576  0.7315 -0.6201
  530TMC3    C5 7921   4.028   4.081   1.271 -0.3191  0.8523  0.4055
  530TMC3    C6 7922   4.140   4.148   1.265 -0.1868 -0.5130  0.4557
  530TMC3     C 7923   3.783   4.235   1.074 -0.1682  0.2371  0.0565
  530TMC3     O 7924   3.676   4.195   1.119  0.1355  0.3611 -0.2818
  530TMC3     H 7925   4.012   4.395   1.070  1.5402  0.9551  1.2199
  530TMC3    H1 7926   3.828   4.031   1.200 -1.9361  2.6401  0.9682
  530TMC3    H2 7927   4.228   4.137   1.327 -0.5261 -1.3704  0.7850
  530TMC3    C7 7928   4.043   3.971   1.367 -0.7819 -0.2266  0.0657
  530TMC3    C8 7929   4.234   4.369   1.200 -0.7883 -0.0797 -0.3322
  530TMC3    O1 7930   4.156   3.936   1.394 -0.5779  0.0581  0.4747
  530TMC3    O2 7931   4.204   4.483   1.159  0.5655  0.3154 -0.2612
  531MPD2     C 7932   3.257   1.236  13.277 -0.4790 -0.5559 -0.2424
  531MPD2    C1 7933   3.216   1.358  13.308 -0.3800  0.1346 -0.1446
  531MPD2    C2 7934   3.156   1.427  13.209  0.3377  0.7167 -0.1425
  531MPD2    C3 7935   3.135   1.386  13.075  0.2110  0.0599 -0.4010
  531MPD2    C4 7936   3.184   1.258  13.051 -0.6300 -0.2139 -0.5345
  531MPD2    C5 7937   3.231   1.186  13.156  0.0992  0.3263  0.3549
  531MPD2     H 7938   3.108   1.520  13.237 -1.3901 -0.4210  0.6668
  531MPD2    H1 7939   3.192   1.214  12.952  0.1046  0.6500 -0.8568
  531MPD2    H2 7940   3.297   1.166  13.348  3.0592  2.0966  0.3915
  531MPD2    H3 7941   3.281   1.092  13.136  0.4348  0.8127 -1.0910
  531MPD2     N 7942   3.085   1.476  12.973 -0.6937 -0.7248  0.2352
  531MPD2    H5 7943   3.048   1.447  12.883 -0.7317 -0.1955  0.0788
  531MPD2    N1 7944   3.245   1.414  13.434 -0.3072  0.0413  0.5727
  531MPD2    H7 7945   3.298   1.350  13.492 -1.7285 -2.4596 -0.8752
  532TMC3    C1 7946   3.310   1.587  13.585  0.0337  0.6488 -0.3995
  532TMC3    C2 7947   3.293   1.712  13.629 -0.4327  0.4196  0.2665
  532TMC3    C3 7948   3.397   1.798  13.659 -0.2816 -0.1881 -0.4769
  532TMC3    C4 7949   3.441   1.546  13.581  0.3584 -0.0940 -0.0643
  532TMC3    C5 7950   3.543   1.627  13.618  0.3871  0.0212 -0.0576
  532TMC3    C6 7951   3.522   1.757  13.658  0.2671  0.8076 -0.0303
  532TMC3     C 7952   3.232   1.549  13.470 -0.5891 -0.6388 -0.5112
  532TMC3     O 7953   3.189   1.650  13.417 -0.3114  0.5532 -0.8215
  532TMC3     H 7954   3.189   1.745  13.631 -0.1657  1.4180 -2.4358
  532TMC3    H1 7955   3.470   1.452  13.536  0.0573 -0.3665  0.3153
  532TMC3    H2 7956   3.605   1.820  13.686  2.3556 -1.5968 -0.7821
  532TMC3    C7 7957   3.667   1.568  13.668  0.8234  0.3966  0.5801
  532TMC3    C8 7958   3.370   1.926  13.604 -0.1627 -0.5248 -0.1328
  532TMC3    O1 7959   3.762   1.644  13.687  1.1716  0.3188  0.2030
  532TMC3    O2 7960   3.451   2.010  13.631  0.4155 -0.1746 -0.3733
  533TMC3    C1 7961   3.932   3.315  14.661  0.5598 -0.2187  0.0374
  533TMC3    C2 7962   4.058   3.363  14.644 -0.1970 -0.6257 -0.6131
  533TMC3    C3 7963   4.078   3.494  14.681  1.0149 -0.5558 -0.4076
  533TMC3    C4 7964   3.833   3.391  14.714  0.2801 -0.4727  1.0843
  533TMC3    C5 7965   3.856   3.514  14.760 -0.2195 -0.1780 -0.4592
  533TMC3    C6 7966   3.977   3.569  14.741 -0.9587 -0.4665 -0.5862
  533TMC3     C 7967   3.910   3.169  14.670 -0.0040 -0.6548 -0.6457
  533TMC3     O 7968   3.999   3.105  14.733 -0.2853  0.1326  0.1679
  533TMC3     H 7969   4.134   3.296  14.606 -0.3585 -0.1734 -1.7130
  533TMC3    H1 7970   3.729   3.362  14.720  0.0355  0.1764 -0.0933
  533TMC3    H2 7971   3.995   3.668  14.781 -2.8828 -0.4080  0.1214
  533TMC3    C7 7972   3.820   3.521  14.895 -0.1603 -0.3242 -0.1306
  533TMC3    C8 7973   4.213   3.546  14.680 -0.2277 -0.5108 -0.7785
  533TMC3    O1 7974   3.775   3.416  14.940 -0.2131 -0.0440 -0.1298
  533TMC3    O2 7975   4.235   3.625  14.769  0.2531 -0.8942 -0.7142
  534MPD2     C 7976   2.309   0.081   1.197 -0.7267 -0.0052  0.0449
  534MPD2    C1 7977   2.240   0.202   1.214  0.8751  0.3977  0.4443
  534MPD2    C2 7978   2.104   0.204   1.225 -0.1042 -0.3725 -0.6617
  534MPD2    C3 7979   2.029   0.088   1.228  0.1635  0.5588 -0.4150
  534MPD2    C4 7980   2.100   4.701   1.224 -0.0744  0.0801  0.1796
  534MPD2    C5 7981   2.234   4.700   1.205 -1.0559  0.0221  0.3106
  534MPD2     H 7982   2.058   0.302   1.238 -1.9756 -1.4755  1.0877
  534MPD2    H1 7983   2.055   4.604   1.207 -0.7792  0.4358  0.0074
  534MPD2    H2 7984   2.416   0.073   1.179 -0.7864  0.4400 -0.5220
  534MPD2    H3 7985   2.292   4.609   1.196 -1.1733  0.2403 -2.6024
  534MPD2     N 7986   1.888   0.080   1.227 -0.4304 -0.2690 -0.5833
  534MPD2    H5 7987   1.843   4.722   1.241  2.0890 -0.9913  2.9629
  534MPD2    N1 7988   2.306   0.326   1.207 -0.2779  0.5280  0.1032
  534MPD2    H7 7989   2.249   0.410   1.215  0.5157  1.0503  0.2325
  535TMC3    C1 7990   1.673   0.158   1.201 -0.4231 -0.1026  0.6108
  535TMC3    C2 7991   1.572   0.225   1.269  0.0724 -0.2303 -0.4770
  535TMC3    C3 7992   1.444   0.227   1.215  0.2905  0.1650 -0.4430
  535TMC3    C4 7993   1.656   0.109   1.072  1.0198  0.2873 -0.1448
  535TMC3    C5 7994   1.531   0.138   1.016 -0.3627 -0.3920 -0.2860
  535TMC3    C6 7995   1.428   0.188   1.086  0.4110 -0.3071  0.5437
  535TMC3     C 7996   1.809   0.193   1.227  0.2348  0.0506 -0.5553
  535TMC3     O 7997   1.841   0.309   1.230 -0.3022  0.2447  0.9332
  535TMC3     H 7998   1.585   0.262   1.370 -1.3315  0.3186 -0.5013
  535TMC3    H1 7999   1.744   0.096   1.011  0.9612 -0.8627  0.0162
  535TMC3    H2 8000   1.327   0.188   1.047  0.7701 -1.3680 -0.3777
  535TMC3    C7 8001   1.533   0.120   0.875  0.5232  0.2689 -0.6782
  535TMC3    C8 8002   1.321   0.220   1.301  0.4596 -0.6898  0.1416
  535TMC3    O1 8003   1.625   0.051   0.828 -0.6709 -0.1191 -0.2308
  535TMC3    O2 8004   1.215   0.210   1.244  0.6362 -0.4397  0.4259
  536MPD2     C 8005   0.813   2.599  16.788  0.1655 -0.0975  0.2594
  536MPD2    C1 8006   0.706   2.653  16.854  0.0620  0.1387  0.3885
  536MPD2    C2 8007   0.626   2.753  16.800 -0.0736  0.0848 -0.2554
  536MPD2    C3 8008   0.652   2.787  16.670  0.0894  0.4736 -0.5474
  536MPD2    C4 8009   0.749   2.720  16.596  0.6584 -0.2480  0.0937
  536MPD2    C5 8010   0.832   2.628  16.660  0.3036 -0.1843  0.4237
  536MPD2     H 8011   0.557   2.808  16.864 -1.1995 -2.2392  0.5388
  536MPD2    H1 8012   0.759   2.754  16.494 -1.1140 -1.1522 -0.3752
  536MPD2    H2 8013   0.873   2.523  16.838  0.0723  0.4284  1.1628
  536MPD2    H3 8014   0.912   2.579  16.605 -0.4401  0.5530 -1.3187
  536MPD2     N 8015   0.593   2.897  16.601 -0.9693 -0.3689  0.2709
  536MPD2    H5 8016   0.626   2.914  16.506  1.6370 -0.8614  1.0843
  536MPD2    N1 8017   0.696   2.618  16.996  0.9459  0.3643  0.0764
  536MPD2    H7 8018   0.778   2.586  17.047  0.3461 -1.4772 -0.1246
  537TMC3    C1 8019   0.618   2.686  17.206 -0.7698  0.6354 -0.0939
  537TMC3    C2 8020   0.603   2.817  17.216  0.1278  0.5338  0.6675
  537TMC3    C3 8021   0.601   2.869  17.343  0.1569  0.3399  0.0080
  537TMC3    C4 8022   0.644   2.592  17.305  0.2389 -0.6281 -0.3874
  537TMC3    C5 8023   0.642   2.645  17.429 -0.1852 -0.0872  0.5989
  537TMC3    C6 8024   0.625   2.784  17.447 -0.1745  0.0398  0.6306
  537TMC3     C 8025   0.584   2.645  17.071  0.1497 -0.4326 -0.1197
  537TMC3     O 8026   0.473   2.669  17.035 -0.1663  0.5805 -0.5123
  537TMC3     H 8027   0.609   2.873  17.124  1.4886 -2.4749 -1.0790
  537TMC3    H1 8028   0.666   2.489  17.279 -1.4347 -1.1385  0.1970
  537TMC3    H2 8029   0.619   2.831  17.545  0.4965  1.9253 -0.2416
  537TMC3    C7 8030   0.623   2.564  17.545 -0.1006  0.0942 -0.3231
  537TMC3    C8 8031   0.619   3.005  17.363  0.3689  0.3611 -0.0043
  537TMC3    O1 8032   0.613   2.626  17.651  0.0168 -0.2412 -0.8023
  537TMC3    O2 8033   0.643   3.036  17.479 -0.5128  0.2170  0.7345
  538TMC3    C1 8034   1.429   1.260  11.107 -0.1321 -0.1352  0.4106
  538TMC3    C2 8035   1.536   1.338  11.079  0.1492 -0.0599 -0.4260
  538TMC3    C3 8036   1.532   1.410  10.960 -0.3270  0.6771  0.8563
  538TMC3    C4 8037   1.316   1.261  11.029  0.7993 -0.2032  0.1472
  538TMC3    C5 8038   1.311   1.352  10.925  0.7098  0.2089 -0.1542
  538TMC3    C6 8039   1.423   1.422  10.881 -0.5834 -0.2251 -1.0013
  538TMC3     C 8040   1.425   1.201  11.238  0.2024 -0.2852  0.1797
  538TMC3     O 8041   1.350   1.105  11.244 -0.0203  0.5380  0.3223
  538TMC3     H 8042   1.633   1.315  11.121 -0.2743 -1.8553 -0.4156
  538TMC3    H1 8043   1.240   1.185  11.047  2.3847 -1.9707 -0.5278
  538TMC3    H2 8044   1.421   1.482  10.791 -1.5218  0.9713 -0.1853
  538TMC3    C7 8045   1.181   1.351  10.861 -0.4138 -0.1293 -0.2781
  538TMC3    C8 8046   1.656   1.479  10.933 -0.3979  0.1745 -0.0687
  538TMC3    O1 8047   1.096   1.286  10.920 -0.4870 -0.8047 -0.0662
  538TMC3    O2 8048   1.736   1.479  11.024 -0.0969 -0.1382 -0.2607
  539MPD2     C 8049   0.743   0.326  11.723 -0.3936 -0.1584 -0.1046
  539MPD2    C1 8050   0.851   0.385  11.664 -0.3246  0.1545  0.3292
  539MPD2    C2 8051   0.856   0.528  11.666  0.4213 -0.1504  0.2086
  539MPD2    C3 8052   0.751   0.597  11.726 -0.2230  0.1541  0.2261
  539MPD2    C4 8053   0.635   0.531  11.772  0.1578 -0.1243  0.3452
  539MPD2    C5 8054   0.638   0.396  11.779  0.4388 -0.2446  0.4859
  539MPD2     H 8055   0.947   0.577  11.632 -0.4512  0.8668 -0.6527
  539MPD2    H1 8056   0.552   0.589  11.811  1.4560  1.4235  0.8172
  539MPD2    H2 8057   0.731   0.219  11.717 -0.5904 -0.1464  0.0746
  539MPD2    H3 8058   0.559   0.339  11.826 -0.7817  0.3672 -0.8198
  539MPD2     N 8059   0.742   0.736  11.735 -0.3132  0.4114 -0.2620
  539MPD2    H5 8060   0.655   0.770  11.776 -0.7772  0.2521 -1.1108
  539MPD2    N1 8061   0.958   0.309  11.607 -0.3549  0.2417 -0.2978
  539MPD2    H7 8062   1.030   0.364  11.560 -0.3523  0.0479 -0.5230
  540TMC3    C1 8063   0.773   0.961  11.686  1.0647 -0.5620  0.9124
  540TMC3    C2 8064   0.803   1.050  11.579  0.3576  0.3666 -0.3706
  540TMC3    C3 8065   0.729   1.162  11.576  0.0505 -0.4336  0.1730
  540TMC3    C4 8066   0.668   0.986  11.774  0.3419  0.5751 -0.0461
  540TMC3    C5 8067   0.604   1.103  11.771 -0.2831 -0.0270 -0.1369
  540TMC3    C6 8068   0.633   1.193  11.673 -0.2674  0.1557 -0.7930
  540TMC3     C 8069   0.821   0.823  11.672  0.2785  0.3044  0.5259
  540TMC3     O 8070   0.912   0.808  11.596  0.5452 -0.7088  0.2409
  540TMC3     H 8071   0.885   1.029  11.512 -1.4678 -0.8846 -2.1965
  540TMC3    H1 8072   0.638   0.923  11.857  1.0514  0.2695 -0.0216
  540TMC3    H2 8073   0.572   1.282  11.667 -1.4704 -0.5504  1.0052
  540TMC3    C7 8074   0.502   1.120  11.864  0.1705  0.0324 -0.7141
  540TMC3    C8 8075   0.703   1.229  11.444  0.3110  0.5226  0.5699
  540TMC3    O1 8076   0.432   1.023  11.883 -0.4023 -0.3079 -0.1962
  540TMC3    O2 8077   0.617   1.316  11.438 -0.3086  0.2215  0.2951
  541MPD2     C 8078   3.816   1.784  13.010  0.1124  0.8299  0.4114
  541MPD2    C1 8079   3.901   1.716  12.927 -0.2567  0.6222  0.0075
  541MPD2    C2 8080   3.934   1.772  12.800 -0.4280  0.1417 -0.0372
  541MPD2    C3 8081   3.882   1.894  12.761  0.2322 -0.0836 -0.6922
  541MPD2    C4 8082   3.791   1.957  12.843 -0.6619 -0.0121 -0.5135
  541MPD2    C5 8083   3.760   1.902  12.963  0.3153  0.9014  0.3152
  541MPD2     H 8084   3.998   1.713  12.735  1.2553  0.2660  1.5065
  541MPD2    H1 8085   3.734   2.043  12.809 -1.6223 -0.3069  0.3438
  541MPD2    H2 8086   3.779   1.740  13.102  1.6051  0.4488  0.8396
  541MPD2    H3 8087   3.690   1.962  13.021  2.0867  1.6252  1.6965
  541MPD2     N 8088   3.914   1.956  12.638  0.3052  0.2263  0.3308
  541MPD2    H5 8089   3.879   2.051  12.630  0.0727  0.2433  1.4652
  541MPD2    N1 8090   3.965   1.593  12.955 -0.1918  0.4251 -0.2092
  541MPD2    H7 8091   4.030   1.561  12.884  0.3027 -3.0258  1.7710
  542TMC3    C1 8092   4.048   2.008  12.452  0.5489 -0.0030 -0.8666
  542TMC3    C2 8093   4.072   1.949  12.325  1.1476  0.2905 -0.2683
  542TMC3    C3 8094   4.077   2.039  12.216 -0.1510 -0.5700 -0.1408
  542TMC3    C4 8095   4.014   2.137  12.462 -0.3754  0.6215 -0.0033
  542TMC3    C5 8096   3.999   2.215  12.347 -0.2827  0.5208  0.4725
  542TMC3    C6 8097   4.042   2.174  12.228 -0.3004  0.6088 -0.0887
  542TMC3     C 8098   4.008   1.915  12.547  0.4959  0.4295 -0.7434
  542TMC3     O 8099   4.053   1.802  12.534  0.0315  0.0369 -0.1787
  542TMC3     H 8100   4.097   1.844  12.312  2.5443  0.8099 -1.8805
  542TMC3    H1 8101   3.964   2.165  12.553 -1.1177 -0.5414 -0.0505
  542TMC3    H2 8102   4.028   2.240  12.144 -2.3033 -0.1940 -0.3972
  542TMC3    C7 8103   3.967   2.355  12.380 -0.3941  0.0573 -0.6398
  542TMC3    C8 8104   4.092   1.990  12.078 -0.0615 -0.2023  0.5328
  542TMC3    O1 8105   3.992   2.387  12.495  0.4727 -0.2502 -0.3475
  542TMC3    O2 8106   4.044   2.057  11.990  0.4422 -0.3849  0.6429
  543TMC3    C1 8107   3.787   3.626  17.628 -0.5032 -0.2593  0.4571
  543TMC3    C2 8108   3.860   3.587   0.005  0.3831  0.1615 -0.1478
  543TMC3    C3 8109   3.813   3.609   0.132  0.0494 -0.2139 -0.0585
  543TMC3    C4 8110   3.662   3.690  17.651  0.6263  0.0930  0.3286
  543TMC3    C5 8111   3.615   3.708   0.048  0.0010 -0.2385 -1.0382
  543TMC3    C6 8112   3.694   3.673   0.153 -0.0793 -1.0026  0.2100
  543TMC3     C 8113   3.833   3.602  17.496  0.6304  0.4389 -0.4231
  543TMC3     O 8114   3.916   3.511  17.487  0.1977  0.7405  0.2096
  543TMC3     H 8115   3.955   3.536  17.720 -0.6306 -1.7970  0.0608
  543TMC3    H1 8116   3.600   3.733  17.573  0.1464  0.7952  1.0954
  543TMC3    H2 8117   3.678   3.708   0.254  0.8148 -0.3549  0.1369
  543TMC3    C7 8118   3.502   3.785   0.081 -0.5508  0.2617  0.4759
  543TMC3    C8 8119   3.877   3.536   0.234 -0.3256 -0.3299 -0.3683
  543TMC3    O1 8120   3.441   3.759   0.181 -0.0534  0.4975 -0.1071
  543TMC3    O2 8121   3.990   3.501   0.215  0.2208 -0.1875  0.0309
  544MPD2     C 8122   3.842   3.216   0.627 -0.0201 -0.3584  0.3077
  544MPD2    C1 8123   3.937   3.223   0.533 -0.2076  0.4937  0.6491
  544MPD2    C2 8124   3.921   3.314   0.433  1.0714  0.6230 -0.2253
  544MPD2    C3 8125   3.812   3.399   0.433  0.4844 -0.0345 -0.0318
  544MPD2    C4 8126   3.713   3.376   0.527  0.3669 -0.0107  0.2820
  544MPD2    C5 8127   3.728   3.286   0.624  0.2722 -0.7814  0.3375
  544MPD2     H 8128   3.996   3.331   0.357 -1.5132  3.0262 -2.2310
  544MPD2    H1 8129   3.624   3.438   0.518 -1.5027 -2.9358 -1.5271
  544MPD2    H2 8130   3.848   3.142   0.706  1.3399  0.5147  1.0331
  544MPD2    H3 8131   3.658   3.268   0.705  0.1592  1.7613  0.8074
  544MPD2     N 8132   3.793   3.503   0.342 -0.1811 -0.2517 -0.4546
  544MPD2    H5 8133   3.701   3.546   0.336  0.2351  0.8593  1.1465
  544MPD2    N1 8134   4.048   3.143   0.548 -0.0457 -0.5232 -0.4527
  544MPD2    H7 8135   4.050   3.088   0.633 -1.1318  0.1302  0.0013
  545TMC3    C1 8136   4.252   3.028   0.491  0.8588 -0.7410 -0.1076
  545TMC3    C2 8137   4.281   2.925   0.408  0.6489 -0.5414  0.2206
  545TMC3    C3 8138   4.350   2.814   0.459  0.1584 -0.0172  0.2897
  545TMC3    C4 8139   4.300   3.046   0.617  0.0914 -0.2473 -0.6180
  545TMC3    C5 8140   4.382   2.943   0.660  0.3662 -0.2565  0.3031
  545TMC3    C6 8141   4.404   2.827   0.587 -0.6862 -0.8188  0.4024
  545TMC3     C 8142   4.149   3.121   0.448  0.7895  0.0046  0.6988
  545TMC3     O 8143   4.154   3.158   0.328 -0.1962 -0.2902 -0.1465
  545TMC3     H 8144   4.248   2.937   0.306  3.2086 -0.9733 -0.6555
  545TMC3    H1 8145   4.267   3.131   0.677  2.1285 -0.0364  0.1986
  545TMC3    H2 8146   4.442   2.733   0.624  1.3337  0.4206  1.4804
  545TMC3    C7 8147   4.489   2.973   0.748 -0.1606 -0.1167 -0.0104
  545TMC3    C8 8148   4.398   2.700   0.383  0.1389  0.1455 -0.4122
  545TMC3    O1 8149   4.467   3.054   0.834  0.4001 -0.0758  0.1389
  545TMC3    O2 8150   4.507   2.655   0.410  0.2864 -0.2605 -0.2354
  546MPD2     C 8151   0.406   3.434   0.053 -0.2751 -1.0354  0.6375
  546MPD2    C1 8152   0.358   3.473  17.660  0.0073 -0.2283  0.8125
  546MPD2    C2 8153   0.373   3.601  17.616  0.8198 -0.2509 -0.2308
  546MPD2    C3 8154   0.436   3.695  17.706  0.0766 -0.3204 -0.3077
  546MPD2    C4 8155   0.473   3.653   0.106  0.3284  0.1476  0.2478
  546MPD2    C5 8156   0.458   3.523   0.146 -0.0185 -0.0161 -0.7869
  546MPD2     H 8157   0.330   3.630  17.521  1.3941  0.5808 -0.2414
  546MPD2    H1 8158   0.523   3.725   0.169  1.5155 -1.6439  1.3671
  546MPD2    H2 8159   0.400   3.329   0.078  0.5547 -0.8660  1.5701
  546MPD2    H3 8160   0.482   3.491   0.246  1.9636  0.8112 -1.0013
  546MPD2     N 8161   0.461   3.826  17.669 -0.1661  0.0762  0.5185
  546MPD2    H5 8162   0.498   3.887   0.013 -0.6819 -1.7888  2.3622
  546MPD2    N1 8163   0.296   3.367  17.588  0.2055 -0.3193 -0.9970
  546MPD2    H7 8164   0.300   3.278  17.637 -0.7883  0.1719 -0.0293
  547TMC3    C1 8165   0.220   3.236  17.423  0.2324  0.1127  0.0560
  547TMC3    C2 8166   0.143   3.211  17.308 -0.4345 -0.9837 -0.3967
  547TMC3    C3 8167   0.108   3.084  17.278 -0.5545 -0.0042  0.2911
  547TMC3    C4 8168   0.277   3.133  17.492  0.1788 -0.0321 -0.1627
  547TMC3    C5 8169   0.235   3.008  17.459 -0.2662  0.2573 -0.7507
  547TMC3    C6 8170   0.144   2.981  17.359 -0.7938 -0.0028  0.2174
  547TMC3     C 8171   0.250   3.372  17.463 -0.2253  0.6811  0.4739
  547TMC3     O 8172   0.233   3.463  17.382  0.1029  0.7348 -0.0496
  547TMC3     H 8173   0.114   3.292  17.241 -2.3456 -0.2588  1.3217
  547TMC3    H1 8174   0.363   3.141  17.558 -1.2325 -1.8084  1.8961
  547TMC3    H2 8175   0.090   2.887  17.360 -1.1158  0.1723 -0.8299
  547TMC3    C7 8176   0.252   2.919  17.577 -0.1630 -0.0885 -0.2576
  547TMC3    C8 8177   0.004   3.062  17.171 -0.2176  0.1050  0.8129
  547TMC3    O1 8178   0.270   2.969  17.690 -0.4116 -0.3903  0.3843
  547TMC3    O2 8179   4.703   3.153  17.101  0.2223 -0.1799  0.7032
  548MPD2     C 8180   0.219   3.690  12.766 -0.2381  0.6426 -0.1925
  548MPD2    C1 8181   0.155   3.621  12.667  0.2734  0.3609  0.2555
  548MPD2    C2 8182   0.237   3.582  12.559  0.3997  0.2239  0.0344
  548MPD2    C3 8183   0.375   3.598  12.560  0.0447 -0.3163  0.3307
  548MPD2    C4 8184   0.435   3.657  12.670  0.0964  0.9508  0.1994
  548MPD2    C5 8185   0.357   3.706  12.768 -0.4657  0.2060  0.1098
  548MPD2     H 8186   0.196   3.536  12.470  0.5642  0.5519 -0.2140
  548MPD2    H1 8187   0.543   3.661  12.683 -0.0251  1.0355  1.2148
  548MPD2    H2 8188   0.162   3.732  12.848  1.8087  2.3674  0.3601
  548MPD2    H3 8189   0.408   3.757  12.848  2.0674  0.8846 -1.9327
  548MPD2     N 8190   0.444   3.540  12.459  0.3501  0.0034 -0.3820
  548MPD2    H5 8191   0.395   3.490  12.386  2.6032 -3.4924  0.5082
  548MPD2    N1 8192   0.009   3.616  12.665  0.0444  0.4453 -0.7311
  548MPD2    H7 8193   4.703   3.673  12.740 -2.2128 -0.1410 -1.4382
  549TMC3    C1 8194   4.519   3.618  12.606  0.4481  0.1507 -0.3429
  549TMC3    C2 8195   4.508   3.757  12.603  0.3180 -0.3064 -0.0897
  549TMC3    C3 8196   4.377   3.798  12.586  0.3400  0.8715 -1.1388
  549TMC3    C4 8197   4.421   3.531  12.605  0.0738  0.0109 -1.2726
  549TMC3    C5 8198   4.299   3.584  12.587  0.4147 -0.2254 -0.0791
  549TMC3    C6 8199   4.275   3.717  12.587 -0.6520  0.7992  0.2524
  549TMC3     C 8200   4.651   3.570  12.571  0.7466 -0.7754 -0.2103
  549TMC3     O 8201   4.671   3.493  12.475 -0.1859 -0.1193 -0.7283
  549TMC3     H 8202   4.592   3.824  12.595  0.8990 -1.1037 -0.7140
  549TMC3    H1 8203   4.460   3.430  12.604 -1.7084 -0.6799 -0.4463
  549TMC3    H2 8204   4.173   3.754  12.581 -0.7067  0.4686 -0.8994
  549TMC3    C7 8205   4.182   3.502  12.594  0.0302 -0.2900  0.2790
  549TMC3    C8 8206   4.355   3.924  12.513 -0.1197 -0.7419  0.4329
  549TMC3    O1 8207   4.075   3.554  12.560  0.2532  0.0645  0.2716
  549TMC3    O2 8208   4.240   3.968  12.519 -0.2269  0.1324 -0.1601
  550TMC3    C1 8209   3.633   1.604  11.794  0.4376 -0.5962 -0.1649
  550TMC3    C2 8210   3.689   1.647  11.912 -0.7155  0.4139  0.2215
  550TMC3    C3 8211   3.790   1.736  11.903 -0.1684  0.4974  0.0763
  550TMC3    C4 8212   3.689   1.645  11.678  0.0253 -0.3399 -0.0797
  550TMC3    C5 8213   3.798   1.717  11.670 -0.5541 -0.0768  0.7330
  550TMC3    C6 8214   3.849   1.770  11.784  0.5052  0.0425  0.4144
  550TMC3     C 8215   3.494   1.650  11.802 -0.5798 -0.2170  0.1330
  550TMC3     O 8216   3.441   1.630  11.912  0.1780 -0.1731  0.2454
  550TMC3     H 8217   3.642   1.647  12.009 -2.2696 -0.5847 -0.5440
  550TMC3    H1 8218   3.652   1.598  11.587  3.6280 -1.4990 -0.9525
  550TMC3    H2 8219   3.921   1.852  11.781 -0.0617  0.5227 -0.1038
  550TMC3    C7 8220   3.783   1.818  11.567 -0.6187  0.1475 -0.3095
  550TMC3    C8 8221   3.791   1.850  11.993  0.4480 -0.0409 -0.3956
  550TMC3    O1 8222   3.774   1.776  11.451  0.1678  0.1653 -0.0263
  550TMC3    O2 8223   3.763   1.965  11.946  0.4171 -0.2870 -0.4915
  551TMC3    C1 8224   1.215   4.186  13.373  0.1235  0.1471 -0.2400
  551TMC3    C2 8225   1.318   4.144  13.288  0.5772 -0.3473 -0.5781
  551TMC3    C3 8226   1.445   4.211  13.313 -0.0795 -0.0835 -0.5049
  551TMC3    C4 8227   1.227   4.293  13.458 -0.1365  0.5634 -0.0551
  551TMC3    C5 8228   1.354   4.342  13.481  0.0674 -0.2966  0.3293
  551TMC3    C6 8229   1.464   4.308  13.405 -0.7436  0.0587 -0.1042
  551TMC3     C 8230   1.089   4.165  13.309 -0.0053 -0.5288 -0.8831
  551TMC3     O 8231   1.073   4.067  13.239 -0.0691 -0.8494 -1.0596
  551TMC3     H 8232   1.295   4.077  13.206 -0.9872 -1.2682  0.6337
  551TMC3    H1 8233   1.149   4.295  13.533 -1.1192 -2.3745 -1.0137
  551TMC3    H2 8234   1.564   4.345  13.424 -0.4487  0.4599 -2.5010
  551TMC3    C7 8235   1.370   4.403  13.612  0.0154 -0.0646 -0.8104
  551TMC3    C8 8236   1.532   4.206  13.195  0.2224  0.6328  0.2882
  551TMC3    O1 8237   1.482   4.424  13.657  0.9889 -0.0396  0.2734
  551TMC3    O2 8238   1.514   4.105  13.125 -0.7037 -0.3444  0.2646
  552MPD2     C 8239   3.844   1.644  14.026  0.5380  0.0953 -0.5820
  552MPD2    C1 8240   3.796   1.583  14.142 -0.5529  0.5122  0.4882
  552MPD2    C2 8241   3.865   1.592  14.261 -0.1041 -0.6538 -0.4251
  552MPD2    C3 8242   3.978   1.678  14.270  0.6663 -0.4996  0.0813
  552MPD2    C4 8243   4.026   1.741  14.153 -0.1694  0.1266  0.6297
  552MPD2    C5 8244   3.955   1.728  14.032 -0.3964  0.1959  0.6985
  552MPD2     H 8245   3.826   1.542  14.349  1.6039 -1.5564 -0.1978
  552MPD2    H1 8246   4.104   1.817  14.151 -0.7013  0.6169 -0.8191
  552MPD2    H2 8247   3.796   1.627  13.930 -0.9928  0.8081  0.0532
  552MPD2    H3 8248   3.998   1.772  13.943  2.2023 -0.8405  1.4260
  552MPD2     N 8249   4.064   1.690  14.383  0.2915 -0.2079 -0.7057
  552MPD2    H5 8250   4.129   1.767  14.375  1.5508 -1.0975  1.0377
  552MPD2    N1 8251   3.690   1.500  14.133 -0.8291 -0.2653 -0.5947
  552MPD2    H7 8252   3.685   1.434  14.209 -0.6048  0.6363  0.2055
  553TMC3    C1 8253   3.496   1.392  14.052 -0.2799  0.6168  0.7183
  553TMC3    C2 8254   3.391   1.398  13.967 -0.1265 -0.3226 -0.3849
  553TMC3    C3 8255   3.312   1.290  13.942 -0.6618  0.3132  0.3959
  553TMC3    C4 8256   3.527   1.266  14.104  0.0973  0.0473  0.4755
  553TMC3    C5 8257   3.447   1.168  14.086  0.5028  1.2213 -0.5602
  553TMC3    C6 8258   3.334   1.177  14.012 -0.1133 -0.5924 -0.1745
  553TMC3     C 8259   3.588   1.503  14.038 -0.4978  0.1949  0.1645
  553TMC3     O 8260   3.552   1.599  13.972  0.3149  0.2037 -0.8783
  553TMC3     H 8261   3.372   1.493  13.918  2.3348  0.2916 -0.1502
  553TMC3    H1 8262   3.621   1.258  14.158 -0.3109 -0.0875  1.1658
  553TMC3    H2 8263   3.266   1.095  13.990 -0.2106 -0.0493 -1.9320
  553TMC3    C7 8264   3.476   1.032  14.128 -0.1260 -0.7174  0.0991
  553TMC3    C8 8265   3.313   1.272  13.799 -0.0134  0.2338 -0.1412
  553TMC3    O1 8266   3.387   0.952  14.115 -0.4732  0.3627 -0.0189
  553TMC3    O2 8267   3.415   1.302  13.743 -0.5266  0.0587  0.2719
  554TMC3    C1 8268   4.392   0.673  11.599 -0.3682  0.2468  0.1187
  554TMC3    C2 8269   4.311   0.691  11.492 -0.3905  0.4256 -0.2096
  554TMC3    C3 8270   4.335   0.806  11.423  1.0921 -0.7905 -0.1373
  554TMC3    C4 8271   4.481   0.764  11.638 -0.1984 -0.5905 -0.4676
  554TMC3    C5 8272   4.498   0.883  11.570 -0.6194  0.3134  0.4120
  554TMC3    C6 8273   4.423   0.900  11.462  0.7115  0.0927 -0.4404
  554TMC3     C 8274   4.345   0.565  11.685  0.2147 -0.5238 -0.2953
  554TMC3     O 8275   4.225   0.553  11.692  0.4954 -0.7508  0.2754
  554TMC3     H 8276   4.255   0.608  11.449  0.2822  0.0510 -0.3670
  554TMC3    H1 8277   4.530   0.748  11.733  0.1976  0.5265 -0.4833
  554TMC3    H2 8278   4.431   0.990  11.403  1.0854  0.5796  0.3522
  554TMC3    C7 8279   4.625   0.961  11.591  0.0930 -0.1445  1.2407
  554TMC3    C8 8280   4.312   0.813  11.276 -0.1458  0.8371  0.2916
  554TMC3    O1 8281   4.670   0.950  11.704 -0.0242 -0.0904 -0.5422
  554TMC3    O2 8282   4.397   0.866  11.201  0.3719 -0.1396  0.1441
  555TMC3    C1 8283   3.944   0.230  15.434  0.4135 -0.4665  0.7314
  555TMC3    C2 8284   3.958   0.295  15.553  1.1075 -0.2151 -0.6455
  555TMC3    C3 8285   4.010   0.226  15.653 -0.8621 -0.3773  0.1927
  555TMC3    C4 8286   3.988   0.101  15.412  0.2500 -0.0879  0.5862
  555TMC3    C5 8287   4.056   0.039  15.518 -0.2161 -0.1848 -0.0190
  555TMC3    C6 8288   4.062   0.099  15.639  0.5610 -0.0094  0.8520
  555TMC3     C 8289   3.915   0.310  15.307 -0.3425 -0.4195 -0.4076
  555TMC3     O 8290   3.949   0.428  15.314  0.0509  0.2373 -1.0633
  555TMC3     H 8291   3.917   0.395  15.564  1.2381 -0.3512  1.0643
  555TMC3    H1 8292   3.978   0.053  15.315  4.5687  0.4183 -0.1028
  555TMC3    H2 8293   4.083   0.041  15.729 -1.3040 -0.7438  0.8214
  555TMC3    C7 8294   4.086   4.634  15.517  0.2863 -0.2201 -0.0248
  555TMC3    C8 8295   4.054   0.306  15.760 -0.1848  0.5606  0.2734
  555TMC3    O1 8296   4.115   4.582  15.625 -0.4557  0.0655  0.0116
  555TMC3    O2 8297   4.012   0.421  15.758  0.1145  0.0966  0.1393
  556MPD2     C 8298   1.703   2.619  10.567 -0.2445 -0.1010 -0.5408
  556MPD2    C1 8299   1.738   2.500  10.627  0.2348 -0.0865  0.2503
  556MPD2    C2 8300   1.756   2.384  10.551 -0.2815 -0.6666  0.7402
  556MPD2    C3 8301   1.748   2.387  10.413  0.3048  0.7323  0.0920
  556MPD2    C4 8302   1.716   2.509  10.359 -0.3005 -0.0138 -0.4681
  556MPD2    C5 8303   1.693   2.622  10.430 -0.0128 -0.1116  0.2208
  556MPD2     H 8304   1.776   2.287  10.595  0.6541 -1.0613 -0.5536
  556MPD2    H1 8305   1.701   2.514  10.251  0.5862 -1.8618 -0.6835
  556MPD2    H2 8306   1.696   2.715  10.616  0.9904 -0.0159 -0.5402
  556MPD2    H3 8307   1.669   2.717  10.385  0.1941 -0.3407 -0.3776
  556MPD2     N 8308   1.785   2.269  10.349 -0.2773  0.3039 -0.1111
  556MPD2    H5 8309   1.815   2.188  10.402  0.9634 -0.1844 -1.5517
  556MPD2    N1 8310   1.739   2.483  10.773 -0.0504  0.8842 -0.5618
  556MPD2    H7 8311   1.764   2.398  10.822 -0.3798  0.6863 -0.7404
  557TMC3    C1 8312   1.813   2.102  10.188 -0.1084  0.3701  0.3631
  557TMC3    C2 8313   1.824   2.078  10.056  0.1936 -0.1713 -0.1525
  557TMC3    C3 8314   1.799   1.947  10.013  0.8178 -0.7241  0.2681
  557TMC3    C4 8315   1.781   2.007  10.277 -0.0204  0.0649  0.7499
  557TMC3    C5 8316   1.767   1.879  10.235  0.0241 -0.1873 -0.3526
  557TMC3    C6 8317   1.771   1.846  10.102 -0.2108 -0.5542  0.1648
  557TMC3     C 8318   1.786   2.244  10.214 -0.0360  0.2119  0.2130
  557TMC3     O 8319   1.762   2.312  10.113  0.6879 -0.6019  0.9421
  557TMC3     H 8320   1.852   2.152   9.982  0.4298  0.0710  0.1802
  557TMC3    H1 8321   1.737   2.032  10.373 -3.3401 -1.0780 -0.4943
  557TMC3    H2 8322   1.773   1.742  10.071 -0.0262 -0.0080 -1.6376
  557TMC3    C7 8323   1.761   1.774  10.339  0.2085  0.1820 -0.0495
  557TMC3    C8 8324   1.866   1.921   9.887  0.2107 -0.4685 -0.6555
  557TMC3    O1 8325   1.686   1.680  10.314  0.6518 -0.6401 -0.3808
  557TMC3    O2 8326   1.971   1.977   9.882 -0.0603  0.0550  0.3683
  558TMC3    C1 8327   4.102   4.711  10.243 -0.2950  0.0168  0.7566
  558TMC3    C2 8328   4.061   4.726  10.373  0.0662  0.9223  0.2393
  558TMC3    C3 8329   3.944   0.059  10.391  0.0260  0.1422 -0.2269
  558TMC3    C4 8330   4.043   0.035  10.133 -0.8702 -0.6002  0.2963
  558TMC3    C5 8331   3.939   0.114  10.160  0.6290 -0.1677 -0.1969
  558TMC3    C6 8332   3.886   0.132  10.284 -0.4069  0.5606  0.0330
  558TMC3     C 8333   4.206   4.605  10.219 -0.3938 -1.0584 -0.1277
  558TMC3     O 8334   4.197   4.542  10.116 -0.6041  0.6256  0.8267
  558TMC3     H 8335   4.100   4.659  10.448  0.0417  0.8232  0.1633
  558TMC3    H1 8336   4.072   0.022  10.029 -0.8450  0.5115  0.1616
  558TMC3    H2 8337   3.798   0.192  10.300 -0.8087 -0.4373  1.5040
  558TMC3    C7 8338   3.885   0.188  10.046  0.0833  0.2405 -0.0732
  558TMC3    C8 8339   3.877   0.074  10.519 -0.1080  0.7868 -0.3610
  558TMC3    O1 8340   3.966   0.226   9.962  0.5992  0.0932 -0.1783
  558TMC3    O2 8341   3.770   0.137  10.525  0.7113  0.3290 -0.8239
  559MPD2     C 8342   4.319   0.627  10.394  0.0682 -0.1360 -0.6611
  559MPD2    C1 8343   4.288   0.557  10.513  0.1341  0.2371 -0.3170
  559MPD2    C2 8344   4.396   0.544  10.606  0.8811 -0.3638  0.7349
  559MPD2    C3 8345   4.519   0.588  10.583  0.0554 -0.3988  0.3328
  559MPD2    C4 8346   4.539   0.662  10.470  0.5223 -0.0397 -0.1584
  559MPD2    C5 8347   4.443   0.678  10.373 -0.3624  0.0755 -0.0228
  559MPD2     H 8348   4.375   0.490  10.697  0.9318 -0.0533  0.9336
  559MPD2    H1 8349   4.638   0.690  10.435  0.9003 -0.7663  0.3077
  559MPD2    H2 8350   4.241   0.649  10.322  1.2666  1.7946 -1.3621
  559MPD2    H3 8351   4.470   0.735  10.285 -0.9252 -1.6369 -1.3111
  559MPD2     N 8352   4.627   0.551  10.669 -0.3108 -0.0725 -0.2475
  559MPD2    H5 8353   4.602   0.489  10.745 -0.6915 -1.0441 -1.1741
  559MPD2    N1 8354   4.155   0.515  10.536  0.1617  0.1435 -0.3300
  559MPD2    H7 8355   4.086   0.539  10.467  0.1785  2.1373  0.3529
  560TMC3    C1 8356   0.111   0.528  10.754 -0.0268 -0.1624 -0.0183
  560TMC3    C2 8357   0.073   0.409  10.816 -0.3611 -0.4661  0.2197
  560TMC3    C3 8358   0.144   0.364  10.919  0.1989  0.8431 -0.2870
  560TMC3    C4 8359   0.244   0.575  10.785 -0.1821  0.8441 -0.1837
  560TMC3    C5 8360   0.306   0.533  10.900 -0.3047  0.3016 -0.4417
  560TMC3    C6 8361   0.264   0.418  10.964  0.2028  0.5871  0.3185
  560TMC3     C 8362   0.022   0.607  10.664  0.5477  0.9148  0.5127
  560TMC3     O 8363   0.064   0.697  10.598  0.0365  0.3155 -0.0416
  560TMC3     H 8364   4.715   0.359  10.785 -0.7910 -1.1574  2.5691
  560TMC3    H1 8365   0.272   0.671  10.744  0.0161  0.7592 -0.2480
  560TMC3    H2 8366   0.324   0.368  11.039  2.4373  0.5647 -1.4693
  560TMC3    C7 8367   0.430   0.595  10.952  0.7274  0.4248  0.8218
  560TMC3    C8 8368   0.073   0.266  11.000 -0.2670 -0.2514 -0.0371
  560TMC3    O1 8369   0.497   0.653  10.872 -0.0672 -0.4622  0.5600
  560TMC3    O2 8370   4.681   0.260  10.990  0.1171  0.4302 -0.2701
  561TMC3    C1 8371   2.577   3.940  11.698 -0.3016  0.1618 -0.2834
  561TMC3    C2 8372   2.500   3.861  11.772  0.1726  0.1689  0.1490
  561TMC3    C3 8373   2.413   3.921  11.851  0.3915  0.5741  0.2456
  561TMC3    C4 8374   2.574   4.077  11.707  0.5216  0.2382  0.3248
  561TMC3    C5 8375   2.477   4.136  11.786  0.2186 -0.7470 -0.0250
  561TMC3    C6 8376   2.396   4.058  11.863  0.6046  0.2885  0.1288
  561TMC3     C 8377   2.633   3.876  11.579 -0.2362  0.4908  0.0762
  561TMC3     O 8378   2.663   3.758  11.591 -0.2230  0.0535  0.2786
  561TMC3     H 8379   2.513   3.753  11.780  1.0593  0.2718  0.0775
  561TMC3    H1 8380   2.652   4.139  11.665 -1.0248  1.4941 -0.7026
  561TMC3    H2 8381   2.322   4.106  11.926  1.1357 -0.7036  1.5068
  561TMC3    C7 8382   2.501   4.275  11.839 -0.8240 -0.5439  0.3311
  561TMC3    C8 8383   2.315   3.839  11.929 -0.0049 -0.1111 -0.1838
  561TMC3    O1 8384   2.468   4.281  11.954 -0.4933 -0.1925  0.1430
  561TMC3    O2 8385   2.344   3.722  11.956 -0.2964 -0.1835 -0.0420
  562TMC3    C1 8386   4.277   0.520  16.542 -0.5445  0.1950  0.0188
  562TMC3    C2 8387   4.285   0.633  16.467  0.5575 -0.3719  0.0045
  562TMC3    C3 8388   4.225   0.620  16.346  0.6388 -0.0156 -0.1626
  562TMC3    C4 8389   4.217   0.399  16.505 -0.2174 -0.4547  0.3725
  562TMC3    C5 8390   4.172   0.394  16.377 -0.6438  0.0233 -0.1103
  562TMC3    C6 8391   4.177   0.505  16.296  0.7195  0.3577 -0.1507
  562TMC3     C 8392   4.303   0.541  16.683 -1.0893 -0.8264  0.2127
  562TMC3     O 8393   4.271   0.647  16.730  0.4483  0.6011 -0.5231
  562TMC3     H 8394   4.330   0.717  16.519 -0.6742 -0.0420  0.5321
  562TMC3    H1 8395   4.185   0.321  16.573  0.3935  0.0048  1.1899
  562TMC3    H2 8396   4.128   0.504  16.199 -3.2111  1.6075  1.8033
  562TMC3    C7 8397   4.128   0.273  16.310  0.3443 -0.2009  0.5301
  562TMC3    C8 8398   4.225   0.745  16.272  0.8205  0.4924  0.0069
  562TMC3    O1 8399   4.064   0.285  16.207  0.1752  0.1660 -0.4847
  562TMC3    O2 8400   4.259   0.844  16.335 -0.3464  0.2238 -0.0752
  563MPD2     C 8401   1.791   2.038  15.907  0.1071  0.4885  0.7229
  563MPD2    C1 8402   1.796   2.106  16.028 -0.4795  0.7925  0.3085
  563MPD2    C2 8403   1.908   2.084  16.105  0.4604  0.2640  0.0093
  563MPD2    C3 8404   2.012   2.007  16.061 -0.3477  0.1243  0.5269
  563MPD2    C4 8405   2.005   1.951  15.936 -0.0191  0.1685 -0.3348
  563MPD2    C5 8406   1.896   1.962  15.862 -0.3439 -0.0852  0.1771
  563MPD2     H 8407   1.916   2.133  16.202 -0.4607  0.9097 -0.2437
  563MPD2    H1 8408   2.072   1.873  15.903 -0.0721 -0.4771  1.0915
  563MPD2    H2 8409   1.700   2.030  15.847  0.6884 -1.2158  0.0621
  563MPD2    H3 8410   1.892   1.897  15.775  0.5105  0.2459 -0.1070
  563MPD2     N 8411   2.116   1.970  16.153 -0.0517  0.1213  0.6041
  563MPD2    H5 8412   2.100   1.994  16.250  0.4694  0.1259  0.6894
  563MPD2    N1 8413   1.688   2.181  16.082 -0.2190 -0.1827  0.1391
  563MPD2    H7 8414   1.599   2.158  16.039 -0.8591  0.3113  1.1884
  564TMC3    C1 8415   1.563   2.234  16.272 -0.6049  0.0305 -0.2040
  564TMC3    C2 8416   1.474   2.153  16.211 -0.0113 -0.4078  0.5525
  564TMC3    C3 8417   1.408   2.059  16.287 -0.2127  0.4763  0.9034
  564TMC3    C4 8418   1.607   2.199  16.398  0.4922  0.2269  0.9269
  564TMC3    C5 8419   1.563   2.085  16.465  0.0274 -0.6835  0.5582
  564TMC3    C6 8420   1.456   2.028  16.412  0.4872 -0.0777  0.2562
  564TMC3     C 8421   1.685   2.258  16.191  0.1189  0.1865 -0.3043
  564TMC3     O 8422   1.788   2.300  16.251 -0.5908  0.1765  0.2557
  564TMC3     H 8423   1.431   2.194  16.120  1.1354 -2.6350 -0.9873
  564TMC3    H1 8424   1.692   2.247  16.446  1.9081  1.2757 -2.5996
  564TMC3    H2 8425   1.412   1.948  16.470 -0.3114 -0.9576 -1.5545
  564TMC3    C7 8426   1.669   1.991  16.472  0.1878 -0.3900  0.2452
  564TMC3    C8 8427   1.371   1.939  16.218 -0.2436 -0.3261  0.2077
  564TMC3    O1 8428   1.768   2.011  16.539 -0.3701 -0.1151  0.7426
  564TMC3    O2 8429   1.370   1.834  16.284 -0.3638  0.6485  0.7597
  565TMC3    C1 8430   1.693   4.133  10.050 -0.7122 -0.2250  0.4535
  565TMC3    C2 8431   1.724   4.020  10.121 -0.1540  0.0286 -0.3829
  565TMC3    C3 8432   1.621   3.934  10.136  0.2700  0.1601 -0.6422
  565TMC3    C4 8433   1.573   4.161  10.000 -0.1410 -0.3646  0.2739
  565TMC3    C5 8434   1.477   4.071  10.015  0.6157 -0.6069 -0.7585
  565TMC3    C6 8435   1.497   3.955  10.079 -0.3217  0.0414 -0.5839
  565TMC3     C 8436   1.797   4.227  10.012 -0.4309  0.6263  0.9397
  565TMC3     O 8437   1.761   4.333   9.968 -0.1204  0.3431  0.0204
  565TMC3     H 8438   1.812   3.999  10.180  0.9397  1.9991 -1.3180
  565TMC3    H1 8439   1.552   4.248   9.939 -0.8879 -0.4798  0.3735
  565TMC3    H2 8440   1.413   3.889  10.099 -1.2847  0.0289 -4.7204
  565TMC3    C7 8441   1.338   4.118   9.988  0.3080  0.3348 -0.7428
  565TMC3    C8 8442   1.648   3.797  10.171 -0.2148  0.3872 -0.0768
  565TMC3    O1 8443   1.326   4.192   9.893  0.1699 -0.0041  0.2046
  565TMC3    O2 8444   1.716   3.788  10.270 -0.2586  0.0614 -0.1009
  566MPD2     C 8445   3.469   4.425  14.209  0.1557 -0.4486 -0.3116
  566MPD2    C1 8446   3.519   4.531  14.134  0.3852 -0.1076 -0.2780
  566MPD2    C2 8447   3.428   4.624  14.084 -0.2124 -0.3552  0.2186
  566MPD2    C3 8448   3.289   4.610  14.102 -0.4609  0.6187 -0.2739
  566MPD2    C4 8449   3.244   4.503  14.175 -0.4378 -0.4070  0.2893
  566MPD2    C5 8450   3.334   4.410  14.220 -0.0295  0.3607  0.5349
  566MPD2     H 8451   3.470   4.709  14.032 -1.8571 -0.7599 -1.7753
  566MPD2    H1 8452   3.137   4.487  14.178 -0.2831 -1.4491  0.2865
  566MPD2    H2 8453   3.540   4.351  14.244 -0.4883  0.4076  2.7745
  566MPD2    H3 8454   3.295   4.318  14.263 -1.5551  0.3344 -0.8946
  566MPD2     N 8455   3.191   4.700  14.056  0.2006  0.5128 -0.2837
  566MPD2    H5 8456   3.099   4.701  14.098  0.2866 -2.0763 -0.0292
  566MPD2    N1 8457   3.660   4.540  14.114 -0.4496 -0.2830  0.5200
  566MPD2    H7 8458   3.713   4.472  14.169 -2.8650 -2.3040  0.3529
  567TMC3    C1 8459   3.880   4.606  14.046  0.0116 -0.7654  0.0517
  567TMC3    C2 8460   3.954   4.627  13.933  0.4833  0.5603  0.4930
  567TMC3    C3 8461   4.089   4.645  13.945  0.5398 -0.1368  0.7908
  567TMC3    C4 8462   3.932   4.615  14.172 -0.2653 -0.0767  0.0829
  567TMC3    C5 8463   4.068   4.642  14.177  0.4390  0.4555 -0.1826
  567TMC3    C6 8464   4.149   4.654  14.067  0.0836 -0.3384  0.2378
  567TMC3     C 8465   3.734   4.624  14.029  0.2283  0.5007 -0.1396
  567TMC3     O 8466   3.692   4.689  13.936 -0.4529 -0.1008  0.4006
  567TMC3     H 8467   3.907   4.614  13.836  1.1927  0.4620  0.1659
  567TMC3    H1 8468   3.871   4.607  14.261 -0.9226 -2.0643 -0.5523
  567TMC3    H2 8469   4.253   4.680  14.077  0.5882 -2.9347  1.9241
  567TMC3    C7 8470   4.121   4.689  14.306 -0.5025 -0.1502 -0.3175
  567TMC3    C8 8471   4.146   4.729  13.836 -0.3181 -0.0641  0.6501
  567TMC3    O1 8472   4.228   0.016  14.299 -0.0571 -0.2143 -0.3307
  567TMC3    O2 8473   4.090   0.007  13.728  0.0354  0.7959  0.6780
  568MPD2     C 8474   1.442   0.472  16.120 -0.5505 -0.2339 -0.3384
  568MPD2    C1 8475   1.503   0.525  16.230 -0.3026  0.0899 -0.7549
  568MPD2    C2 8476   1.517   0.659  16.240  0.5841 -0.3351  0.3303
  568MPD2    C3 8477   1.480   0.745  16.135 -0.6223  0.2032  0.6933
  568MPD2    C4 8478   1.422   0.692  16.026 -0.2052 -0.7806 -0.1628
  568MPD2    C5 8479   1.399   0.559  16.023 -0.4828  0.8288  0.4608
  568MPD2     H 8480   1.572   0.705  16.321 -0.8897  1.3305  0.3746
  568MPD2    H1 8481   1.379   0.754  15.948  0.4151 -0.2806 -0.1182
  568MPD2    H2 8482   1.435   0.366  16.099  0.7948 -0.8295  2.2453
  568MPD2    H3 8483   1.363   0.522  15.928 -1.5156  0.5058  0.9733
  568MPD2     N 8484   1.499   0.882  16.151 -0.2164  0.4395  0.0436
  568MPD2    H5 8485   1.531   0.913  16.242 -2.5720  2.9964  0.0062
  568MPD2    N1 8486   1.531   0.436  16.333 -0.1390 -0.2211  0.4237
  568MPD2    H7 8487   1.524   0.336  16.317  0.1506 -0.4421  1.6436
  569TMC3    C1 8488   1.544   1.103  16.085 -0.4419 -0.6632  0.6308
  569TMC3    C2 8489   1.512   1.147  16.214 -0.1599  0.4994  0.2052
  569TMC3    C3 8490   1.548   1.269  16.256 -0.3442 -0.8961 -0.2289
  569TMC3    C4 8491   1.596   1.194  15.993  0.1762 -0.1816 -0.3745
  569TMC3    C5 8492   1.646   1.313  16.044  0.1163 -0.9562 -0.5836
  569TMC3    C6 8493   1.621   1.347  16.178  0.0992  0.5691 -0.7817
  569TMC3     C 8494   1.518   0.970  16.048 -0.8469  0.2914  0.1825
  569TMC3     O 8495   1.529   0.946  15.931 -0.5228  0.7720 -0.2950
  569TMC3     H 8496   1.443   1.083  16.267  0.9480 -0.9232 -0.0520
  569TMC3    H1 8497   1.604   1.167  15.888 -0.0395 -0.1155 -0.4078
  569TMC3    H2 8498   1.653   1.446  16.206  1.1145  0.4344 -1.4576
  569TMC3    C7 8499   1.618   1.415  15.943  1.1745  0.6423  0.7994
  569TMC3    C8 8500   1.498   1.335  16.379  0.3677  0.4474  0.0596
  569TMC3    O1 8501   1.651   1.400  15.827  0.4288 -0.2159 -0.5293
  569TMC3    O2 8502   1.378   1.331  16.401 -0.0554  0.2114  0.1308
  570TMC3    C1 8503   0.599   4.185  16.122  0.2531  0.4381  0.4899
  570TMC3    C2 8504   0.621   4.138  15.995 -0.3065 -0.9307  0.1273
  570TMC3    C3 8505   0.682   4.228  15.905  0.5234 -0.0810 -0.5597
  570TMC3    C4 8506   0.623   4.314  16.159  0.2804 -0.6581 -0.1353
  570TMC3    C5 8507   0.650   4.404  16.067 -0.2182  0.2061  0.4706
  570TMC3    C6 8508   0.695   4.366  15.939  0.4557  0.3198  0.4498
  570TMC3     C 8509   0.528   4.100  16.213  0.2365 -0.8670 -0.1197
  570TMC3     O 8510   0.430   4.038  16.173  0.1130  0.2476  0.0279
  570TMC3     H 8511   0.614   4.034  15.968 -0.4150 -0.2004 -2.7176
  570TMC3    H1 8512   0.605   4.357  16.257 -1.2389  0.0572 -0.7394
  570TMC3    H2 8513   0.725   4.439  15.865 -1.2930 -1.3144 -1.8569
  570TMC3    C7 8514   0.656   4.539  16.097  0.0566  0.5499 -0.1524
  570TMC3    C8 8515   0.697   4.183  15.769  0.0808  0.1662  0.6219
  570TMC3    O1 8516   0.651   4.573  16.217 -0.0184 -0.8464  0.3672
  570TMC3    O2 8517   0.676   4.063  15.756  0.2166 -0.9095 -0.0331
  571MPD2     C 8518   3.688   2.650   1.479 -0.4085  0.3938  0.0367
  571MPD2    C1 8519   3.645   2.562   1.386  0.1813 -1.0629 -0.5024
  571MPD2    C2 8520   3.510   2.560   1.335  1.2523  0.1399 -0.8755
  571MPD2    C3 8521   3.417   2.649   1.392 -0.3144 -0.1694 -0.4878
  571MPD2    C4 8522   3.461   2.739   1.495  0.2478 -0.6229 -0.1468
  571MPD2    C5 8523   3.594   2.739   1.524  0.6837 -0.0349  0.1656
  571MPD2     H 8524   3.474   2.483   1.268  0.8257 -0.4109 -0.0030
  571MPD2    H1 8525   3.392   2.808   1.541  1.1762 -0.3241  0.7879
  571MPD2    H2 8526   3.793   2.658   1.505 -0.0248 -0.7810 -1.1363
  571MPD2    H3 8527   3.637   2.820   1.583  0.3961  1.0962 -1.1789
  571MPD2     N 8528   3.277   2.624   1.372 -0.2286 -0.3375  0.2225
  571MPD2    H5 8529   3.221   2.657   1.450 -3.2481 -1.5684 -1.4445
  571MPD2    N1 8530   3.744   2.470   1.350 -0.3563  0.1371  0.2232
  571MPD2    H7 8531   3.829   2.458   1.404 -0.9523 -2.4823  0.5495
  572TMC3    C1 8532   3.073   2.554   1.278  0.1365  0.0112  0.0226
  572TMC3    C2 8533   3.016   2.521   1.401 -0.2168 -0.6697  0.8209
  572TMC3    C3 8534   2.893   2.460   1.395  0.3641  0.7662 -0.1944
  572TMC3    C4 8535   3.007   2.539   1.158  0.2656 -0.3581  0.3972
  572TMC3    C5 8536   2.879   2.491   1.160 -0.2851 -0.2784 -0.4257
  572TMC3    C6 8537   2.822   2.445   1.278  0.0442 -0.0290  0.2258
  572TMC3     C 8538   3.214   2.581   1.260 -0.1535  0.1217 -0.4341
  572TMC3     O 8539   3.271   2.559   1.154  0.2732  0.1127 -0.2153
  572TMC3     H 8540   3.080   2.522   1.489  1.7256  1.8801 -0.6081
  572TMC3    H1 8541   3.041   2.574   1.062 -1.8300  0.9583  0.1400
  572TMC3    H2 8542   2.720   2.407   1.276 -0.9024  2.6024 -2.3757
  572TMC3    C7 8543   2.833   2.441   1.026 -0.4770 -0.5636 -0.3544
  572TMC3    C8 8544   2.860   2.395   1.514 -0.2494  0.5354  0.7956
  572TMC3    O1 8545   2.918   2.432   0.937 -0.2401 -0.1188  0.1001
  572TMC3    O2 8546   2.869   2.466   1.616 -0.3429 -0.0549 -0.3978
  573MPD2     C 8547   0.135   1.989   0.128 -0.3641  0.4269  0.2320
  573MPD2    C1 8548   0.070   2.083   0.211  0.1981 -0.4239  0.1578
  573MPD2    C2 8549   0.145   2.163   0.297  0.0421  0.2927 -1.0658
  573MPD2    C3 8550   0.284   2.145   0.303 -0.3059 -0.4511 -0.0613
  573MPD2    C4 8551   0.344   2.048   0.220 -0.2126  0.3905  0.3120
  573MPD2    C5 8552   0.274   1.974   0.125  0.1665  0.5095 -0.0185
  573MPD2     H 8553   0.094   2.229   0.366  2.4979  0.3342  0.7226
  573MPD2    H1 8554   0.450   2.025   0.229 -0.5549 -0.6219  1.8095
  573MPD2    H2 8555   0.069   1.942   0.056 -0.3983  1.8353 -0.6398
  573MPD2    H3 8556   0.314   1.900   0.056  0.3216 -1.4073  2.1002
  573MPD2     N 8557   0.357   2.213   0.403 -0.0922  0.6280 -0.7031
  573MPD2    H5 8558   0.454   2.185   0.414  0.2695  1.6604 -1.2007
  573MPD2    N1 8559   4.664   2.104   0.188 -0.2152  0.6483 -0.4770
  573MPD2    H7 8560   4.610   2.049   0.122 -1.3107  1.8810 -0.5913
  574TMC3    C1 8561   0.412   2.396   0.560  0.7642  0.2045 -0.3564
  574TMC3    C2 8562   0.363   2.479   0.650 -0.4398 -0.9346  0.0627
  574TMC3    C3 8563   0.449   2.551   0.725 -0.9389  0.1765 -0.4010
  574TMC3    C4 8564   0.547   2.392   0.530 -0.9858 -0.4787 -0.0773
  574TMC3    C5 8565   0.630   2.463   0.613 -0.4051 -0.9017 -0.7364
  574TMC3    C6 8566   0.580   2.548   0.705 -0.0850 -0.2534 -0.5921
  574TMC3     C 8567   0.314   2.326   0.480 -0.5061  0.2319 -0.0247
  574TMC3     O 8568   0.208   2.381   0.466 -0.0793  0.2384  0.0503
  574TMC3     H 8569   0.257   2.468   0.667 -1.0547  1.6510 -2.1094
  574TMC3    H1 8570   0.588   2.348   0.440 -0.0351  0.7887 -0.2691
  574TMC3    H2 8571   0.640   2.619   0.760 -0.3922  0.0141 -0.6086
  574TMC3    C7 8572   0.747   2.384   0.652 -0.3278  0.9366  0.5940
  574TMC3    C8 8573   0.398   2.652   0.806  0.2266 -0.3372  0.0387
  574TMC3    O1 8574   0.734   2.264   0.641  0.3467  0.6879 -0.0408
  574TMC3    O2 8575   0.475   2.711   0.884  0.0234  0.4047  1.2169
  575TMC3    C1 8576   1.761   3.169  10.803 -0.8200  0.3274  0.6675
  575TMC3    C2 8577   1.683   3.057  10.811 -0.4349 -0.0089 -0.8693
  575TMC3    C3 8578   1.589   3.048  10.709 -0.2077 -0.6611  0.3741
  575TMC3    C4 8579   1.751   3.261  10.701 -0.3539  0.1390 -0.0463
  575TMC3    C5 8580   1.656   3.240  10.603 -0.7790 -0.3332 -0.2829
  575TMC3    C6 8581   1.566   3.141  10.611 -0.5868  0.8439  0.0286
  575TMC3     C 8582   1.866   3.200  10.901  0.4073  0.6272  1.1372
  575TMC3     O 8583   1.898   3.118  10.980 -0.0444  0.1962  1.1139
  575TMC3     H 8584   1.710   2.989  10.891  0.3322  2.0660  0.6174
  575TMC3    H1 8585   1.816   3.346  10.683 -0.3436  0.8545  3.3575
  575TMC3    H2 8586   1.481   3.129  10.545  1.0858  0.2952 -2.0015
  575TMC3    C7 8587   1.656   3.341  10.491  0.0983 -0.4244  0.2765
  575TMC3    C8 8588   1.488   2.942  10.713  0.7063 -0.1026 -0.0492
  575TMC3    O1 8589   1.703   3.453  10.514 -0.7030 -0.2953 -0.4889
  575TMC3    O2 8590   1.419   2.919  10.615  0.0931 -0.5276 -0.2842
  576MPD2     C 8591   1.265   4.327  12.826  0.4035  0.1274 -0.6812
  576MPD2    C1 8592   1.353   4.418  12.770 -0.0906 -0.3656 -0.3002
  576MPD2    C2 8593   1.380   4.535  12.834 -0.0377 -0.2851 -0.3963
  576MPD2    C3 8594   1.327   4.570  12.960  0.2096 -0.1060  0.1068
  576MPD2    C4 8595   1.242   4.474  13.017  0.2326 -0.3765 -0.2796
  576MPD2    C5 8596   1.209   4.359  12.947  0.1835 -0.7598 -0.7519
  576MPD2     H 8597   1.460   4.600  12.798 -0.1982  0.8005  1.1977
  576MPD2    H1 8598   1.189   4.498  13.109  0.5783  0.7518 -0.3703
  576MPD2    H2 8599   1.224   4.243  12.770 -2.0014  0.9358 -0.1325
  576MPD2    H3 8600   1.146   4.289  13.001 -0.8033 -1.0910 -2.3439
  576MPD2     N 8601   1.352   4.696  13.011 -0.9128  0.0190 -0.6733
  576MPD2    H5 8602   1.404   0.032  12.957  0.7431 -0.0289  0.8915
  576MPD2    N1 8603   1.417   4.389  12.647  0.4678 -0.2261  0.0317
  576MPD2    H7 8604   1.473   4.458  12.597 -1.7238  2.0795  0.8036
  577TMC3    C1 8605   1.508   4.261  12.480  0.0332  0.1289  0.3117
  577TMC3    C2 8606   1.592   4.155  12.476 -0.2051 -0.1023 -0.3214
  577TMC3    C3 8607   1.662   4.128  12.365 -0.2359  0.3625 -0.3413
  577TMC3    C4 8608   1.487   4.334  12.361  0.0082  0.9681 -0.6365
  577TMC3    C5 8609   1.561   4.302  12.246 -0.2660  0.2675  0.6651
  577TMC3    C6 8610   1.659   4.204  12.247  0.2836  0.5048  0.0265
  577TMC3     C 8611   1.411   4.267  12.588  0.3617 -0.9731 -0.3719
  577TMC3     O 8612   1.369   4.157  12.633  0.0660  0.8137  0.7444
  577TMC3     H 8613   1.595   4.091  12.563  0.3872  0.9689  0.4399
  577TMC3    H1 8614   1.419   4.418  12.354 -1.3868 -0.1742 -0.7560
  577TMC3    H2 8615   1.705   4.180  12.152  0.0694  1.0347 -0.2129
  577TMC3    C7 8616   1.559   4.406  12.141  0.1565  0.4714  0.1194
  577TMC3    C8 8617   1.771   4.023  12.368  0.0505 -0.3160  0.4603
  577TMC3    O1 8618   1.460   4.478  12.136  0.7399 -0.1669 -0.4412
  577TMC3    O2 8619   1.768   3.955  12.472  0.2278  0.7341 -0.5725
  578MPD2     C 8620   4.648   0.335   1.377  0.5307  0.1539 -0.4114
  578MPD2    C1 8621   4.724   0.276   1.276 -0.4233  0.6490 -0.4573
  578MPD2    C2 8622   0.114   0.222   1.316 -0.0827 -0.0619 -0.1068
  578MPD2    C3 8623   0.167   0.236   1.442 -0.3665  0.1162 -0.0527
  578MPD2    C4 8624   0.092   0.307   1.537  0.9590 -0.1685 -0.5785
  578MPD2    C5 8625   4.696   0.342   1.503 -0.3320  0.3588 -0.0899
  578MPD2     H 8626   0.168   0.171   1.237 -0.4094  1.0442 -1.0498
  578MPD2    H1 8627   0.127   0.325   1.638  1.9489  1.0113 -1.1412
  578MPD2    H2 8628   4.550   0.375   1.354  0.6242  0.2645 -0.6101
  578MPD2    H3 8629   4.636   0.400   1.573 -0.5169 -0.2087  0.2244
  578MPD2     N 8630   0.291   0.165   1.469  0.1837 -0.4509  0.3119
  578MPD2    H5 8631   0.335   0.138   1.381 -0.2949 -1.9154  0.5358
  578MPD2    N1 8632   4.676   0.270   1.145  0.0678 -0.3685  0.2661
  578MPD2    H7 8633   4.599   0.332   1.121  0.3109 -0.3963 -0.6007
  579TMC3    C1 8634   0.475   0.082   1.574  0.1763  0.3263  0.5061
  579TMC3    C2 8635   0.575   0.118   1.658 -0.5644  0.2908  0.4630
  579TMC3    C3 8636   0.692   0.051   1.652  0.8359 -0.1917  0.7717
  579TMC3    C4 8637   0.486   4.719   1.477 -0.1301  0.3274  0.1032
  579TMC3    C5 8638   0.610   4.669   1.462 -0.2762 -0.0804  0.1842
  579TMC3    C6 8639   0.711   4.697   1.548 -0.5250  0.2175 -0.0981
  579TMC3     C 8640   0.350   0.152   1.592  0.6958  0.2902  0.1964
  579TMC3     O 8641   0.316   0.185   1.710 -0.5055  0.2726  0.1341
  579TMC3     H 8642   0.564   0.194   1.735  2.0831  3.3356 -2.1043
  579TMC3    H1 8643   0.400   4.673   1.431 -1.8714  0.8342  2.8599
  579TMC3    H2 8644   0.802   4.643   1.526  0.5882  2.3262 -0.6740
  579TMC3    C7 8645   0.628   4.544   1.388  0.3084 -0.1135 -0.0372
  579TMC3    C8 8646   0.807   0.109   1.701 -1.0232 -0.3321 -0.3902
  579TMC3    O1 8647   0.727   4.479   1.416  0.2014  0.3652 -0.5002
  579TMC3    O2 8648   0.799   0.157   1.814 -0.1575  0.0466 -0.0185
  580TMC3    C1 8649   4.122   3.303  11.736  0.5795 -0.0414  0.2005
  580TMC3    C2 8650   4.181   3.263  11.626 -0.0507 -0.0842 -0.7974
  580TMC3    C3 8651   4.177   3.132  11.604 -1.1132  0.1033  0.1714
  580TMC3    C4 8652   4.073   3.224  11.838 -0.0993 -0.5574  0.1747
  580TMC3    C5 8653   4.088   3.088  11.810 -0.8956  0.0742  0.0427
  580TMC3    C6 8654   4.134   3.045  11.693 -0.2922 -0.2438  0.2336
  580TMC3     C 8655   4.122   3.448  11.747  0.5212  0.1784 -0.3755
  580TMC3     O 8656   4.169   3.514  11.656 -0.5462 -0.5405  0.0916
  580TMC3     H 8657   4.220   3.335  11.555  1.6527 -0.4200 -0.1883
  580TMC3    H1 8658   4.034   3.256  11.934  2.4154  1.3542  0.5645
  580TMC3    H2 8659   4.148   2.939  11.676  0.2496  0.3111 -2.7339
  580TMC3    C7 8660   4.085   3.009  11.929  0.4960  1.0707 -0.4522
  580TMC3    C8 8661   4.225   3.081  11.482  0.7264 -0.5326  0.2227
  580TMC3    O1 8662   4.133   3.061  12.028 -0.2999 -0.3290 -0.1065
  580TMC3    O2 8663   4.184   2.976  11.443 -0.1085 -0.1715  0.5104
  581MPD2     C 8664   1.729   2.890  15.281  0.0468  0.3116 -0.2595
  581MPD2    C1 8665   1.852   2.920  15.225  0.9700  0.1549 -0.6127
  581MPD2    C2 8666   1.854   2.977  15.098 -0.2773 -0.2549 -0.6967
  581MPD2    C3 8667   1.735   3.015  15.032 -0.0293 -0.7930 -0.7595
  581MPD2    C4 8668   1.612   2.985  15.092  0.0663 -0.0851  0.3985
  581MPD2    C5 8669   1.613   2.925  15.217 -0.4644 -0.5081  0.6076
  581MPD2     H 8670   1.947   2.983  15.042  0.7699  0.1085  1.0846
  581MPD2    H1 8671   1.516   3.008  15.047  0.1954 -2.1610 -0.9368
  581MPD2    H2 8672   1.708   2.844  15.377  2.6294 -1.1361 -0.4089
  581MPD2    H3 8673   1.520   2.902  15.267 -1.5691 -1.1366 -1.7271
  581MPD2     N 8674   1.739   3.067  14.903  0.2596 -0.0065 -0.5388
  581MPD2    H5 8675   1.827   3.090  14.858  1.8637 -0.6905  2.2740
  581MPD2    N1 8676   1.967   2.884  15.297 -0.7235  0.6021 -0.3995
  581MPD2    H7 8677   1.942   2.838  15.385  0.3951 -0.3282 -0.5712
  582TMC3    C1 8678   2.198   2.856  15.362  0.6314 -0.5378  0.2203
  582TMC3    C2 8679   2.301   2.940  15.381 -0.4857  0.4306 -0.5021
  582TMC3    C3 8680   2.388   2.914  15.483 -0.2671  0.0561 -0.1874
  582TMC3    C4 8681   2.175   2.751  15.443  0.3538 -0.9485 -0.0535
  582TMC3    C5 8682   2.260   2.731  15.548  0.0282 -0.6963 -0.6230
  582TMC3    C6 8683   2.371   2.811  15.567 -0.5493 -0.0254 -0.7727
  582TMC3     C 8684   2.099   2.903  15.261  0.6193  0.0674 -0.0680
  582TMC3     O 8685   2.141   2.973  15.170  0.9359  0.7702  0.3010
  582TMC3     H 8686   2.321   3.020  15.311 -2.5630  2.1923  0.9536
  582TMC3    H1 8687   2.085   2.693  15.425  0.7978 -1.1844 -1.5183
  582TMC3    H2 8688   2.436   2.799  15.653  0.3713  2.1202 -1.1669
  582TMC3    C7 8689   2.222   2.648  15.657 -0.0601 -1.4633  0.1767
  582TMC3    C8 8690   2.423   3.033  15.556  0.4573 -0.7221  0.2421
  582TMC3    O1 8691   2.319   2.590  15.708  0.1933  0.8509 -0.0894
  582TMC3    O2 8692   2.328   3.107  15.578 -0.1913 -0.0868  0.5838
  583MPD2     C 8693   2.278   0.208  16.635 -1.2515 -0.1903  0.5451
  583MPD2    C1 8694   2.329   0.331  16.582  0.2492  0.2532  0.0861
  583MPD2    C2 8695   2.331   0.439  16.671  0.5166 -0.0990  0.0970
  583MPD2    C3 8696   2.275   0.427  16.795  0.3396 -0.1027  0.8852
  583MPD2    C4 8697   2.208   0.314  16.843  0.1911 -0.2393  0.2754
  583MPD2    C5 8698   2.217   0.204  16.758  0.1277  0.0452 -0.2301
  583MPD2     H 8699   2.386   0.529  16.646 -0.6134  0.9282  1.2802
  583MPD2    H1 8700   2.168   0.316  16.943 -2.4697  0.6583 -0.8165
  583MPD2    H2 8701   2.289   0.109  16.590 -1.9083 -0.2572  0.5267
  583MPD2    H3 8702   2.170   0.113  16.795 -0.4197 -0.2280 -1.5619
  583MPD2     N 8703   2.299   0.543  16.872 -0.1083  1.0984  0.2572
  583MPD2    H5 8704   2.337   0.618  16.815  0.2097 -0.2431 -1.2624
  583MPD2    N1 8705   2.397   0.350  16.458  0.4818  0.2944 -0.8293
  583MPD2    H7 8706   2.434   0.443  16.443  0.3206  0.3951 -0.6136
  584TMC3    C1 8707   2.301   0.693  17.042 -0.1263 -0.2779  0.3944
  584TMC3    C2 8708   2.347   0.783  16.954 -0.3384 -0.5551 -0.2415
  584TMC3    C3 8709   2.388   0.906  17.011 -1.0319  0.1760  0.2558
  584TMC3    C4 8710   2.282   0.719  17.179 -0.5241 -0.4818 -0.6688
  584TMC3    C5 8711   2.330   0.839  17.227 -0.0395 -0.5232  0.2167
  584TMC3    C6 8712   2.388   0.931  17.148  0.4910  0.3023  0.1839
  584TMC3     C 8713   2.251   0.568  16.995 -0.8961 -0.6660 -0.2480
  584TMC3     O 8714   2.191   0.503  17.079  0.2371  0.6580  0.0197
  584TMC3     H 8715   2.340   0.779  16.846  1.1208 -0.2243 -0.3495
  584TMC3    H1 8716   2.243   0.648  17.250  0.6326 -0.4905 -0.0394
  584TMC3    H2 8717   2.414   1.031  17.181  2.4100 -0.9319  2.3516
  584TMC3    C7 8718   2.292   0.882  17.362  0.0488 -0.3182 -0.3345
  584TMC3    C8 8719   2.460   0.989  16.918 -0.0971 -0.3511 -0.6311
  584TMC3    O1 8720   2.196   0.824  17.404  0.6039 -0.1217 -1.2419
  584TMC3    O2 8721   2.430   0.969  16.799 -0.0673 -0.1162 -0.0601
  585MPD2     C 8722   2.085   4.478   0.512 -0.4430 -0.2330 -0.0286
  585MPD2    C1 8723   1.985   4.438   0.425  0.7359 -0.2729 -0.1681
  585MPD2    C2 8724   1.931   4.311   0.428 -0.1275 -0.0595  0.0614
  585MPD2    C3 8725   1.972   4.219   0.519  0.9443 -0.3734 -0.2784
  585MPD2    C4 8726   2.063   4.253   0.614 -0.5153 -0.0027 -0.3778
  585MPD2    C5 8727   2.115   4.382   0.603  0.6705 -0.2899 -0.8383
  585MPD2     H 8728   1.853   4.281   0.359  2.1367  0.5890 -2.7926
  585MPD2    H1 8729   2.108   4.189   0.689 -1.8799 -0.8114 -0.2519
  585MPD2    H2 8730   2.135   4.575   0.505 -0.1048 -0.2492  2.3017
  585MPD2    H3 8731   2.192   4.407   0.675 -0.4149  4.6504 -1.3689
  585MPD2     N 8732   1.924   4.079   0.508  0.3514  0.2249  0.1341
  585MPD2    H5 8733   1.924   4.025   0.594  1.3383 -0.2033 -0.1322
  585MPD2    N1 8734   1.931   4.536   0.342  0.1099  0.2909 -0.4022
  585MPD2    H7 8735   1.933   4.633   0.371  3.3749  1.3970 -4.2097
  586TMC3    C1 8736   1.765   3.921   0.425  0.5421 -0.0780 -0.1697
  586TMC3    C2 8737   1.764   3.845   0.539 -0.6719 -0.2932  0.5341
  586TMC3    C3 8738   1.670   3.749   0.560 -0.4306 -0.0657  0.3000
  586TMC3    C4 8739   1.676   3.897   0.326 -0.3176  0.3296 -0.1418
  586TMC3    C5 8740   1.578   3.801   0.349  0.0909  0.0524 -0.1014
  586TMC3    C6 8741   1.578   3.730   0.465 -0.1455  0.3409 -0.0935
  586TMC3     C 8742   1.860   4.030   0.395 -0.1012  0.7467 -0.2918
  586TMC3     O 8743   1.861   4.070   0.281  0.0216  0.0331  0.1375
  586TMC3     H 8744   1.840   3.864   0.614 -1.1576 -0.7042  1.1273
  586TMC3    H1 8745   1.664   3.971   0.247 -3.3753 -1.6814 -1.5405
  586TMC3    H2 8746   1.515   3.642   0.470 -0.9254  0.7638 -2.2821
  586TMC3    C7 8747   1.457   3.801   0.271  0.8255  0.0063 -0.8453
  586TMC3    C8 8748   1.708   3.624   0.637 -0.2838 -0.3069  0.2262
  586TMC3    O1 8749   1.355   3.758   0.324 -0.3167 -0.3032  0.2380
  586TMC3    O2 8750   1.635   3.530   0.622 -0.1594  0.3499 -0.2795
  587TMC3    C1 8751   3.823   2.492  16.632  0.0991  0.1959  0.0534
  587TMC3    C2 8752   3.907   2.575  16.699 -0.0409  0.3782  0.2211
  587TMC3    C3 8753   4.002   2.527  16.781 -0.2667  0.1903  0.3347
  587TMC3    C4 8754   3.840   2.352  16.654  0.2967 -0.5285  0.4098
  587TMC3    C5 8755   3.941   2.310  16.741  0.3944  0.4545 -1.1394
  587TMC3    C6 8756   4.025   2.393  16.800  0.4920  1.2703  0.0657
  587TMC3     C 8757   3.707   2.551  16.557  0.6304 -0.4658 -0.3217
  587TMC3     O 8758   3.707   2.668  16.524  0.4687  0.3122 -0.4172
  587TMC3     H 8759   3.891   2.682  16.686 -0.0167  0.5766  1.8580
  587TMC3    H1 8760   3.788   2.280  16.591 -0.3449  0.9004 -0.6841
  587TMC3    H2 8761   4.109   2.356  16.858  0.6602  0.1382 -0.9005
  587TMC3    C7 8762   3.963   2.167  16.770 -1.0278 -0.5854  0.5550
  587TMC3    C8 8763   4.057   2.608  16.892  0.0719  0.3875 -0.2678
  587TMC3    O1 8764   4.058   2.135  16.835 -0.3731 -0.3448  0.1902
  587TMC3    O2 8765   4.133   2.543  16.965  0.1253 -0.4650 -0.1568
  588TMC3    C1 8766   0.900   0.442   9.925  0.1506 -0.3693 -0.0108
  588TMC3    C2 8767   0.900   0.309   9.965  0.2054  0.6150 -0.3424
  588TMC3    C3 8768   0.993   0.271  10.058  0.4250 -0.0883  0.0579
  588TMC3    C4 8769   0.984   0.535   9.983  0.1549 -0.5372 -0.5163
  588TMC3    C5 8770   1.070   0.491  10.079 -0.3268  0.7168 -0.1506
  588TMC3    C6 8771   1.079   0.361  10.112 -0.2080 -0.0516  0.2805
  588TMC3     C 8772   0.812   0.495   9.829  0.3557  1.3505 -0.1039
  588TMC3     O 8773   0.693   0.473   9.837  0.1746 -0.1312  0.3185
  588TMC3     H 8774   0.843   0.240   9.904  0.4155 -0.4400  0.6576
  588TMC3    H1 8775   0.959   0.640   9.983  0.9426 -0.3472  0.5452
  588TMC3    H2 8776   1.142   0.326  10.193  1.7728  0.6303 -0.9776
  588TMC3    C7 8777   1.162   0.588  10.132  0.7667  0.0208 -0.8863
  588TMC3    C8 8778   0.968   0.134  10.110  0.2078 -0.8140 -0.2062
  588TMC3    O1 8779   1.222   0.564  10.234  0.2105  0.3642  0.2257
  588TMC3    O2 8780   0.876   0.071  10.058 -0.2036  0.6140 -0.5211
  589TMC3    C1 8781   0.470   2.839   1.407 -0.3955 -0.5645  1.1017
  589TMC3    C2 8782   0.563   2.874   1.510  0.2237  1.4410 -0.5267
  589TMC3    C3 8783   0.659   2.784   1.546 -0.7313 -0.1764 -0.0016
  589TMC3    C4 8784   0.497   2.728   1.331  0.3457 -0.4240 -0.1701
  589TMC3    C5 8785   0.599   2.644   1.367 -0.3630 -0.1220 -0.0112
  589TMC3    C6 8786   0.686   2.668   1.476  0.1387 -0.1441 -0.4320
  589TMC3     C 8787   0.374   2.937   1.352 -0.0607 -0.0239 -0.4641
  589TMC3     O 8788   0.336   2.928   1.235 -0.0530  0.4822  0.7308
  589TMC3     H 8789   0.524   2.939   1.588 -0.7182 -0.1525  0.3366
  589TMC3    H1 8790   0.426   2.701   1.254  1.3127  0.2465 -1.2915
  589TMC3    H2 8791   0.761   2.600   1.513 -0.8765 -1.6617 -1.1957
  589TMC3    C7 8792   0.599   2.517   1.305  0.8059  0.3163  0.4759
  589TMC3    C8 8793   0.748   2.831   1.647 -0.7220  0.2810  0.2129
  589TMC3    O1 8794   0.500   2.481   1.242 -0.2278  0.4196 -0.5639
  589TMC3    O2 8795   0.809   2.744   1.707  0.3547 -0.7857 -0.2418
  590MPD2     C 8796   0.599   0.520  16.878 -0.3869 -0.6696 -0.0278
  590MPD2    C1 8797   0.518   0.625  16.857  0.6651 -0.1954  0.1529
  590MPD2    C2 8798   0.575   0.743  16.806 -1.1051  0.1507  0.8089
  590MPD2    C3 8799   0.710   0.761  16.791  0.8094  0.3145 -0.4406
  590MPD2    C4 8800   0.790   0.655  16.822 -0.1895 -0.6779 -0.8496
  590MPD2    C5 8801   0.733   0.532  16.860 -0.0123  0.2033  0.1836
  590MPD2     H 8802   0.506   0.823  16.782 -2.0378 -0.0113  2.8805
  590MPD2    H1 8803   0.897   0.649  16.810 -0.1582  1.2356 -1.5327
  590MPD2    H2 8804   0.561   0.421  16.902 -2.2119 -0.1964 -0.9062
  590MPD2    H3 8805   0.804   0.452  16.878 -0.2818 -0.4940 -1.8578
  590MPD2     N 8806   0.767   0.881  16.732  0.6220 -0.5031 -0.1529
  590MPD2    H5 8807   0.706   0.952  16.693 -0.4670 -0.0402  2.3585
  590MPD2    N1 8808   0.377   0.597  16.867  0.2766  0.2113  0.3205
  590MPD2    H7 8809   0.348   0.501  16.883 -0.2032  0.7196  2.6270
  591TMC3    C1 8810   0.923   1.024  16.631 -0.4826 -0.0536 -0.1601
  591TMC3    C2 8811   0.998   1.013  16.518  0.1033 -0.2037 -0.0921
  591TMC3    C3 8812   0.999   1.119  16.436 -0.8424  1.0738 -1.0731
  591TMC3    C4 8813   0.857   1.139  16.667  0.2465  0.8269  0.0576
  591TMC3    C5 8814   0.864   1.244  16.578 -0.0825  0.4552 -0.4367
  591TMC3    C6 8815   0.942   1.245  16.463  0.2148  0.0457 -0.3271
  591TMC3     C 8816   0.899   0.902  16.711  0.5191  0.8928  0.2921
  591TMC3     O 8817   0.992   0.821  16.705  0.0163 -0.3745  0.3778
  591TMC3     H 8818   1.041   0.916  16.494  1.9419  0.8730 -1.1630
  591TMC3    H1 8819   0.795   1.153  16.755 -1.1313 -1.1837 -0.5887
  591TMC3    H2 8820   0.924   1.321  16.387 -0.7766 -0.1870 -0.3239
  591TMC3    C7 8821   0.766   1.351  16.592  0.4286  0.2217 -0.0414
  591TMC3    C8 8822   1.082   1.106  16.312  0.0358 -0.4630  0.1748
  591TMC3    O1 8823   0.658   1.319  16.637  0.0643 -0.4588  0.6792
  591TMC3    O2 8824   1.086   0.994  16.263  0.5652 -0.3405 -0.1385
  592MPD2     C 8825   0.574   3.096  11.231  0.0760 -0.0505 -0.4848
  592MPD2    C1 8826   0.577   3.099  11.369  0.1638  0.0980 -0.1853
  592MPD2    C2 8827   0.508   2.997  11.437 -0.1675  0.0129  0.0681
  592MPD2    C3 8828   0.433   2.907  11.376  0.0958  0.2903 -0.4786
  592MPD2    C4 8829   0.432   2.901  11.234 -0.3403  0.2783  0.0074
  592MPD2    C5 8830   0.506   2.995  11.163 -0.1426  0.1573  0.3725
  592MPD2     H 8831   0.511   3.006  11.545  0.7373  0.7601 -0.0134
  592MPD2    H1 8832   0.377   2.827  11.177 -0.2635 -0.7904  1.3152
  592MPD2    H2 8833   0.626   3.171  11.172  0.4552  0.4803  0.5249
  592MPD2    H3 8834   0.511   2.987  11.055  0.5368  3.4136  0.1757
  592MPD2     N 8835   0.346   2.833  11.456 -0.2912 -0.1203  0.6366
  592MPD2    H5 8836   0.340   2.866  11.551 -0.1668 -2.4192  1.4450
  592MPD2    N1 8837   0.640   3.207  11.435 -0.0803 -0.2670 -0.3181
  592MPD2    H7 8838   0.696   3.269  11.376  1.2192 -0.1683  1.0163
  593TMC3    C1 8839   0.714   3.344  11.617  0.4391  0.5754  0.3014
  593TMC3    C2 8840   0.675   3.416  11.730 -0.2485  0.7934  0.7756
  593TMC3    C3 8841   0.747   3.530  11.768 -0.6234 -0.8138  0.1931
  593TMC3    C4 8842   0.820   3.380  11.549  0.0177 -0.5747 -0.4503
  593TMC3    C5 8843   0.897   3.483  11.599 -0.1292  0.7909  0.3629
  593TMC3    C6 8844   0.858   3.567  11.703  1.0008  0.8405  0.2479
  593TMC3     C 8845   0.626   3.239  11.571  0.8540  0.0930  0.1406
  593TMC3     O 8846   0.561   3.184  11.662 -0.4382 -0.4313  0.3363
  593TMC3     H 8847   0.590   3.384  11.789  0.2766 -1.6610  0.2250
  593TMC3    H1 8848   0.861   3.320  11.468 -1.8934 -2.0597 -0.3197
  593TMC3    H2 8849   0.923   3.652  11.726  0.8216  1.2572 -0.8142
  593TMC3    C7 8850   0.990   3.557  11.515 -0.3455 -0.1495  1.6679
  593TMC3    C8 8851   0.707   3.600  11.885  0.1896  0.3146 -0.1240
  593TMC3    O1 8852   0.956   3.589  11.405 -0.2364  0.6145  0.7365
  593TMC3    O2 8853   0.587   3.608  11.917  0.0952 -0.4746 -0.3254
  594MPD2     C 8854   4.324   2.184  14.468  0.3553 -0.1443 -0.0935
  594MPD2    C1 8855   4.342   2.137  14.599 -0.5698  0.8811  0.5716
  594MPD2    C2 8856   4.410   2.215  14.692  0.2282  0.2822 -0.2224
  594MPD2    C3 8857   4.474   2.331  14.646 -0.3251 -0.6834 -0.2703
  594MPD2    C4 8858   4.449   2.380  14.516 -0.1132 -0.9018 -0.5096
  594MPD2    C5 8859   4.368   2.305  14.430  0.2050  0.3240  1.0283
  594MPD2     H 8860   4.448   2.177  14.786 -0.1830  1.6434  0.4958
  594MPD2    H1 8861   4.481   2.476  14.475  0.9966 -1.0469  0.0236
  594MPD2    H2 8862   4.261   2.124  14.403  0.9125  0.5263 -1.2518
  594MPD2    H3 8863   4.348   2.348  14.333 -1.3900 -2.7841 -0.0252
  594MPD2     N 8864   4.563   2.394  14.738  0.4139  0.2188  0.4580
  594MPD2    H5 8865   4.577   2.351  14.829  2.7075  0.2045  0.0878
  594MPD2    N1 8866   4.274   2.016  14.630 -0.5261  0.7709 -0.1370
  594MPD2    H7 8867   4.228   1.968  14.554 -0.5323 -1.0711  1.0363
  595TMC3    C1 8868   0.087   2.749  14.897  0.5695  0.3855  0.0165
  595TMC3    C2 8869   0.070   2.646  14.809  0.1709  0.5644  0.8618
  595TMC3    C3 8870   4.711   2.544  14.829  0.3561 -0.1399 -0.3756
  595TMC3    C4 8871   0.016   2.743  15.008  0.5187 -0.2685  0.2888
  595TMC3    C5 8872   4.671   2.638  15.036 -0.1600  0.2179  1.2620
  595TMC3    C6 8873   4.643   2.539  14.949  0.3481 -0.0475 -0.8300
  595TMC3     C 8874   0.222   2.809  14.918  0.1076  0.0557 -1.2952
  595TMC3     O 8875   0.263   2.801  15.034 -0.1358 -0.0591  0.1244
  595TMC3     H 8876   0.129   2.650  14.718 -1.4233 -1.2837 -0.2624
  595TMC3    H1 8877   0.013   2.822  15.082 -1.4007 -1.5445  1.5760
  595TMC3    H2 8878   4.570   2.461  14.972  0.9125 -0.2981  0.0987
  595TMC3    C7 8879   4.551   2.655  15.125 -0.3498  0.7520 -0.1680
  595TMC3    C8 8880   4.651   2.492  14.711 -0.1963 -0.2566 -0.3675
  595TMC3    O1 8881   4.445   2.614  15.076  0.3374 -0.3070  0.2108
  595TMC3    O2 8882   4.684   2.536  14.602  0.3885  0.3136  0.2406
  596MPD2     C 8883   2.882   4.541  16.779 -0.4449  0.1499  0.7902
  596MPD2    C1 8884   2.933   4.658  16.719 -0.1064  0.8391  0.2676
  596MPD2    C2 8885   2.981   4.655  16.584 -0.1931  0.0381 -0.0812
  596MPD2    C3 8886   2.997   4.530  16.518  0.6102  0.3486  0.4927
  596MPD2    C4 8887   2.941   4.416  16.576  0.3584 -0.0722  0.4381
  596MPD2    C5 8888   2.887   4.425  16.703  0.1511  0.2507  0.5912
  596MPD2     H 8889   3.020   0.015  16.544  0.3751 -0.0839  0.1959
  596MPD2    H1 8890   2.942   4.320  16.525 -1.8985  0.0591  0.1473
  596MPD2    H2 8891   2.837   4.533  16.877 -0.6757  1.2833  0.7845
  596MPD2    H3 8892   2.836   4.336  16.736  1.3869 -0.5645  0.2988
  596MPD2     N 8893   3.060   4.516  16.391 -0.0335  0.4288 -0.1499
  596MPD2    H5 8894   3.038   4.435  16.335  3.0928 -1.5239  1.4741
  596MPD2    N1 8895   2.940   0.049  16.783 -0.2392  0.3478 -0.1625
  596MPD2    H7 8896   2.993   0.119  16.733  0.9137 -2.7206 -3.2606
  597TMC3    C1 8897   2.926   0.214  16.948 -0.4203 -0.5499 -0.7443
  597TMC3    C2 8898   2.981   0.306  16.862 -0.8109 -0.1422  0.0121
  597TMC3    C3 8899   2.987   0.435  16.896  0.6841 -0.0856 -0.0273
  597TMC3    C4 8900   2.876   0.246  17.067 -0.0321 -0.1896  1.4714
  597TMC3    C5 8901   2.878   0.379  17.100 -0.0937  0.3433 -0.0315
  597TMC3    C6 8902   2.929   0.472  17.013 -0.1047 -0.2710  0.0423
  597TMC3     C 8903   2.896   0.078  16.902 -0.1206 -0.2002 -0.4335
  597TMC3     O 8904   2.824   0.009  16.973 -0.0898 -0.1286 -0.7684
  597TMC3     H 8905   3.043   0.281  16.776  0.5451  1.8499  0.4223
  597TMC3    H1 8906   2.842   0.173  17.140  1.4472 -0.8468  1.5132
  597TMC3    H2 8907   2.919   0.577  17.038  0.4797  0.1833 -1.6629
  597TMC3    C7 8908   2.793   0.423  17.211 -0.2171 -0.9033 -0.5294
  597TMC3    C8 8909   3.089   0.526  16.831 -0.7575  0.1679 -0.6842
  597TMC3    O1 8910   2.704   0.348  17.251 -0.1284  0.3571 -0.3600
  597TMC3    O2 8911   3.078   0.645  16.863 -0.4369 -0.5428  0.0356
  598TMC3    C1 8912   1.174   1.500  15.320 -0.2488  0.4872  0.0688
  598TMC3    C2 8913   1.082   1.396  15.312 -0.1653  0.2288 -0.1976
  598TMC3    C3 8914   0.969   1.407  15.236 -0.0427 -0.4714 -0.4902
  598TMC3    C4 8915   1.159   1.616  15.248  0.7723  0.1687  0.3954
  598TMC3    C5 8916   1.046   1.620  15.167  0.0668  0.5094 -0.1253
  598TMC3    C6 8917   0.952   1.520  15.164 -0.2407 -0.2955 -0.3661
  598TMC3     C 8918   1.309   1.471  15.356 -0.4059  0.4006  0.1206
  598TMC3     O 8919   1.373   1.551  15.421  0.0177  0.5054  0.2455
  598TMC3     H 8920   1.102   1.312  15.378  1.6967  1.0081  0.2277
  598TMC3    H1 8921   1.238   1.688  15.231  1.2462 -0.6562 -0.9117
  598TMC3    H2 8922   0.870   1.517  15.093 -0.1073 -0.6093 -0.5038
  598TMC3    C7 8923   1.026   1.734  15.079 -0.4530 -0.1036  0.4550
  598TMC3    C8 8924   0.925   1.277  15.182 -0.6120 -0.3484 -0.3923
  598TMC3    O1 8925   0.946   1.723  14.984  0.3321  0.5544 -0.0086
  598TMC3    O2 8926   0.994   1.180  15.207 -0.4373  0.1883 -0.1506
  599MPD2     C 8927   1.717   3.700  15.604 -0.0121 -0.2294 -0.5770
  599MPD2    C1 8928   1.628   3.638  15.694 -0.5723 -0.0427  0.0813
  599MPD2    C2 8929   1.523   3.713  15.739 -0.6690  0.5471  0.9552
  599MPD2    C3 8930   1.500   3.842  15.698  0.4473 -0.5092  0.2547
  599MPD2    C4 8931   1.594   3.898  15.611 -0.0595 -0.0660  0.2890
  599MPD2    C5 8932   1.700   3.824  15.563  0.4468  0.0497  0.3983
  599MPD2     H 8933   1.455   3.664  15.807 -0.0738 -1.2807  0.2266
  599MPD2    H1 8934   1.588   4.001  15.577 -1.5404 -1.4516 -3.5556
  599MPD2    H2 8935   1.788   3.634  15.556 -0.3990 -0.8540 -0.2911
  599MPD2    H3 8936   1.772   3.870  15.495 -0.6484 -0.3545 -1.0437
  599MPD2     N 8937   1.387   3.917  15.752 -0.1937  0.1903  0.2988
  599MPD2    H5 8938   1.383   4.015  15.724 -1.1991 -0.0224 -0.2908
  599MPD2    N1 8939   1.652   3.521  15.761 -0.0207 -0.3265 -0.3530
  599MPD2    H7 8940   1.573   3.483  15.812  0.4724  0.5471  1.0556
  600TMC3    C1 8941   1.199   3.968  15.895 -0.5297  0.3451 -0.7523
  600TMC3    C2 8942   1.072   3.933  15.921  0.0230  1.2081  0.6502
  600TMC3    C3 8943   0.997   3.996  16.016  0.0702  0.2734  0.2124
  600TMC3    C4 8944   1.256   4.073  15.959  0.4744  0.4661 -0.1384
  600TMC3    C5 8945   1.183   4.141  16.054  0.1973  1.0673  0.2712
  600TMC3    C6 8946   1.058   4.099  16.090 -0.2267 -0.3559  0.1250
  600TMC3     C 8947   1.289   3.869  15.844 -0.4183  0.1008  0.3011
  600TMC3     O 8948   1.276   3.775  15.914  0.2957 -0.7725  0.1401
  600TMC3     H 8949   1.032   3.847  15.869  0.2309  1.1828  0.5324
  600TMC3    H1 8950   1.364   4.061  15.961  0.4422  0.1437 -0.4068
  600TMC3    H2 8951   0.998   4.142  16.169 -0.3314  0.4219 -0.3809
  600TMC3    C7 8952   1.232   4.255  16.120  0.8742 -0.0202 -0.2603
  600TMC3    C8 8953   0.886   3.924  16.081  0.5687  0.6046  0.2588
  600TMC3    O1 8954   1.145   4.321  16.175  0.4506  0.0596 -0.2605
  600TMC3    O2 8955   0.845   3.964  16.192  0.0224 -0.5183  0.8977
  601MPD2     C 8956   2.480   2.359   0.659  0.0351 -0.1014  0.4474
  601MPD2    C1 8957   2.618   2.345   0.653  0.5740 -0.1098  0.2172
  601MPD2    C2 8958   2.690   2.363   0.771  0.1943  0.0695  1.1235
  601MPD2    C3 8959   2.628   2.397   0.887  0.0474 -1.0305  0.4265
  601MPD2    C4 8960   2.491   2.419   0.890  0.5281 -0.1704 -0.5692
  601MPD2    C5 8961   2.418   2.400   0.780 -0.1041 -0.6444 -0.0290
  601MPD2     H 8962   2.798   2.358   0.762  0.0377 -0.5002 -0.4731
  601MPD2    H1 8963   2.445   2.461   0.978  0.9613 -0.9603  0.0286
  601MPD2    H2 8964   2.416   2.331   0.576 -0.4305 -1.6601  1.3359
  601MPD2    H3 8965   2.310   2.406   0.788  0.0918  1.9773  0.6258
  601MPD2     N 8966   2.699   2.427   1.009  0.4292  0.3504 -0.0341
  601MPD2    H5 8967   2.651   2.446   1.096  0.8841  1.2495  0.0157
  601MPD2    N1 8968   2.688   2.318   0.532  0.0139 -0.2573 -0.2993
  601MPD2    H7 8969   2.777   2.270   0.542  1.2511  1.9244 -0.9176
  602TMC3    C1 8970   2.707   2.272   0.293 -0.6875  0.1275 -0.0734
  602TMC3    C2 8971   2.843   2.281   0.294  0.7985 -1.6952 -0.3064
  602TMC3    C3 8972   2.908   2.206   0.198 -0.3016  0.1150  0.2188
  602TMC3    C4 8973   2.633   2.216   0.193  0.4619  0.1786  0.3991
  602TMC3    C5 8974   2.711   2.160   0.091  0.4486 -0.0240  0.4791
  602TMC3    C6 8975   2.841   2.147   0.098 -0.0792 -0.1708  0.2948
  602TMC3     C 8976   2.637   2.330   0.406  0.0413  0.3343 -0.1717
  602TMC3     O 8977   2.523   2.366   0.384  0.2865  0.5646 -0.0375
  602TMC3     H 8978   2.901   2.316   0.378  0.9788  0.7670 -1.4810
  602TMC3    H1 8979   2.527   2.230   0.179  0.2959 -0.5319  0.9808
  602TMC3    H2 8980   2.897   2.096   0.020 -0.8866  1.6434 -1.4943
  602TMC3    C7 8981   2.642   2.112  17.696 -0.3888 -0.0584  0.6111
  602TMC3    C8 8982   3.053   2.224   0.186 -0.7480 -0.6265 -0.1380
  602TMC3    O1 8983   2.524   2.145  17.681 -0.4007 -0.0147 -0.7732
  602TMC3    O2 8984   3.125   2.193   0.279 -0.2608  0.3059 -0.2641
  603TMC3    C1 8985   1.059   2.723  11.084 -0.6031 -0.4060 -0.3048
  603TMC3    C2 8986   1.072   2.697  11.221 -0.3884 -0.0693 -0.7080
  603TMC3    C3 8987   1.132   2.787  11.301  0.3154 -0.2741  0.2738
  603TMC3    C4 8988   1.112   2.839  11.032  0.0533  0.4729  0.4135
  603TMC3    C5 8989   1.171   2.926  11.120 -0.1119 -0.1978  0.0216
  603TMC3    C6 8990   1.191   2.902  11.249  0.3013  0.3926  0.5196
  603TMC3     C 8991   0.987   2.628  10.997  0.1971  0.3429  0.8994
  603TMC3     O 8992   0.929   2.686  10.905  0.3505 -0.4818  0.3989
  603TMC3     H 8993   1.039   2.600  11.256 -1.8993  0.7848  0.1948
  603TMC3    H1 8994   1.109   2.857  10.925  2.1302  0.6695  0.3887
  603TMC3    H2 8995   1.212   2.995  11.302  2.0013 -0.1196  0.7292
  603TMC3    C7 8996   1.244   3.037  11.062  0.4112  0.8029 -0.2886
  603TMC3    C8 8997   1.121   2.764  11.441  0.1570  0.3225  0.7815
  603TMC3    O1 8998   1.340   3.078  11.124  0.1531  0.3747  0.6625
  603TMC3    O2 8999   1.038   2.681  11.473  0.2127  0.0856 -0.2002
  604MPD2     C 9000   2.664   1.437  16.463  1.0948  0.4446  0.0740
  604MPD2    C1 9001   2.562   1.352  16.425  0.0178  0.2167 -0.4536
  604MPD2    C2 9002   2.566   1.297  16.294  0.2766 -1.1508 -0.1455
  604MPD2    C3 9003   2.666   1.330  16.207 -0.6152  0.1568 -0.7738
  604MPD2    C4 9004   2.765   1.420  16.248  0.3684 -0.5685  0.4927
  604MPD2    C5 9005   2.767   1.471  16.376  0.3461  0.7904  0.3619
  604MPD2     H 9006   2.493   1.226  16.255 -1.8259  0.5120  0.7828
  604MPD2    H1 9007   2.837   1.453  16.174 -1.7667 -1.7434 -2.1129
  604MPD2    H2 9008   2.653   1.472  16.565  1.6784 -2.4601  1.1358
  604MPD2    H3 9009   2.849   1.535  16.405  1.8354 -0.2810 -1.4633
  604MPD2     N 9010   2.672   1.266  16.080  0.8126  0.2380 -0.3962
  604MPD2    H5 9011   2.593   1.216  16.040 -1.3256  2.0768  1.4885
  604MPD2    N1 9012   2.472   1.315  16.529 -0.0657 -0.0240  0.3632
  604MPD2    H7 9013   2.490   1.369  16.613  1.7923  1.3108 -0.8927
  605TMC3    C1 9014   2.258   1.287  16.613 -0.3374 -0.3461  0.1524
  605TMC3    C2 9015   2.315   1.318  16.737 -0.4754  0.2096 -0.3855
  605TMC3    C3 9016   2.293   1.438  16.792 -0.0569  0.3044 -0.0797
  605TMC3    C4 9017   2.158   1.371  16.561  0.5058 -0.0154  0.2864
  605TMC3    C5 9018   2.133   1.482  16.633 -0.3022 -0.4310  0.3076
  605TMC3    C6 9019   2.203   1.524  16.738 -0.2421  0.0893 -0.8979
  605TMC3     C 9020   2.356   1.250  16.511  0.2868  0.5717  0.1964
  605TMC3     O 9021   2.299   1.226  16.407 -0.5382 -0.1029  0.0501
  605TMC3     H 9022   2.376   1.242  16.786 -0.4239  1.0323  0.8242
  605TMC3    H1 9023   2.104   1.333  16.475 -2.5272  0.2138  2.0944
  605TMC3    H2 9024   2.176   1.607  16.802 -0.3102 -0.3597 -0.3365
  605TMC3    C7 9025   2.032   1.575  16.588  0.0954 -0.7523 -0.0872
  605TMC3    C8 9026   2.417   1.498  16.833  0.0162  0.3990  0.4210
  605TMC3    O1 9027   1.966   1.628  16.675 -0.3137  0.4514  0.1314
  605TMC3    O2 9028   2.522   1.445  16.796  0.2412  0.0429 -0.1713
  606TMC3    C1 9029   3.226   0.074  17.072  0.2621 -0.0705  0.3890
  606TMC3    C2 9030   3.182   0.103  17.203 -0.2434  0.0028  0.7099
  606TMC3    C3 9031   3.120   0.003  17.271  0.2617  1.0801 -0.4052
  606TMC3    C4 9032   3.214   4.680  17.015 -0.9132  0.3564 -0.0322
  606TMC3    C5 9033   3.155   4.583  17.088  0.3541  0.4134  0.0690
  606TMC3    C6 9034   3.107   4.608  17.218 -0.1296 -0.2384 -0.0060
  606TMC3     C 9035   3.310   0.160  16.997  1.0879  0.2589 -1.1431
  606TMC3     O 9036   3.331   0.142  16.876  0.5669  0.3668 -0.3890
  606TMC3     H 9037   3.163   0.206  17.233  1.1927  0.3054  0.5336
  606TMC3    H1 9038   3.247   4.666  16.913 -0.0768 -0.8669  0.4030
  606TMC3    H2 9039   3.052   4.526  17.260 -0.3947 -0.8124 -1.4621
  606TMC3    C7 9040   3.145   4.452  17.026 -0.2357  0.3328 -0.9604
  606TMC3    C8 9041   3.134   0.006  17.419 -0.1274 -0.4214  0.4307
  606TMC3    O1 9042   3.218   4.439  16.933 -0.0441  0.4414 -0.6702
  606TMC3    O2 9043   3.198   0.105  17.456  0.4428 -0.1409  0.3665
  607MPD2     C 9044   0.436   2.432  11.811 -0.9040  0.2617 -0.5685
  607MPD2    C1 9045   0.464   2.519  11.913 -0.1850 -0.0829  0.2637
  607MPD2    C2 9046   0.439   2.486  12.047 -0.1646  0.0348  0.4996
  607MPD2    C3 9047   0.360   2.371  12.071 -0.3202  0.0584 -0.2300
  607MPD2    C4 9048   0.325   2.285  11.967  0.1763 -0.1532  0.0544
  607MPD2    C5 9049   0.372   2.315  11.841  0.1733  0.7033  0.1573
  607MPD2     H 9050   0.467   2.555  12.126 -1.4238  0.1069  0.8864
  607MPD2    H1 9051   0.258   2.201  11.982 -1.5504  1.0117 -1.0485
  607MPD2    H2 9052   0.457   2.458  11.708 -0.0543  1.8140 -0.0084
  607MPD2    H3 9053   0.361   2.241  11.762  1.6408 -1.3170  1.8492
  607MPD2     N 9054   0.332   2.345  12.209  0.0167 -0.2981  0.0929
  607MPD2    H5 9055   0.345   2.420  12.276  2.1450 -0.6188  0.0485
  607MPD2    N1 9056   0.531   2.644  11.908  0.4899 -0.2717  0.0343
  607MPD2    H7 9057   0.550   2.686  11.998 -0.3425 -1.8563  0.9442
  608TMC3    C1 9058   0.661   2.824  11.840 -0.4818  0.1023  0.7381
  608TMC3    C2 9059   0.650   2.868  11.966 -0.4343  1.3793  0.0852
  608TMC3    C3 9060   0.747   2.949  12.014 -0.8498  0.6239 -0.6888
  608TMC3    C4 9061   0.765   2.863  11.754 -0.4484  0.3927 -0.2221
  608TMC3    C5 9062   0.852   2.958  11.813 -0.2458 -0.6778 -0.5434
  608TMC3    C6 9063   0.842   3.008  11.941 -0.2686  0.2159  0.3172
  608TMC3     C 9064   0.589   2.707  11.799  0.0811 -0.5250 -0.8632
  608TMC3     O 9065   0.569   2.688  11.679 -0.1035 -0.0385  0.3785
  608TMC3     H 9066   0.562   2.852  12.027 -0.1390  1.3103  0.4925
  608TMC3    H1 9067   0.788   2.813  11.660 -1.0573 -1.6973  0.7428
  608TMC3    H2 9068   0.903   3.088  11.983  1.4847 -1.6880  1.3696
  608TMC3    C7 9069   0.935   3.028  11.720 -1.1683  0.0778 -1.1701
  608TMC3    C8 9070   0.759   2.955  12.164  0.1019  1.0553 -0.2306
  608TMC3    O1 9071   0.909   3.019  11.599 -0.4533 -0.1316 -0.1443
  608TMC3    O2 9072   0.825   3.046  12.214 -0.2649  0.0970 -0.6385
  609TMC3    C1 9073   4.009   2.304   8.887  0.5770  0.2314  0.6806
  609TMC3    C2 9074   3.974   2.224   8.782  0.2715  0.4353  0.3990
  609TMC3    C3 9075   4.049   2.125   8.738 -0.1152  1.1141 -0.2692
  609TMC3    C4 9076   4.130   2.284   8.949  0.2088 -0.2610 -0.4682
  609TMC3    C5 9077   4.212   2.188   8.904  0.3877  0.1038 -0.1894
  609TMC3    C6 9078   4.178   2.116   8.792 -0.5907  1.0767 -1.4082
  609TMC3     C 9079   3.905   2.388   8.950  0.5677 -0.5982 -0.1669
  609TMC3     O 9080   3.785   2.356   8.948  0.1926  0.0751 -0.2807
  609TMC3     H 9081   3.876   2.249   8.741  1.5718  0.0205 -2.9853
  609TMC3    H1 9082   4.144   2.330   9.046 -1.6649  1.3208 -0.9507
  609TMC3    H2 9083   4.236   2.033   8.754  0.2746  0.3529  1.5118
  609TMC3    C7 9084   4.293   2.121   9.001 -0.4208 -0.4059 -0.5228
  609TMC3    C8 9085   3.996   2.020   8.650 -0.4566 -0.1735  0.1502
  609TMC3    O1 9086   4.269   2.143   9.116 -0.6067  0.0277 -0.1846
  609TMC3    O2 9087   4.064   1.919   8.653  0.0462  0.2778 -0.1487
  610TMC3    C1 9088   0.866   2.444  12.780  0.5519  0.0156 -0.3076
  610TMC3    C2 9089   0.851   2.448  12.646 -0.8952 -0.2765  0.3791
  610TMC3    C3 9090   0.964   2.465  12.563  0.5983 -0.2516 -1.0213
  610TMC3    C4 9091   0.993   2.460  12.832 -0.0006 -1.2706  0.5586
  610TMC3    C5 9092   1.100   2.483  12.748 -0.7564 -0.0400  0.3484
  610TMC3    C6 9093   1.089   2.478  12.610  0.2072  0.4999 -0.1979
  610TMC3     C 9094   0.755   2.442  12.859 -0.0651 -0.1656 -0.5417
  610TMC3     O 9095   0.646   2.471  12.812 -0.3049  0.1274 -0.1286
  610TMC3     H 9096   0.752   2.439  12.603  0.5319  2.1755 -3.3750
  610TMC3    H1 9097   1.016   2.466  12.938 -0.8174 -1.5382  0.7499
  610TMC3    H2 9098   1.175   2.490  12.545  1.7017 -2.6660  1.2043
  610TMC3    C7 9099   1.232   2.462  12.808 -0.6104  0.1147 -0.0354
  610TMC3    C8 9100   0.940   2.510  12.430  0.0395 -0.1613 -0.6720
  610TMC3    O1 9101   1.234   2.402  12.915 -0.0528  0.5178 -0.3659
  610TMC3    O2 9102   1.008   2.599  12.376  0.6350 -0.2534  0.3048
  611MPD2     C 9103   0.528   2.916   9.830 -0.3141 -0.3264 -0.5910
  611MPD2    C1 9104   0.531   2.927   9.967 -0.3479  0.2587  0.3971
  611MPD2    C2 9105   0.644   2.983  10.026 -0.5039 -0.3493  0.3412
  611MPD2    C3 9106   0.747   3.033   9.953  0.5492 -0.4431  0.6102
  611MPD2    C4 9107   0.738   3.017   9.817  0.4854 -0.6832 -0.3564
  611MPD2    C5 9108   0.629   2.958   9.754  0.5640 -0.0294 -0.2877
  611MPD2     H 9109   0.653   2.991  10.134 -0.8235  1.4822  0.2382
  611MPD2    H1 9110   0.815   3.068   9.760  0.3521  0.6014  0.6167
  611MPD2    H2 9111   0.444   2.873   9.778  0.0971 -2.0819  0.2056
  611MPD2    H3 9112   0.615   2.962   9.647 -2.2749 -2.2256 -0.0051
  611MPD2     N 9113   0.862   3.103   9.998 -0.5887  0.1570  0.8537
  611MPD2    H5 9114   0.926   3.135   9.927  0.8062 -1.2629  1.4673
  611MPD2    N1 9115   0.414   2.884  10.035  0.4064 -0.1200 -0.4585
  611MPD2    H7 9116   0.328   2.863   9.987 -0.1691 -0.7994  0.8618
  612TMC3    C1 9117   0.987   3.235  10.141  0.3609 -0.4223  0.2629
  612TMC3    C2 9118   1.044   3.250  10.269  0.5573  0.4536 -0.4236
  612TMC3    C3 9119   1.118   3.354  10.297 -0.0450  0.5814 -0.7784
  612TMC3    C4 9120   0.994   3.333  10.050  0.8270  0.6113 -0.3784
  612TMC3    C5 9121   1.060   3.448  10.096  0.2516  0.4743  0.3002
  612TMC3    C6 9122   1.120   3.463  10.215 -0.3946  0.0572  0.2766
  612TMC3     C 9123   0.899   3.124  10.129  0.1747  0.4194 -0.7499
  612TMC3     O 9124   0.847   3.081  10.233 -0.0433 -0.4957  1.0006
  612TMC3     H 9125   1.047   3.163  10.333  1.0530  0.7017 -0.1085
  612TMC3    H1 9126   0.935   3.336   9.959 -1.8022 -1.2410  1.2636
  612TMC3    H2 9127   1.166   3.560  10.229 -2.6900  1.3760 -1.3088
  612TMC3    C7 9128   1.007   3.570  10.036 -0.3476  0.2542  0.2837
  612TMC3    C8 9129   1.202   3.368  10.419  0.6133 -0.2399 -0.1738
  612TMC3    O1 9130   0.970   3.654  10.112 -0.3924 -0.0513 -0.1529
  612TMC3    O2 9131   1.277   3.466  10.421  0.2175 -0.2617  0.0393
  613MPD2     C 9132   4.588   0.036  16.969 -0.4604  0.6028  0.3501
  613MPD2    C1 9133   4.585   4.720  16.836 -0.6026  0.1537 -0.7644
  613MPD2    C2 9134   4.524   4.597  16.816  0.0115 -0.6004 -0.5067
  613MPD2    C3 9135   4.465   4.524  16.919 -0.0067  0.0572  0.4077
  613MPD2    C4 9136   4.487   4.563  17.048  0.5042  0.5970 -0.3990
  613MPD2    C5 9137   4.551   4.685  17.069 -0.7638  0.1835  0.2163
  613MPD2     H 9138   4.512   4.567  16.712 -0.0164  0.4485 -0.8113
  613MPD2    H1 9139   4.437   4.504  17.125  0.8968 -0.1268 -0.6966
  613MPD2    H2 9140   4.651   0.122  16.991  1.8787 -0.8304 -0.6599
  613MPD2    H3 9141   4.570   4.716  17.171  0.3059 -1.1500  0.4372
  613MPD2     N 9142   4.393   4.404  16.890 -0.1091  0.4403 -0.0818
  613MPD2    H5 9143   4.376   4.339  16.966 -0.8992  0.4739 -0.2382
  613MPD2    N1 9144   4.650   0.047  16.727  0.1450  0.2972  0.1954
  613MPD2    H7 9145   4.649   4.723  16.642  2.3514 -0.0074  0.3759
  614TMC3    C1 9146   4.727   0.201  16.584 -0.4061 -0.2307 -0.2893
  614TMC3    C2 9147   0.048   0.086  16.531  0.5223 -0.2661  0.4442
  614TMC3    C3 9148   0.034   0.058  16.396 -0.6838 -0.4818  0.3794
  614TMC3    C4 9149   4.643   0.279  16.506  0.6376  0.1805 -0.2171
  614TMC3    C5 9150   4.628   0.242  16.374  0.6249  0.1798 -0.2458
  614TMC3    C6 9151   4.680   0.132  16.319 -0.1723 -0.1648  0.3927
  614TMC3     C 9152   4.691   0.179  16.722 -0.1004  0.0579  0.3401
  614TMC3     O 9153   4.713   0.264  16.805 -0.2805  0.3591 -0.2166
  614TMC3     H 9154   0.118   0.030  16.591  0.4414 -2.5928 -1.6512
  614TMC3    H1 9155   4.616   0.379  16.540 -0.5863 -0.0546 -0.4698
  614TMC3    H2 9156   4.677   0.119  16.211 -0.8191 -0.2134  0.4170
  614TMC3    C7 9157   4.539   0.327  16.305 -0.3197  0.0009 -0.0184
  614TMC3    C8 9158   0.019   4.642  16.378  0.1147  0.5946  0.0023
  614TMC3    O1 9159   4.521   0.440  16.352 -0.6065 -0.3584 -0.3716
  614TMC3    O2 9160   0.014   4.583  16.486 -0.9408 -0.5522  0.2465
  615MPD2     C 9161   4.157   1.517  16.453 -0.8052 -0.5146 -0.8811
  615MPD2    C1 9162   4.122   1.603  16.356 -0.9951  0.4910 -0.4151
  615MPD2    C2 9163   4.059   1.558  16.240 -0.0985  0.6009 -0.1054
  615MPD2    C3 9164   4.033   1.423  16.235 -0.3053 -0.2557 -0.4154
  615MPD2    C4 9165   4.062   1.331  16.338 -0.3740  0.2476  0.9777
  615MPD2    C5 9166   4.132   1.385  16.443 -0.6305 -0.4908  0.3698
  615MPD2     H 9167   4.052   1.630  16.159  0.8064  0.6871 -0.1073
  615MPD2    H1 9168   4.054   1.222  16.334 -1.3741  0.3419  0.3999
  615MPD2    H2 9169   4.202   1.551  16.545 -2.5748 -1.0351  0.1787
  615MPD2    H3 9170   4.170   1.322  16.523  0.3231 -2.1342 -1.3743
  615MPD2     N 9171   3.986   1.364  16.117 -0.9525  0.1492 -0.7247
  615MPD2    H5 9172   3.949   1.271  16.130  0.8777 -0.8020 -2.2843
  615MPD2    N1 9173   4.137   1.744  16.363  0.6782  0.5177  0.3314
  615MPD2    H7 9174   4.099   1.803  16.289  0.6193 -1.0401 -0.8853
  616TMC3    C1 9175   4.144   1.963  16.476 -0.4629 -0.1449  0.0447
  616TMC3    C2 9176   4.220   2.049  16.545  0.0940 -0.0285 -0.7172
  616TMC3    C3 9177   4.203   2.183  16.536 -0.2824  0.0193 -0.2786
  616TMC3    C4 9178   4.037   2.014  16.410 -0.3333  0.6178  0.1088
  616TMC3    C5 9179   4.008   2.151  16.414 -0.2881 -0.4099 -0.2083
  616TMC3    C6 9180   4.100   2.234  16.467  0.1688  0.2064  0.4264
  616TMC3     C 9181   4.183   1.820  16.469  0.7619 -0.3719  0.2823
  616TMC3     O 9182   4.252   1.777  16.561  0.0833 -0.7851 -0.4277
  616TMC3     H 9183   4.308   2.013  16.598  0.2426 -1.3698 -1.8753
  616TMC3    H1 9184   3.965   1.947  16.365  0.4116 -0.0923 -0.0198
  616TMC3    H2 9185   4.081   2.341  16.463  1.4274  0.3685 -1.2755
  616TMC3    C7 9186   3.898   2.207  16.347  0.3112  0.2072 -0.2279
  616TMC3    C8 9187   4.310   2.283  16.562  0.4576  0.4358  0.3120
  616TMC3    O1 9188   3.896   2.326  16.337 -0.4371 -0.4858 -0.3765
  616TMC3    O2 9189   4.269   2.400  16.578  0.2052  0.0614  0.1087
  617MPD2     C 9190   1.981   4.684  13.663  0.2345  0.7845 -0.5078
  617MPD2    C1 9191   2.041   4.602  13.754  0.3887  0.3533  0.2338
  617MPD2    C2 9192   1.957   4.506  13.808 -0.6510  0.3545 -1.0091
  617MPD2    C3 9193   1.822   4.492  13.777 -0.1673 -0.0252 -0.9769
  617MPD2    C4 9194   1.768   4.582  13.681 -0.5095  0.7661  0.1463
  617MPD2    C5 9195   1.851   4.674  13.616  0.1806  0.4728  0.6023
  617MPD2     H 9196   1.999   4.435  13.879 -1.5383  1.3286  0.4890
  617MPD2    H1 9197   1.664   4.569  13.652 -0.1177  1.6237 -1.6131
  617MPD2    H2 9198   2.037   0.042  13.638  0.7327  0.9322  1.1696
  617MPD2    H3 9199   1.812   0.009  13.541 -0.3004  0.8091  1.1499
  617MPD2     N 9200   1.736   4.390  13.835  0.8103 -0.6781  0.2258
  617MPD2    H5 9201   1.643   4.400  13.795  1.4353  0.1417 -1.0169
  617MPD2    N1 9202   2.176   4.608  13.786 -0.6231 -0.3534  0.0851
  617MPD2    H7 9203   2.234   4.678  13.742  2.7793 -3.3835 -0.2984
  618TMC3    C1 9204   2.385   4.563  13.874 -0.3247  0.4158 -0.1520
  618TMC3    C2 9205   2.482   4.481  13.926  0.4121  0.3122  0.0460
  618TMC3    C3 9206   2.598   4.537  13.963 -0.4479 -0.5220  0.7013
  618TMC3    C4 9207   2.412   4.695  13.857  0.4788  0.6870 -0.5555
  618TMC3    C5 9208   2.537   0.010  13.873  0.5670  0.0453 -0.1690
  618TMC3    C6 9209   2.635   4.665  13.931  0.3258 -0.3336 -0.0528
  618TMC3     C 9210   2.244   4.521  13.864 -0.0072  0.3597 -0.4363
  618TMC3     O 9211   2.219   4.408  13.913  0.0424  0.1280  0.1802
  618TMC3     H 9212   2.458   4.381  13.958  3.3912 -0.3971  0.0660
  618TMC3    H1 9213   2.337   0.033  13.822  2.1223  1.8012 -1.8603
  618TMC3    H2 9214   2.732   4.706  13.956 -0.3127  0.4217  1.2080
  618TMC3    C7 9215   2.574   0.139  13.819  0.3490  0.1829  0.3894
  618TMC3    C8 9216   2.685   4.472  14.056  0.0808  0.7721 -0.2631
  618TMC3    O1 9217   2.489   0.225  13.826 -0.7011 -0.3184  0.4547
  618TMC3    O2 9218   2.755   4.533  14.132 -0.4833 -0.7881 -0.1827
  619MPD2     C 9219   3.508   0.320  14.041 -0.1301 -0.2122 -0.3381
  619MPD2    C1 9220   3.476   0.432  13.977  0.0046  0.2616 -0.0931
  619MPD2    C2 9221   3.359   0.495  14.012 -0.8132 -0.4905  0.3080
  619MPD2    C3 9222   3.281   0.458  14.126  0.2061 -0.0207  0.5097
  619MPD2    C4 9223   3.327   0.345  14.193 -0.0478  0.5685 -0.2560
  619MPD2    C5 9224   3.433   0.276  14.148  0.3415  0.2408  0.0991
  619MPD2     H 9225   3.331   0.577  13.946  0.4599 -0.6086 -0.3723
  619MPD2    H1 9226   3.264   0.306  14.273  1.5670  0.2019  0.8249
  619MPD2    H2 9227   3.597   0.262  14.021  0.1699 -0.1281  0.7554
  619MPD2    H3 9228   3.459   0.181  14.191  3.3422  0.1500 -1.8712
  619MPD2     N 9229   3.152   0.513  14.163  0.3455 -0.1171 -0.5175
  619MPD2    H5 9230   3.103   0.468  14.239 -0.4678  0.6064 -0.6257
  619MPD2    N1 9231   3.542   0.484  13.871 -0.0778 -0.5104  0.2529
  619MPD2    H7 9232   3.489   0.548  13.812  0.1800  0.0648  0.6470
  620TMC3    C1 9233   3.717   0.541  13.729 -0.0947  0.1755 -0.0219
  620TMC3    C2 9234   3.621   0.563  13.625 -0.8464  0.3818 -0.0771
  620TMC3    C3 9235   3.622   0.693  13.574 -0.4319 -0.7471 -0.5849
  620TMC3    C4 9236   3.791   0.639  13.781  0.2525 -0.7115 -0.1478
  620TMC3    C5 9237   3.782   0.767  13.727 -0.5335 -0.1658  0.4243
  620TMC3    C6 9238   3.701   0.792  13.620 -0.2768 -0.6669 -0.2701
  620TMC3     C 9239   3.672   0.450  13.828  0.6935 -0.7852  0.2610
  620TMC3     O 9240   3.753   0.395  13.903  0.2892 -0.1346  0.3527
  620TMC3     H 9241   3.551   0.488  13.590  0.8740 -0.6759 -1.1906
  620TMC3    H1 9242   3.851   0.633  13.871 -0.8627 -2.0516  0.4894
  620TMC3    H2 9243   3.717   0.881  13.560  0.1068 -0.3859  0.2502
  620TMC3    C7 9244   3.856   0.876  13.780 -0.8482 -0.0333 -0.6170
  620TMC3    C8 9245   3.501   0.736  13.514  0.3528 -0.0273 -0.2464
  620TMC3    O1 9246   3.975   0.862  13.787 -0.3422  0.3266 -0.1405
  620TMC3    O2 9247   3.415   0.651  13.492  0.2875  0.9620 -0.1109
  621MPD2     C 9248   2.960   1.363   9.813  0.8217  0.4855 -0.3930
  621MPD2    C1 9249   2.961   1.377   9.673  0.0465 -0.7331  0.2635
  621MPD2    C2 9250   3.028   1.491   9.635  0.5454  0.0736  0.4878
  621MPD2    C3 9251   3.096   1.580   9.716  0.3860 -0.3434 -0.4362
  621MPD2    C4 9252   3.094   1.556   9.847  0.2504  0.8373 -0.2098
  621MPD2    C5 9253   3.031   1.443   9.895 -0.7091  0.7066  0.1356
  621MPD2     H 9254   3.043   1.508   9.529 -0.3591  1.0645  0.5151
  621MPD2    H1 9255   3.149   1.620   9.915 -0.2665  1.5680 -0.4677
  621MPD2    H2 9256   2.921   1.283   9.874  0.2247 -0.6437 -2.2616
  621MPD2    H3 9257   3.034   1.417  10.000  0.6973  0.0235 -0.0801
  621MPD2     N 9258   3.169   1.685   9.656 -0.7212  0.4936 -0.2848
  621MPD2    H5 9259   3.186   1.669   9.558  1.9927 -1.4030  0.4824
  621MPD2    N1 9260   2.906   1.286   9.584 -0.6751 -0.0475 -0.6319
  621MPD2    H7 9261   2.901   1.312   9.486  0.3781  0.7591 -0.4684
  622TMC3    C1 9262   2.790   1.099   9.521  0.5858  0.1300  0.0511
  622TMC3    C2 9263   2.697   1.017   9.579 -0.5247 -0.5223 -0.2163
  622TMC3    C3 9264   2.576   1.006   9.516 -0.2341 -0.0370 -0.2856
  622TMC3    C4 9265   2.768   1.164   9.404 -0.3808 -0.0484 -1.0085
  622TMC3    C5 9266   2.654   1.132   9.333 -0.1399 -0.2880  0.0759
  622TMC3    C6 9267   2.557   1.053   9.387  0.1856  0.0367  0.7349
  622TMC3     C 9268   2.870   1.164   9.622 -0.7310 -0.1026  0.4539
  622TMC3     O 9269   2.889   1.107   9.729  0.4032  0.4647 -0.5410
  622TMC3     H 9270   2.721   0.978   9.677  1.4397  1.5228  0.1139
  622TMC3    H1 9271   2.855   1.206   9.354  2.4974  1.8641  5.6001
  622TMC3    H2 9272   2.470   1.021   9.330  0.5202  0.6494 -0.1268
  622TMC3    C7 9273   2.638   1.179   9.200 -0.2651  0.2751  0.6423
  622TMC3    C8 9274   2.468   0.938   9.587  0.2104  0.0692 -0.7006
  622TMC3    O1 9275   2.555   1.118   9.133  0.0471 -0.5144  0.1861
  622TMC3    O2 9276   2.365   0.917   9.528 -0.4456  0.1553  0.2932
  623MPD2     C 9277   3.000   1.956  16.245  0.5181  0.4995  0.1617
  623MPD2    C1 9278   2.917   1.887  16.335  0.2113 -0.0171 -0.2092
  623MPD2    C2 9279   2.973   1.822  16.438  0.3455 -0.7615  0.3379
  623MPD2    C3 9280   3.104   1.826  16.467  0.3605 -0.3898 -0.0501
  623MPD2    C4 9281   3.186   1.899  16.382  0.2883  0.1620  1.0755
  623MPD2    C5 9282   3.131   1.963  16.278  0.2509 -0.5205 -0.2052
  623MPD2     H 9283   2.913   1.774  16.515 -1.1941  0.0457 -0.3810
  623MPD2    H1 9284   3.287   1.922  16.413  0.4030  3.3251 -1.6288
  623MPD2    H2 9285   2.974   2.015  16.158 -0.0351 -1.0295 -0.7155
  623MPD2    H3 9286   3.191   2.023  16.211 -3.4331  3.2724 -0.0829
  623MPD2     N 9287   3.143   1.766  16.585  0.5097  0.2324 -0.1164
  623MPD2    H5 9288   3.064   1.717  16.626  0.9281 -0.0783  0.3105
  623MPD2    N1 9289   2.775   1.877  16.332 -0.0021 -0.2320  0.5671
  623MPD2    H7 9290   2.726   1.831  16.409  0.7737 -1.2829  0.4443
  624TMC3    C1 9291   3.294   1.741  16.971 -0.8211  0.2287 -0.2261
  624TMC3    C2 9292   3.162   1.704  17.001  0.1309  0.0133 -0.2572
  624TMC3    C3 9293   3.091   1.636  16.909  0.2322  0.6232 -0.5119
  624TMC3    C4 9294   3.344   1.723  16.850  0.3824 -0.1828 -0.0129
  624TMC3    C5 9295   3.265   1.672  16.749 -0.9833 -0.3890 -0.1061
  624TMC3    C6 9296   3.143   1.617  16.787 -0.0991 -0.2837 -0.3114
  624TMC3     C 9297   3.369   1.781  17.091  0.2209 -0.0201 -0.1780
  624TMC3     O 9298   3.304   1.842  17.175  0.2426  0.5371 -0.2222
  624TMC3     H 9299   3.119   1.732  17.096 -1.9634 -3.1331 -0.3151
  624TMC3    H1 9300   3.428   1.786  16.823 -0.1763  0.6138  0.1376
  624TMC3    H2 9301   3.082   1.555  16.722 -0.2161  0.9447 -1.3696
  624TMC3    C7 9302   3.262   1.766  16.641  0.0198  0.1435 -0.0739
  624TMC3    C8 9303   2.945   1.659  16.904 -0.9843  0.0435  0.6559
  624TMC3    O1 9304   3.363   1.832  16.622 -0.2215 -0.1352 -0.5116
  624TMC3    O2 9305   2.898   1.662  16.789  0.0283 -0.5146  0.1614
  625MPD2     C 9306   3.298   3.017   0.773  0.5738  0.5679  0.0985
  625MPD2    C1 9307   3.255   3.125   0.841  0.3293  0.0894 -0.1480
  625MPD2    C2 9308   3.344   3.210   0.901  0.0856 -0.5403  0.5624
  625MPD2    C3 9309   3.481   3.188   0.885 -0.4425 -0.7776 -0.2598
  625MPD2    C4 9310   3.519   3.073   0.821  0.1408 -0.3406  0.2157
  625MPD2    C5 9311   3.432   2.993   0.760 -0.3454 -0.6134 -0.5998
  625MPD2     H 9312   3.306   3.299   0.949  1.6282  0.7063 -0.5576
  625MPD2    H1 9313   3.625   3.053   0.807  0.2909  0.2272  0.5229
  625MPD2    H2 9314   3.233   2.951   0.717  0.4921 -0.0224  0.9003
  625MPD2    H3 9315   3.464   2.905   0.705  0.1604 -0.3361 -0.7430
  625MPD2     N 9316   3.568   3.271   0.950 -0.3661 -0.4534 -0.1246
  625MPD2    H5 9317   3.530   3.357   0.989  3.0123  1.2774 -0.6420
  625MPD2    N1 9318   3.119   3.164   0.854  0.1395 -0.2799  0.1379
  625MPD2    H7 9319   3.100   3.227   0.932 -1.2890  1.9635 -2.0307
  626TMC3    C1 9320   2.889   3.163   0.826  0.4037  0.0208  0.0357
  626TMC3    C2 9321   2.779   3.161   0.739  0.2149 -0.3308  0.2952
  626TMC3    C3 9322   2.654   3.176   0.786  0.7076 -0.3523  0.3589
  626TMC3    C4 9323   2.872   3.181   0.966  1.0033 -0.3751 -0.3985
  626TMC3    C5 9324   2.739   3.198   1.008 -0.4534  0.0252  0.1548
  626TMC3    C6 9325   2.634   3.169   0.923 -0.5168  0.9106  0.1715
  626TMC3     C 9326   3.015   3.118   0.778  0.0354  0.1560 -0.1886
  626TMC3     O 9327   3.015   3.049   0.678  0.3553 -0.0587 -0.3916
  626TMC3     H 9328   2.806   3.173   0.635  2.2718  3.6644  1.2788
  626TMC3    H1 9329   2.952   3.184   1.040  0.8594 -2.0735 -0.1756
  626TMC3    H2 9330   2.529   3.172   0.951 -0.4103 -2.0809  0.8523
  626TMC3    C7 9331   2.708   3.241   1.138 -0.0881 -0.2188 -0.1133
  626TMC3    C8 9332   2.577   3.271   0.717  0.5533 -0.5771 -0.1959
  626TMC3    O1 9333   2.802   3.273   1.212  0.1437  0.0974  0.1020
  626TMC3    O2 9334   2.540   3.367   0.788 -0.6153  0.4610  0.3893
  627MPD2     C 9335   1.265   3.095  14.175 -0.1156  0.1187  0.3089
  627MPD2    C1 9336   1.283   3.056  14.310  0.2794 -0.5463 -0.5774
  627MPD2    C2 9337   1.195   2.960  14.365  0.1382  0.0022  0.1606
  627MPD2    C3 9338   1.104   2.898  14.285  0.2533  0.4625 -0.3109
  627MPD2    C4 9339   1.093   2.944  14.152 -0.4717  0.9422  0.3071
  627MPD2    C5 9340   1.166   3.041  14.103 -0.2228  0.0331  0.4640
  627MPD2     H 9341   1.204   2.932  14.470 -1.4767  0.8228  0.5149
  627MPD2    H1 9342   1.016   2.905  14.086  0.1980 -1.1045  0.7442
  627MPD2    H2 9343   1.328   3.166  14.123 -0.9830  0.6471 -0.0309
  627MPD2    H3 9344   1.135   3.082  14.008 -2.4404 -0.5891  0.9182
  627MPD2     N 9345   1.023   2.798  14.338 -0.3814 -0.2090  0.6827
  627MPD2    H5 9346   1.030   2.773  14.437  0.4913 -2.5594  0.0208
  627MPD2    N1 9347   1.387   3.087  14.398 -0.3003  0.4293  0.8942
  627MPD2    H7 9348   1.393   3.036  14.485  1.7313 -0.6494  0.1252
  628TMC3    C1 9349   1.553   3.211  14.491  0.4718  0.2670 -0.2727
  628TMC3    C2 9350   1.576   3.116  14.590 -0.8555  0.5095 -0.4474
  628TMC3    C3 9351   1.656   3.142  14.696  0.0346 -0.6723  1.2065
  628TMC3    C4 9352   1.624   3.330  14.501  0.6297 -0.1981 -0.0074
  628TMC3    C5 9353   1.701   3.356  14.609 -0.0075  0.9622 -0.3080
  628TMC3    C6 9354   1.728   3.259  14.700  0.8086 -0.1462 -0.5546
  628TMC3     C 9355   1.479   3.192  14.374  0.0481  0.2035  0.4162
  628TMC3     O 9356   1.466   3.279  14.291  0.0714 -0.3308 -0.1436
  628TMC3     H 9357   1.531   3.018  14.580 -2.9713  1.2593  2.0077
  628TMC3    H1 9358   1.615   3.403  14.421  0.2070 -1.3029 -0.9672
  628TMC3    H2 9359   1.781   3.292  14.789  1.6598 -0.5980 -0.8929
  628TMC3    C7 9360   1.763   3.489  14.628 -0.2279  0.3332 -0.0619
  628TMC3    C8 9361   1.630   3.074  14.825  0.6421 -0.7853 -0.4896
  628TMC3    O1 9362   1.869   3.501  14.689  0.2887 -0.2317 -0.2864
  628TMC3    O2 9363   1.529   3.009  14.813 -0.0307 -0.1913 -0.0662
  629MPD2     C 9364   0.048   2.469  16.600  0.1723 -0.6307 -0.2567
  629MPD2    C1 9365   0.063   2.334  16.582 -0.1375  1.2699 -0.3571
  629MPD2    C2 9366   4.680   2.249  16.584 -0.4005  0.7428  0.4873
  629MPD2    C3 9367   4.555   2.307  16.589  0.5620 -0.0330  1.2111
  629MPD2    C4 9368   4.550   2.442  16.626  0.7668 -0.2298  0.4738
  629MPD2    C5 9369   4.662   2.526  16.624 -0.0347 -0.2699 -0.5824
  629MPD2     H 9370   4.689   2.143  16.567  1.4028  0.5430  2.6596
  629MPD2    H1 9371   4.462   2.502  16.645  0.1304 -1.2910  0.8158
  629MPD2    H2 9372   0.137   2.526  16.622  0.2342 -0.3066 -1.3317
  629MPD2    H3 9373   4.648   2.625  16.666  2.5198  0.9498 -2.5842
  629MPD2     N 9374   4.436   2.228  16.574  0.3425  0.3124  0.3107
  629MPD2    H5 9375   4.451   2.133  16.542  1.5590  0.3616  0.7283
  629MPD2    N1 9376   0.197   2.281  16.589  0.9746 -0.4925 -0.7044
  629MPD2    H7 9377   0.275   2.346  16.578  0.2721  0.6818  1.1964
  630TMC3    C1 9378   0.374   2.117  16.615  0.7405 -0.3574  0.5552
  630TMC3    C2 9379   0.452   2.191  16.528  0.4062 -0.2324 -0.4969
  630TMC3    C3 9380   0.582   2.165  16.508 -0.1544 -0.5771 -0.7115
  630TMC3    C4 9381   0.430   2.021  16.691 -0.2923 -0.3413 -0.0426
  630TMC3    C5 9382   0.566   2.003  16.680  0.0724  0.3671 -0.0376
  630TMC3    C6 9383   0.635   2.064  16.581  0.0448 -0.5804 -0.5027
  630TMC3     C 9384   0.230   2.148  16.621 -0.1659  0.1213 -0.6660
  630TMC3     O 9385   0.156   2.063  16.667  0.0594 -0.5770 -0.0528
  630TMC3     H 9386   0.406   2.257  16.456  0.0913  1.7625  1.5440
  630TMC3    H1 9387   0.378   1.995  16.783 -2.3077  2.7542 -0.2899
  630TMC3    H2 9388   0.735   2.030  16.558  0.3072  0.9752 -1.7227
  630TMC3    C7 9389   0.635   2.001  16.805 -0.2613  0.8832  0.3573
  630TMC3    C8 9390   0.676   2.272  16.486 -0.1699 -0.3152 -0.0094
  630TMC3    O1 9391   0.578   1.988  16.913  0.2795  0.0604  0.3121
  630TMC3    O2 9392   0.787   2.262  16.546  0.3976  0.3129  0.3511
  631MPD2     C 9393   3.116   1.469  15.728 -0.2173 -0.1441 -0.1828
  631MPD2    C1 9394   3.193   1.501  15.617 -0.8209  0.6217 -0.4583
  631MPD2    C2 9395   3.322   1.446  15.610  0.6072 -0.3009 -0.4294
  631MPD2    C3 9396   3.377   1.367  15.720 -0.6467 -0.1937 -0.2738
  631MPD2    C4 9397   3.284   1.334  15.816 -0.2493  0.2469 -0.2885
  631MPD2    C5 9398   3.157   1.381  15.823  0.9556 -0.3836 -0.4538
  631MPD2     H 9399   3.387   1.480  15.531 -0.9718 -0.4269 -1.7831
  631MPD2    H1 9400   3.312   1.279  15.905 -2.4277  1.3088  1.0436
  631MPD2    H2 9401   3.024   1.526  15.741 -0.5422 -0.4824 -0.9457
  631MPD2    H3 9402   3.092   1.349  15.904 -1.4710  4.6663 -0.3970
  631MPD2     N 9403   3.512   1.314  15.714 -0.1369  0.1814 -0.2483
  631MPD2    H5 9404   3.580   1.349  15.648 -0.8434  0.5757 -0.7632
  631MPD2    N1 9405   3.145   1.605  15.529  0.1612  0.1239  0.1064
  631MPD2    H7 9406   3.056   1.644  15.558  0.8616  1.0336  1.0643
  632TMC3    C1 9407   3.141   1.766  15.353  0.6783 -0.2196  0.4287
  632TMC3    C2 9408   3.003   1.759  15.355 -0.3066  0.4682  0.0302
  632TMC3    C3 9409   2.932   1.827  15.254  0.4709  0.0663 -0.5038
  632TMC3    C4 9410   3.216   1.826  15.255 -0.0005  0.0194  0.7890
  632TMC3    C5 9411   3.141   1.878  15.148 -0.0679  0.1212  0.4560
  632TMC3    C6 9412   3.002   1.881  15.151 -0.0974  0.0591  0.2993
  632TMC3     C 9413   3.208   1.651  15.413  0.6991 -0.2068 -0.6512
  632TMC3     O 9414   3.314   1.618  15.369 -0.2365 -0.3249 -0.3707
  632TMC3     H 9415   2.951   1.699  15.429  0.7428 -0.1343  0.2773
  632TMC3    H1 9416   3.324   1.821  15.258 -0.0616 -2.0453 -0.3405
  632TMC3    H2 9417   2.944   1.934  15.077 -0.9842 -0.3154  0.7353
  632TMC3    C7 9418   3.205   1.958  15.043 -0.3103 -0.3286 -0.5196
  632TMC3    C8 9419   2.812   1.897  15.291  0.3679  0.1016  0.6124
  632TMC3    O1 9420   3.125   2.004  14.962  0.2239 -0.4143  0.0985
  632TMC3    O2 9421   2.779   1.889  15.410 -0.6132  0.6680 -0.2942
  633MPD2     C 9422   2.456   4.593  17.337  0.0237 -0.8858 -0.1798
  633MPD2    C1 9423   2.458   4.524  17.222 -0.6201 -0.2823  0.2559
  633MPD2    C2 9424   2.455   4.385  17.225 -0.6675 -0.4118 -0.1816
  633MPD2    C3 9425   2.455   4.317  17.352  0.4520  0.5213 -0.2599
  633MPD2    C4 9426   2.457   4.388  17.468  0.9308  0.4839  0.1815
  633MPD2    C5 9427   2.452   4.524  17.461  0.4137  0.3181  0.2117
  633MPD2     H 9428   2.468   4.326  17.135  0.2524 -1.0942  0.4103
  633MPD2    H1 9429   2.441   4.346  17.567 -0.9647 -0.4039 -0.5171
  633MPD2    H2 9430   2.472   4.700  17.331  0.0972 -0.8240  1.1930
  633MPD2    H3 9431   2.459   4.581  17.553  0.0217  1.4829 -0.4770
  633MPD2     N 9432   2.453   4.174  17.361  0.4254 -0.3998 -0.0140
  633MPD2    H5 9433   2.479   4.128  17.448  0.3992 -0.4305 -0.0227
  633MPD2    N1 9434   2.468   4.594  17.099 -0.1992  0.1272  0.3718
  633MPD2    H7 9435   2.493   4.543  17.015  1.9476  2.4915 -0.3940
  634TMC3    C1 9436   2.486   0.031  16.938  0.4319 -0.1893 -0.0010
  634TMC3    C2 9437   2.488   4.656  16.843 -0.0534 -0.1905 -0.0338
  634TMC3    C3 9438   2.543   4.691  16.723  0.1305 -0.1202  0.4110
  634TMC3    C4 9439   2.537   0.160  16.919  0.5438  0.2006 -0.4636
  634TMC3    C5 9440   2.592   0.188  16.792 -0.4341 -0.1083 -0.9494
  634TMC3    C6 9441   2.588   0.089  16.697  0.1791  0.6647  0.0444
  634TMC3     C 9442   2.459   0.001  17.080  0.1826 -0.4883  0.6397
  634TMC3     O 9443   2.418   0.093  17.146  0.3805 -0.5280  0.2307
  634TMC3     H 9444   2.437   4.561  16.858 -0.4869 -0.0115 -0.3758
  634TMC3    H1 9445   2.553   0.222  17.006 -1.5715 -1.2742  0.9863
  634TMC3    H2 9446   2.620   0.116  16.597 -1.9584  1.6127 -0.3703
  634TMC3    C7 9447   2.639   0.321  16.752 -0.8062 -0.0768  0.0874
  634TMC3    C8 9448   2.574   4.572  16.632  0.2607 -0.2163  0.5767
  634TMC3    O1 9449   2.686   0.330  16.638 -0.1125 -0.1498  0.0591
  634TMC3    O2 9450   2.552   4.455  16.665  0.1874  0.0761 -0.7359
  635TMC3    C1 9451   3.828   2.291   1.209 -0.1062  0.0194  0.0248
  635TMC3    C2 9452   3.938   2.277   1.295 -0.9044 -0.7626  0.1282
  635TMC3    C3 9453   4.013   2.164   1.280 -0.1039 -0.4284  0.2171
  635TMC3    C4 9454   3.795   2.191   1.120 -0.1915  0.2984  0.1796
  635TMC3    C5 9455   3.877   2.078   1.109 -0.1306 -0.7169  0.1855
  635TMC3    C6 9456   3.987   2.063   1.193 -0.3754 -0.5027  0.2432
  635TMC3     C 9457   3.741   2.405   1.229  0.3338  0.0469  0.2429
  635TMC3     O 9458   3.656   2.412   1.142  0.0364 -0.1536 -0.6925
  635TMC3     H 9459   3.964   2.358   1.362  3.5333 -1.6760 -0.4675
  635TMC3    H1 9460   3.720   2.215   1.045 -0.2574 -0.9517 -0.1591
  635TMC3    H2 9461   4.045   1.971   1.190  2.1644  1.1040  1.2086
  635TMC3    C7 9462   3.843   1.980   1.010  0.2050  0.1959 -0.6625
  635TMC3    C8 9463   4.143   2.178   1.344 -0.3797 -0.4095  0.4011
  635TMC3    O1 9464   3.724   1.986   0.980 -0.3088  0.1290  0.3927
  635TMC3    O2 9465   4.158   2.261   1.438 -0.0238  0.3674  0.1632
  636MPD2     C 9466   3.988   0.024  16.267 -0.0418  0.2822 -0.4558
  636MPD2    C1 9467   4.087   0.042  16.367  1.4538 -0.2546  0.2078
  636MPD2    C2 9468   4.123   4.666  16.439 -0.1284  0.4232  0.0936
  636MPD2    C3 9469   4.059   4.543  16.425 -0.0597 -0.5277  0.5670
  636MPD2    C4 9470   3.957   4.524  16.336 -0.2212  0.1224 -0.3562
  636MPD2    C5 9471   3.929   4.629  16.258  0.5427 -0.1972  0.1681
  636MPD2     H 9472   4.193   4.689  16.518  0.4801 -0.7476 -0.0984
  636MPD2    H1 9473   3.900   4.432  16.335 -1.3731  0.8742 -2.1168
  636MPD2    H2 9474   3.947   0.100  16.203 -0.1224  0.6229  0.0017
  636MPD2    H3 9475   3.845   4.605  16.194 -0.8333  0.5266  1.7211
  636MPD2     N 9476   4.104   4.437  16.502 -0.2539 -0.0597  0.0702
  636MPD2    H5 9477   4.174   4.461  16.572 -0.6989  3.8275 -0.8415
  636MPD2    N1 9478   4.144   0.163  16.392 -0.5802  0.8220 -0.7529
  636MPD2    H7 9479   4.222   0.163  16.458  0.3062  0.4742 -1.7877
  637TMC3    C1 9480   4.158   4.214  16.562 -0.9223 -0.2740 -0.0581
  637TMC3    C2 9481   4.164   4.265  16.686  0.4659  0.4093  0.2620
  637TMC3    C3 9482   4.279   4.250  16.756  0.2259 -0.0645 -0.0234
  637TMC3    C4 9483   4.255   4.138  16.501  0.2061 -0.5332  0.3787
  637TMC3    C5 9484   4.380   4.135  16.569  0.7524  0.4643 -0.4872
  637TMC3    C6 9485   4.379   4.177  16.701 -0.6823  0.0390  0.3581
  637TMC3     C 9486   4.078   4.301  16.476  0.7358  0.1342 -0.2349
  637TMC3     O 9487   4.026   4.238  16.385 -0.2339  1.0048 -0.4389
  637TMC3     H 9488   4.098   4.341  16.725  0.2643  0.2407  0.2555
  637TMC3    H1 9489   4.248   4.124  16.394  0.8572 -0.5921  0.3421
  637TMC3    H2 9490   4.476   4.196  16.746 -0.5756 -0.4717  0.3374
  637TMC3    C7 9491   4.494   4.198  16.498  0.3716  0.2663  0.4939
  637TMC3    C8 9492   4.320   4.385  16.780 -0.1576  0.1090  0.0993
  637TMC3    O1 9493   4.577   4.261  16.562 -0.3790 -0.5966  0.4005
  637TMC3    O2 9494   4.281   4.466  16.695 -0.0411  0.3905 -0.6274
  638MPD2     C 9495   3.759   3.795  15.138 -0.2987  0.7435  0.0666
  638MPD2    C1 9496   3.798   3.671  15.094  0.2094 -0.4347 -0.5676
  638MPD2    C2 9497   3.796   3.569  15.184  0.6129  0.6000  0.2997
  638MPD2    C3 9498   3.749   3.584  15.311  0.2115  0.3502  0.6495
  638MPD2    C4 9499   3.703   3.706  15.354 -0.5889  0.1149 -0.0215
  638MPD2    C5 9500   3.716   3.810  15.264  0.1811  0.2264  0.1155
  638MPD2     H 9501   3.826   3.471  15.149  0.7952  0.5976  0.4679
  638MPD2    H1 9502   3.666   3.729  15.454  1.2709  0.0886  0.6785
  638MPD2    H2 9503   3.775   3.880  15.072 -0.9593  0.0269 -1.0218
  638MPD2    H3 9504   3.695   3.912  15.294  0.4262 -1.0685  4.6889
  638MPD2     N 9505   3.728   3.471  15.390  0.0013 -0.5090  0.8387
  638MPD2    H5 9506   3.746   3.379  15.351 -0.2273  0.3800 -1.3822
  638MPD2    N1 9507   3.827   3.650  14.950 -0.0438  0.4022 -0.1745
  638MPD2    H7 9508   3.837   3.726  14.883 -0.6727  1.8166  1.3350
  639TMC3    C1 9509   3.671   3.339  15.578  0.7010  0.5387 -0.3515
  639TMC3    C2 9510   3.565   3.263  15.543  0.8923  0.1989  0.0135
  639TMC3    C3 9511   3.544   3.140  15.595  0.8373 -0.4548  0.0815
  639TMC3    C4 9512   3.763   3.290  15.666 -0.2901 -0.3475 -0.6007
  639TMC3    C5 9513   3.739   3.168  15.719  0.1023  0.1155  0.4511
  639TMC3    C6 9514   3.630   3.086  15.693 -0.0478  0.3714 -0.7370
  639TMC3     C 9515   3.696   3.470  15.523 -0.3365  0.0384  0.9292
  639TMC3     O 9516   3.676   3.555  15.609  0.6795  0.1537 -0.0561
  639TMC3     H 9517   3.500   3.290  15.460  2.1130 -2.5073 -1.8107
  639TMC3    H1 9518   3.853   3.341  15.701 -0.8265 -0.6718  1.2587
  639TMC3    H2 9519   3.636   2.984  15.728 -0.2463  0.4615 -0.4435
  639TMC3    C7 9520   3.848   3.095  15.781 -0.4359  0.4038  0.4788
  639TMC3    C8 9521   3.452   3.045  15.535  0.2911  0.3566  0.0744
  639TMC3    O1 9522   3.825   2.989  15.839  0.1523 -0.2045 -0.1271
  639TMC3    O2 9523   3.503   2.936  15.496  0.0408  0.1924 -0.2936
  640MPD2     C 9524   3.920   2.788  10.255  0.4322  0.3368 -0.2942
  640MPD2    C1 9525   3.945   2.861  10.144 -0.6068 -0.0308  0.3217
  640MPD2    C2 9526   3.870   2.979  10.115 -0.6340  0.5587 -0.9311
  640MPD2    C3 9527   3.773   3.017  10.204  0.3578 -0.7015  0.3781
  640MPD2    C4 9528   3.751   2.941  10.311 -0.9640 -1.2491  0.8133
  640MPD2    C5 9529   3.828   2.829  10.341 -1.1083  0.2128  0.5016
  640MPD2     H 9530   3.876   3.031  10.020  1.6090  2.8861  0.5017
  640MPD2    H1 9531   3.686   2.977  10.390 -1.4177  0.7849 -0.5016
  640MPD2    H2 9532   3.976   2.698  10.277  0.2499  0.7174  1.6849
  640MPD2    H3 9533   3.810   2.764  10.426 -0.3715  0.1216  0.5840
  640MPD2     N 9534   3.698   3.134  10.188  0.5686  0.2931  0.0589
  640MPD2    H5 9535   3.618   3.156  10.246 -0.8478 -1.7879 -1.1370
  640MPD2    N1 9536   4.053   2.819  10.068  0.8228 -0.3230 -0.2335
  640MPD2    H7 9537   4.103   2.735  10.098  0.4264 -0.5063 -0.0912
  641TMC3    C1 9538   4.229   2.833   9.910 -0.5454  0.0826 -1.3521
  641TMC3    C2 9539   4.299   2.730   9.969 -0.0691 -0.2416 -0.9067
  641TMC3    C3 9540   4.429   2.715   9.931 -0.0416  1.0347 -0.1271
  641TMC3    C4 9541   4.281   2.896   9.796 -0.4006 -0.6646 -0.0453
  641TMC3    C5 9542   4.412   2.871   9.761 -0.1806 -0.1431  0.0154
  641TMC3    C6 9543   4.493   2.783   9.825  0.6349 -0.3413 -0.2693
  641TMC3     C 9544   4.099   2.884   9.956  0.0189  0.3015  0.1574
  641TMC3     O 9545   4.057   2.987   9.904  0.1510  0.4451  0.0441
  641TMC3     H 9546   4.252   2.680  10.052  0.5401  1.4217  0.4339
  641TMC3    H1 9547   4.220   2.971   9.747 -0.0384  1.0201  2.0511
  641TMC3    H2 9548   4.598   2.773   9.803  0.9540 -1.4210  1.7757
  641TMC3    C7 9549   4.444   2.879   9.622 -0.4185  0.4238 -0.2838
  641TMC3    C8 9550   4.499   2.601   9.986 -0.0617  0.0698 -0.1038
  641TMC3    O1 9551   4.546   2.815   9.591  0.5127 -0.6690 -0.2074
  641TMC3    O2 9552   4.583   2.550   9.913 -0.3806  0.0198  0.3656
  642TMC3    C1 9553   0.632   3.483  12.327  0.6894  0.0476 -0.5676
  642TMC3    C2 9554   0.768   3.489  12.302  0.0314  0.1963  0.1811
  642TMC3    C3 9555   0.809   3.400  12.198 -0.3095  0.4314 -0.0425
  642TMC3    C4 9556   0.532   3.413  12.250 -0.4999 -0.5832 -0.8190
  642TMC3    C5 9557   0.587   3.352  12.141  0.0603 -0.3030 -0.0797
  642TMC3    C6 9558   0.720   3.348  12.108 -0.7750 -0.0880 -0.5260
  642TMC3     C 9559   0.583   3.553  12.448 -0.2551  0.2224 -0.5523
  642TMC3     O 9560   0.658   3.632  12.504 -0.2645  0.1177  0.0408
  642TMC3     H 9561   0.828   3.537  12.378 -2.3947  0.8987  1.6628
  642TMC3    H1 9562   0.428   3.396  12.277 -0.8094 -0.1558 -1.7507
  642TMC3    H2 9563   0.731   3.268  12.035 -2.3116 -0.5057 -0.2977
  642TMC3    C7 9564   0.495   3.249  12.077 -0.6411  0.7231 -0.4594
  642TMC3    C8 9565   0.945   3.359  12.181  0.4233  0.4279  0.1152
  642TMC3    O1 9566   0.517   3.225  11.955  0.0977 -0.3709 -0.2932
  642TMC3    O2 9567   0.977   3.304  12.079 -0.1385  0.1361  0.1540
  643TMC3    C1 9568   0.022   3.032   0.350 -0.0734 -0.1109 -0.3400
  643TMC3    C2 9569   4.673   3.039   0.239  0.2093  0.5910  0.1394
  643TMC3    C3 9570   4.649   2.920   0.177 -0.5611  0.3706  0.0324
  643TMC3    C4 9571   0.089   2.921   0.384 -0.1806  0.1502 -0.5499
  643TMC3    C5 9572   0.074   2.802   0.307  0.3148  0.4522 -0.1055
  643TMC3    C6 9573   4.714   2.798   0.208 -0.1176 -0.2240 -0.0048
  643TMC3     C 9574   0.017   3.140   0.442  0.5904  0.1752  0.2179
  643TMC3     O 9575   4.689   3.241   0.406  0.0359  0.1863 -0.0544
  643TMC3     H 9576   4.612   3.128   0.227  0.0565  0.5983  0.9769
  643TMC3    H1 9577   0.173   2.926   0.452  0.5740 -1.1409 -1.3951
  643TMC3    H2 9578   4.687   2.716   0.142  1.1168 -0.2061 -0.5212
  643TMC3    C7 9579   0.157   2.693   0.355  0.5520 -0.0597  0.4887
  643TMC3    C8 9580   4.594   2.925   0.046  0.5162  0.0506  0.2886
  643TMC3    O1 9581   0.203   2.705   0.467 -0.0985  0.5241 -0.0241
  643TMC3    O2 9582   4.534   2.826   0.003  0.0809 -0.2441  0.3807
  644MPD2     C 9583   2.979   3.161   9.019 -0.7562 -0.0822  0.0304
  644MPD2    C1 9584   2.908   3.157   9.135 -0.2438  0.5360  0.2044
  644MPD2    C2 9585   2.946   3.241   9.236 -0.6491  1.0184 -0.1377
  644MPD2    C3 9586   3.032   3.347   9.221  1.2297  0.2302 -0.4952
  644MPD2    C4 9587   3.085   3.360   9.095  0.1594 -0.1412 -0.7756
  644MPD2    C5 9588   3.068   3.266   9.003 -0.1245 -0.4039 -0.0139
  644MPD2     H 9589   2.911   3.230   9.339 -3.1037 -2.2831 -1.3223
  644MPD2    H1 9590   3.152   3.443   9.075  1.6321 -1.3544 -0.9487
  644MPD2    H2 9591   2.965   3.090   8.938 -0.9339  0.7672 -0.6775
  644MPD2    H3 9592   3.116   3.284   8.908  3.5191  2.3333  2.3521
  644MPD2     N 9593   3.050   3.438   9.329 -0.6571  0.7805 -0.4035
  644MPD2    H5 9594   3.001   3.412   9.414  0.6293  1.9564  0.7049
  644MPD2    N1 9595   2.810   3.060   9.147 -0.1086  0.2908  0.4964
  644MPD2    H7 9596   2.795   3.005   9.063  1.5500  0.5924 -0.0125
  645TMC3    C1 9597   3.122   3.627   9.444  0.3293 -0.1029  0.5194
  645TMC3    C2 9598   3.222   3.727   9.448 -0.3028  0.5137 -0.4197
  645TMC3    C3 9599   3.204   3.830   9.539  0.4792 -0.7387  0.2163
  645TMC3    C4 9600   3.013   3.630   9.522  0.2813  0.6903  0.1180
  645TMC3    C5 9601   3.005   3.733   9.615 -0.1148  0.2144  0.1942
  645TMC3    C6 9602   3.098   3.836   9.620  0.0164  1.0404 -0.7907
  645TMC3     C 9603   3.132   3.549   9.323 -0.5966  0.0896  0.3235
  645TMC3     O 9604   3.214   3.579   9.241 -0.2421 -0.0112 -0.4368
  645TMC3     H 9605   3.304   3.747   9.380  0.4593  1.6212  0.8305
  645TMC3    H1 9606   2.946   3.545   9.518 -0.9391  1.6480  0.2508
  645TMC3    H2 9607   3.095   3.911   9.698 -0.7775 -2.0093  2.1042
  645TMC3    C7 9608   2.905   3.718   9.715 -0.8549  0.6826 -0.1234
  645TMC3    C8 9609   3.314   3.929   9.560 -0.0403  0.8244  0.2242
  645TMC3    O1 9610   2.919   3.769   9.829 -0.8171 -0.5759  0.8202
  645TMC3    O2 9611   3.431   3.888   9.537  0.0972  0.2963 -0.3279
  646MPD2     C 9612   3.990   2.405  15.112  0.9070  0.3233  0.5777
  646MPD2    C1 9613   3.902   2.353  15.202 -0.2012 -0.0684 -0.0093
  646MPD2    C2 9614   3.766   2.380  15.187  0.7453  0.3830  0.2602
  646MPD2    C3 9615   3.717   2.444  15.075  1.2826 -0.1543  0.5320
  646MPD2    C4 9616   3.809   2.492  14.985 -0.0524  0.3951  0.0271
  646MPD2    C5 9617   3.941   2.482  15.015 -0.2931 -0.0833  0.0447
  646MPD2     H 9618   3.692   2.349  15.260  0.7632 -2.0819 -0.7938
  646MPD2    H1 9619   3.775   2.561  14.908  0.3376 -0.0557 -0.5462
  646MPD2    H2 9620   4.097   2.395  15.120  0.6758 -2.4544  0.4134
  646MPD2    H3 9621   4.007   2.523  14.939 -1.4844 -2.0460 -2.0656
  646MPD2     N 9622   3.579   2.450  15.054  0.3471  0.2018  0.4642
  646MPD2    H5 9623   3.512   2.432  15.129  0.2910  1.2742  0.6752
  646MPD2    N1 9624   3.959   2.282  15.312 -0.4895  0.2718 -0.5178
  646MPD2    H7 9625   4.060   2.274  15.315 -0.7132 -2.9807 -0.9270
  647TMC3    C1 9626   3.988   2.157  15.516 -0.3505  0.5869  0.2945
  647TMC3    C2 9627   3.969   2.030  15.571  0.1838 -0.1821  0.1516
  647TMC3    C3 9628   4.053   1.995  15.673 -0.1121 -0.0188  0.2285
  647TMC3    C4 9629   4.087   2.245  15.547 -0.5752 -0.1658  0.4653
  647TMC3    C5 9630   4.161   2.206  15.651 -0.6461 -0.6182  1.1224
  647TMC3    C6 9631   4.142   2.090  15.720  0.6194 -0.3120  0.0326
  647TMC3     C 9632   3.896   2.206  15.409  0.2163  0.0060 -0.8722
  647TMC3     O 9633   3.777   2.186  15.417 -0.3774  0.3941  0.4690
  647TMC3     H 9634   3.880   1.974  15.544 -0.6704  1.1675  0.1059
  647TMC3    H1 9635   4.088   2.344  15.505  0.4008 -1.1194 -1.7465
  647TMC3    H2 9636   4.214   2.057  15.794  1.5061 -1.4250 -1.3024
  647TMC3    C7 9637   4.301   2.237  15.644 -0.3867  0.0743 -0.0036
  647TMC3    C8 9638   4.083   1.853  15.694  0.7281  0.5020  1.2844
  647TMC3    O1 9639   4.373   2.221  15.740 -0.7605 -0.1887 -0.2660
  647TMC3    O2 9640   4.128   1.823  15.802  0.2612  0.4036 -0.1983
  648TMC3    C1 9641   3.150   4.605  16.204 -0.2246  0.1977  0.2732
  648TMC3    C2 9642   3.127   4.488  16.136 -0.7128 -0.4539 -0.5931
  648TMC3    C3 9643   3.098   4.493  16.002 -0.2594  0.1357 -0.1457
  648TMC3    C4 9644   3.151   4.731  16.143 -0.2597  0.0883 -0.8368
  648TMC3    C5 9645   3.123   4.725  16.009 -0.5484 -0.6271 -0.1217
  648TMC3    C6 9646   3.096   4.609  15.937 -0.2156 -0.3134 -0.0104
  648TMC3     C 9647   3.141   4.619  16.343 -0.1911 -0.9237 -0.3181
  648TMC3     O 9648   3.187   4.719  16.393  0.7473  0.2813  1.2024
  648TMC3     H 9649   3.123   4.389  16.180  0.9502  0.3201  1.2710
  648TMC3    H1 9650   3.171   0.094  16.190 -0.9404 -1.3037  2.2410
  648TMC3    H2 9651   3.087   4.606  15.829  1.7242  0.0236 -0.1795
  648TMC3    C7 9652   3.138   0.114  15.930  0.0507  0.0850  0.9615
  648TMC3    C8 9653   3.110   4.375  15.922 -0.0494 -1.0560  0.3964
  648TMC3    O1 9654   3.207   0.111  15.828 -0.1813  0.1894 -0.4220
  648TMC3    O2 9655   3.015   4.340  15.855  0.0341  0.0692 -0.5283
  649TMC3    C1 9656   2.244   1.236  13.301 -0.6627 -0.7900 -0.0509
  649TMC3    C2 9657   2.343   1.308  13.344 -0.6657  0.0097 -0.4218
  649TMC3    C3 9658   2.400   1.264  13.462  0.5547 -0.4275  0.2107
  649TMC3    C4 9659   2.197   1.124  13.367 -0.3273  0.0060 -0.1211
  649TMC3    C5 9660   2.274   1.076  13.469  0.1040 -0.3679 -0.1312
  649TMC3    C6 9661   2.378   1.145  13.527 -0.2199  0.1386 -0.0933
  649TMC3     C 9662   2.166   1.286  13.194 -0.6084 -0.2960  0.1328
  649TMC3     O 9663   2.049   1.252  13.178 -0.7121 -0.0234  0.2601
  649TMC3     H 9664   2.375   1.406  13.311 -2.8656  0.6738 -0.5569
  649TMC3    H1 9665   2.110   1.071  13.329 -0.2042 -1.1729  1.2807
  649TMC3    H2 9666   2.421   1.133  13.626 -1.9463 -1.2333  0.4976
  649TMC3    C7 9667   2.218   0.965  13.546 -0.0304 -0.2380  0.1829
  649TMC3    C8 9668   2.505   1.346  13.515  0.7093 -0.7669  0.6321
  649TMC3    O1 9669   2.105   0.926  13.527 -0.2764 -0.2744  0.2404
  649TMC3    O2 9670   2.598   1.291  13.569  0.1314 -0.1872 -0.5042
  650TMC3    C1 9671   4.490   2.611  12.655  0.4122  0.0071  0.4521
  650TMC3    C2 9672   4.424   2.704  12.729 -0.0424 -0.9193  1.1205
  650TMC3    C3 9673   4.296   2.727  12.695 -0.5005  0.1846  0.7347
  650TMC3    C4 9674   4.444   2.556  12.543 -0.1803 -0.3996 -0.4469
  650TMC3    C5 9675   4.315   2.592  12.504  0.5204  0.0768 -0.5434
  650TMC3    C6 9676   4.237   2.674  12.579  0.4631 -0.1974  0.0972
  650TMC3     C 9677   4.629   2.595  12.691  1.0448 -0.3007 -0.6356
  650TMC3     O 9678   4.688   2.701  12.703 -0.1039  0.0152  0.0921
  650TMC3     H 9679   4.465   2.735  12.825 -0.7712  0.5317  0.9710
  650TMC3    H1 9680   4.498   2.484  12.483  1.9391 -0.0654  1.0720
  650TMC3    H2 9681   4.135   2.697  12.552  1.2871  1.9304 -1.2139
  650TMC3    C7 9682   4.281   2.560  12.369  0.6369 -0.0454  0.1892
  650TMC3    C8 9683   4.272   2.871  12.713 -0.2156  0.2490  0.2676
  650TMC3    O1 9684   4.311   2.445  12.335  0.1361  0.0160 -0.6415
  650TMC3    O2 9685   4.372   2.944  12.710  0.3076  0.1349 -0.4123
  651MPD2     C 9686   3.505   0.142  11.352 -0.1434 -0.1760 -0.0118
  651MPD2    C1 9687   3.427   0.227  11.275  0.3301  0.4137  0.3754
  651MPD2    C2 9688   3.489   0.277  11.159 -0.3375 -0.7411 -0.3470
  651MPD2    C3 9689   3.625   0.271  11.141  0.1512  0.2415  0.2594
  651MPD2    C4 9690   3.702   0.203  11.230 -0.0690 -0.1894 -0.5481
  651MPD2    C5 9691   3.645   0.138  11.336 -0.0153 -0.4265  0.4407
  651MPD2     H 9692   3.438   0.350  11.097  1.5011  0.8055 -0.0251
  651MPD2    H1 9693   3.806   0.178  11.211 -0.7597 -2.1110 -1.8003
  651MPD2    H2 9694   3.464   0.094  11.440  0.6208  0.3724  0.6423
  651MPD2    H3 9695   3.707   0.063  11.384  1.3923  0.7635  0.5009
  651MPD2     N 9696   3.667   0.320  11.017  1.0646  1.0022 -0.0920
  651MPD2    H5 9697   3.594   0.347  10.952  0.9981  0.7277 -0.1326
  651MPD2    N1 9698   3.291   0.240  11.295 -0.0707  0.0625 -0.3271
  651MPD2    H7 9699   3.239   0.302  11.233  1.0010  1.1414 -0.1435
  652TMC3    C1 9700   3.961   0.427  10.663 -0.3032 -0.4567  0.4253
  652TMC3    C2 9701   3.927   0.359  10.779  0.6620 -0.2772  0.3014
  652TMC3    C3 9702   3.807   0.380  10.841  0.4546  0.2951  0.2000
  652TMC3    C4 9703   3.881   0.531  10.623  0.4686  0.3343  0.0192
  652TMC3    C5 9704   3.759   0.548  10.683  0.7076 -0.1545 -0.0300
  652TMC3    C6 9705   3.717   0.474  10.792 -0.2281 -0.0150 -0.2602
  652TMC3     C 9706   4.104   0.454  10.650 -0.6064  0.6757  0.8231
  652TMC3     O 9707   4.170   0.415  10.744 -0.0403  0.2909  0.2617
  652TMC3     H 9708   3.997   0.287  10.822  0.4457 -1.1311 -0.7836
  652TMC3    H1 9709   3.916   0.601  10.549 -0.6016  0.3636 -0.4662
  652TMC3    H2 9710   3.626   0.497  10.847  0.4115  0.3967  0.6286
  652TMC3    C7 9711   3.669   0.653  10.656 -0.8290  0.1367  0.1564
  652TMC3    C8 9712   3.791   0.329  10.978  0.3546 -0.4043  0.0975
  652TMC3    O1 9713   3.555   0.641  10.700  0.2672  0.1920  0.3088
  652TMC3    O2 9714   3.897   0.306  11.036 -0.3923 -0.0184  0.1918
  653MPD2     C 9715   2.229   0.018   0.166 -0.2497  0.4727  0.1634
  653MPD2    C1 9716   2.188   0.080   0.049  0.2764  0.8526  0.6309
  653MPD2    C2 9717   2.149   0.014  17.665 -0.1026 -0.1431 -0.2856
  653MPD2    C3 9718   2.149   4.610  17.679 -0.0584 -0.3854 -0.0140
  653MPD2    C4 9719   2.186   4.545   0.068  0.1047  0.5048 -0.1695
  653MPD2    C5 9720   2.228   4.615   0.180 -0.3000 -0.2101 -0.0815
  653MPD2     H 9721   2.137   0.065  17.570  0.2272  0.3517 -0.0597
  653MPD2    H1 9722   2.200   4.437   0.068  2.7090  0.8318  2.7885
  653MPD2    H2 9723   2.263   0.081   0.248  2.5514 -2.8701  1.5838
  653MPD2    H3 9724   2.263   4.572   0.273  2.7730  0.5162 -0.8839
  653MPD2     N 9725   2.108   4.538  17.559  0.1594 -0.0834 -0.0809
  653MPD2    H5 9726   2.074   4.585  17.476 -0.0268 -0.7101 -0.3587
  653MPD2    N1 9727   2.180   0.217   0.032  0.1498  0.3013  0.4503
  653MPD2    H7 9728   2.156   0.253  17.669 -2.1114 -0.4261  0.7715
  654TMC3    C1 9729   2.082   4.377  17.401 -0.0383  0.4586 -0.3476
  654TMC3    C2 9730   2.102   4.468  17.299 -0.5029  0.2117  0.5703
  654TMC3    C3 9731   2.086   4.430  17.168 -0.5328 -0.0687  0.8012
  654TMC3    C4 9732   2.038   4.248  17.370  0.0756  0.1986  0.6245
  654TMC3    C5 9733   2.013   4.215  17.239 -0.4173  0.1819 -0.1351
  654TMC3    C6 9734   2.033   4.305  17.137 -0.9079  0.4937 -0.7847
  654TMC3     C 9735   2.109   4.403  17.538  0.7385  0.4495  0.0259
  654TMC3     O 9736   2.114   4.310  17.615 -0.2132  0.0870 -0.0454
  654TMC3     H 9737   2.161   4.556  17.322 -0.3139 -0.2642  1.9290
  654TMC3    H1 9738   2.021   4.186  17.457  2.6129 -2.8560 -1.0284
  654TMC3    H2 9739   2.013   4.268  17.037 -0.3350 -0.7493 -0.4451
  654TMC3    C7 9740   1.995   4.078  17.203  0.4389 -0.6789  0.2235
  654TMC3    C8 9741   2.105   4.535  17.065  0.1239 -0.2073 -0.2901
  654TMC3    O1 9742   1.940   4.068  17.093  0.2259 -0.1258 -0.3294
  654TMC3    O2 9743   2.096   4.654  17.093 -0.4906 -0.2030 -0.3664
  655MPD2     C 9744   3.766   4.627  15.776  0.2278  0.2417  0.2785
  655MPD2    C1 9745   3.732   0.004  15.701 -0.2100 -0.1038  0.5310
  655MPD2    C2 9746   3.688   4.722  15.570 -0.5568 -0.0264 -0.8650
  655MPD2    C3 9747   3.691   4.600  15.512 -0.2026 -0.0200 -0.1930
  655MPD2    C4 9748   3.739   4.495  15.589 -0.6434  0.3621 -0.2668
  655MPD2    C5 9749   3.766   4.503  15.723 -0.0555 -0.6216  0.5186
  655MPD2     H 9750   3.642   0.074  15.520 -2.2232 -0.9301 -0.8520
  655MPD2    H1 9751   3.770   4.407  15.533  2.2420  1.1768  0.0494
  655MPD2    H2 9752   3.790   4.633  15.881 -0.3389  0.9086  0.3661
  655MPD2    H3 9753   3.788   4.414  15.782  0.0098 -0.3026  0.9735
  655MPD2     N 9754   3.647   4.571  15.378 -0.4940  0.3684 -0.1227
  655MPD2    H5 9755   3.639   4.473  15.352 -2.0227  0.0674  1.4488
  655MPD2    N1 9756   3.718   0.133  15.751 -0.6214 -0.5414  0.7242
  655MPD2    H7 9757   3.687   0.205  15.686  1.7877 -1.1727 -1.1105
  656TMC3    C1 9758   3.638   0.290  15.918  0.7155 -0.1264 -0.1248
  656TMC3    C2 9759   3.561   0.280  16.033  0.4435 -0.1229  0.1893
  656TMC3    C3 9760   3.481   0.391  16.072  0.1463  0.0221  0.5424
  656TMC3    C4 9761   3.635   0.401  15.841 -0.0081 -0.2982  0.1208
  656TMC3    C5 9762   3.551   0.510  15.881 -0.3217 -0.6074  1.2319
  656TMC3    C6 9763   3.475   0.509  15.994  0.0839  0.3292 -0.0774
  656TMC3     C 9764   3.716   0.168  15.883 -0.1026  0.4998 -0.2222
  656TMC3     O 9765   3.741   0.097  15.982  0.0128 -0.3144 -0.3877
  656TMC3     H 9766   3.553   0.178  16.068 -1.0514 -0.1819 -0.3011
  656TMC3    H1 9767   3.705   0.415  15.760  0.1165 -1.0897  0.0953
  656TMC3    H2 9768   3.400   0.584  16.016 -1.0636 -1.2873  1.5456
  656TMC3    C7 9769   3.547   0.632  15.809  0.2450  0.1308 -0.8784
  656TMC3    C8 9770   3.379   0.372  16.176 -0.2756  0.3078  0.2886
  656TMC3    O1 9771   3.622   0.637  15.711  0.3995  0.0501 -0.6184
  656TMC3    O2 9772   3.346   0.253  16.196  0.7098 -0.6131  0.3151
  657TMC3    C1 9773   2.453   4.150  15.189  0.5045  0.1696  0.0614
  657TMC3    C2 9774   2.458   4.152  15.326 -0.4890 -0.2591  0.4874
  657TMC3    C3 9775   2.411   4.262  15.386  0.1960  0.3765  0.6439
  657TMC3    C4 9776   2.409   4.254  15.109  0.1342 -0.5983 -0.9525
  657TMC3    C5 9777   2.353   4.357  15.179  0.5075  0.0633  0.1362
  657TMC3    C6 9778   2.354   4.361  15.317  0.2807  0.0038  0.0073
  657TMC3     C 9779   2.516   4.033  15.127 -0.4818 -0.2413  0.9903
  657TMC3     O 9780   2.476   4.001  15.011  0.2241 -0.2807  0.3207
  657TMC3     H 9781   2.505   4.077  15.389 -1.0690  0.7000  2.0520
  657TMC3    H1 9782   2.403   4.247  15.001  1.4084  1.8481 -1.1960
  657TMC3    H2 9783   2.305   4.447  15.359  0.7805 -0.3585  1.3382
  657TMC3    C7 9784   2.275   4.457  15.102  0.6224  0.2874  0.3971
  657TMC3    C8 9785   2.392   4.245  15.528  0.0010  0.0467  0.0957
  657TMC3    O1 9786   2.174   4.501  15.159  0.2894 -0.4423 -0.5440
  657TMC3    O2 9787   2.401   4.134  15.578 -0.2249  0.1959 -0.0981
  658MPD2     C 9788   4.052   0.090  14.782  1.0164 -0.0937 -0.4406
  658MPD2    C1 9789   3.950   0.002  14.756  0.3625 -0.2405  0.3123
  658MPD2    C2 9790   3.955   4.675  14.628 -0.0213 -0.6714 -0.0204
  658MPD2    C3 9791   4.041   4.713  14.537  0.1739  0.1902 -0.3718
  658MPD2    C4 9792   4.142   0.068  14.573  0.7786 -0.0283 -0.1378
  658MPD2    C5 9793   4.154   0.124  14.694  0.3054  0.3466 -0.0051
  658MPD2     H 9794   3.880   4.601  14.601 -1.2255  0.8416 -0.8057
  658MPD2    H1 9795   4.212   0.108  14.501  1.0824 -0.3375 -0.0173
  658MPD2    H2 9796   4.043   0.149  14.873 -0.2057  1.1971 -1.3839
  658MPD2    H3 9797   4.235   0.189  14.722 -0.6659  2.1055 -1.2723
  658MPD2     N 9798   4.046   4.648  14.413  0.3632 -0.0159  0.3652
  658MPD2    H5 9799   3.976   4.576  14.397  2.1328 -1.5905 -0.2558
  658MPD2    N1 9800   3.852   4.697  14.854 -0.4453  0.3335 -0.2193
  658MPD2    H7 9801   3.863   4.722  14.951  0.5071 -0.2324 -0.1860
  659TMC3    C1 9802   3.651   4.611  14.938 -0.6448 -0.1888  0.1844
  659TMC3    C2 9803   3.678   4.668  15.062 -0.4593 -0.5651  0.0247
  659TMC3    C3 9804   3.590   4.623  15.161 -0.1361  0.0452  0.5201
  659TMC3    C4 9805   3.525   4.553  14.906 -1.1442 -0.2488 -0.0011
  659TMC3    C5 9806   3.431   4.547  15.011  0.0037  0.1267  0.4777
  659TMC3    C6 9807   3.463   4.578  15.141  1.1821  0.6583  1.4477
  659TMC3     C 9808   3.745   4.615  14.835 -0.1421 -0.0554  0.2811
  659TMC3     O 9809   3.700   4.563  14.732 -0.0708  0.8452  0.6221
  659TMC3     H 9810   3.781   4.681  15.094 -0.3019  0.2482 -0.8270
  659TMC3    H1 9811   3.501   4.502  14.813 -0.2730 -0.1302 -0.2825
  659TMC3    H2 9812   3.393   4.578  15.224  1.4974  0.0205  1.7109
  659TMC3    C7 9813   3.292   4.553  14.986 -0.1244 -0.3078 -0.3022
  659TMC3    C8 9814   3.625   4.674  15.285 -0.1850 -0.2547 -0.7604
  659TMC3    O1 9815   3.227   4.582  15.083 -0.1606  0.1663  0.0000
  659TMC3    O2 9816   3.655   0.060  15.297  0.2179  0.0225  0.6693
  660MPD2     C 9817   1.744   3.600  12.893  0.3632 -0.3092 -0.4766
  660MPD2    C1 9818   1.613   3.583  12.854  0.2388  0.4543 -0.0946
  660MPD2    C2 9819   1.545   3.469  12.884  0.4779 -0.2076  0.2310
  660MPD2    C3 9820   1.602   3.378  12.965 -0.0464  0.0558 -0.5023
  660MPD2    C4 9821   1.730   3.395  13.013 -0.1397 -0.7888 -0.0952
  660MPD2    C5 9822   1.801   3.501  12.970 -0.6644  0.5848 -0.1668
  660MPD2     H 9823   1.447   3.449  12.843  0.5003  1.1043 -0.4732
  660MPD2    H1 9824   1.785   3.320  13.070  0.4897 -0.4652 -0.2722
  660MPD2    H2 9825   1.799   3.685  12.855  0.2780 -0.0445 -0.0055
  660MPD2    H3 9826   1.902   3.516  13.007 -0.1140 -1.1929 -0.9630
  660MPD2     N 9827   1.530   3.255  13.005  0.1320  0.0023 -0.0340
  660MPD2    H5 9828   1.571   3.183  13.064 -1.6974 -1.7093 -0.8523
  660MPD2    N1 9829   1.553   3.690  12.788 -0.4277 -0.1423 -0.5385
  660MPD2    H7 9830   1.618   3.760  12.751  0.2673 -0.9383 -0.8161
  661TMC3    C1 9831   1.396   3.781  12.645 -0.9852 -0.6473 -0.7317
  661TMC3    C2 9832   1.489   3.788  12.546 -0.0218 -0.3554 -0.2112
  661TMC3    C3 9833   1.449   3.823  12.422  0.5978  0.4492  0.1544
  661TMC3    C4 9834   1.265   3.808  12.619 -0.0494 -0.1134 -0.0944
  661TMC3    C5 9835   1.230   3.846  12.492 -0.2589 -0.4630 -0.0003
  661TMC3    C6 9836   1.322   3.861  12.395 -0.1361 -0.4726 -0.4527
  661TMC3     C 9837   1.417   3.701  12.764 -0.6173  0.3806 -0.9687
  661TMC3     O 9838   1.320   3.642  12.809 -0.0090 -0.2120  0.7549
  661TMC3     H 9839   1.593   3.762  12.564 -0.1605  0.0923  1.2103
  661TMC3    H1 9840   1.194   3.793  12.699  0.0304  0.2354  0.0438
  661TMC3    H2 9841   1.286   3.900  12.300 -1.4134 -1.9293 -0.5682
  661TMC3    C7 9842   1.095   3.853  12.460 -0.4417  0.1483 -0.5201
  661TMC3    C8 9843   1.524   3.769  12.313 -0.2277  0.1940 -0.7518
  661TMC3    O1 9844   1.019   3.855  12.555 -1.2447  0.2269  0.6226
  661TMC3    O2 9845   1.591   3.675  12.343  0.0900 -0.0054  0.3340
  662MPD2     C 9846   2.128   3.316   0.714 -0.8613  0.8691 -0.4455
  662MPD2    C1 9847   1.998   3.292   0.663  0.3223 -0.1337 -0.4956
  662MPD2    C2 9848   1.903   3.397   0.647  0.2643 -0.0875  0.4431
  662MPD2    C3 9849   1.931   3.524   0.690  0.3739  0.0986 -0.0163
  662MPD2    C4 9850   2.056   3.546   0.737  0.7773 -0.2982 -0.3113
  662MPD2    C5 9851   2.150   3.446   0.749  0.0224 -0.0610  0.9165
  662MPD2     H 9852   1.814   3.381   0.588  0.1654 -1.0447  0.8546
  662MPD2    H1 9853   2.077   3.649   0.764  1.4284 -1.0443  2.0441
  662MPD2    H2 9854   2.201   3.237   0.728 -0.1694  1.5828 -0.0323
  662MPD2    H3 9855   2.249   3.472   0.784  0.1912  0.7996 -0.1807
  662MPD2     N 9856   1.841   3.628   0.675  0.7081 -0.1617 -0.1415
  662MPD2    H5 9857   1.884   3.718   0.697  0.5272  0.7339 -3.3831
  662MPD2    N1 9858   1.949   3.166   0.624 -0.1235 -0.4837  0.1786
  662MPD2    H7 9859   1.851   3.166   0.598  0.4891  2.1784 -2.0527
  663TMC3    C1 9860   1.949   2.946   0.554  0.1728 -0.2876 -0.3788
  663TMC3    C2 9861   1.823   2.989   0.512  0.3704 -0.6868  0.2298
  663TMC3    C3 9862   1.764   2.910   0.408  0.5197 -0.3404  0.1409
  663TMC3    C4 9863   2.027   2.867   0.480 -0.2368  0.2747  0.4356
  663TMC3    C5 9864   1.972   2.812   0.366 -0.7623  0.1486  0.3311
  663TMC3    C6 9865   1.840   2.815   0.342 -0.2038 -0.5637  0.6610
  663TMC3     C 9866   2.023   3.051   0.617 -0.9309  0.6751  0.2575
  663TMC3     O 9867   2.143   3.034   0.633 -0.2571 -0.2650 -0.4192
  663TMC3     H 9868   1.750   3.049   0.566 -0.3435  0.4041 -1.9190
  663TMC3    H1 9869   2.134   2.862   0.499 -0.2751  0.0112  0.5808
  663TMC3    H2 9870   1.809   2.797   0.240 -0.4785 -2.8895  1.1457
  663TMC3    C7 9871   2.053   2.770   0.263  0.6915 -0.2124  0.4174
  663TMC3    C8 9872   1.700   2.999   0.308 -0.2818 -0.0353 -0.0950
  663TMC3    O1 9873   2.163   2.826   0.260 -0.2155  0.1134 -0.1953
  663TMC3    O2 9874   1.738   2.989   0.188 -0.4209 -0.9419 -0.4531
  664MPD2     C 9875   0.375   1.458  17.656 -0.3637 -0.1676 -0.0748
  664MPD2    C1 9876   0.440   1.575  17.694 -0.4821 -0.2799 -0.5102
  664MPD2    C2 9877   0.399   1.650   0.071 -0.3755  0.5519  0.2095
  664MPD2    C3 9878   0.277   1.605   0.133 -0.2752  0.2845 -0.1625
  664MPD2    C4 9879   0.224   1.478   0.110 -0.2375 -0.1220 -0.0507
  664MPD2    C5 9880   0.275   1.407   0.003 -0.4878  0.5811  0.2690
  664MPD2     H 9881   0.452   1.737   0.107  2.1385 -0.3823 -1.2396
  664MPD2    H1 9882   0.153   1.430   0.176 -2.2402  0.9078 -1.4523
  664MPD2    H2 9883   0.424   1.403  17.576  2.8402  2.4221  0.1368
  664MPD2    H3 9884   0.233   1.309  17.713  1.0154  0.6377 -3.6491
  664MPD2     N 9885   0.232   1.682   0.240 -0.5639 -0.6474 -0.0018
  664MPD2    H5 9886   0.291   1.759   0.268 -2.8784  1.4834 -0.9240
  664MPD2    N1 9887   0.558   1.626  17.631  0.4758  0.1700 -0.0484
  664MPD2    H7 9888   0.576   1.721  17.660  1.2495  0.0120 -0.0244
  665TMC3    C1 9889   0.077   1.734   0.420  0.1148 -0.1397  0.2283
  665TMC3    C2 9890   4.680   1.766   0.439 -0.3137  0.1000  0.3350
  665TMC3    C3 9891   4.652   1.857   0.542  0.2712  0.5214 -0.1251
  665TMC3    C4 9892   0.180   1.798   0.486  0.3000  0.3809  0.2101
  665TMC3    C5 9893   0.145   1.884   0.585 -0.7655 -0.7183 -0.0954
  665TMC3    C6 9894   0.019   1.911   0.613  0.5042 -0.1623 -0.1745
  665TMC3     C 9895   0.106   1.663   0.301 -0.2354 -0.3359 -0.2458
  665TMC3     O 9896   0.011   1.595   0.258 -0.0814  0.4075 -0.1034
  665TMC3     H 9897   4.600   1.710   0.393 -0.0042 -2.3382  2.7779
  665TMC3    H1 9898   0.284   1.773   0.465 -0.8421 -1.1472 -3.5295
  665TMC3    H2 9899   4.718   1.997   0.668  0.2190  0.1981 -0.9020
  665TMC3    C7 9900   0.256   1.967   0.634 -0.4038 -0.1453 -0.3742
  665TMC3    C8 9901   4.515   1.895   0.575  0.5077 -0.8134  0.7962
  665TMC3    O1 9902   0.367   1.928   0.608 -0.8586 -0.8128  0.1875
  665TMC3    O2 9903   4.500   1.960   0.674 -0.1752 -0.0634  0.2814
  666TMC3    C1 9904   3.304   1.878   9.643 -0.1595 -0.2069 -0.1562
  666TMC3    C2 9905   3.398   1.813   9.569  0.0167  0.4460 -0.0140
  666TMC3    C3 9906   3.519   1.878   9.550 -0.2616  0.0468  0.7689
  666TMC3    C4 9907   3.329   2.002   9.693  0.7515  0.3827 -0.4548
  666TMC3    C5 9908   3.443   2.068   9.657 -0.8253 -0.7277 -0.0421
  666TMC3    C6 9909   3.545   2.010   9.583 -0.1603 -0.7790 -0.3213
  666TMC3     C 9910   3.224   1.790   9.720  0.1192 -0.6494 -0.2156
  666TMC3     O 9911   3.204   1.825   9.834 -0.0116  0.3416 -0.6854
  666TMC3     H 9912   3.396   1.707   9.547 -0.6371  0.5505 -0.4543
  666TMC3    H1 9913   3.253   2.056   9.749 -0.5448 -1.5990 -0.2756
  666TMC3    H2 9914   3.644   2.053   9.586 -0.6525  0.4154 -1.3719
  666TMC3    C7 9915   3.459   2.197   9.726  0.3550  0.1620  0.4810
  666TMC3    C8 9916   3.626   1.793   9.599 -0.0784 -1.0007 -0.3481
  666TMC3    O1 9917   3.369   2.217   9.815  0.2157  0.2138 -0.0772
  666TMC3    O2 9918   3.592   1.683   9.640 -0.3859 -0.1987  0.0319
  667MPD2     C 9919   0.596   1.994  14.576 -0.3867  0.0267  0.2016
  667MPD2    C1 9920   0.574   1.947  14.703  0.0768  0.4491 -0.1903
  667MPD2    C2 9921   0.484   1.841  14.724 -0.4438  0.0659 -0.3848
  667MPD2    C3 9922   0.417   1.788  14.610  0.0904 -0.5799  0.0271
  667MPD2    C4 9923   0.437   1.845  14.491 -0.4264  0.2451 -0.4167
  667MPD2    C5 9924   0.525   1.947  14.476 -0.4882  0.0323  0.2353
  667MPD2     H 9925   0.454   1.809  14.823  0.2046 -1.3106 -0.6333
  667MPD2    H1 9926   0.391   1.811  14.399 -1.2205  1.2736 -0.4082
  667MPD2    H2 9927   0.665   2.076  14.558  1.0409 -1.1389  0.4404
  667MPD2    H3 9928   0.535   2.000  14.382  0.5156 -0.8522 -0.1610
  667MPD2     N 9929   0.333   1.667  14.612 -0.5741  0.9537  0.5957
  667MPD2    H5 9930   0.299   1.635  14.522  5.2495  0.3012 -1.3425
  667MPD2    N1 9931   0.644   1.990  14.815 -0.0357 -0.1106  0.2242
  667MPD2    H7 9932   0.604   1.967  14.905 -0.3246 -1.0284 -0.1321
  668TMC3    C1 9933   0.792   2.108  14.946  0.0535 -0.1009  0.5510
  668TMC3    C2 9934   0.865   2.219  14.965 -0.4927  0.3354  0.5873
  668TMC3    C3 9935   0.906   2.247  15.093  0.8680 -0.1551 -0.1051
  668TMC3    C4 9936   0.767   2.015  15.040  0.6408 -0.2737  0.3635
  668TMC3    C5 9937   0.792   2.051  15.167 -0.2012  0.5927  0.1417
  668TMC3    C6 9938   0.864   2.160  15.192 -0.0359 -0.0664  0.0510
  668TMC3     C 9939   0.759   2.072  14.809 -0.2270 -0.1923 -0.3255
  668TMC3     O 9940   0.822   2.112  14.715  0.2921  0.7699  0.5516
  668TMC3     H 9941   0.867   2.292  14.884 -2.8087  1.6380  1.7026
  668TMC3    H1 9942   0.712   1.924  15.020 -1.4614  0.5498  2.4381
  668TMC3    H2 9943   0.903   2.170  15.293 -2.7223 -0.0204  1.0854
  668TMC3    C7 9944   0.755   1.961  15.276 -1.2196 -0.0397 -0.5623
  668TMC3    C8 9945   0.997   2.362  15.130 -0.0759 -0.3770  0.4577
  668TMC3    O1 9946   0.828   1.945  15.376  0.2271  0.3661 -0.2731
  668TMC3    O2 9947   1.012   2.388  15.249 -0.1974 -0.1051 -0.3921
  669TMC3    C1 9948   4.268   1.591  14.776  0.3157 -0.7436  0.1858
  669TMC3    C2 9949   4.172   1.563  14.688 -0.2161  0.3867  0.3481
  669TMC3    C3 9950   4.120   1.663  14.615 -0.2984 -0.2536  0.2212
  669TMC3    C4 9951   4.298   1.719  14.800 -0.1030 -0.0940 -0.3527
  669TMC3    C5 9952   4.235   1.819  14.731 -0.2957 -0.8926 -0.1669
  669TMC3    C6 9953   4.138   1.795  14.633 -0.2701  0.3214 -0.3272
  669TMC3     C 9954   4.287   1.490  14.880  0.4805  0.3287 -0.3507
  669TMC3     O 9955   4.213   1.396  14.893  0.1562 -0.3099 -0.4914
  669TMC3     H 9956   4.144   1.460  14.669  0.0528  1.1231 -4.1442
  669TMC3    H1 9957   4.377   1.754  14.867  0.5831 -0.6261 -0.8926
  669TMC3    H2 9958   4.092   1.869  14.569 -1.0049  1.2770  1.3045
  669TMC3    C7 9959   4.301   1.950  14.738 -0.4022  0.0037  0.3730
  669TMC3    C8 9960   4.040   1.615  14.498  0.0912 -0.6413  0.1432
  669TMC3    O1 9961   4.396   1.965  14.815 -0.2519  0.0169 -0.6294
  669TMC3    O2 9962   3.996   1.501  14.505 -0.0166 -0.2911 -0.9090
  670MPD2     C 9963   2.056   4.225  13.541  0.9627  0.1961  0.6437
  670MPD2    C1 9964   2.152   4.136  13.580 -0.3430 -0.3020  0.2225
  670MPD2    C2 9965   2.127   4.039  13.674  0.0557  0.2185  0.4047
  670MPD2    C3 9966   2.004   4.019  13.728  0.1672 -0.6284 -0.3106
  670MPD2    C4 9967   1.906   4.110  13.694 -0.1001 -1.1468  0.1789
  670MPD2    C5 9968   1.933   4.207  13.597  0.3688 -0.3397 -0.3903
  670MPD2     H 9969   2.208   3.972  13.703 -1.0922 -1.1673  0.4090
  670MPD2    H1 9970   1.809   4.099  13.741  0.5435  1.9163  2.2415
  670MPD2    H2 9971   2.074   4.304  13.468  0.2644 -0.3064 -0.0759
  670MPD2    H3 9972   1.853   4.276  13.576  0.4897  0.5921  2.1520
  670MPD2     N 9973   1.988   3.912  13.811  0.1043  0.0730  0.1292
  670MPD2    H5 9974   2.072   3.859  13.832 -0.9323 -0.4341  2.9367
  670MPD2    N1 9975   2.280   4.160  13.534  0.7974 -0.0887  0.5673
  670MPD2    H7 9976   2.285   4.243  13.476 -1.4711 -0.2024  0.2220
  671TMC3    C1 9977   1.878   3.776  13.964 -0.3955  0.5139 -0.7245
  671TMC3    C2 9978   1.995   3.769  14.032  0.2180  0.2967 -0.2211
  671TMC3    C3 9979   1.992   3.711  14.162 -1.0318  0.5537  0.5304
  671TMC3    C4 9980   1.761   3.728  14.012  0.4407  0.2132 -0.7692
  671TMC3    C5 9981   1.760   3.657  14.129  0.3010 -0.0756 -0.3501
  671TMC3    C6 9982   1.877   3.645  14.204 -0.0391 -0.3978 -0.2755
  671TMC3     C 9983   1.866   3.875  13.858  0.2093 -0.3803 -0.2909
  671TMC3     O 9984   1.753   3.896  13.816 -0.1048 -0.5881  0.1529
  671TMC3     H 9985   2.087   3.799  13.984 -1.0049  4.8552  0.2404
  671TMC3    H1 9986   1.674   3.734  13.948  1.9754 -2.3501 -3.0985
  671TMC3    H2 9987   1.876   3.594  14.300  0.2216  1.2366  0.5837
  671TMC3    C7 9988   1.658   3.553  14.140 -0.2924 -0.1385  0.1239
  671TMC3    C8 9989   2.121   3.684  14.224  0.1446 -0.0570  0.2969
  671TMC3    O1 9990   1.701   3.435  14.136 -0.0125  0.1705 -0.6285
  671TMC3    O2 9991   2.220   3.682  14.153 -0.5679  0.1796 -0.0295
  672MPD2     C 9992   2.317   0.523   0.844  0.0909 -0.6309  0.0070
  672MPD2    C1 9993   2.350   0.390   0.837  0.3948  0.5924 -0.0139
  672MPD2    C2 9994   2.484   0.348   0.843 -0.5557  0.5735 -0.0224
  672MPD2    C3 9995   2.585   0.443   0.846  0.5807  0.1776  0.2027
  672MPD2    C4 9996   2.554   0.579   0.854  0.1597 -0.1965 -0.2860
  672MPD2    C5 9997   2.419   0.614   0.852  0.3416  0.4878  0.0371
  672MPD2     H 9998   2.512   0.243   0.848  1.4449  1.0256 -1.8187
  672MPD2    H1 9999   2.622   0.664   0.850  2.0438 -1.6761  0.5084
  672MPD2    H210000   2.215   0.561   0.847 -0.9936 -3.4565 -1.5268
  672MPD2    H310001   2.391   0.719   0.855  0.1978  0.4627 -0.3570
  672MPD2     N10002   2.720   0.420   0.829  0.4746  0.2119  0.3147
  672MPD2    H510003   2.778   0.502   0.845  1.7300 -0.5264 -0.4566
  672MPD2    N110004   2.247   0.288   0.830 -0.0663 -0.0478  0.0310
  672MPD2    H710005   2.266   0.191   0.805  0.1581 -0.2878  1.1420
  673TMC3    C110006   2.037   0.196   0.810  0.1593 -0.7694  0.5950
  673TMC3    C210007   2.082   0.069   0.834 -0.0647  0.5985  0.1379
  673TMC3    C310008   1.996   4.698   0.791  0.0831  0.6804  0.5777
  673TMC3    C410009   1.933   0.215   0.722 -0.6214  0.3623 -0.0358
  673TMC3    C510010   1.863   0.109   0.681  1.0079 -0.5634  0.1990
  673TMC3    C610011   1.883   4.712   0.717 -0.3018  0.2565 -0.0195
  673TMC3     C10012   2.113   0.309   0.852  0.9391  0.2343 -0.3851
  673TMC3     O10013   2.050   0.412   0.874  0.2735 -0.6266 -0.1544
  673TMC3     H10014   2.162   0.056   0.906 -0.0285  0.2556  0.0338
  673TMC3    H110015   1.922   0.315   0.684  0.0217 -0.1675 -1.6214
  673TMC3    H210016   1.826   4.630   0.673  0.2237 -0.1537  0.0597
  673TMC3    C710017   1.826   0.124   0.536 -0.2259 -0.2009 -0.3966
  673TMC3    C810018   1.998   4.567   0.859 -0.2490  1.4509 -0.0193
  673TMC3    O110019   1.884   0.043   0.458  0.2426 -0.0968  0.0860
  673TMC3    O210020   1.887   4.513   0.866  0.8980  0.2736  0.2378
  674MPD2     C10021   1.786   3.991  17.537  0.2069 -1.0208  0.2340
  674MPD2    C110022   1.846   4.034  17.656 -0.2873 -0.5167 -0.0220
  674MPD2    C210023   1.800   4.154  17.704  0.5199 -0.8995  0.6843
  674MPD2    C310024   1.722   4.235  17.626  0.3525  0.3433 -0.0317
  674MPD2    C410025   1.667   4.196  17.510  0.1443  0.2877  1.3003
  674MPD2    C510026   1.711   4.072  17.464 -0.1444  0.5401  0.2922
  674MPD2     H10027   1.852   4.189   0.064 -0.5486  0.1964  0.8740
  674MPD2    H110028   1.601   4.261  17.455  1.3834  2.2531  2.1601
  674MPD2    H210029   1.817   3.899  17.487 -1.5560 -1.7884  0.5675
  674MPD2    H310030   1.666   4.040  17.371  4.3088  1.6023 -2.1883
  674MPD2     N10031   1.714   4.377  17.666  0.3349 -0.2059 -0.1586
  674MPD2    H510032   1.756   4.399   0.027  0.5440  0.9065 -0.5281
  674MPD2    N110033   1.940   3.956   0.006  0.4567 -0.2812 -0.6952
  674MPD2    H710034   1.978   4.017   0.078 -1.8694  0.4488 -0.0985
  675TMC3    C110035   2.112   3.799   0.049 -0.1420  0.0080 -0.1408
  675TMC3    C210036   2.137   3.863   0.164 -0.5299  0.4942 -0.2999
  675TMC3    C310037   2.271   3.878   0.194 -0.1751 -0.0404 -0.3578
  675TMC3    C410038   2.205   3.742  17.700 -0.8303  0.4169 -0.5143
  675TMC3    C510039   2.337   3.762   0.008 -0.6222 -0.2425 -0.5344
  675TMC3    C610040   2.374   3.832   0.122  0.2823  0.7418  0.1569
  675TMC3     C10041   1.990   3.828  17.700  0.2293  0.8832  0.3732
  675TMC3     O10042   1.945   3.744  17.619  0.6104  0.0871 -0.5125
  675TMC3     H10043   2.064   3.886   0.241 -0.9218  0.0928 -0.5587
  675TMC3    H110044   2.185   3.682  17.612 -0.3588  0.5911 -0.7471
  675TMC3    H210045   2.479   3.853   0.142 -0.1183  0.4862  2.5236
  675TMC3    C710046   2.435   3.698  17.653  0.2582  0.3348  0.1606
  675TMC3    C810047   2.313   3.948   0.316 -0.5546  0.6581  0.0501
  675TMC3    O110048   2.398   3.691  17.536 -0.0163 -0.1375 -0.4142
  675TMC3    O210049   2.430   3.985   0.320  0.0240 -0.5359 -0.0652
  676MPD2     C10050   4.229   2.574  10.893  0.1639 -0.0485 -0.7672
  676MPD2    C110051   4.276   2.477  10.985 -0.1586  0.1925  0.4076
  676MPD2    C210052   4.322   2.356  10.945  0.7622 -1.0992 -0.3715
  676MPD2    C310053   4.310   2.318  10.813  0.3703  0.8126 -0.5902
  676MPD2    C410054   4.253   2.403  10.723  0.7156 -0.7083  0.0884
  676MPD2    C510055   4.229   2.534  10.764  0.2613  0.2017 -0.6376
  676MPD2     H10056   4.342   2.275  11.014  1.8967  1.4365  2.2704
  676MPD2    H110057   4.271   2.376  10.619  0.3210 -1.1254  0.1254
  676MPD2    H210058   4.197   2.675  10.915 -0.2805 -0.3934  0.1389
  676MPD2    H310059   4.196   2.603  10.687  0.5643 -0.2283 -1.1532
  676MPD2     N10060   4.356   2.193  10.766 -0.0755  0.4000 -0.5195
  676MPD2    H510061   4.347   2.178  10.666  0.0845  1.3681 -0.6723
  676MPD2    N110062   4.270   2.497  11.124  0.2225  0.4829  0.2898
  676MPD2    H710063   4.325   2.436  11.184 -0.9432 -1.5049 -0.6585
  677TMC3    C110064   4.227   2.586  11.327 -0.6409 -0.4211 -0.1763
  677TMC3    C210065   4.162   2.482  11.382  1.1624  0.0195 -0.5281
  677TMC3    C310066   4.167   2.474  11.515 -0.5774 -0.4697 -0.2272
  677TMC3    C410067   4.271   2.693  11.403 -0.4774 -0.3782 -0.5762
  677TMC3    C510068   4.255   2.692  11.538  0.5223  0.5908  0.2767
  677TMC3    C610069   4.206   2.578  11.593  0.4192 -0.0227  0.3609
  677TMC3     C10070   4.219   2.614  11.183 -0.1556  0.3707  0.6013
  677TMC3     O10071   4.189   2.722  11.138 -0.3921  0.3915  0.0033
  677TMC3     H10072   4.122   2.403  11.320  0.3599  1.0995 -1.3943
  677TMC3    H110073   4.307   2.782  11.353 -0.4462  0.7663  1.4710
  677TMC3    H210074   4.199   2.578  11.701  0.3716  1.8479  0.3495
  677TMC3    C710075   4.343   2.769  11.614  0.4877 -0.2482 -0.4341
  677TMC3    C810076   4.098   2.362  11.578 -0.6460 -0.2420  0.2074
  677TMC3    O110077   4.316   2.781  11.734 -0.2129  0.3083  0.1331
  677TMC3    O210078   3.997   2.326  11.519  0.1341 -0.5329  0.7311
  678MPD2     C10079   1.011   3.194   1.894  0.0528  0.3396  0.3258
  678MPD2    C110080   0.974   3.248   1.768  0.2453 -0.0237 -0.0116
  678MPD2    C210081   0.901   3.168   1.687  0.2407  0.0007 -0.1242
  678MPD2    C310082   0.867   3.036   1.724 -0.2023 -0.3074 -0.2107
  678MPD2    C410083   0.915   2.985   1.845  0.0469  0.4230 -0.0379
  678MPD2    C510084   0.986   3.069   1.930 -0.0013 -0.4320  0.7821
  678MPD2     H10085   0.866   3.204   1.591 -0.2919  0.1611  0.1267
  678MPD2    H110086   0.900   2.881   1.871  2.5345 -0.2195 -1.1411
  678MPD2    H210087   1.057   3.249   1.976  2.4583 -1.3617  0.1312
  678MPD2    H310088   1.020   3.028   2.025 -0.5520 -0.7141  0.8616
  678MPD2     N10089   0.779   2.967   1.644 -0.6517 -0.3027 -0.1360
  678MPD2    H510090   0.740   3.029   1.574  4.3506  1.9715 -0.9315
  678MPD2    N110091   1.003   3.384   1.722  0.5812 -0.2538 -0.6216
  678MPD2    H710092   0.960   3.408   1.634  0.6846  2.7138  0.1257
  679TMC3    C110093   1.246   3.693   1.591 -0.5721 -1.5174 -1.5185
  679TMC3    C210094   1.222   3.626   1.707  0.1203  0.1684 -0.4935
  679TMC3    C310095   1.095   3.597   1.739  0.2101 -0.4870  0.4787
  679TMC3    C410096   1.135   3.755   1.522  0.0129  0.4006 -0.0316
  679TMC3    C510097   1.009   3.735   1.574  0.3309  0.5742 -0.0131
  679TMC3    C610098   0.992   3.646   1.677  0.8202  0.3173 -0.1349
  679TMC3     C10099   1.379   3.680   1.532  0.1912  0.0394 -0.1987
  679TMC3     O10100   1.464   3.631   1.602 -0.1750  0.7416 -0.0307
  679TMC3     H10101   1.303   3.570   1.751 -1.8636 -0.1114  2.7484
  679TMC3    H110102   1.158   3.814   1.434  0.2175  2.3679  1.3272
  679TMC3    H210103   0.893   3.626   1.719  0.8268  0.1000 -0.2217
  679TMC3    C710104   0.890   3.764   1.487 -0.0132  0.3415  0.0951
  679TMC3    C810105   1.090   3.467   1.795 -0.1830  0.2790  0.9631
  679TMC3    O110106   0.786   3.798   1.541  0.2851  0.1345  0.2162
  679TMC3    O210107   1.169   3.450   1.889  0.0422 -0.2991  0.4067
  680MPD2     C10108   1.416   0.805  13.841  0.5837  0.0334  0.0546
  680MPD2    C110109   1.526   0.827  13.925  0.1926  0.1121  0.2316
  680MPD2    C210110   1.568   0.959  13.948 -0.1707  0.8348 -0.4424
  680MPD2    C310111   1.499   1.063  13.896 -0.0668  0.6839  0.3966
  680MPD2    C410112   1.394   1.036  13.809  0.2209  0.3066 -0.5300
  680MPD2    C510113   1.358   0.912  13.779 -0.5633 -0.2785 -0.2348
  680MPD2     H10114   1.660   0.976  14.004 -0.9920  1.2600  0.7804
  680MPD2    H110115   1.329   1.116  13.775 -1.6196 -1.0287 -0.1418
  680MPD2    H210116   1.388   0.707  13.806  2.1024  1.0394 -3.9934
  680MPD2    H310117   1.270   0.914  13.715 -1.3562  2.5221  0.9135
  680MPD2     N10118   1.513   1.201  13.943 -0.7668 -0.2991 -0.0180
  680MPD2    H510119   1.454   1.273  13.903 -1.3376 -0.4156  0.6003
  680MPD2    N110120   1.597   0.727  13.980 -0.0385 -0.3979 -0.3523
  680MPD2    H710121   1.687   0.756  14.016 -0.7757  0.6038  0.7023
  681TMC3    C110122   1.681   0.524  14.035  0.2004 -0.1517 -0.3898
  681TMC3    C210123   1.664   0.508  14.171  0.0664  0.2576 -0.4833
  681TMC3    C310124   1.775   0.503  14.249 -0.1467 -0.3457  0.1591
  681TMC3    C410125   1.806   0.544  13.986 -0.4097  0.4333 -0.2859
  681TMC3    C510126   1.916   0.516  14.062  0.6431 -1.1040  0.2657
  681TMC3    C610127   1.902   0.494  14.197  0.1138 -0.6386 -0.1713
  681TMC3     C10128   1.572   0.593  13.971 -0.7738  0.4094 -0.3384
  681TMC3     O10129   1.472   0.541  13.944  0.3024  0.9394  0.1247
  681TMC3     H10130   1.561   0.528  14.196  0.8517  3.1110  0.4298
  681TMC3    H110131   1.831   0.560  13.882  2.1128  4.6764  0.9607
  681TMC3    H210132   1.988   0.482  14.262  1.0090 -1.0153 -1.4226
  681TMC3    C710133   2.050   0.517  14.012 -0.7267 -0.6961  0.3994
  681TMC3    C810134   1.775   0.590  14.365  0.3890  0.7081 -1.0612
  681TMC3    O110135   2.126   0.433  14.066  0.0636  0.1106  0.1586
  681TMC3    O210136   1.879   0.643  14.388  0.1925 -0.3558  0.1114
  682MPD2     C10137   3.485   3.142  10.601  0.1817 -0.0635  0.1432
  682MPD2    C110138   3.371   3.068  10.605 -0.2173  0.0843  0.6724
  682MPD2    C210139   3.304   3.059  10.726 -0.6741 -0.8174 -0.5031
  682MPD2    C310140   3.358   3.121  10.842  0.0983  1.1862 -0.2079
  682MPD2    C410141   3.475   3.192  10.831 -0.0173  0.3945  0.2235
  682MPD2    C510142   3.532   3.206  10.712  0.2845  0.4031 -0.3114
  682MPD2     H10143   3.207   3.010  10.728 -0.6323 -0.8481  0.8383
  682MPD2    H110144   3.521   3.247  10.912  1.5522  0.7913 -0.9358
  682MPD2    H210145   3.539   3.161  10.510 -0.9734 -0.5916 -0.6449
  682MPD2    H310146   3.627   3.258  10.704 -0.9323  2.4346 -1.6178
  682MPD2     N10147   3.304   3.116  10.969 -0.7310  1.0016  0.2237
  682MPD2    H510148   3.360   3.125  11.053 -1.7879 -2.3978  1.2792
  682MPD2    N110149   3.324   2.997  10.488  0.2381  0.2555 -0.2391
  682MPD2    H710150   3.252   2.928  10.501 -1.4240  1.3631 -3.3566
  683TMC3    C110151   3.202   3.129  11.357  0.9232 -0.1516  0.2571
  683TMC3    C210152   3.091   3.060  11.399 -0.1253  0.2796 -0.7387
  683TMC3    C310153   3.012   3.004  11.309  0.1916  0.1173 -0.8754
  683TMC3    C410154   3.224   3.148  11.221 -0.0937 -0.2231  0.3406
  683TMC3    C510155   3.143   3.083  11.137  0.3369  0.5646  0.4762
  683TMC3    C610156   3.035   3.014  11.175  0.5555 -0.6590 -0.6238
  683TMC3     C10157   3.292   3.174  11.461  0.4723  0.8394 -0.1154
  683TMC3     O10158   3.236   3.208  11.565  0.0116 -0.2579  0.1469
  683TMC3     H10159   3.071   3.044  11.505 -0.1169 -3.9229 -1.3531
  683TMC3    H110160   3.310   3.209  11.196  0.6509 -1.4523 -0.0821
  683TMC3    H210161   2.983   2.954  11.102 -0.3225 -1.2482  0.4744
  683TMC3    C710162   3.172   3.092  10.993  0.2832 -0.2972  0.4802
  683TMC3    C810163   2.925   2.899  11.350 -0.1103  0.1331  0.4765
  683TMC3    O110164   3.079   3.091  10.913  0.4534 -0.0548 -0.2623
  683TMC3    O210165   2.868   2.924  11.456 -0.0919 -0.0472  0.1813
  684MPD2     C10166   2.377   1.895  16.791  0.0502  0.2071  0.4048
  684MPD2    C110167   2.305   1.952  16.687 -0.1275  0.5902 -0.6081
  684MPD2    C210168   2.240   2.072  16.703  0.4997  0.2806 -0.3397
  684MPD2    C310169   2.252   2.138  16.824 -0.6004 -0.0369 -0.1931
  684MPD2    C410170   2.326   2.093  16.923 -0.3092  0.3574  0.4406
  684MPD2    C510171   2.380   1.968  16.908 -0.2410 -0.9172 -0.4402
  684MPD2     H10172   2.198   2.112  16.612 -1.5051  2.3050  1.4765
  684MPD2    H110173   2.348   2.143  17.017  3.6431  1.9966 -1.3545
  684MPD2    H210174   2.441   1.807  16.792 -0.8273 -0.4478 -0.9502
  684MPD2    H310175   2.450   1.941  16.986  1.0378  1.2437 -0.8332
  684MPD2     N10176   2.189   2.261  16.841  0.4649  0.4465 -0.4137
  684MPD2    H510177   2.220   2.308  16.925  0.7343  0.0667 -0.3003
  684MPD2    N110178   2.307   1.891  16.556 -0.7336  0.1489 -0.5013
  684MPD2    H710179   2.261   1.946  16.484 -2.5682  1.0540  1.3737
  685TMC3    C110180   2.384   1.779  16.368  0.0242 -0.3385 -1.0074
  685TMC3    C210181   2.293   1.857  16.309  0.0114 -0.3071  0.2505
  685TMC3    C310182   2.335   1.931  16.203 -0.7347 -0.5749 -0.0327
  685TMC3    C410183   2.522   1.788  16.340 -0.1007 -0.2987  0.0633
  685TMC3    C510184   2.565   1.868  16.240 -0.6998  0.5780 -0.3475
  685TMC3    C610185   2.469   1.941  16.171 -0.3453 -0.3864 -0.0451
  685TMC3     C10186   2.372   1.779  16.513  0.1080 -0.1101  0.3410
  685TMC3     O10187   2.438   1.699  16.574 -0.0994 -0.2430  0.1448
  685TMC3     H10188   2.190   1.837  16.338 -0.8009  2.6782 -0.6213
  685TMC3    H110189   2.590   1.723  16.394 -0.3068 -0.5041  0.0770
  685TMC3    H210190   2.494   2.003  16.086  3.2614 -0.2406  1.1364
  685TMC3    C710191   2.699   1.925  16.229  0.1998  0.7705  0.3740
  685TMC3    C810192   2.238   1.955  16.105  0.0949 -0.0108 -0.9229
  685TMC3    O110193   2.731   1.994  16.131  0.3203 -0.3316  0.1349
  685TMC3    O210194   2.283   1.958  15.992 -0.3678 -0.3744  0.1764
  686MPD2     C10195   3.620   1.578  15.312 -0.0026 -0.2867  0.2901
  686MPD2    C110196   3.653   1.569  15.443  0.1714  0.0723 -0.3490
  686MPD2    C210197   3.761   1.485  15.480  0.4267 -0.3624  0.6029
  686MPD2    C310198   3.825   1.398  15.393  0.1129  0.1867  0.1955
  686MPD2    C410199   3.801   1.422  15.264 -0.1621 -1.5017  0.2551
  686MPD2    C510200   3.701   1.512  15.220  0.6926  0.2722  0.6076
  686MPD2     H10201   3.788   1.482  15.585  0.7151  2.3498  0.6190
  686MPD2    H110202   3.857   1.359  15.196 -0.0910  1.0194 -2.0288
  686MPD2    H210203   3.528   1.622  15.277  1.0656 -0.9025 -3.2939
  686MPD2    H310204   3.684   1.517  15.113  3.2086 -0.7490  0.1459
  686MPD2     N10205   3.912   1.284  15.416 -0.1152  0.8324 -0.1077
  686MPD2    H510206   3.949   1.242  15.331  2.3897 -0.9463  1.9042
  686MPD2    N110207   3.588   1.647  15.539 -1.0976  0.0635 -0.3636
  686MPD2    H710208   3.531   1.713  15.488  0.0991  1.1714 -0.2645
  687TMC3    C110209   3.883   1.288  15.658  0.6169 -0.6284 -0.2912
  687TMC3    C210210   3.760   1.232  15.690 -0.3251  0.0472  0.3952
  687TMC3    C310211   3.712   1.228  15.813  0.3661 -0.3060  0.5296
  687TMC3    C410212   3.963   1.337  15.757 -0.3532 -0.2807  0.3105
  687TMC3    C510213   3.915   1.328  15.893  0.4830 -0.2641 -0.6094
  687TMC3    C610214   3.790   1.276  15.920  0.9288  0.2238  0.3320
  687TMC3     C10215   3.947   1.235  15.537  0.1592  0.9392  0.4245
  687TMC3     O10216   4.031   1.156  15.569  0.6785  0.3762  0.1071
  687TMC3     H10217   3.702   1.186  15.610  0.8311 -0.1147 -0.3526
  687TMC3    H110218   4.064   1.373  15.739  0.0565 -2.3604 -1.6152
  687TMC3    H210219   3.732   1.284  16.011 -3.0630  1.6099 -2.3015
  687TMC3    C710220   3.978   1.420  15.989 -0.1606 -0.1790  0.1838
  687TMC3    C810221   3.565   1.246  15.821 -0.0662  0.1196  0.1943
  687TMC3    O110222   4.025   1.529  15.950  0.3953  0.1561  0.4291
  687TMC3    O210223   3.523   1.233  15.936 -0.7191 -0.5602  0.1963
  688MPD2     C10224   2.634   0.793  17.534 -0.1384 -0.7113 -0.2743
  688MPD2    C110225   2.575   0.675  17.503  0.5170  0.0067  0.5005
  688MPD2    C210226   2.629   0.602  17.397  0.8411 -0.2266 -0.3073
  688MPD2    C310227   2.743   0.637  17.341  0.4826 -0.2867 -0.0103
  688MPD2    C410228   2.790   0.763  17.356 -0.0710 -0.2124  0.6477
  688MPD2    C510229   2.736   0.843  17.452  0.6805  0.7267 -0.0393
  688MPD2     H10230   2.591   0.502  17.377  1.9929 -0.4388 -1.5099
  688MPD2    H110231   2.877   0.796  17.301 -2.5322 -1.7500 -4.1531
  688MPD2    H210232   2.600   0.861  17.612 -1.0319 -0.7651 -0.6296
  688MPD2    H310233   2.766   0.943  17.481  1.4317  0.7109 -0.7496
  688MPD2     N10234   2.821   0.555  17.253  0.5993 -0.6585  0.2312
  688MPD2    H510235   2.908   0.597  17.222  0.2679  0.3001  0.5934
  688MPD2    N110236   2.462   0.620  17.569 -0.3081  0.2424 -0.6259
  688MPD2    H710237   2.419   0.539  17.524 -0.8548 -0.4723  1.1909
  689TMC3    C110238   2.281   0.628   0.007  0.5835  1.6210  0.0864
  689TMC3    C210239   2.219   0.710   0.095  0.8511 -0.2417  0.6123
  689TMC3    C310240   2.128   0.655   0.178  0.5359 -0.9996  0.1504
  689TMC3    C410241   2.256   0.494   0.013 -0.1767 -0.2338  0.1421
  689TMC3    C510242   2.172   0.448   0.106  0.4178 -0.5416 -0.2037
  689TMC3    C610243   2.098   0.525   0.189  1.1139 -0.4735 -0.1475
  689TMC3     C10244   2.402   0.681  17.677  0.4140  0.2199  0.7502
  689TMC3     O10245   2.433   0.782   0.013 -1.1033 -0.0245  0.3902
  689TMC3     H10246   2.234   0.817   0.097 -0.3166 -0.0442 -1.0843
  689TMC3    H110247   2.309   0.420  17.681 -0.8918 -1.6965  1.2989
  689TMC3    H210248   2.030   0.475   0.257  1.1036  2.4443  1.9663
  689TMC3    C710249   2.169   0.307   0.140  0.0505 -0.3386  0.2425
  689TMC3    C810250   2.115   0.729   0.305  0.3663 -0.9798  0.2239
  689TMC3    O110251   2.155   0.285   0.256 -0.1900 -0.2461 -0.4621
  689TMC3    O210252   2.193   0.824   0.322  0.1739 -0.0563  0.0663
  690MPD2     C10253   0.416   2.697  16.237 -0.6293 -0.1556  0.2123
  690MPD2    C110254   0.333   2.653  16.134 -0.3111 -0.4972  0.5011
  690MPD2    C210255   0.341   2.708  16.008 -0.1079  0.0957 -0.0969
  690MPD2    C310256   0.443   2.802  15.983  0.6533 -0.1007  0.1057
  690MPD2    C410257   0.517   2.845  16.082 -0.0526  0.2181  0.1300
  690MPD2    C510258   0.508   2.788  16.208  0.9886 -0.7496  0.4635
  690MPD2     H10259   0.278   2.659  15.935  0.5048 -1.9970  0.7791
  690MPD2    H110260   0.586   2.928  16.071  0.9855 -0.8170 -1.2530
  690MPD2    H210261   0.416   2.659  16.339 -0.4568 -2.1456 -0.5363
  690MPD2    H310262   0.567   2.829  16.289  0.7625  1.7080 -0.6113
  690MPD2     N10263   0.456   2.843  15.855 -0.7419  0.0961 -0.3788
  690MPD2    H510264   0.384   2.813  15.790 -1.0918 -1.6215  0.8165
  690MPD2    N110265   0.243   2.544  16.160  0.8183  0.2037  0.1748
  690MPD2    H710266   0.158   2.531  16.106 -0.5305  4.0362  1.3644
  691TMC3    C110267   0.167   2.354  16.247 -0.3499 -0.1024  0.0267
  691TMC3    C210268   0.037   2.395  16.248  0.0313  0.5562 -0.4856
  691TMC3    C310269   4.669   2.304  16.255  0.2496 -0.5928 -0.4715
  691TMC3    C410270   0.207   2.228  16.263  0.1606 -0.0142  0.0963
  691TMC3    C510271   0.110   2.134  16.264 -0.3501  0.2792 -1.2183
  691TMC3    C610272   4.705   2.170  16.257 -0.1723  0.3107  0.3068
  691TMC3     C10273   0.273   2.450  16.245 -0.3461  0.3659  0.2972
  691TMC3     O10274   0.380   2.412  16.297 -0.0669 -0.2013 -0.0277
  691TMC3     H10275   0.008   2.499  16.244  0.7528  0.7817  0.0780
  691TMC3    H110276   0.309   2.193  16.252 -0.1446 -1.0230  0.4221
  691TMC3    H210277   4.623   2.098  16.258 -1.4055  1.6651 -2.8706
  691TMC3    C710278   0.149   1.997  16.295  0.0786 -0.3792  1.0238
  691TMC3    C810279   4.533   2.353  16.237 -0.2875  0.7430 -0.3913
  691TMC3    O110280   0.259   1.985  16.350  0.0661 -0.5872 -0.0375
  691TMC3    O210281   4.519   2.475  16.250 -0.5576  0.4963 -0.2682
  692TMC3    C110282   1.790   3.335  15.846 -0.0367  0.1937  0.1812
  692TMC3    C210283   1.694   3.329  15.940  0.0066 -0.3090 -0.5930
  692TMC3    C310284   1.695   3.220  16.028 -0.8886  0.0781  0.3681
  692TMC3    C410285   1.918   3.276  15.844  0.1689  0.0651 -0.1128
  692TMC3    C510286   1.924   3.186  15.948  0.3789  0.3135  0.1540
  692TMC3    C610287   1.814   3.151  16.021  0.8836  0.1462 -0.7112
  692TMC3     C10288   1.775   3.457  15.765 -0.4961 -0.3153 -0.5317
  692TMC3     O10289   1.879   3.502  15.722 -0.0533 -0.1980 -0.3376
  692TMC3     H10290   1.601   3.384  15.941  0.2287  0.0522  0.3003
  692TMC3    H110291   1.998   3.308  15.779  0.3350  2.1758  1.1179
  692TMC3    H210292   1.833   3.084  16.103  0.2704  0.3989 -0.3682
  692TMC3    C710293   2.053   3.125  15.967 -0.3199 -0.6245  0.2204
  692TMC3    C810294   1.667   3.263  16.171  0.3016 -1.0139 -0.1918
  692TMC3    O110295   2.146   3.179  15.905  0.5708 -0.2514 -0.0629
  692TMC3    O210296   1.659   3.176  16.257 -0.3354 -0.4076 -0.1736
  693MPD2     C10297   0.799   1.566  10.579 -0.1117 -0.4279 -0.4316
  693MPD2    C110298   0.794   1.480  10.688 -0.1385  0.7759  0.0511
  693MPD2    C210299   0.914   1.437  10.748  0.0968  0.1830  0.2359
  693MPD2    C310300   1.037   1.478  10.694  0.3370 -0.5385  0.7237
  693MPD2    C410301   1.038   1.562  10.584 -0.3105 -0.2239  0.2889
  693MPD2    C510302   0.918   1.601  10.526 -0.1365  0.0917  0.2583
  693MPD2     H10303   0.901   1.371  10.833 -1.5387 -0.1207 -0.2436
  693MPD2    H110304   1.130   1.597  10.538 -1.7803  1.6587 -1.2576
  693MPD2    H210305   0.710   1.594  10.523 -0.4324  2.0952  1.3280
  693MPD2    H310306   0.923   1.667  10.440  1.1999 -0.4862 -0.0972
  693MPD2     N10307   1.165   1.437  10.750 -0.2575 -0.7322 -0.3047
  693MPD2    H510308   1.252   1.467  10.709 -1.4358  1.0479 -1.5090
  693MPD2    N110309   0.660   1.450  10.742  0.3118 -0.4012 -0.2580
  693MPD2    H710310   0.585   1.483  10.683 -1.8464  0.9754  3.2718
  694TMC3    C110311   0.510   1.380  10.910  0.3046 -0.8238  0.0097
  694TMC3    C210312   0.415   1.346  10.821 -0.0176 -0.2798  0.0960
  694TMC3    C310313   0.287   1.366  10.853 -0.1969  0.9366 -0.0577
  694TMC3    C410314   0.475   1.420  11.037  0.0469  0.3917 -0.1913
  694TMC3    C510315   0.343   1.425  11.070  0.0137  0.7768  0.3699
  694TMC3    C610316   0.241   1.408  10.975  0.1959  0.5175  0.7494
  694TMC3     C10317   0.644   1.388  10.869  0.3361  0.3430 -0.4208
  694TMC3     O10318   0.728   1.377  10.960  0.5164  0.5953  0.4350
  694TMC3     H10319   0.445   1.303  10.726  0.2238  0.7498 -0.3048
  694TMC3    H110320   0.554   1.440  11.108 -0.3813  0.2629  0.3165
  694TMC3    H210321   0.135   1.411  10.998  0.2956 -0.1264  1.2868
  694TMC3    C710322   0.314   1.405  11.207  0.2096 -0.0320 -0.6754
  694TMC3    C810323   0.182   1.327  10.756 -0.0712 -0.0608  0.5130
  694TMC3    O110324   0.385   1.475  11.276 -0.1798 -0.2199  0.1545
  694TMC3    O210325   0.071   1.304  10.799 -0.5678 -0.5927  0.4008
  695MPD2     C10326   2.316   2.963  13.696 -0.0718 -0.8018  0.5199
  695MPD2    C110327   2.281   3.051  13.791  0.1390  0.4669  0.9744
  695MPD2    C210328   2.149   3.106  13.791 -0.5373 -0.2013 -0.0392
  695MPD2    C310329   2.064   3.092  13.680  0.2644  0.8189 -1.0221
  695MPD2    C410330   2.112   3.021  13.572  0.6385 -0.3810 -0.1414
  695MPD2    C510331   2.237   2.963  13.588 -0.4348  0.3170  0.3677
  695MPD2     H10332   2.115   3.174  13.868 -0.8912 -1.7698  1.1931
  695MPD2    H110333   2.055   3.002  13.482 -1.4842 -0.1488  1.1482
  695MPD2    H210334   2.406   2.904  13.692 -0.5349 -1.3819 -1.3347
  695MPD2    H310335   2.272   2.903  13.504 -0.4220  0.9773 -0.0997
  695MPD2     N10336   1.937   3.147  13.685 -0.1981 -0.7108 -0.3192
  695MPD2    H510337   1.898   3.177  13.774  1.0204 -1.3600  0.4408
  695MPD2    N110338   2.366   3.077  13.900  0.0092  0.2068  0.2638
  695MPD2    H710339   2.330   3.148  13.964  0.3249 -0.2425  0.9421
  696TMC3    C110340   1.720   3.198  13.597 -0.5896  0.1105  0.3014
  696TMC3    C210341   1.662   3.138  13.703 -0.4206  0.2211  0.4732
  696TMC3    C310342   1.523   3.146  13.716  0.9870  0.0034 -0.4884
  696TMC3    C410343   1.635   3.251  13.501  0.1115 -0.1660 -0.0768
  696TMC3    C510344   1.497   3.251  13.517 -0.0897 -0.1223 -0.3641
  696TMC3    C610345   1.441   3.190  13.619 -0.2512 -0.6034 -0.3953
  696TMC3     C10346   1.856   3.169  13.572 -0.2481  0.6810  0.2393
  696TMC3     O10347   1.889   3.165  13.454 -0.0498 -0.5631 -0.3145
  696TMC3     H10348   1.727   3.104  13.783  0.8938 -0.8309 -1.0399
  696TMC3    H110349   1.680   3.295  13.413 -1.9830  1.0222 -0.5393
  696TMC3    H210350   1.333   3.190  13.627 -0.1191 -0.9104  1.3837
  696TMC3    C710351   1.432   3.368  13.474  0.7428 -0.3323  0.3489
  696TMC3    C810352   1.479   3.153  13.860 -0.0714 -0.4548  0.0211
  696TMC3    O110353   1.409   3.384  13.353 -0.5063  0.0148 -0.0772
  696TMC3    O210354   1.567   3.133  13.943 -0.6521 -0.1073  0.4657
  697MPD2     C10355   1.514   0.382  15.461 -0.4670 -0.8017 -0.0182
  697MPD2    C110356   1.410   0.325  15.400 -0.4395  0.2743  0.0243
  697MPD2    C210357   1.331   0.409  15.319 -0.2159 -0.1912 -0.7258
  697MPD2    C310358   1.358   0.544  15.313  0.1854  0.1143  0.4671
  697MPD2    C410359   1.463   0.598  15.388 -0.0939  0.4285 -0.0461
  697MPD2    C510360   1.545   0.514  15.447  0.1676 -0.4783 -0.3106
  697MPD2     H10361   1.248   0.361  15.269 -0.8174  0.5269 -0.4094
  697MPD2    H110362   1.495   0.699  15.366 -0.1024  0.7562  1.4600
  697MPD2    H210363   1.589   0.320  15.510  0.8511 -0.5203 -1.7069
  697MPD2    H310364   1.633   0.545  15.501 -0.8327  0.3211  0.8413
  697MPD2     N10365   1.284   0.625  15.225  0.9927  0.4027  0.1566
  697MPD2    H510366   1.226   0.571  15.160  0.1257  2.1281 -0.4928
  697MPD2    N110367   1.388   0.186  15.400 -0.6619 -0.1597  0.2380
  697MPD2    H710368   1.299   0.142  15.380  0.6665 -1.8901 -2.0166
  698TMC3    C110369   1.223   0.804  15.081  1.0934  0.1302  0.4881
  698TMC3    C210370   1.225   0.937  15.053  0.4662 -0.0622 -0.0110
  698TMC3    C310371   1.179   0.988  14.927  0.1023 -0.1674 -0.0791
  698TMC3    C410372   1.192   0.716  14.983  0.1122 -0.2934  0.1175
  698TMC3    C510373   1.151   0.768  14.862 -0.1676  0.9716  0.3148
  698TMC3    C610374   1.145   0.899  14.825  0.4642 -0.2865 -0.1906
  698TMC3     C10375   1.288   0.759  15.204  0.3604  0.2891 -0.3657
  698TMC3     O10376   1.349   0.841  15.267  0.0303  0.1142  0.3534
  698TMC3     H10377   1.248   1.012  15.127 -1.6958  1.2568 -0.6720
  698TMC3    H110378   1.173   0.613  15.012 -0.0384 -0.3348 -0.1200
  698TMC3    H210379   1.121   0.933  14.725  0.0959  0.0889  0.0277
  698TMC3    C710380   1.122   0.666  14.760 -0.3428  0.6703 -0.3740
  698TMC3    C810381   1.170   1.127  14.905  0.3620 -0.3014 -0.0456
  698TMC3    O110382   1.050   0.698  14.668 -0.7340 -0.1660  0.5176
  698TMC3    O210383   1.081   1.171  14.835 -0.6375  0.1303 -0.6931
  699TMC3    C110384   1.338   3.126  13.056  0.6658 -0.2669 -0.3301
  699TMC3    C210385   1.410   3.081  13.167 -0.0870  0.8403  0.2523
  699TMC3    C310386   1.342   3.020  13.270  0.2478 -0.4429 -0.0703
  699TMC3    C410387   1.201   3.123  13.058  0.0840 -0.6408  0.8129
  699TMC3    C510388   1.141   3.072  13.166 -0.3709  1.0504  0.5510
  699TMC3    C610389   1.205   3.012  13.268 -0.0480  0.6262  0.2626
  699TMC3     C10390   1.397   3.230  12.975 -0.0211  0.0410 -0.6109
  699TMC3     O10391   1.322   3.285  12.894  0.0599 -0.3545 -0.2954
  699TMC3     H10392   1.516   3.100  13.167 -0.2260  1.5470 -1.6064
  699TMC3    H110393   1.142   3.168  12.979  0.5661 -1.5677 -0.0882
  699TMC3    H210394   1.148   2.975  13.352 -0.4946 -0.5196 -0.5522
  699TMC3    C710395   1.002   3.112  13.197 -0.2651 -0.0033  0.4307
  699TMC3    C810396   1.407   2.949  13.380  0.1551  0.0663  0.1507
  699TMC3    O110397   0.973   3.106  13.317  0.1988 -0.3792 -0.7373
  699TMC3    O210398   1.330   2.917  13.469 -0.0186  0.6374 -0.0257
  700TMC3    C110399   0.702   0.829  17.183 -0.0303 -0.6593 -0.1792
  700TMC3    C210400   0.818   0.789  17.130 -0.3095  0.5788  0.6554
  700TMC3    C310401   0.922   0.751  17.214 -0.1915 -0.8569  0.1562
  700TMC3    C410402   0.680   0.821  17.316  0.4520  0.1877 -0.3220
  700TMC3    C510403   0.780   0.776  17.400 -0.0499  0.1211 -0.6370
  700TMC3    C610404   0.899   0.740  17.350  0.4087 -0.1649  0.2698
  700TMC3     C10405   0.624   0.931  17.117 -0.2718 -0.0815  0.5356
  700TMC3     O10406   0.505   0.936  17.130  0.1803 -0.1894 -0.1655
  700TMC3     H10407   0.840   0.799  17.024 -0.1894  2.2797  0.8404
  700TMC3    H110408   0.596   0.884  17.345  1.6946  0.2226  3.1980
  700TMC3    H210409   0.978   0.717  17.420 -0.7106 -1.6946  1.0219
  700TMC3    C710410   0.786   0.842  17.529 -0.3914 -0.2054 -0.4733
  700TMC3    C810411   1.048   0.711  17.149 -0.0894 -0.0934  0.6146
  700TMC3    O110412   0.899   0.872  17.562  0.3131 -0.4313 -0.5023
  700TMC3    O210413   1.038   0.667  17.034  0.1524  0.4883 -0.5448
  701TMC3    C110414   0.605   4.618  15.506 -0.2592  0.2262 -0.8156
  701TMC3    C210415   0.579   4.590  15.372  0.4079 -0.0623  0.3273
  701TMC3    C310416   0.662   4.640  15.274 -0.2198  0.2509  0.1808
  701TMC3    C410417   0.716   4.688  15.548  0.1267 -0.2232 -0.3955
  701TMC3    C510418   0.803   4.729  15.449  0.1965 -0.0331 -0.4594
  701TMC3    C610419   0.773   4.705  15.319 -0.9772  0.4279  0.2153
  701TMC3     C10420   0.545   4.540  15.616 -0.2445  0.5096 -0.2093
  701TMC3     O10421   0.563   4.587  15.727 -0.0330  0.1641  0.5397
  701TMC3     H10422   0.486   4.549  15.335 -0.1695  0.7072  0.9418
  701TMC3    H110423   0.738   4.718  15.650 -1.0369  0.3893 -0.3174
  701TMC3    H210424   0.839   0.024  15.250 -2.1729 -0.4131 -1.5578
  701TMC3    C710425   0.902   0.109  15.466  0.6039  0.0417  0.2909
  701TMC3    C810426   0.670   4.597  15.136 -0.2151  0.2766  0.2385
  701TMC3    O110427   0.909   0.195  15.378  0.3348 -0.4591  0.6047
  701TMC3    O210428   0.785   4.593  15.095 -0.1647  0.2657  0.2792
  702MPD2     C10429   0.238   2.028  10.397  0.2170  0.3986  0.7440
  702MPD2    C110430   0.152   2.103  10.466  0.2406 -0.7884  0.1265
  702MPD2    C210431   0.165   2.240  10.458 -0.3891 -0.1735  0.5755
  702MPD2    C310432   0.253   2.297  10.368 -0.5719  0.0762 -0.4124
  702MPD2    C410433   0.354   2.216  10.309 -0.3249 -0.1508  0.5908
  702MPD2    C510434   0.346   2.083  10.337  0.0488  0.2303 -0.7105
  702MPD2     H10435   0.102   2.293  10.529 -0.1092 -0.6318  1.1702
  702MPD2    H110436   0.423   2.262  10.239 -1.8624 -0.2034 -0.9835
  702MPD2    H210437   0.228   1.920  10.397 -0.1159  0.4225  2.7617
  702MPD2    H310438   0.407   2.009  10.286  0.5490  0.2486 -0.1413
  702MPD2     N10439   0.243   2.437  10.330  0.3045  0.2470 -0.3693
  702MPD2    H510440   0.320   2.466  10.270  0.2102 -1.5193 -1.3419
  702MPD2    N110441   0.039   2.060  10.528 -0.7549 -0.4662  0.3763
  702MPD2    H710442   4.718   2.120  10.591 -0.3805  1.0834 -0.7734
  703TMC3    C110443   0.143   2.642  10.289 -0.3117 -0.2473 -0.6858
  703TMC3    C210444   0.025   2.709  10.257  0.1134 -0.4226  0.1262
  703TMC3    C310445   0.041   2.830  10.196  0.1028  0.1821  0.1233
  703TMC3    C410446   0.265   2.696  10.269 -0.0085  0.6635 -0.2413
  703TMC3    C510447   0.276   2.818  10.207 -0.3554  0.8481  0.5432
  703TMC3    C610448   0.164   2.886  10.164 -0.2162  0.1962 -0.0006
  703TMC3     C10449   0.131   2.518  10.354  0.9775 -0.4161  0.2803
  703TMC3     O10450   0.026   2.483  10.403  0.3021  0.8404 -0.0164
  703TMC3     H10451   4.662   2.666  10.283 -0.2294  1.4850  1.9838
  703TMC3    H110452   0.361   2.647  10.285  0.2798  1.6994  1.1649
  703TMC3    H210453   0.174   2.980  10.111 -2.9241  1.2931  1.4409
  703TMC3    C710454   0.409   2.848  10.161 -0.0605  0.1857  0.2350
  703TMC3    C810455   4.656   2.913  10.165  0.6422  0.1450 -0.0884
  703TMC3    O110456   0.496   2.849  10.248 -0.7301  0.2373  0.1765
  703TMC3    O210457   4.668   2.999  10.074  0.1873 -0.0597 -0.3048
  704TMC3    C110458   2.180   0.743  12.553  0.4880  0.7113 -0.1156
  704TMC3    C210459   2.283   0.730  12.456 -0.1791  0.7338  0.3186
  704TMC3    C310460   2.368   0.621  12.472  0.4680 -0.0806 -0.0629
  704TMC3    C410461   2.172   0.672  12.670 -0.5224  0.4513  0.5013
  704TMC3    C510462   2.257   0.561  12.670  0.8195 -0.0078  0.7737
  704TMC3    C610463   2.354   0.534  12.577  0.4660 -0.0051  0.1281
  704TMC3     C10464   2.072   0.834  12.514 -0.2780  0.1746 -0.0489
  704TMC3     O10465   1.977   0.831  12.595 -0.1011 -0.0670  0.3108
  704TMC3     H10466   2.306   0.807  12.384 -1.6094  1.6173  0.7993
  704TMC3    H110467   2.097   0.683  12.748 -0.4389  3.2829  0.1693
  704TMC3    H210468   2.408   0.441  12.579  1.5652  0.6557  1.3541
  704TMC3    C710469   2.213   0.440  12.735 -0.8228  0.1523 -0.5454
  704TMC3    C810470   2.409   0.562  12.346 -0.3963  0.5035  0.3553
  704TMC3    O110471   2.243   0.327  12.690 -0.4333 -0.1614 -0.0065
  704TMC3    O210472   2.450   0.451  12.355  0.1917 -0.5887 -0.1292
  705MPD2     C10473   1.836   3.162  16.693  0.0559  0.0672 -0.1255
  705MPD2    C110474   1.857   3.297  16.653  0.6491  0.4789 -1.1320
  705MPD2    C210475   1.806   3.390  16.742  0.3316 -0.1239 -0.2915
  705MPD2    C310476   1.724   3.351  16.849  0.2279  0.0755 -0.2580
  705MPD2    C410477   1.707   3.214  16.883 -0.5275  1.1355  0.2497
  705MPD2    C510478   1.765   3.119  16.802 -0.3628 -1.3425 -0.8422
  705MPD2     H10479   1.814   3.496  16.721  1.8807 -0.9690 -3.8917
  705MPD2    H110480   1.636   3.183  16.959  0.2371  0.3725  0.6434
  705MPD2    H210481   1.896   3.089  16.639  0.2559 -0.4900  0.8404
  705MPD2    H310482   1.762   3.015  16.834  2.0399 -1.6074 -1.4831
  705MPD2     N10483   1.663   3.438  16.939 -0.2362  0.3304 -0.1598
  705MPD2    H510484   1.605   3.399  17.013 -0.5832  0.0198 -0.5978
  705MPD2    N110485   1.940   3.337  16.546  0.2624 -0.4718  0.5205
  705MPD2    H710486   1.968   3.435  16.538  0.4080 -0.8124 -3.2497
  706TMC3    C110487   2.254   3.331  16.200 -0.5623  0.1220 -0.2006
  706TMC3    C210488   2.202   3.441  16.140  0.2169  0.2694  0.1007
  706TMC3    C310489   2.086   3.485  16.184  0.6314  0.2523  0.4240
  706TMC3    C410490   2.195   3.265  16.306  0.6333  0.4036 -0.4743
  706TMC3    C510491   2.088   3.325  16.360 -0.0996  0.4028  1.0219
  706TMC3    C610492   2.027   3.431  16.297  0.3100 -0.6335 -0.5945
  706TMC3     C10493   2.384   3.300  16.163 -0.3234  0.5094 -0.0696
  706TMC3     O10494   2.464   3.286  16.252  0.0866  0.1603  0.6787
  706TMC3     H10495   2.261   3.501  16.072 -1.1791  0.2193 -1.1444
  706TMC3    H110496   2.245   3.185  16.359  1.2567  0.2445 -1.2947
  706TMC3    H210497   1.931   3.468  16.331  1.1498  1.1476 -0.1147
  706TMC3    C710498   2.015   3.251  16.464 -0.3865 -0.1559 -0.2635
  706TMC3    C810499   2.041   3.614  16.134  0.1008  0.4180 -1.0342
  706TMC3    O110500   2.020   3.128  16.461  0.0292 -0.2881  0.1264
  706TMC3    O210501   2.068   3.649  16.022  0.6405 -0.5863 -0.0008
  707TMC3    C110502   3.603   2.597  17.578 -0.3613 -0.2468 -0.7644
  707TMC3    C210503   3.548   2.618  17.700 -0.0772 -0.3453  0.0114
  707TMC3    C310504   3.412   2.624  17.717  0.1877 -0.3083 -0.5324
  707TMC3    C410505   3.535   2.601  17.461  0.2858 -0.3445 -0.1960
  707TMC3    C510506   3.405   2.639  17.484 -0.3807 -0.2777 -0.6050
  707TMC3    C610507   3.340   2.640  17.603 -0.5594 -0.7948  0.4685
  707TMC3     C10508   3.722   2.518  17.587  0.3987  0.3455 -0.4540
  707TMC3     O10509   3.800   2.553  17.675 -0.1886 -0.3894 -0.5336
  707TMC3     H10510   3.613   2.608   0.058  1.9318 -0.3466 -1.4978
  707TMC3    H110511   3.587   2.608  17.366  0.7458  0.9047  0.1512
  707TMC3    H210512   3.236   2.669  17.604  0.0623  1.5113 -2.1973
  707TMC3    C710513   3.332   2.692  17.369 -0.1069 -0.6042 -0.7362
  707TMC3    C810514   3.350   2.659   0.115  0.1613  0.3644  0.4751
  707TMC3    O110515   3.216   2.670  17.363  0.8077  0.0882  0.3583
  707TMC3    O210516   3.237   2.703   0.124  0.1199 -0.1591 -0.0356
  708MPD2     C10517   4.519   1.391  14.457  1.2972  0.1195  0.2907
  708MPD2    C110518   4.553   1.486  14.366 -0.0870  0.0831 -0.8192
  708MPD2    C210519   4.602   1.604  14.416  0.4938  0.3363  0.0948
  708MPD2    C310520   4.623   1.625  14.544  0.6319 -0.2041 -0.0828
  708MPD2    C410521   4.611   1.522  14.633  0.4290  0.7138 -0.3655
  708MPD2    C510522   4.552   1.408  14.590 -0.6577  0.5993 -0.3959
  708MPD2     H10523   4.638   1.685  14.353  0.3611  1.1451  1.0445
  708MPD2    H110524   4.620   1.537  14.740  0.3428  0.5501 -0.3343
  708MPD2    H210525   4.483   1.292  14.432 -0.9931  0.0992  3.5229
  708MPD2    H310526   4.540   1.331  14.665  0.8824  0.0822 -0.6799
  708MPD2     N10527   4.655   1.750  14.593  0.2006 -0.4624 -0.5890
  708MPD2    H510528   4.644   1.823  14.524 -1.9047 -0.4136 -0.1773
  708MPD2    N110529   4.535   1.474  14.228  0.3699  0.3890 -0.2891
  708MPD2    H710530   4.549   1.385  14.181  1.4700  0.3346  0.1531
  709TMC3    C110531   4.492   1.553  14.012  0.5107 -0.2687 -0.2468
  709TMC3    C210532   4.614   1.505  13.979 -0.5558  0.2632  0.0356
  709TMC3    C310533   4.664   1.545  13.858  0.0706 -0.3624  0.5101
  709TMC3    C410534   4.433   1.650  13.941 -0.2016 -0.3013  0.2611
  709TMC3    C510535   4.490   1.701  13.834 -0.1141 -0.1083  0.1736
  709TMC3    C610536   4.610   1.651  13.793  0.1655 -0.2918  0.2203
  709TMC3     C10537   4.499   1.587  14.152  0.4555  0.2620  0.3992
  709TMC3     O10538   4.475   1.702  14.185 -0.5650 -0.4315 -0.1784
  709TMC3     H10539   4.676   1.438  14.037 -2.4079 -1.4466  0.0482
  709TMC3    H110540   4.335   1.686  13.973  0.9765  1.8447  1.4655
  709TMC3    H210541   4.664   1.698  13.712  0.4422 -0.9896 -0.0061
  709TMC3    C710542   4.510   1.842  13.837  0.2868 -0.7605  0.4205
  709TMC3    C810543   0.058   1.491  13.812 -0.4295 -0.6002  0.4808
  709TMC3    O110544   4.502   1.914  13.736  0.1680  0.2170  0.3157
  709TMC3    O210545   0.123   1.442  13.902  0.3977 -0.2311  0.0581
  710TMC3    C110546   1.037   3.748   0.519  0.2516 -0.0905 -0.3201
  710TMC3    C210547   1.114   3.650   0.469  1.1674  0.1991 -0.9311
  710TMC3    C310548   1.138   3.538   0.543 -1.5164 -0.0632 -0.0931
  710TMC3    C410549   0.971   3.739   0.640  0.0934 -0.0775  0.2303
  710TMC3    C510550   0.988   3.627   0.714  0.3150 -0.4614  0.8719
  710TMC3    C610551   1.074   3.525   0.672 -0.4800 -0.3994  0.1327
  710TMC3     C10552   1.012   3.871   0.445  0.6531  0.2484  0.1166
  710TMC3     O10553   1.010   3.874   0.321  0.2045  0.0038  0.3290
  710TMC3     H10554   1.156   3.650   0.369  0.5601  0.1798 -1.1830
  710TMC3    H110555   0.899   3.817   0.664  0.1773  0.0917 -0.0612
  710TMC3    H210556   1.091   3.436   0.732  0.5249 -0.1330  0.2488
  710TMC3    C710557   0.934   3.618   0.849 -0.3434  0.5198 -1.0190
  710TMC3    C810558   1.250   3.442   0.515  0.3518  0.0231 -0.6310
  710TMC3    O110559   0.990   3.538   0.923 -0.2019 -0.3476 -0.1636
  710TMC3    O210560   1.276   3.354   0.598 -0.4146 -0.3549  0.3454
  711TMC3    C110561   1.257   3.804  14.847 -0.2533  0.2422 -0.0943
  711TMC3    C210562   1.203   3.900  14.929 -0.5604  0.2178 -0.1874
  711TMC3    C310563   1.282   3.991  14.988  0.1515  0.3413 -0.3040
  711TMC3    C410564   1.388   3.796  14.824  0.4740 -0.4937  0.4331
  711TMC3    C510565   1.469   3.892  14.891 -0.0996 -0.3372 -0.0016
  711TMC3    C610566   1.419   3.990  14.969  0.0227  0.9483  0.3117
  711TMC3     C10567   1.173   3.682  14.835  0.2227 -0.6330 -0.2195
  711TMC3     O10568   1.053   3.686  14.862  0.4365  0.2456 -0.3903
  711TMC3     H10569   1.098   3.892  14.952 -0.1742 -3.1712  0.4525
  711TMC3    H110570   1.434   3.725  14.757  0.0822 -0.5868  0.2670
  711TMC3    H210571   1.492   4.053  15.019  2.5112 -0.9185 -0.9488
  711TMC3    C710572   1.599   3.846  14.943 -0.6570  0.5379 -0.0298
  711TMC3    C810573   1.224   4.055  15.102 -0.4606  0.9943  0.7464
  711TMC3    O110574   1.607   3.740  14.997  0.3494 -0.3687  0.1740
  711TMC3    O210575   1.102   4.054  15.124 -0.2252 -0.1637 -0.2882
  712MPD2     C10576   2.474   4.717  14.286 -0.4448 -0.0321  0.4973
  712MPD2    C110577   2.412   0.089  14.218  0.2095 -0.4465  0.6304
  712MPD2    C210578   2.478   0.208  14.192 -0.3742 -0.0507 -0.4855
  712MPD2    C310579   2.604   0.235  14.246 -0.5661 -0.3401  0.1623
  712MPD2    C410580   2.667   0.126  14.307  0.3192 -0.3033 -0.0987
  712MPD2    C510581   2.603   0.002  14.328  0.1741  0.2843 -0.3651
  712MPD2     H10582   2.432   0.276  14.121 -0.3275 -0.4222 -0.8715
  712MPD2    H110583   2.768   0.148  14.337 -0.1992 -1.3581  2.4483
  712MPD2    H210584   2.422   4.627  14.319 -0.7504 -0.4000 -1.0167
  712MPD2    H310585   2.658   4.647  14.363 -0.1565  0.6599  1.0781
  712MPD2     N10586   2.674   0.359  14.241 -1.2392 -1.0454 -0.6698
  712MPD2    H510587   2.768   0.364  14.278 -2.1261  1.0067  1.2948
  712MPD2    N110588   2.278   0.080  14.182  1.2114  0.4767 -0.8008
  712MPD2    H710589   2.239   0.157  14.128  1.4168  0.2813 -1.2283
  713TMC3    C110590   2.728   0.579  14.179 -0.1207 -0.1325  0.6134
  713TMC3    C210591   2.862   0.554  14.178 -0.2670  1.1018 -0.1557
  713TMC3    C310592   2.949   0.657  14.153  0.0432  0.6442  0.4454
  713TMC3    C410593   2.677   0.704  14.146  0.7180 -0.6471 -0.3222
  713TMC3    C510594   2.765   0.801  14.127  0.8262 -0.3134 -0.2126
  713TMC3    C610595   2.903   0.784  14.129 -0.3922  0.3828  0.1181
  713TMC3     C10596   2.619   0.475  14.193 -0.4213  0.8690  0.0888
  713TMC3     O10597   2.500   0.504  14.201  0.6940 -0.1691  0.4533
  713TMC3     H10598   2.895   0.450  14.174 -0.6788  0.8389  3.2604
  713TMC3    H110599   2.569   0.714  14.142  0.6675 -1.4223 -0.8777
  713TMC3    H210600   2.973   0.862  14.102 -1.3111  0.6072 -1.6081
  713TMC3    C710601   2.719   0.932  14.081 -0.0985 -0.1109 -0.6701
  713TMC3    C810602   3.089   0.624  14.100 -0.4269 -0.0907  0.1359
  713TMC3    O110603   2.800   1.022  14.065 -0.5929  0.4408 -0.1278
  713TMC3    O210604   3.125   0.695  14.007 -0.1643  0.8121  0.1875
  714MPD2     C10605   0.004   4.509   1.263 -0.6129 -0.1037 -0.1274
  714MPD2    C110606   4.727   4.366   1.260 -0.2435  0.0055  1.0119
  714MPD2    C210607   4.602   4.306   1.248  0.1980 -0.6547  0.8764
  714MPD2    C310608   4.482   4.375   1.241 -0.9192 -0.4357  0.4912
  714MPD2    C410609   4.496   4.513   1.253  0.1070 -0.1192 -0.6972
  714MPD2    C510610   4.616   4.576   1.269 -0.5346  0.3978  0.0548
  714MPD2     H10611   4.591   4.198   1.248  1.3027 -0.7732  0.8984
  714MPD2    H110612   4.401   4.565   1.246 -0.0025 -0.2687 -0.3359
  714MPD2    H210613   0.097   4.564   1.263 -1.3533  1.1573  0.4439
  714MPD2    H310614   4.626   4.684   1.264  1.6234  0.1340 -1.2871
  714MPD2     N10615   4.358   4.306   1.226 -0.0680 -0.0489  0.3991
  714MPD2    H510616   4.365   4.205   1.223  1.6272  0.1137 -0.8454
  714MPD2    N110617   0.117   4.304   1.280  0.0580 -0.3540  0.0635
  714MPD2    H710618   0.197   4.357   1.314 -0.1530  0.7070 -1.0892
  715TMC3    C110619   0.251   4.125   1.352  0.0105 -0.4171  0.2827
  715TMC3    C210620   0.264   3.990   1.373 -0.2174 -0.1645  0.2810
  715TMC3    C310621   0.368   3.940   1.448  0.3180 -0.6559  1.0617
  715TMC3    C410622   0.347   4.214   1.399 -0.5139 -0.2392 -0.3683
  715TMC3    C510623   0.452   4.160   1.467  0.6621  0.3474 -0.0091
  715TMC3    C610624   0.465   4.024   1.490  0.1768  0.6410 -0.0398
  715TMC3     C10625   0.133   4.165   1.281  0.4287 -0.4788 -0.4940
  715TMC3     O10626   0.063   4.080   1.228  0.5701 -0.1334  0.4497
  715TMC3     H10627   0.178   3.925   1.360  0.1825 -0.7406  0.5817
  715TMC3    H110628   0.358   4.319   1.374  2.8082 -0.1176  1.5377
  715TMC3    H210629   0.528   3.984   1.569 -2.7318 -2.8169  0.5354
  715TMC3    C710630   0.524   4.238   1.558 -0.2448 -0.3558 -0.3760
  715TMC3    C810631   0.380   3.793   1.451 -0.1576  0.2090  0.5873
  715TMC3    O110632   0.632   4.198   1.586  0.0252 -0.8262 -0.4244
  715TMC3    O210633   0.293   3.727   1.397 -0.5562  0.4241  0.0587
  716MPD2     C10634   4.476   2.391  10.280  0.0758 -0.0801  0.2330
  716MPD2    C110635   4.468   2.419  10.147 -0.2831  0.0603  0.5141
  716MPD2    C210636   4.460   2.318  10.053 -0.2382  0.1666  0.1753
  716MPD2    C310637   4.453   2.187  10.098  0.5780  0.6205  0.3561
  716MPD2    C410638   4.473   2.157  10.233  0.2941 -0.7897  0.5929
  716MPD2    C510639   4.487   2.262  10.322 -0.2832 -0.5264 -0.2523
  716MPD2     H10640   4.449   2.343   9.949  0.1900 -1.3169 -0.2260
  716MPD2    H110641   4.471   2.055  10.267 -1.6911 -0.1140  2.4329
  716MPD2    H210642   4.475   2.469  10.354  1.3433 -0.5969  0.7943
  716MPD2    H310643   4.507   2.250  10.428 -2.5287  0.5157  0.2869
  716MPD2     N10644   4.437   2.074  10.014  0.1978 -0.5229  0.2172
  716MPD2    H510645   4.466   1.982  10.044 -0.8872 -1.4440 -1.4925
  716MPD2    N110646   4.455   2.554  10.106  0.3397  0.1570  0.2617
  716MPD2    H710647   4.399   2.616  10.164  1.3936  0.6212  0.7738
  717TMC3    C110648   4.457   1.952   9.815  0.4248 -0.1978  0.5078
  717TMC3    C210649   4.410   1.924   9.687 -0.1432  0.5445 -0.1622
  717TMC3    C310650   4.489   1.844   9.606  0.3632  0.3697 -0.4760
  717TMC3    C410651   4.565   1.884   9.864  0.3330  0.3359  0.0835
  717TMC3    C510652   4.632   1.798   9.787 -0.1201  0.2786 -0.3772
  717TMC3    C610653   4.601   1.780   9.658  0.7898  1.0120  0.2225
  717TMC3     C10654   4.409   2.079   9.881  0.4698 -0.0915 -0.4306
  717TMC3     O10655   4.356   2.165   9.813 -0.0852  0.1016 -0.0280
  717TMC3     H10656   4.336   1.988   9.641  0.6069  0.7951 -1.0309
  717TMC3    H110657   4.601   1.916   9.961  0.0857  1.9825 -0.3721
  717TMC3    H210658   4.654   1.709   9.595  0.8203  2.5699 -1.5087
  717TMC3    C710659   0.003   1.708   9.851 -0.4585  0.5174 -0.3372
  717TMC3    C810660   4.475   1.884   9.467  0.1131 -0.1524 -0.2427
  717TMC3    O110661   0.010   1.722   9.976  0.1204  0.1476 -0.7516
  717TMC3    O210662   4.389   1.963   9.445 -0.1917  0.1665  0.1812
  718MPD2     C10663   3.555   4.717  12.520 -0.6716  0.4510  0.0017
  718MPD2    C110664   3.521   0.112  12.555 -0.5009 -0.0494  0.0737
  718MPD2    C210665   3.386   0.149  12.558  0.6416  0.0216 -0.4189
  718MPD2    C310666   3.282   0.063  12.519 -0.4043 -0.6306 -0.5034
  718MPD2    C410667   3.319   4.670  12.475  0.3463 -0.2721 -0.8561
  718MPD2    C510668   3.449   4.634  12.484 -1.0611  0.0012  0.1099
  718MPD2     H10669   3.360   0.252  12.577 -1.1025 -0.5017  0.0319
  718MPD2    H110670   3.245   4.597  12.444 -0.4799 -0.6536  2.0002
  718MPD2    H210671   3.651   4.666  12.526 -0.1581  1.4323  0.1856
  718MPD2    H310672   3.476   4.535  12.448 -0.4734 -0.1153  0.8784
  718MPD2     N10673   3.154   0.119  12.523  0.3174  0.5273  0.3315
  718MPD2    H510674   3.143   0.214  12.559 -0.4989  1.3855 -2.1570
  718MPD2    N110675   3.613   0.217  12.594  0.6125  0.4050  0.0182
  718MPD2    H710676   3.572   0.303  12.628 -0.7756 -0.9067  1.6807
  719TMC3    C110677   3.816   0.338  12.607  0.4745 -0.4016  0.5555
  719TMC3    C210678   3.751   0.423  12.698 -0.3640  0.1261 -0.0942
  719TMC3    C310679   3.725   0.551  12.653 -0.2433 -0.8953 -0.3558
  719TMC3    C410680   3.880   0.382  12.492  0.9826  0.4803  0.0882
  719TMC3    C510681   3.872   0.518  12.469 -0.1801  0.4726  0.6924
  719TMC3    C610682   3.795   0.600  12.545  0.1249  0.1184  1.2885
  719TMC3     C10683   3.751   0.211  12.578  0.2532  0.7884  0.2030
  719TMC3     O10684   3.817   0.143  12.498  0.2114  0.2727  0.5807
  719TMC3     H10685   3.717   0.383  12.793  2.6500  0.1805  0.9962
  719TMC3    H110686   3.932   0.309  12.430 -1.8449  0.0187 -1.7411
  719TMC3    H210687   3.784   0.702  12.513  0.3400 -0.9352 -2.0741
  719TMC3    C710688   3.981   0.592  12.393  0.1792  0.2044  0.5269
  719TMC3    C810689   3.585   0.565  12.659  0.3446 -0.6361 -0.2157
  719TMC3    O110690   3.988   0.713  12.405 -0.1881  0.3774  0.3541
  719TMC3    O210691   3.522   0.463  12.686  0.4697  0.3056 -0.0586
  720MPD2     C10692   3.028   1.859  13.841 -0.4195 -0.7153 -0.1061
  720MPD2    C110693   2.999   1.990  13.820 -0.1236 -0.1145 -0.3617
  720MPD2    C210694   3.057   2.088  13.898  0.1039  0.2965  0.9096
  720MPD2    C310695   3.143   2.053  14.006  0.2031  0.1607 -0.1592
  720MPD2    C410696   3.170   1.921  14.019  0.3714 -0.0878  0.6344
  720MPD2    C510697   3.118   1.825  13.936 -0.1415  0.6671  0.5704
  720MPD2     H10698   3.030   2.193  13.889 -3.0948 -0.5325  0.7238
  720MPD2    H110699   3.237   1.877  14.092  2.1058 -1.2300 -1.6672
  720MPD2    H210700   2.976   1.778  13.792 -1.5908 -0.0515  0.0593
  720MPD2    H310701   3.125   1.718  13.955 -1.3181  0.2562 -1.2633
  720MPD2     N10702   3.199   2.156  14.092 -0.5713 -0.2803  0.2032
  720MPD2    H510703   3.186   2.252  14.063 -0.4726 -0.2577  0.2358
  720MPD2    N110704   2.911   2.032  13.722 -0.4134 -0.7972  0.4002
  720MPD2    H710705   2.876   2.127  13.729 -1.0948 -1.0689  0.7200
  721TMC3    C110706   3.335   2.243  14.270 -0.8656 -0.1658  0.4777
  721TMC3    C210707   3.379   2.205  14.390  0.6431  0.3721 -0.3142
  721TMC3    C310708   3.495   2.268  14.435  0.9286  0.1172  0.4996
  721TMC3    C410709   3.409   2.323  14.189  0.3494  0.3200  0.7504
  721TMC3    C510710   3.536   2.361  14.231  0.1223 -0.2000  0.0195
  721TMC3    C610711   3.582   2.345  14.360  0.4415 -0.0276  1.1051
  721TMC3     C10712   3.280   2.128  14.200 -0.8508  0.7582  0.1500
  721TMC3     O10713   3.315   2.025  14.255  0.0284  0.0517 -0.5527
  721TMC3     H10714   3.319   2.133  14.444  1.6942 -2.1970 -2.5321
  721TMC3    H110715   3.372   2.349  14.090 -0.3580  1.2302  1.2604
  721TMC3    H210716   3.671   2.395  14.394  0.5498  0.7750 -0.3549
  721TMC3    C710717   3.630   2.423  14.139  0.1839 -0.6901  0.0568
  721TMC3    C810718   3.555   2.235  14.563  0.1539 -0.8763  0.4663
  721TMC3    O110719   3.746   2.398  14.163 -0.1696  0.1384 -0.1959
  721TMC3    O210720   3.672   2.264  14.570  0.0033  0.2736 -0.2203
  722MPD2     C10721   1.598   0.632  13.630 -0.4411 -0.2253  0.2528
  722MPD2    C110722   1.593   0.753  13.566  0.1727 -0.2754  0.1443
  722MPD2    C210723   1.493   0.776  13.470 -0.1600  0.6512  0.1781
  722MPD2    C310724   1.393   0.687  13.450 -0.6816  0.3371 -0.0496
  722MPD2    C410725   1.403   0.568  13.519  0.3868  0.0696 -0.3410
  722MPD2    C510726   1.500   0.542  13.610 -0.5153  0.4447  0.5967
  722MPD2     H10727   1.486   0.869  13.415  0.7747  1.6828  1.8385
  722MPD2    H110728   1.324   0.496  13.501 -0.3928  0.9760 -0.5766
  722MPD2    H210729   1.686   0.608  13.688 -0.2693 -0.7809 -0.2342
  722MPD2    H310730   1.487   0.450  13.667  0.9522  0.8763  1.6151
  722MPD2     N10731   1.283   0.736  13.383 -0.4020  0.5087  0.9568
  722MPD2    H510732   1.286   0.829  13.343 -0.0575 -0.1447 -0.5194
  722MPD2    N110733   1.688   0.856  13.589 -0.5954 -0.3037  0.1730
  722MPD2    H710734   1.665   0.942  13.540 -0.3633  0.1371  0.8324
  723TMC3    C110735   1.060   0.742  13.294 -0.6280 -0.0272  0.1370
  723TMC3    C210736   0.969   0.678  13.209  0.3675  0.4291  0.3126
  723TMC3    C310737   0.880   0.758  13.139  0.4524 -0.0159  0.5285
  723TMC3    C410738   1.048   0.869  13.338 -0.2778 -0.1269  0.3465
  723TMC3    C510739   0.955   0.940  13.273  0.0635  0.5350  0.2549
  723TMC3    C610740   0.874   0.895  13.164 -0.2502 -1.0312 -0.4709
  723TMC3     C10741   1.171   0.666  13.345  0.7202 -0.2423  0.1645
  723TMC3     O10742   1.160   0.541  13.336  0.2136  0.5604 -0.4513
  723TMC3     H10743   0.977   0.570  13.200  0.4046  0.4597  0.0028
  723TMC3    H110744   1.124   0.907  13.405  1.4342 -0.9114 -1.1501
  723TMC3    H210745   0.795   0.957  13.124  0.2280  0.0797  0.2890
  723TMC3    C710746   0.970   1.082  13.279  0.4830 -0.0248  0.1864
  723TMC3    C810747   0.831   0.707  13.011 -0.3426  0.3191  0.0889
  723TMC3    O110748   1.002   1.130  13.387  0.3699 -0.7765  0.0209
  723TMC3    O210749   0.806   0.779  12.916 -0.2113  0.1220  0.1477
  724TMC3    C110750   1.959   4.378  10.368 -0.5370  0.4344  0.1825
  724TMC3    C210751   1.908   4.493  10.313 -0.5065 -1.0440  0.0640
  724TMC3    C310752   1.990   4.603  10.304  0.4042  0.7627 -0.3417
  724TMC3    C410753   2.088   4.358  10.392 -0.1552  0.2026 -0.4068
  724TMC3    C510754   2.168   4.468  10.384 -0.1678  0.0390  0.0111
  724TMC3    C610755   2.120   4.596  10.337 -1.1990  0.1888  0.7662
  724TMC3     C10756   1.874   4.269  10.381 -0.5260 -0.0097 -0.2650
  724TMC3     O10757   1.931   4.167  10.417  0.1354 -0.1685  0.4926
  724TMC3     H10758   1.811   4.490  10.265  0.2458 -3.9319 -1.3335
  724TMC3    H110759   2.133   4.263  10.417 -1.2845 -0.1451  0.3253
  724TMC3    H210760   2.182   4.681  10.310  0.7927 -1.0758  1.3312
  724TMC3    C710761   2.312   4.460  10.380 -0.0753  0.1197 -0.6784
  724TMC3    C810762   1.923   4.727  10.286  0.5825 -0.7807 -0.6053
  724TMC3    O110763   2.375   4.548  10.315  0.1808 -0.0445 -0.1867
  724TMC3    O210764   1.816   4.718  10.220  0.3083  0.3085  0.1046
  725TMC3    C110765   3.490   2.574  12.444 -0.4830  0.2128 -0.3878
  725TMC3    C210766   3.378   2.618  12.387 -0.0750  0.1165  0.1499
  725TMC3    C310767   3.337   2.560  12.271  0.0987 -0.4800 -0.3400
  725TMC3    C410768   3.558   2.462  12.405  0.2236  0.2457  0.1381
  725TMC3    C510769   3.519   2.407  12.286 -0.0917  0.3016 -0.1834
  725TMC3    C610770   3.412   2.459  12.215  0.3022 -0.6516 -0.5327
  725TMC3     C10771   3.539   2.630  12.568 -0.6433  0.2476  0.2118
  725TMC3     O10772   3.653   2.621  12.613  0.4249  0.2116 -0.4564
  725TMC3     H10773   3.320   2.697  12.433 -0.6349  0.9445 -1.9869
  725TMC3    H110774   3.658   2.436  12.438  0.2901  1.0699  0.5848
  725TMC3    H210775   3.373   2.417  12.123 -0.7146 -1.3069  0.1959
  725TMC3    C710776   3.590   2.285  12.245 -0.0858 -0.2402  0.2458
  725TMC3    C810777   3.212   2.594  12.206  0.2686  0.4887 -0.1348
  725TMC3    O110778   3.597   2.259  12.129  0.2834  0.0639 -0.0964
  725TMC3    O210779   3.144   2.504  12.160  0.0701  0.7906 -0.2200
  726MPD2     C10780   1.299   4.487  10.923  0.1260  0.5326 -0.5721
  726MPD2    C110781   1.206   4.571  10.867 -0.2234 -0.0123  0.1107
  726MPD2    C210782   1.076   4.520  10.860 -0.9453  0.3306 -0.4521
  726MPD2    C310783   1.034   4.396  10.914  0.2404  0.0161  0.0464
  726MPD2    C410784   1.137   4.325  10.970 -0.1244 -0.7616  0.0368
  726MPD2    C510785   1.268   4.360  10.964 -0.5178 -0.5376  0.3906
  726MPD2     H10786   1.003   4.587  10.817 -1.7295 -0.8230 -0.9349
  726MPD2    H110787   1.119   4.226  11.012  3.3463 -0.1997  2.8279
  726MPD2    H210788   1.405   4.510  10.928  0.6744 -1.9532 -0.8563
  726MPD2    H310789   1.349   4.293  10.991 -0.1686  0.1361  1.0078
  726MPD2     N10790   0.909   4.333  10.896  0.5151  0.1727 -0.4072
  726MPD2    H510791   0.909   4.234  10.918 -1.1912  0.5599  1.3676
  726MPD2    N110792   1.234   4.701  10.824  0.4668  0.4123 -0.1554
  726MPD2    H710793   1.159   0.013  10.772  0.2398 -0.6161 -0.7198
  727TMC3    C110794   1.366   0.150  10.756  0.3922  0.2123  0.1635
  727TMC3    C210795   1.494   0.195  10.728 -0.1947 -0.1023 -0.4888
  727TMC3    C310796   1.514   0.300  10.648  0.2873 -0.7674 -0.7699
  727TMC3    C410797   1.256   0.211  10.700 -0.1696 -0.3816  0.1060
  727TMC3    C510798   1.281   0.317  10.614  0.3925 -0.0155 -0.3439
  727TMC3    C610799   1.409   0.364  10.595  0.9988 -0.4534 -0.2073
  727TMC3     C10800   1.360   0.022  10.830  0.1437  0.0149  0.0253
  727TMC3     O10801   1.458   4.715  10.891  0.7373 -0.1960  0.0015
  727TMC3     H10802   1.580   0.141  10.765 -1.2674 -1.5538 -0.0753
  727TMC3    H110803   1.158   0.185  10.740 -0.6147  1.3118  0.1085
  727TMC3    H210804   1.419   0.444  10.522 -1.3019  1.6637  1.8335
  727TMC3    C710805   1.168   0.379  10.538  0.0178 -0.7061 -0.6223
  727TMC3    C810806   1.645   0.365  10.646  1.0255  0.0314  0.9686
  727TMC3    O110807   1.193   0.497  10.515  0.1134 -0.0347  0.0195
  727TMC3    O210808   1.733   0.288  10.688  0.2395  0.3490  0.6190
  728TMC3    C110809   0.544   2.970  15.674 -0.7950  0.1832  0.3828
  728TMC3    C210810   0.655   3.027  15.628 -0.8397 -0.0814 -0.4081
  728TMC3    C310811   0.649   3.096  15.513 -0.6618 -0.1537  0.1852
  728TMC3    C410812   0.428   2.966  15.604 -0.0661  0.6188 -1.3877
  728TMC3    C510813   0.429   3.031  15.485  0.4239  0.0213  0.1041
  728TMC3    C610814   0.540   3.089  15.428  0.0792  0.1104  0.3105
  728TMC3     C10815   0.560   2.919  15.813  0.3187  0.6706  0.0917
  728TMC3     O10816   0.665   2.945  15.868  0.4814  0.1413  0.3758
  728TMC3     H10817   0.746   3.022  15.687 -1.3068  0.9441  0.3980
  728TMC3    H110818   0.337   2.924  15.647 -0.6713  2.7688 -0.5998
  728TMC3    H210819   0.532   3.158  15.345  2.1482 -0.0026  0.0103
  728TMC3    C710820   0.306   3.026  15.406  1.0684  0.6809 -0.0691
  728TMC3    C810821   0.771   3.169  15.470  0.0669  0.5611  0.3425
  728TMC3    O110822   0.203   2.994  15.464 -0.0715 -0.0164 -0.0496
  728TMC3    O210823   0.851   3.211  15.555  0.6719 -0.8479 -0.6995
  729MPD2     C10824   2.344   3.852  16.499  0.5692  0.1351 -0.6060
  729MPD2    C110825   2.467   3.822  16.555 -0.1644  0.8756 -0.0079
  729MPD2    C210826   2.476   3.795  16.689  0.2963  0.6645  0.2303
  729MPD2    C310827   2.375   3.814  16.777  0.0251  0.3913  0.1382
  729MPD2    C410828   2.247   3.844  16.727 -0.3074  0.5447  0.2292
  729MPD2    C510829   2.237   3.864  16.586 -0.0139  0.0123  0.5664
  729MPD2     H10830   2.571   3.756  16.726  0.6147  0.3789 -0.8794
  729MPD2    H110831   2.161   3.862  16.790 -0.7542 -0.7659 -0.0095
  729MPD2    H210832   2.320   3.873  16.396  3.5527  2.5912 -0.7949
  729MPD2    H310833   2.141   3.904  16.555  0.6049  0.5953 -0.5794
  729MPD2     N10834   2.381   3.785  16.915 -0.0886  0.4908 -0.1977
  729MPD2    H510835   2.300   3.791  16.977 -0.0124  0.1406 -0.0620
  729MPD2    N110836   2.574   3.834  16.467  0.0939 -0.1094 -0.1592
  729MPD2    H710837   2.551   3.881  16.380 -2.0544  0.0434  0.4875
  730TMC3    C110838   2.482   3.773  17.126  0.1618  0.4152 -0.0788
  730TMC3    C210839   2.602   3.735  17.185 -0.1012  0.2080 -0.3330
  730TMC3    C310840   2.652   3.815  17.279 -0.6049  0.4342 -0.2420
  730TMC3    C410841   2.415   3.879  17.166 -0.4100 -0.2495 -0.6883
  730TMC3    C510842   2.470   3.961  17.257  0.2625  0.0459  0.6185
  730TMC3    C610843   2.590   3.931  17.315 -0.8753  0.1561  0.5142
  730TMC3     C10844   2.500   3.762  16.981  0.3466  0.5478  1.2285
  730TMC3     O10845   2.611   3.717  16.949 -0.4116  0.1850  0.5677
  730TMC3     H10846   2.639   3.638  17.154 -2.0488 -0.3569 -0.9531
  730TMC3    H110847   2.317   3.904  17.128  0.1614  3.3837  0.2141
  730TMC3    H210848   2.633   4.004  17.383  2.9108  0.0141 -1.7567
  730TMC3    C710849   2.423   4.098  17.253 -0.6446  0.1947 -0.1146
  730TMC3    C810850   2.783   3.848  17.231  0.0131  0.0250  0.3363
  730TMC3    O110851   2.345   4.123  17.161 -0.1634  0.0943  0.0558
  730TMC3    O210852   2.866   3.758  17.208  0.0402  0.1393  0.0443
  731MPD2     C10853   3.360   1.960  12.165 -0.0112  0.1796  0.7546
  731MPD2    C110854   3.238   2.016  12.182 -1.0845 -0.1291  0.0491
  731MPD2    C210855   3.164   1.986  12.295  0.5068 -1.0830 -0.0068
  731MPD2    C310856   3.211   1.896  12.392  0.6564  0.2778  0.1997
  731MPD2    C410857   3.329   1.834  12.368 -0.1219 -0.4152  0.0025
  731MPD2    C510858   3.403   1.871  12.257 -0.7909 -0.6283  0.6792
  731MPD2     H10859   3.069   2.035  12.314  1.6989  1.2624  0.0091
  731MPD2    H110860   3.376   1.761  12.433 -0.3072 -0.4744  0.0720
  731MPD2    H210861   3.418   1.973  12.075 -0.9323  1.1325  0.2946
  731MPD2    H310862   3.496   1.819  12.234 -1.1462 -0.2930 -1.5469
  731MPD2     N10863   3.123   1.875  12.502  0.0128 -0.0791  0.3902
  731MPD2    H510864   3.033   1.922  12.500 -1.8456 -3.6847 -0.6644
  731MPD2    N110865   3.191   2.096  12.075  0.1893  1.1260  0.1110
  731MPD2    H710866   3.266   2.117  12.010  0.1642  0.4257 -0.1508
  732TMC3    C110867   3.032   2.171  11.925 -0.1213  0.2332 -0.5677
  732TMC3    C210868   2.914   2.117  11.889 -0.4376  0.1294  0.3056
  732TMC3    C310869   2.886   2.096  11.751  1.0764  0.3204 -0.1231
  732TMC3    C410870   3.128   2.202  11.835 -0.3028  0.0415 -0.3639
  732TMC3    C510871   3.094   2.196  11.702 -0.1991  0.0292 -0.6366
  732TMC3    C610872   2.977   2.130  11.660  0.0343 -0.8571  0.3899
  732TMC3     C10873   3.063   2.146  12.063  0.7108 -0.1390 -0.5282
  732TMC3     O10874   2.967   2.131  12.134  0.3644 -0.0593  0.2298
  732TMC3     H10875   2.857   2.058  11.960 -0.6428  0.3752  0.3433
  732TMC3    H110876   3.213   2.257  11.873 -0.1227  0.1746 -0.9533
  732TMC3    H210877   2.945   2.115  11.557 -2.2980 -0.6006  1.0820
  732TMC3    C710878   3.188   2.220  11.596 -0.4208  0.0088 -0.3199
  732TMC3    C810879   2.775   2.018  11.711 -0.0930 -0.0890  0.7115
  732TMC3    O110880   3.135   2.252  11.491  0.4499 -0.0960  0.2539
  732TMC3    O210881   2.772   1.965  11.598 -0.2697 -0.2021  0.3612
  733TMC3    C110882   2.743   0.263  12.509 -0.7799  0.0124 -0.4906
  733TMC3    C210883   2.822   0.154  12.496 -0.5348  0.1577 -0.0623
  733TMC3    C310884   2.939   0.159  12.436  0.0365 -0.1512 -0.3619
  733TMC3    C410885   2.790   0.383  12.465  0.1086  0.3627  0.8398
  733TMC3    C510886   2.914   0.393  12.417  0.7545  0.0918 -0.2465
  733TMC3    C610887   2.990   0.282  12.406 -0.1857 -0.0890  0.3938
  733TMC3     C10888   2.684   0.279  12.636  0.9637  0.3567 -0.2820
  733TMC3     O10889   2.713   0.378  12.698 -0.3459  0.4386 -0.1107
  733TMC3     H10890   2.798   0.060  12.545  2.8564 -0.8700 -0.4204
  733TMC3    H110891   2.739   0.475  12.490  2.0568  1.4642  0.7395
  733TMC3    H210892   3.086   0.297  12.359  0.0076  1.7685  1.3990
  733TMC3    C710893   2.979   0.521  12.417 -0.1882 -0.0181 -0.1229
  733TMC3    C810894   3.040   0.065  12.474 -0.0811 -0.2965  0.7469
  733TMC3    O110895   2.929   0.616  12.359 -0.3299 -0.3483  0.1483
  733TMC3    O210896   3.015   4.679  12.456 -0.6098  0.1986 -0.2734
  734MPD2     C10897   0.652   2.750  12.634  0.0140  0.3941 -0.7058
  734MPD2    C110898   0.596   2.674  12.527  0.0635  0.5851  0.1616
  734MPD2    C210899   0.604   2.712  12.396 -0.4700  0.1227  0.0504
  734MPD2    C310900   0.672   2.832  12.356  0.2465  0.1365 -0.0276
  734MPD2    C410901   0.711   2.919  12.459 -0.4095  0.2324  0.8595
  734MPD2    C510902   0.696   2.879  12.589  0.7297 -0.0089 -0.2012
  734MPD2     H10903   0.571   2.646  12.317 -1.4183 -0.5418  1.0036
  734MPD2    H110904   0.753   3.015  12.432 -0.8204  0.8874  2.6140
  734MPD2    H210905   0.639   2.729  12.739  0.7089  0.7285 -0.5525
  734MPD2    H310906   0.731   2.946  12.667 -1.6891  0.2899  0.6268
  734MPD2     N10907   0.693   2.852  12.218  0.1624 -0.0930  0.0347
  734MPD2    H510908   0.635   2.791  12.162  0.4443 -0.1922 -0.1458
  734MPD2    N110909   0.530   2.558  12.560 -0.4045 -0.6687 -0.4669
  734MPD2    H710910   0.546   2.520  12.653 -0.4668 -1.1028 -0.6344
  735TMC3    C110911   0.365   2.381  12.547 -0.3064  0.5399 -0.7623
  735TMC3    C210912   0.269   2.335  12.458 -0.0827 -0.3628 -0.1393
  735TMC3    C310913   0.293   2.208  12.398  0.3099 -0.1523 -0.2959
  735TMC3    C410914   0.461   2.300  12.594 -0.5518 -0.3993  0.2891
  735TMC3    C510915   0.477   2.174  12.547  0.4714  0.2978  0.3970
  735TMC3    C610916   0.401   2.132  12.437 -0.6940  0.2053 -0.1307
  735TMC3     C10917   0.424   2.508  12.492  0.0495  1.0515 -0.2222
  735TMC3     O10918   0.373   2.548  12.385  0.2288 -0.6449 -0.4959
  735TMC3     H10919   0.199   2.407  12.418  1.4672  0.6678 -1.0220
  735TMC3    H110920   0.536   2.327  12.667  1.6250 -0.3802 -1.9804
  735TMC3    H210921   0.424   2.045  12.376  2.3400  1.0796 -0.2300
  735TMC3    C710922   0.614   2.144  12.525  0.1330  0.3796  0.5081
  735TMC3    C810923   0.305   2.216  12.260  0.3665  0.2889  0.1243
  735TMC3    O110924   0.690   2.238  12.505  0.2223  0.2224  0.3946
  735TMC3    O210925   0.311   2.114  12.192  0.4623  0.1142  0.4883
  736MPD2     C10926   0.755   1.811  12.471 -0.0933  0.1383 -0.6202
  736MPD2    C110927   0.747   1.948  12.463  0.2184  0.7002  1.2503
  736MPD2    C210928   0.844   2.014  12.394 -0.0415  0.0249 -1.2147
  736MPD2    C310929   0.947   1.941  12.337 -0.3188 -0.1370  1.0615
  736MPD2    C410930   0.947   1.802  12.333 -0.2682  0.1890 -0.0798
  736MPD2    C510931   0.855   1.739  12.405 -0.8213 -0.6340 -0.1246
  736MPD2     H10932   0.851   2.122  12.397 -2.9935  0.1407  1.3429
  736MPD2    H110933   1.021   1.745  12.278  1.0063  0.6363  1.1530
  736MPD2    H210934   0.677   1.750  12.515 -0.0867 -1.5088 -2.8586
  736MPD2    H310935   0.872   1.633  12.416  0.3459 -0.5449 -1.0868
  736MPD2     N10936   1.053   2.000  12.261  0.5422 -0.0311 -0.0981
  736MPD2    H510937   1.095   1.937  12.193  2.9182  2.6230 -1.0613
  736MPD2    N110938   0.636   2.009  12.514  0.5630  1.1031  0.9941
  736MPD2    H710939   0.567   1.942  12.544  0.3019  0.7770 -0.3394
  737TMC3    C110940   1.151   2.192  12.160 -0.4113 -0.3163  0.5986
  737TMC3    C210941   1.181   2.327  12.163 -0.4470  0.1775  0.6149
  737TMC3    C310942   1.240   2.386  12.053 -0.3773  0.0054  0.3364
  737TMC3    C410943   1.198   2.115  12.054 -0.0112 -0.0041  0.4841
  737TMC3    C510944   1.270   2.172  11.949  0.4458  0.1233  0.4058
  737TMC3    C610945   1.293   2.304  11.948  0.1972 -0.1185 -0.4931
  737TMC3     C10946   1.080   2.135  12.272 -0.4218 -0.1546 -0.3655
  737TMC3     O10947   1.058   2.209  12.367 -0.5638  0.9123 -0.0711
  737TMC3     H10948   1.136   2.392  12.237  2.7539  4.3576 -1.1542
  737TMC3    H110949   1.162   2.015  12.034  3.2886 -1.3416  1.2951
  737TMC3    H210950   1.348   2.346  11.864  1.3439 -0.4261  0.0998
  737TMC3    C710951   1.291   2.090  11.825  0.0624 -0.3927 -0.3440
  737TMC3    C810952   1.236   2.525  12.035 -0.0791 -0.6241  0.1655
  737TMC3    O110953   1.218   1.996  11.789 -0.0059 -0.5281  0.3950
  737TMC3    O210954   1.244   2.600  12.127 -0.0398 -0.5638 -0.0374
  738MPD2     C10955   1.204   1.423  14.890  0.0380  0.6682 -0.1857
  738MPD2    C110956   1.298   1.335  14.940 -0.3979  1.0007  0.3548
  738MPD2    C210957   1.414   1.393  14.983 -0.0355 -0.3035  0.1223
  738MPD2    C310958   1.439   1.526  14.979  0.1692 -0.9266  0.1099
  738MPD2    C410959   1.346   1.609  14.919 -0.4725  0.0329 -0.4720
  738MPD2    C510960   1.227   1.563  14.882  0.6343  0.5011 -0.5904
  738MPD2     H10961   1.495   1.327  15.009  0.0010  0.1474  1.1335
  738MPD2    H110962   1.365   1.713  14.893 -0.7843  0.1754 -0.1234
  738MPD2    H210963   1.102   1.395  14.866 -0.0487  0.1786  0.7546
  738MPD2    H310964   1.147   1.626  14.844  1.4483  0.6481 -2.0722
  738MPD2     N10965   1.563   1.587  15.010  0.0910  0.6123 -0.2633
  738MPD2    H510966   1.572   1.687  14.992  0.9373  0.6322  0.2530
  738MPD2    N110967   1.282   1.192  14.955 -0.1641  0.2699  0.7998
  738MPD2    H710968   1.352   1.140  15.007 -3.4799 -2.1302  2.8488
  739TMC3    C110969   1.789   1.591  15.034 -0.0980 -0.3046 -0.1718
  739TMC3    C210970   1.788   1.652  14.911 -0.4010  0.2987  0.4162
  739TMC3    C310971   1.908   1.674  14.855 -0.3091 -0.7441  0.3098
  739TMC3    C410972   1.904   1.552  15.098  0.1610  0.1534  0.2448
  739TMC3    C510973   2.018   1.589  15.036 -0.7059  0.0715 -0.3605
  739TMC3    C610974   2.022   1.652  14.915  0.1782  0.2562  0.1126
  739TMC3     C10975   1.663   1.536  15.089 -0.8056 -0.3658  0.6269
  739TMC3     O10976   1.658   1.438  15.159 -0.1739  0.4040  0.0422
  739TMC3     H10977   1.698   1.677  14.856 -1.4280 -1.8513  1.1377
  739TMC3    H110978   1.907   1.518  15.201  0.8356  2.1244  0.8858
  739TMC3    H210979   2.118   1.678  14.870  0.0891 -0.5568 -0.5451
  739TMC3    C710980   2.139   1.570  15.118  0.8723 -0.0124  0.4824
  739TMC3    C810981   1.897   1.690  14.715  0.0484 -1.0274 -0.0202
  739TMC3    O110982   2.130   1.505  15.219  0.0665  0.2722 -0.6285
  739TMC3    O210983   1.792   1.660  14.656  0.0207  0.6042 -0.3503
  740TMC3    C110984   2.565   2.516  14.849 -0.0095 -0.0212 -0.1409
  740TMC3    C210985   2.618   2.512  14.980 -0.0972 -0.2724 -0.3674
  740TMC3    C310986   2.720   2.418  14.997  0.3316 -0.7807  1.0491
  740TMC3    C410987   2.622   2.447  14.744 -0.5922 -0.1576  0.5583
  740TMC3    C510988   2.741   2.372  14.762 -0.0999 -0.1965 -0.4517
  740TMC3    C610989   2.786   2.356  14.888  0.1115 -0.0370  0.3646
  740TMC3     C10990   2.436   2.573  14.813 -0.3040 -0.3643 -0.1008
  740TMC3     O10991   2.411   2.575  14.693  0.0006 -0.5573 -0.5100
  740TMC3     H10992   2.582   2.573  15.062  0.3409  0.1579 -0.4987
  740TMC3    H110993   2.577   2.446  14.645  0.7476 -0.3239 -0.0428
  740TMC3    H210994   2.861   2.281  14.907  1.2992  1.2817  0.9126
  740TMC3    C710995   2.780   2.281  14.658  0.6248 -0.1037 -0.1354
  740TMC3    C810996   2.742   2.379  15.134 -0.0355 -0.7765 -0.0187
  740TMC3    O110997   2.857   2.192  14.684  0.3558  0.2936 -0.6077
  740TMC3    O210998   2.660   2.420  15.214 -0.1052  0.0335 -0.1351
  741TMC3    C110999   1.583   2.099  14.549 -1.0114  0.1449  0.8364
  741TMC3    C211000   1.594   1.982  14.470  0.7151 -0.2177 -0.2586
  741TMC3    C311001   1.584   1.863  14.536  0.7768  0.4289 -0.0018
  741TMC3    C411002   1.560   2.096  14.687  0.0992  0.3961 -0.6333
  741TMC3    C511003   1.549   1.975  14.740 -0.2353  0.3130 -0.0816
  741TMC3    C611004   1.551   1.858  14.673 -0.2572 -0.1966 -0.1052
  741TMC3     C11005   1.606   2.220  14.476 -0.0904 -0.1428 -0.2879
  741TMC3     O11006   1.554   2.325  14.513  0.6241 -0.1651  0.4589
  741TMC3     H11007   1.623   1.973  14.366 -0.3687 -0.0423 -0.5754
  741TMC3    H111008   1.548   2.188  14.742  0.0986 -1.2367  2.0985
  741TMC3    H211009   1.526   1.764  14.721 -2.2098 -0.3572 -1.4411
  741TMC3    C711010   1.590   1.965  14.874 -0.6953  0.1334 -0.0547
  741TMC3    C811011   1.537   1.757  14.449 -0.1833 -0.3543 -0.4836
  741TMC3    O111012   1.558   1.862  14.937  0.1055  0.0664 -0.0313
  741TMC3    O211013   1.469   1.787  14.349 -0.1557  0.2877 -0.0831
  742TMC3    C111014   1.923   0.385  15.348  0.2015 -0.2137  0.0022
  742TMC3    C211015   1.850   0.280  15.293  0.2617  0.4707 -0.7159
  742TMC3    C311016   1.894   0.243  15.167  0.3118  0.5411 -0.6226
  742TMC3    C411017   2.042   0.433  15.294 -0.3176  0.2040  0.8906
  742TMC3    C511018   2.084   0.377  15.180  0.6710 -1.0115  0.0531
  742TMC3    C611019   2.015   0.284  15.111  0.8468 -0.1482  0.1276
  742TMC3     C11020   1.891   0.418  15.485 -0.4620 -0.8701 -0.4030
  742TMC3     O11021   1.910   0.530  15.525 -0.3169  0.6047  0.0113
  742TMC3     H11022   1.744   0.260  15.308 -0.3212  4.1076  0.1367
  742TMC3    H111023   2.103   0.506  15.347  2.0726 -0.4465 -0.9357
  742TMC3    H211024   2.046   0.243  15.016  1.0771  0.3322 -0.0001
  742TMC3    C711025   2.228   0.372  15.162  0.2830  0.1628 -0.0202
  742TMC3    C811026   1.821   0.142  15.096 -0.1742  0.3569  0.0963
  742TMC3    O111027   2.265   0.274  15.101 -0.1114  0.2691  0.3119
  742TMC3    O211028   1.887   0.066  15.029  0.7280 -0.4713  0.2525
  743MPD2     C11029   3.854   2.848   1.154  0.2447  0.0283  0.2568
  743MPD2    C111030   3.939   2.744   1.121 -0.0454 -0.2996  0.2727
  743MPD2    C211031   4.059   2.737   1.185 -0.3685  0.2162  0.2058
  743MPD2    C311032   4.089   2.832   1.284  0.5909 -0.3104  0.2068
  743MPD2    C411033   4.008   2.940   1.314 -0.4029  0.0199 -0.1118
  743MPD2    C511034   3.888   2.945   1.250 -0.3159 -0.2129  0.1342
  743MPD2     H11035   4.141   2.674   1.151 -0.4966  1.0666 -1.6767
  743MPD2    H111036   4.035   3.012   1.390 -0.0224  0.4544 -0.6575
  743MPD2    H211037   3.757   2.854   1.107  0.6487 -0.2275 -0.6099
  743MPD2    H311038   3.814   3.018   1.282 -1.7106 -1.6787  0.2400
  743MPD2     N11039   4.220   2.814   1.331  0.5119 -0.0683  0.5078
  743MPD2    H511040   4.270   2.738   1.285  0.6478  0.8401 -0.8218
  743MPD2    N111041   3.897   2.647   1.030 -0.1839  0.0757  0.1658
  743MPD2    H711042   3.806   2.667   0.989  1.0782  1.7496 -1.8227
  744TMC3    C111043   3.912   2.443   0.914  0.3140  0.0630 -0.0638
  744TMC3    C211044   3.793   2.472   0.850 -0.6200 -0.0932 -0.1985
  744TMC3    C311045   3.758   2.386   0.749  0.3129 -0.0125 -0.3556
  744TMC3    C411046   3.989   2.331   0.888 -0.1909  0.0349  0.5023
  744TMC3    C511047   3.952   2.250   0.782 -0.8593  0.0505 -0.1461
  744TMC3    C611048   3.837   2.274   0.712  0.1530 -0.0359 -0.0158
  744TMC3     C11049   3.967   2.529   1.011 -0.8778  0.2248  0.3353
  744TMC3     O11050   4.055   2.480   1.083  0.4137 -0.5121 -0.9479
  744TMC3     H11051   3.726   2.553   0.877 -2.6540 -1.5581 -0.9084
  744TMC3    H111052   4.091   2.329   0.922 -1.1723 -1.5350  3.2839
  744TMC3    H211053   3.814   2.223   0.620  0.6666 -1.0218  0.4044
  744TMC3    C711054   4.048   2.161   0.726  0.3790 -0.0459  0.3008
  744TMC3    C811055   3.681   2.434   0.642 -0.4143 -0.1612  0.0648
  744TMC3    O111056   4.161   2.168   0.770  0.4914 -0.0225  0.1094
  744TMC3    O211057   3.714   2.391   0.535  0.0591  0.5543 -0.0803
  745TMC3    C111058   2.059   0.009  14.184  0.0190  0.3685 -0.1806
  745TMC3    C211059   1.965   0.023  14.288  0.5064  0.2500  0.3274
  745TMC3    C311060   1.855   0.096  14.265  0.0583 -0.1977  0.4828
  745TMC3    C411061   2.041   0.071  14.066  0.6127  0.1700 -0.1351
  745TMC3    C511062   1.926   0.135  14.038  0.1161 -0.0896 -0.6078
  745TMC3    C611063   1.833   0.156  14.142  1.0430  0.2782 -0.0595
  745TMC3     C11064   2.195   4.713  14.231  0.2564 -0.0885 -0.3886
  745TMC3     O11065   2.202   4.654  14.337 -0.1551 -0.1029 -0.0101
  745TMC3     H11066   1.987   4.712  14.385  1.3211 -2.4176 -1.0413
  745TMC3    H111067   2.112   0.051  13.987 -1.2873  1.2091 -2.1194
  745TMC3    H211068   1.745   0.215  14.120  0.4438 -0.6064 -0.0460
  745TMC3    C711069   1.884   0.185  13.910 -0.7749 -0.5592  0.4061
  745TMC3    C811070   1.790   0.152  14.383 -0.3510 -0.1683 -0.7860
  745TMC3    O111071   1.765   0.213  13.893  0.0031  0.0579  0.2108
  745TMC3    O211072   1.673   0.180  14.374  0.4191  0.4197  0.1040
  746TMC3    C111073   4.453   1.988  10.753  0.3138  0.1482  0.2652
  746TMC3    C211074   4.574   1.989  10.686  0.0436 -0.3980 -0.1722
  746TMC3    C311075   4.588   1.917  10.576 -0.0873 -0.4073  0.3279
  746TMC3    C411076   4.337   1.941  10.699 -0.0292  0.0980 -0.0766
  746TMC3    C511077   4.353   1.885  10.572  0.1162  0.0741  0.3683
  746TMC3    C611078   4.475   1.862  10.514  0.3484  0.5008 -0.4180
  746TMC3     C11079   4.436   2.107  10.831  0.0480 -0.1873 -0.5463
  746TMC3     O11080   4.505   2.126  10.931  0.1346  0.3799 -0.3297
  746TMC3     H11081   4.660   2.017  10.746  1.8424 -0.9542 -2.4969
  746TMC3    H111082   4.243   1.956  10.751 -0.6191  0.5329 -1.2588
  746TMC3    H211083   4.488   1.805  10.423 -0.8313 -2.0298  1.0089
  746TMC3    C711084   4.227   1.864  10.506 -0.6491  0.1055 -0.0979
  746TMC3    C811085   4.706   1.940  10.497  0.0642  0.1558 -0.3494
  746TMC3    O111086   4.130   1.849  10.578  0.1505  0.2802  0.3862
  746TMC3    O211087   0.000   1.858  10.405 -0.7767  0.0248 -0.4319
  747TMC3    C111088   1.743   2.538  11.002 -0.0397 -0.2061  0.1225
  747TMC3    C211089   1.714   2.407  11.037  0.2294 -0.6489 -0.4280
  747TMC3    C311090   1.723   2.379  11.164 -0.0064 -0.4523 -0.6921
  747TMC3    C411091   1.785   2.630  11.096 -0.3210 -0.2274  0.3496
  747TMC3    C511092   1.802   2.581  11.224  0.6327  0.0103 -0.4771
  747TMC3    C611093   1.779   2.450  11.259 -0.8699  0.1314  0.0382
  747TMC3     C11094   1.732   2.585  10.862  0.2274  0.0534 -0.0575
  747TMC3     O11095   1.748   2.702  10.829  0.3397 -0.3128 -0.7614
  747TMC3     H11096   1.657   2.344  10.969  0.8495  0.6033 -2.0995
  747TMC3    H111097   1.824   2.726  11.064 -1.9921  0.3565  0.0889
  747TMC3    H211098   1.804   2.406  11.355 -1.0299  0.6382  0.3101
  747TMC3    C711099   1.897   2.657  11.298 -0.0213  1.3014 -0.2192
  747TMC3    C811100   1.659   2.253  11.207  0.4652 -0.1754  0.3486
  747TMC3    O111101   1.900   2.628  11.416 -0.5132 -0.3623 -0.5544
  747TMC3    O211102   1.611   2.182  11.116  0.7956  0.3490 -0.0778
  748MPD2     C11103   3.366   3.446   1.278  0.3943  0.4029  0.3907
  748MPD2    C111104   3.448   3.334   1.278 -0.2954 -0.4861 -0.5432
  748MPD2    C211105   3.586   3.356   1.278 -0.8150 -0.2570  0.0992
  748MPD2    C311106   3.640   3.480   1.292 -0.5986  0.0074  0.6727
  748MPD2    C411107   3.560   3.591   1.290  0.7934  0.8831  0.2681
  748MPD2    C511108   3.427   3.572   1.285 -0.4449 -0.2325 -0.2933
  748MPD2     H11109   3.657   3.274   1.272 -0.5432 -0.0588  0.6118
  748MPD2    H111110   3.588   3.696   1.298 -1.4177  1.4993  0.0764
  748MPD2    H211111   3.260   3.450   1.259  0.5800 -2.1943 -1.1783
  748MPD2    H311112   3.363   3.658   1.268  0.5176  0.4773 -0.3445
  748MPD2     N11113   3.778   3.503   1.303  0.0920  0.2776 -0.2560
  748MPD2    H511114   3.831   3.425   1.341 -2.3068  0.1970  2.8518
  748MPD2    N111115   3.390   3.205   1.262  0.5126 -0.3356 -0.4873
  748MPD2    H711116   3.291   3.210   1.238  0.2184  1.3999  1.1213
  749TMC3    C111117   3.990   3.603   1.267 -0.5300  0.3166  0.0365
  749TMC3    C211118   4.041   3.488   1.325  0.2266 -0.6472 -1.1009
  749TMC3    C311119   4.161   3.433   1.286  0.5310 -0.1437 -0.4499
  749TMC3    C411120   4.061   3.670   1.172 -0.4722 -0.2812  0.3053
  749TMC3    C511121   4.185   3.609   1.137  0.4690  0.3699 -0.0014
  749TMC3    C611122   4.235   3.493   1.186  0.4067 -0.0596 -0.6955
  749TMC3     C11123   3.845   3.617   1.264  0.3223  0.6730 -0.2924
  749TMC3     O11124   3.804   3.718   1.204 -0.3206  0.1848  0.2520
  749TMC3     H11125   3.994   3.439   1.409  1.8149 -2.0986 -1.0639
  749TMC3    H111126   4.021   3.758   1.123 -0.4422 -1.1734 -1.3557
  749TMC3    H211127   4.337   3.464   1.167  1.3377  2.1375  0.8832
  749TMC3    C711128   4.255   3.699   1.048  0.0609  0.3564 -0.2262
  749TMC3    C811129   4.236   3.368   1.389 -0.1442 -0.4048 -0.3863
  749TMC3    O111130   4.222   3.817   1.048  0.6559  0.1872  0.0387
  749TMC3    O211131   4.233   3.417   1.501  0.3839 -0.4252  0.1480
  750MPD2     C11132   0.182   4.073  11.380  0.2140  0.5876 -0.3342
  750MPD2    C111133   0.056   4.030  11.393  0.5898 -0.0081  0.4163
  750MPD2    C211134   0.000   3.929  11.309  0.0723  0.3586 -1.0237
  750MPD2    C311135   0.071   3.869  11.203 -0.1706 -0.1495  0.3348
  750MPD2    C411136   0.198   3.914  11.193  0.3434 -0.4444 -0.2581
  750MPD2    C511137   0.253   4.019  11.277  0.5336  0.5200 -0.1923
  750MPD2     H11138   4.625   3.919  11.317  0.1984  0.2778  0.5595
  750MPD2    H111139   0.270   3.871  11.124  1.1541  0.7636 -0.1740
  750MPD2    H211140   0.220   4.148  11.448 -1.0556  1.1564 -0.2581
  750MPD2    H311141   0.354   4.054  11.260 -0.0681  2.3682  0.0493
  750MPD2     N11142   0.020   3.766  11.117 -0.0829  0.0633  0.1619
  750MPD2    H511143   0.075   3.742  11.034 -0.6992  0.2447 -0.2947
  750MPD2    N111144   4.715   4.090  11.501  0.4953 -0.5392 -0.9244
  750MPD2    H711145   0.025   4.174  11.538 -3.4379  0.7593  0.5839
  751TMC3    C111146   4.604   3.593  11.043 -0.5169 -0.4563 -0.3871
  751TMC3    C211147   4.490   3.520  11.064  0.6418  0.2729 -0.4014
  751TMC3    C311148   4.460   3.421  10.979 -0.3247  0.7168  0.5544
  751TMC3    C411149   4.683   3.572  10.931  0.1266  0.2492  0.3364
  751TMC3    C511150   4.642   3.478  10.837 -0.2259  0.1293 -0.1614
  751TMC3    C611151   4.531   3.402  10.861 -1.5275  0.0407  0.1734
  751TMC3     C11152   4.624   3.708  11.131 -0.2644 -0.3473  0.4092
  751TMC3     O11153   4.533   3.724  11.209  0.3018 -0.6204 -0.0439
  751TMC3     H11154   4.431   3.548  11.151 -1.8359 -2.4806 -1.2004
  751TMC3    H111155   0.043   3.619  10.901  0.2982  0.6537  1.5233
  751TMC3    H211156   4.511   3.324  10.789  0.6372 -0.8798  0.5854
  751TMC3    C711157   4.726   3.465  10.720  0.2409 -0.3829  0.5756
  751TMC3    C811158   4.323   3.363  10.975 -0.5291  0.3383  0.5746
  751TMC3    O111159   0.109   3.498  10.715  0.3000  0.2115  0.3934
  751TMC3    O211160   4.286   3.326  10.865 -0.3085 -0.2672 -0.4464
  752TMC3    C111161   3.296   3.663  17.232  0.6666  0.0536  0.0817
  752TMC3    C211162   3.342   3.591  17.335  0.2669  0.6674  0.7794
  752TMC3    C311163   3.309   3.629  17.459  0.2943 -1.1076 -0.2771
  752TMC3    C411164   3.226   3.781  17.257  0.8367 -0.1220  0.2413
  752TMC3    C511165   3.193   3.813  17.386  0.2146  0.5402  0.4242
  752TMC3    C611166   3.231   3.732  17.489 -0.4294  0.1140  0.0409
  752TMC3     C11167   3.372   3.670  17.112 -0.2029 -0.1646 -0.6805
  752TMC3     O11168   3.492   3.647  17.120 -0.0637  0.1538  0.4772
  752TMC3     H11169   3.397   3.501  17.310  1.4888  1.0305  2.1864
  752TMC3    H111170   3.218   3.857  17.179  1.4818  0.5287  0.8019
  752TMC3    H211171   3.203   3.762  17.589  3.2494 -0.5243  1.2532
  752TMC3    C711172   3.116   3.935  17.404 -0.1343  0.4016 -0.0836
  752TMC3    C811173   3.354   3.555  17.579  0.2465  0.8498  0.6519
  752TMC3    O111174   3.158   4.039  17.354  0.1536  0.1786 -0.0941
  752TMC3    O211175   3.306   3.577  17.686  0.1901  0.5239  0.1517
  753TMC3    C111176   0.344   4.474  13.309  0.3580 -0.0174  0.3653
  753TMC3    C211177   0.439   4.465  13.411  0.6845  0.5227  0.8197
  753TMC3    C311178   0.483   4.334  13.435 -0.8403 -0.0003 -0.3096
  753TMC3    C411179   0.280   4.364  13.255 -0.8327 -0.4399 -0.0189
  753TMC3    C511180   0.323   4.241  13.286  0.4471  0.8516  0.4406
  753TMC3    C611181   0.431   4.224  13.370  0.2580 -0.6231 -0.2148
  753TMC3     C11182   0.348   4.596  13.233  0.3615  0.1022 -0.2933
  753TMC3     O11183   0.425   4.685  13.263  0.1173 -0.0916 -0.2785
  753TMC3     H11184   0.496   4.555  13.432  1.8119  0.1064 -0.4690
  753TMC3    H111185   0.203   4.361  13.178 -0.7045 -0.3834 -0.1499
  753TMC3    H211186   0.456   4.123  13.400 -0.4874 -0.3050  1.4743
  753TMC3    C711187   0.283   4.129  13.208  0.0509 -0.7505  0.9793
  753TMC3    C811188   0.585   4.310  13.535 -0.1317 -0.0976  0.0216
  753TMC3    O111189   0.176   4.133  13.149 -0.0590 -0.5179  0.1967
  753TMC3    O211190   0.628   4.197  13.548  0.0389  0.1893 -0.3691
  754MPD2     C11191   4.355   3.617  12.898 -0.0988  0.3154 -0.1853
  754MPD2    C111192   4.392   3.488  12.923  0.1189 -0.3156  0.2693
  754MPD2    C211193   4.288   3.394  12.951 -0.7299  0.6449 -0.2190
  754MPD2    C311194   4.154   3.439  12.962 -0.1263 -0.1856  0.0107
  754MPD2    C411195   4.120   3.563  12.936 -0.1574 -0.5617  0.2270
  754MPD2    C511196   4.221   3.653  12.904  0.5858  0.3427  0.3289
  754MPD2     H11197   4.313   3.289  12.955  1.1126  1.0691 -0.6532
  754MPD2    H111198   4.019   3.599  12.955  0.6119 -0.0221  3.2702
  754MPD2    H211199   4.427   3.695  12.877 -0.6633  0.9371  0.2047
  754MPD2    H311200   4.200   3.759  12.893  1.8068  0.6307  0.7708
  754MPD2     N11201   4.048   3.356  13.003  0.4390  0.4121 -0.0829
  754MPD2    H511202   3.951   3.384  12.994 -0.4136 -2.5153 -0.2247
  754MPD2    N111203   4.533   3.469  12.928  0.6355 -0.1835 -0.0359
  754MPD2    H711204   4.597   3.543  12.902 -0.7727  0.6769 -1.0226
  755MPD2     C11205   3.353   3.690  13.234  0.1166  0.0194 -0.2225
  755MPD2    C111206   3.386   3.603  13.341 -0.1867  1.3998 -0.4261
  755MPD2    C211207   3.464   3.493  13.324  0.3875  0.2288 -0.2926
  755MPD2    C311208   3.523   3.466  13.200  0.5995  0.7299 -0.1081
  755MPD2    C411209   3.488   3.553  13.094 -0.9438  0.4636  0.2276
  755MPD2    C511210   3.407   3.661  13.113 -0.2788  0.0974 -0.3034
  755MPD2     H11211   3.485   3.434  13.412 -0.2505 -0.7111 -0.7702
  755MPD2    H111212   3.528   3.552  12.993  1.5250 -1.2273  1.2237
  755MPD2    H211213   3.291   3.779  13.235 -2.2019 -1.6083  0.3834
  755MPD2    H311214   3.394   3.732  13.032 -0.7016  1.3289  0.8408
  755MPD2     N11215   3.615   3.359  13.180 -0.2735 -0.0576 -1.0635
  755MPD2    H511216   3.663   3.354  13.091  0.7772  0.1915 -0.5128
  755MPD2    N111217   3.331   3.627  13.472  0.2751  0.6714  0.7497
  755MPD2    H711218   3.328   3.552  13.541 -1.8593 -0.1005 -0.1707
  756MPD2     C11219   3.718   0.342   9.865  0.2519 -0.2575  0.3940
  756MPD2    C111220   3.664   0.250   9.953  0.3455 -0.0067 -0.6462
  756MPD2    C211221   3.535   0.201   9.941 -0.0276 -0.0716 -0.0435
  756MPD2    C311222   3.454   0.251   9.842 -0.0650 -0.1161 -0.1170
  756MPD2    C411223   3.499   0.352   9.771  0.8454 -0.1523  0.6557
  756MPD2    C511224   3.629   0.398   9.777 -0.2511 -0.3582 -0.7245
  756MPD2     H11225   3.503   0.118  10.002  0.4875 -0.8639 -0.8489
  756MPD2    H111226   3.439   0.411   9.703  2.8010 -1.1947 -1.9958
  756MPD2    H211227   3.821   0.373   9.868 -0.4748  1.8575  2.9701
  756MPD2    H311228   3.669   0.480   9.718  1.5479 -0.6712  0.0592
  756MPD2     N11229   3.321   0.207   9.836 -0.0357 -0.3459  0.8318
  756MPD2    H511230   3.297   0.127   9.893 -1.9380 -0.5308 -0.2182
  756MPD2    N111231   3.750   0.188  10.045  0.1800  0.4433  0.1173
  756MPD2    H711232   3.712   0.127  10.116  1.4871 -0.6622 -0.1200
  757MPD2     C11233   3.054   4.112   9.937  0.1761 -0.3022  0.0967
  757MPD2    C111234   3.160   4.197   9.958  0.5515 -0.1429  0.5847
  757MPD2    C211235   3.148   4.328   9.923 -0.5598 -0.4737 -0.1570
  757MPD2    C311236   3.027   4.385   9.889  0.3370 -0.3053  0.2520
  757MPD2    C411237   2.914   4.305   9.877  0.0946  0.2061  0.8485
  757MPD2    C511238   2.930   4.169   9.897  0.5338 -0.1734  0.8640
  757MPD2     H11239   3.234   4.393   9.924 -1.0634  0.2212 -2.4598
  757MPD2    H111240   2.818   4.344   9.843  1.2182  2.5193  0.3251
  757MPD2    H211241   3.067   4.007   9.960  1.8084 -0.3462 -1.0958
  757MPD2    H311242   2.844   4.104   9.890 -1.8569  2.9367  1.2001
  757MPD2     N11243   3.034   4.517   9.860  0.0192 -0.2165 -0.4991
  757MPD2    H511244   3.128   4.552   9.849  0.3750 -0.5434  1.5302
  757MPD2    N111245   3.287   4.135   9.990 -0.4796  0.2858  0.2536
  757MPD2    H711246   3.287   4.036  10.009 -0.3475  0.2887  0.2696
  758MPD2     C11247   0.022   3.640  16.515  0.1948 -0.4442 -0.5625
  758MPD2    C111248   0.011   3.504  16.520  0.3538  0.4094  0.2384
  758MPD2    C211249   4.613   3.457  16.554 -0.2575 -0.0435  0.0581
  758MPD2    C311250   4.495   3.531  16.545 -0.5164  0.5508 -0.2661
  758MPD2    C411251   4.509   3.666  16.527  0.0555  0.5437  0.2297
  758MPD2    C511252   4.637   3.713  16.520 -0.4219 -0.0968 -0.3207
  758MPD2     H11253   4.608   3.351  16.575  1.1405  0.1278  1.2318
  758MPD2    H111254   4.428   3.738  16.518  0.3188  0.8516  0.3353
  758MPD2    H211255   0.118   3.690  16.502  0.3024 -0.4132  0.3508
  758MPD2    H311256   4.643   3.821  16.512 -3.5658  0.1956  1.3436
  758MPD2     N11257   4.362   3.483  16.566  0.0536  0.6089  0.5169
  758MPD2    H511258   4.291   3.553  16.586 -1.3224 -0.1516 -1.7437
  758MPD2    N111259   0.126   3.424  16.514  0.6729  0.3720 -0.0417
  758MPD2    H711260   0.219   3.463  16.515 -0.2922  2.6190  1.3004
  759MPD2     C11261   3.034   1.886   9.373  0.2845  0.0133 -0.0202
  759MPD2    C111262   2.992   1.943   9.493  0.2507 -0.2994 -0.2529
  759MPD2    C211263   3.038   2.072   9.535 -0.4031 -0.5526  0.0434
  759MPD2    C311264   3.126   2.138   9.454  0.4485  0.3894  0.3391
  759MPD2    C411265   3.155   2.081   9.329  0.6501 -0.4358 -0.1696
  759MPD2    C511266   3.117   1.955   9.291 -0.6078 -0.7166  0.2095
  759MPD2     H11267   2.983   2.129   9.610 -1.1847 -0.7554 -0.3712
  759MPD2    H111268   3.214   2.144   9.263  0.7894 -0.8317 -0.4244
  759MPD2    H211269   2.996   1.793   9.330  2.4687  0.1941 -2.3357
  759MPD2    H311270   3.147   1.916   9.195 -1.4346 -2.1109  0.5114
  759MPD2     N11271   3.167   2.267   9.500  0.2170 -0.6479 -0.0704
  759MPD2    H511272   3.131   2.288   9.593 -0.4023 -0.6227 -0.3109
  759MPD2    N111273   2.902   1.879   9.580  0.1450  0.4414  0.3146
  759MPD2    H711274   2.902   1.919   9.673  1.7199 -0.6343  0.7975
  760MPD2     C11275   2.551   3.957  12.336 -0.1082 -0.3136 -0.3208
  760MPD2    C111276   2.625   3.989  12.224  0.4215  0.6857  0.5406
  760MPD2    C211277   2.673   3.893  12.140  0.0427 -0.2009  0.9382
  760MPD2    C311278   2.643   3.756  12.161  0.3608 -0.0265  0.0462
  760MPD2    C411279   2.554   3.729  12.266 -0.7339  0.1605 -0.0977
  760MPD2    C511280   2.510   3.829  12.352  0.3018  0.1531 -0.3100
  760MPD2     H11281   2.743   3.922  12.062 -2.9149  0.1514 -1.6054
  760MPD2    H111282   2.529   3.627  12.294  1.6498 -0.0552  1.2842
  760MPD2    H211283   2.509   4.033  12.401  0.2619 -2.1176  2.0209
  760MPD2    H311284   2.456   3.802  12.442  0.8191  0.4092  0.0713
  760MPD2     N11285   2.705   3.654  12.086  0.3036  0.3219  0.5452
  760MPD2    H511286   2.681   3.559  12.111  0.5121  0.7285  2.3405
  760MPD2    N111287   2.683   4.117  12.201 -0.2192  0.6264  0.0917
  760MPD2    H711288   2.748   4.122  12.123  0.3266 -2.7431  0.3230
  761MPD2     C11289   3.833   3.293  11.143 -0.3191 -0.7387 -0.1339
  761MPD2    C111290   3.900   3.278  11.021 -0.3676  0.1928 -0.2529
  761MPD2    C211291   4.036   3.303  11.007 -0.5184  0.2856  0.0001
  761MPD2    C311292   4.110   3.360  11.104 -0.6096  0.0274  0.0230
  761MPD2    C411293   4.039   3.407  11.209 -0.2886 -0.2597  0.4654
  761MPD2    C511294   3.903   3.371  11.233 -0.0167  0.4385 -0.0283
  761MPD2     H11295   4.084   3.267  10.917 -0.9504  1.2265 -0.6098
  761MPD2    H111296   4.086   3.471  11.283 -0.1630 -1.9429  1.8362
  761MPD2    H211297   3.728   3.271  11.155 -0.9291  2.1649 -0.1473
  761MPD2    H311298   3.854   3.413  11.321 -0.4517 -0.4624  0.1585
  761MPD2     N11299   4.242   3.397  11.082  0.0712  0.3506 -0.4353
  761MPD2    H511300   4.293   3.437  11.161  1.5635 -2.9057  0.2354
  761MPD2    N111301   3.822   3.210  10.918  0.6111 -0.0916  0.1378
  761MPD2    H711302   3.745   3.153  10.950  1.1400 -1.7110 -1.4642
  762MPD2     C11303   4.185   3.102  10.243  0.2500  0.3939  0.2035
  762MPD2    C111304   4.211   3.015  10.343  0.8711 -0.3164  0.0008
  762MPD2    C211305   4.324   2.940  10.330  0.5888 -1.2892 -0.0255
  762MPD2    C311306   4.423   2.961  10.234 -0.3755 -0.4441  0.1535
  762MPD2    C411307   4.389   3.054  10.135 -0.2169  0.2573 -0.6714
  762MPD2    C511308   4.259   3.110  10.133 -0.0363 -0.5200 -0.3343
  762MPD2     H11309   4.351   2.872  10.411 -0.2861 -0.6853  0.7746
  762MPD2    H111310   4.447   3.068  10.044  0.7732  1.5600  0.1787
  762MPD2    H211311   4.092   3.157  10.248 -0.0215  0.0065 -0.7571
  762MPD2    H311312   4.242   3.178  10.050 -0.6246 -0.4608 -0.1612
  762MPD2     N11313   4.540   2.886  10.241  0.0620  0.1823 -0.1026
  762MPD2    H511314   4.562   2.832  10.323 -1.3098 -0.2352 -0.0189
  762MPD2    N111315   4.120   3.000  10.446  0.3025  0.0566 -0.2582
  762MPD2    H711316   4.043   3.066  10.446  0.2302 -0.0272  1.2947
  763MPD2     C11317   1.303   3.348  16.602  0.0831  0.5806 -0.2536
  763MPD2    C111318   1.251   3.373  16.475 -0.1154 -0.0559  0.1942
  763MPD2    C211319   1.217   3.503  16.438 -0.3790 -0.1763  0.2161
  763MPD2    C311320   1.231   3.605  16.540  0.9147 -0.2285 -0.1059
  763MPD2    C411321   1.266   3.576  16.669 -0.6498 -0.5459  0.2071
  763MPD2    C511322   1.307   3.451  16.697  0.5756 -0.5522  0.2406
  763MPD2     H11323   1.189   3.524  16.335 -0.8102 -0.8410  0.2006
  763MPD2    H111324   1.285   3.657  16.738  0.8892 -0.3949 -0.3901
  763MPD2    H211325   1.341   3.258  16.648 -2.1324  0.0500  0.5006
  763MPD2    H311326   1.336   3.431  16.800 -1.3948  2.1627  1.3028
  763MPD2     N11327   1.201   3.742  16.515  0.8856 -0.1291  0.0771
  763MPD2    H511328   1.215   3.809  16.590  0.4121 -1.0246  0.9634
  763MPD2    N111329   1.253   3.284  16.372 -0.0250 -0.0936 -0.1788
  763MPD2    H711330   1.213   3.318  16.286  1.4907 -0.6464 -1.1046
  764MPD2     C11331   4.133   4.687  17.351 -0.7895 -0.2259  1.0650
  764MPD2    C111332   4.000   4.709  17.333  0.6628 -0.4876 -0.0102
  764MPD2    C211333   3.925   4.728  17.445  0.0323  0.1611  0.0416
  764MPD2    C311334   3.982   4.730  17.575  0.2985  0.8196  0.6968
  764MPD2    C411335   4.111   4.706  17.585 -0.1678  0.6524  0.1013
  764MPD2    C511336   4.190   4.690  17.474  0.2805  0.7713 -0.7837
  764MPD2     H11337   3.823   0.028  17.433  0.7498  1.3400 -2.9988
  764MPD2    H111338   4.165   4.689  17.677  0.2201 -2.9992 -0.8181
  764MPD2    H211339   4.205   4.670  17.272  0.1985  2.3270  1.4339
  764MPD2    H311340   4.294   4.669  17.494  0.7687 -0.5158 -4.8199
  764MPD2     N11341   3.893   4.730  17.686 -0.5288 -0.0577 -0.5388
  764MPD2    H511342   3.794   4.722  17.665 -1.5100  3.2683  2.7601
  764MPD2    N111343   3.942   4.711  17.202 -0.1260 -0.2432 -0.1716
  764MPD2    H711344   3.847   0.013  17.188  0.8319  2.5479  0.1697
  765MPD2     C11345   4.049   2.344  16.053 -0.1794 -0.4856 -0.7668
  765MPD2    C111346   4.118   2.432  16.128  0.4820 -0.8040  0.0715
  765MPD2    C211347   4.247   2.407  16.184 -0.5989 -0.1294  0.2844
  765MPD2    C311348   4.312   2.291  16.137  0.2687 -0.0714 -0.4365
  765MPD2    C411349   4.239   2.201  16.058 -0.9792 -0.2152 -0.9205
  765MPD2    C511350   4.105   2.224  16.018  0.1293  0.4489 -0.3434
  765MPD2     H11351   4.290   2.477  16.255 -0.0495  1.8221 -1.9781
  765MPD2    H111352   4.288   2.110  16.027  1.1866  0.4303  0.6239
  765MPD2    H211353   3.951   2.361  16.010 -0.6788  0.9608  0.9047
  765MPD2    H311354   4.042   2.162  15.954 -1.3902 -0.9713  2.5571
  765MPD2     N11355   4.444   2.262  16.179 -0.2449  0.1191  0.4855
  765MPD2    H511356   4.484   2.180  16.135  0.0667 -0.6467  2.1981
  765MPD2    N111357   4.044   2.548  16.155  0.1520  0.2692 -0.3083
  765MPD2    H711358   3.947   2.541  16.127  0.5658 -0.2157 -1.6426
  766MPD2     C11359   3.392   2.847  15.940  0.5468 -0.1925 -0.0377
  766MPD2    C111360   3.510   2.783  15.952  0.1430 -0.0659 -0.5283
  766MPD2    C211361   3.561   2.714  15.842  0.0208  0.3058  0.3108
  766MPD2    C311362   3.493   2.713  15.719 -0.7765  0.2155 -0.2208
  766MPD2    C411363   3.369   2.776  15.716  0.1020  0.6729  0.4463
  766MPD2    C511364   3.317   2.835  15.826 -0.5503  0.7617 -0.3605
  766MPD2     H11365   3.652   2.657  15.849 -0.2247 -0.3332 -1.8849
  766MPD2    H111366   3.315   2.780  15.622 -0.9682  0.3427  1.0459
  766MPD2    H211367   3.356   2.906  16.024  1.0783  0.6794 -0.4227
  766MPD2    H311368   3.229   2.896  15.810 -2.4610 -1.5066  1.4629
  766MPD2     N11369   3.542   2.668  15.593  0.4822  0.2020  0.6646
  766MPD2    H511370   3.495   2.712  15.514 -0.2031  1.9021  2.0273
  766MPD2    N111371   3.576   2.787  16.071 -0.1676 -0.5438  0.2205
  766MPD2    H711372   3.532   2.844  16.143 -1.7679 -1.8534  0.2710
  767MPD2     C11373   3.086   3.028  15.493  0.3439  0.1227  0.7381
  767MPD2    C111374   3.217   3.014  15.461  0.7519 -0.1938  0.0860
  767MPD2    C211375   3.250   2.934  15.357  0.3235  0.1612 -0.1066
  767MPD2    C311376   3.162   2.860  15.292  0.0035  0.1428 -0.7130
  767MPD2    C411377   3.027   2.871  15.324 -0.9512 -0.0537  1.5049
  767MPD2    C511378   2.992   2.959  15.416 -0.5708 -0.6154  0.2336
  767MPD2     H11379   3.352   2.920  15.322 -0.9963  0.6824 -4.1375
  767MPD2    H111380   2.945   2.820  15.273  0.3179 -0.6972  0.1166
  767MPD2    H211381   3.064   3.106  15.565 -0.8389  1.6049 -1.2375
  767MPD2    H311382   2.888   2.979  15.438 -0.4930  2.5602 -2.3057
  767MPD2     N11383   3.206   2.786  15.185 -0.4065 -0.3017 -0.6193
  767MPD2    H511384   3.308   2.785  15.180 -0.3412  1.4173  0.3247
  767MPD2    N111385   3.316   3.075  15.545  0.1689 -0.3859 -0.1608
  767MPD2    H711386   3.285   3.151  15.605  0.7137  0.7322 -1.2894
  768MPD2     C11387   3.414   1.411  10.756 -0.3053 -0.4162 -0.0237
  768MPD2    C111388   3.525   1.469  10.692 -0.1825  0.1435  0.5685
  768MPD2    C211389   3.644   1.412  10.721  0.4474  0.1469 -0.0322
  768MPD2    C311390   3.666   1.307  10.804 -0.2626 -0.7923  0.0238
  768MPD2    C411391   3.557   1.251  10.865 -0.7009  0.4285  0.0908
  768MPD2    C511392   3.433   1.311  10.852  0.9097 -0.4654 -0.3938
  768MPD2     H11393   3.733   1.462  10.684  1.1413 -0.1630  1.2279
  768MPD2    H111394   3.572   1.169  10.934 -0.7141  0.5278  0.2121
  768MPD2    H211395   3.311   1.432  10.727 -0.6194 -3.4806 -1.1938
  768MPD2    H311396   3.340   1.263  10.880  1.0503  0.8151  2.2737
  768MPD2     N11397   3.795   1.250  10.823 -0.2433  0.5010  0.6435
  768MPD2    H511398   3.790   1.163  10.876 -1.4420  0.7430  0.9200
  768MPD2    N111399   3.513   1.579  10.600 -0.3745  0.5461 -0.1887
  768MPD2    H711400   3.593   1.598  10.540 -1.5913 -0.6046 -2.1575
  769MPD2     C11401   0.526   4.264  14.764  0.0176  0.2826  0.1026
  769MPD2    C111402   0.415   4.311  14.833  0.8930  0.7218 -0.7803
  769MPD2    C211403   0.431   4.400  14.941 -0.2101 -0.6166 -0.7667
  769MPD2    C311404   0.554   4.446  14.986  0.5148 -0.2927 -0.2990
  769MPD2    C411405   0.664   4.399  14.918  0.0891 -0.0050  0.4758
  769MPD2    C511406   0.648   4.307  14.810 -0.7888  0.3199 -0.1210
  769MPD2     H11407   0.346   4.440  14.995  0.4622  0.9409 -0.8565
  769MPD2    H111408   0.765   4.433  14.937  0.2254  1.0098 -2.0722
  769MPD2    H211409   0.530   4.188  14.687 -0.1977  1.3778 -1.0024
  769MPD2    H311410   0.729   4.257  14.759 -2.3431 -0.0509 -2.2174
  769MPD2     N11411   0.555   4.545  15.085  0.2022 -0.8426 -0.2306
  769MPD2    H511412   0.470   4.568  15.137 -0.4021  2.4242 -2.6494
  769MPD2    N111413   0.288   4.256  14.796  0.2353 -0.0069  0.3095
  769MPD2    H711414   0.284   4.174  14.737 -0.2856  0.9602 -0.9848
  770MPD2     C11415   4.413   3.785  15.475 -0.3651 -0.3886 -0.5982
  770MPD2    C111416   4.501   3.708  15.403 -0.1395  0.6484 -0.3525
  770MPD2    C211417   4.549   3.770  15.287 -0.4950 -0.7270  0.2040
  770MPD2    C311418   4.506   3.892  15.246 -0.2590  0.6327  0.0598
  770MPD2    C411419   4.414   3.968  15.321  0.5545  0.2143  0.0865
  770MPD2    C511420   4.367   3.912  15.436  0.2016  0.2758 -0.6019
  770MPD2     H11421   4.631   3.720  15.236 -1.8494 -2.0922 -0.6542
  770MPD2    H111422   4.388   4.071  15.296  1.0252  0.5713  1.0997
  770MPD2    H211423   4.375   3.752  15.571  1.2652  0.8993  0.5019
  770MPD2    H311424   4.297   3.962  15.500  0.1626  0.8830 -1.1191
  770MPD2     N11425   4.567   3.934  15.128  0.0116 -0.0784 -0.1979
  770MPD2    H511426   4.636   3.865  15.102  1.4071  0.8189  1.1296
  770MPD2    N111427   4.547   3.590  15.459  0.4894 -0.2726 -0.2343
  770MPD2    H711428   4.495   3.554  15.539 -2.2564  1.3969 -1.2775
  771MPD2     C11429   1.232   2.036  14.130 -0.0850 -0.2193 -0.0467
  771MPD2    C111430   1.150   2.134  14.073  0.6318  0.1260 -0.6583
  771MPD2    C211431   1.048   2.091  13.991  0.5611 -0.0560  0.5162
  771MPD2    C311432   1.020   1.963  13.960 -0.0868  0.1340 -0.0396
  771MPD2    C411433   1.106   1.868  14.011  0.5593 -0.0470  0.2320
  771MPD2    C511434   1.212   1.910  14.090 -0.1530 -0.2692 -0.8294
  771MPD2     H11435   0.995   2.168  13.936 -1.4106 -1.5844  0.2808
  771MPD2    H111436   1.094   1.761  13.998 -4.4289  0.7651 -1.7679
  771MPD2    H211437   1.316   2.051  14.197 -0.2347  2.3718 -0.4220
  771MPD2    H311438   1.281   1.834  14.124 -0.9765 -0.4119  0.5506
  771MPD2     N11439   0.910   1.933  13.870 -0.1727 -0.2194  0.3609
  771MPD2    H511440   0.861   2.010  13.826  1.5295  0.1602 -0.8884
  771MPD2    N111441   1.177   2.273  14.083  0.2217  0.1712  0.1637
  771MPD2    H711442   1.119   2.337  14.031 -0.2816 -0.0914  0.4041
  772MPD2     C11443   1.041   2.849  13.690 -0.2044  0.2041 -0.1946
  772MPD2    C111444   0.987   2.806  13.804  0.2624  0.3148  0.2924
  772MPD2    C211445   0.854   2.816  13.823 -0.8050  0.2289 -0.5295
  772MPD2    C311446   0.773   2.875  13.727 -0.7984 -0.4850 -0.0116
  772MPD2    C411447   0.829   2.918  13.605 -0.1536  0.5690 -0.7215
  772MPD2    C511448   0.961   2.903  13.592 -0.2335  0.4356  0.3152
  772MPD2     H11449   0.811   2.784  13.917  1.7431  2.4966  1.3939
  772MPD2    H111450   0.777   2.970  13.526 -2.4495  0.5105  0.7742
  772MPD2    H211451   1.146   2.840  13.665 -0.1318 -1.8131  0.7896
  772MPD2    H311452   1.017   2.926  13.502 -1.0648  0.1963 -0.2599
  772MPD2     N11453   0.635   2.900  13.754  0.2201  0.3194  0.4880
  772MPD2    H511454   0.582   2.952  13.684 -0.7112 -1.1153  0.1253
  772MPD2    N111455   1.061   2.740  13.907  0.1195 -0.2562 -0.5217
  772MPD2    H711456   1.011   2.709  13.990  0.0420  1.2258 -0.0150
  773MPD2     C11457   0.120   3.981   0.036 -0.3595  0.6910  0.5934
  773MPD2    C111458   0.085   3.849   0.010  0.9747  0.0194  0.4431
  773MPD2    C211459   0.101   3.752   0.112  0.1500 -0.6969  0.4747
  773MPD2    C311460   0.153   3.782   0.239 -0.2211  0.2574  0.6910
  773MPD2    C411461   0.171   3.915   0.266 -0.5606  0.6347 -0.0631
  773MPD2    C511462   0.153   4.007   0.168 -0.0375  0.2012 -0.3879
  773MPD2     H11463   0.075   3.649   0.091 -3.1985 -0.1922  2.0808
  773MPD2    H111464   0.202   3.960   0.360 -1.3755 -1.3401  1.1590
  773MPD2    H211465   0.124   4.068  17.700  1.2528  0.3947  0.2857
  773MPD2    H311466   0.174   4.112   0.189  0.4423 -0.3118  1.7061
  773MPD2     N11467   0.175   3.685   0.335  0.3177  0.4720  0.5120
  773MPD2    H511468   0.152   3.590   0.306  0.1753  0.2598  1.3317
  773MPD2    N111469   0.053   3.813  17.609  0.4459  0.2970 -0.0245
  773MPD2    H711470   0.027   3.715  17.599 -1.2347  0.8720 -1.1891
  774MPD2     C11471   4.534   2.389  13.151 -0.6067 -0.0944  0.1546
  774MPD2    C111472   4.441   2.448  13.233  0.4565  0.3046  0.8932
  774MPD2    C211473   4.427   2.586  13.237  0.1393  0.1661  0.3558
  774MPD2    C311474   4.513   2.668  13.159  0.2419  0.4380 -0.0207
  774MPD2    C411475   4.604   2.600  13.080 -0.0749 -0.0912  0.5642
  774MPD2    C511476   4.614   2.466  13.072 -0.1492 -0.0667 -0.2251
  774MPD2     H11477   4.352   2.631  13.301 -0.7078  3.0962 -2.7336
  774MPD2    H111478   4.676   2.651  13.017 -0.4565  0.5942  0.6837
  774MPD2    H211479   4.551   2.282  13.144  1.8619  0.2647  0.5570
  774MPD2    H311480   4.688   2.417  13.010 -0.5657  0.6888 -1.3240
  774MPD2     N11481   4.492   2.807  13.163 -0.0435  0.6403  0.3640
  774MPD2    H511482   4.431   2.837  13.239  0.0864  0.1230  0.6745
  774MPD2    N111483   4.345   2.375  13.313 -0.0474  0.1401  0.9016
  774MPD2    H711484   4.281   2.430  13.368 -1.1868  0.3396 -0.6091
  775MPD2     C11485   0.748   4.145  15.478 -0.0006  0.5441 -0.2411
  775MPD2    C111486   0.797   4.253  15.560  0.9205 -0.2697 -0.3033
  775MPD2    C211487   0.881   4.355  15.514 -0.3662 -0.0720  0.1092
  775MPD2    C311488   0.926   4.342  15.382  0.0727 -0.3905 -1.0859
  775MPD2    C411489   0.877   4.238  15.299  0.6187 -0.0810 -0.7391
  775MPD2    C511490   0.791   4.145  15.347 -1.0261  0.3905 -0.7050
  775MPD2     H11491   0.921   4.427  15.585 -0.8906  0.2833  0.0455
  775MPD2    H111492   0.917   4.228  15.199 -1.6036 -1.1447 -1.4991
  775MPD2    H211493   0.678   4.072  15.515  0.3329  0.6405  0.5725
  775MPD2    H311494   0.755   4.064  15.284 -1.6767  0.4540 -0.4180
  775MPD2     N11495   1.037   4.416  15.336 -0.9845 -0.1933 -0.3510
  775MPD2    H511496   1.057   4.387  15.241  0.1754 -1.7152  0.3722
  775MPD2    N111497   0.770   4.267  15.694  0.5001 -0.6024 -0.0354
  775MPD2    H711498   0.802   4.354  15.737  0.0142  0.0407 -0.9811
  776MPD2     C11499   4.142   4.726  11.632  0.1810 -0.1019  0.0102
  776MPD2    C111500   4.269   4.680  11.593  0.4001 -0.3180 -0.2555
  776MPD2    C211501   4.358   0.034  11.534 -0.0447  0.3155  0.4444
  776MPD2    C311502   4.325   0.162  11.492  0.4940 -0.1289 -0.1783
  776MPD2    C411503   4.194   0.204  11.525 -0.6707 -0.1405 -0.3981
  776MPD2    C511504   4.103   0.123  11.596 -0.1881  0.2472 -0.3211
  776MPD2     H11505   4.452   4.727  11.498 -0.4353  0.1406 -0.3991
  776MPD2    H111506   4.146   0.297  11.495 -0.4496  0.0215 -0.2559
  776MPD2    H211507   4.061   4.666  11.672 -0.4360  1.4179  1.0609
  776MPD2    H311508   3.998   0.144  11.611  0.0321  2.0616 -1.3914
  776MPD2     N11509   4.416   0.234  11.410  0.2556 -0.4004  0.0230
  776MPD2    H511510   4.513   0.202  11.412  0.8017  1.1966 -0.6555
  776MPD2    N111511   4.300   4.551  11.629 -0.5856  0.1218  0.7861
  776MPD2    H711512   4.224   4.496  11.667 -0.2264  0.4263  1.9181
  777MPD2     C11513   0.457   2.288   0.978 -0.2770 -0.6594  0.2018
  777MPD2    C111514   0.326   2.318   0.963 -0.3853 -0.0827  0.0805
  777MPD2    C211515   0.245   2.257   0.867 -0.3045 -0.4600 -0.4260
  777MPD2    C311516   0.304   2.153   0.791 -0.4767 -0.1145  0.7481
  777MPD2    C411517   0.437   2.121   0.811  0.0294 -0.2342 -0.0771
  777MPD2    C511518   0.512   2.192   0.902 -0.1924  0.4303 -0.5025
  777MPD2     H11519   0.142   2.287   0.852 -0.9151 -2.8235 -0.9599
  777MPD2    H111520   0.489   2.041   0.760 -1.5711 -0.2228 -1.7076
  777MPD2    H211521   0.525   2.340   1.044 -1.6047  0.6748  0.5227
  777MPD2    H311522   0.614   2.158   0.916 -0.5685 -0.6309 -0.4051
  777MPD2     N11523   0.216   2.080   0.705 -0.5610  0.6434 -0.3276
  777MPD2    H511524   0.123   2.121   0.707 -0.0007  1.9061 -0.1420
  777MPD2    N111525   0.274   2.415   1.053  0.3140  0.7369 -0.7496
  777MPD2    H711526   0.340   2.438   1.126  0.2125  0.3185 -0.5280
  778MPD2     C11527   1.218   2.568  15.157 -0.8494 -0.1432  0.3828
  778MPD2    C111528   1.182   2.500  15.038  0.3192 -0.2899  0.0867
  778MPD2    C211529   1.266   2.510  14.926 -0.2764  0.4347  0.2302
  778MPD2    C311530   1.376   2.599  14.929  0.0290  0.0767  0.7676
  778MPD2    C411531   1.401   2.669  15.046  0.7659 -0.2700  0.6846
  778MPD2    C511532   1.321   2.656  15.160 -0.1929  0.6090  0.4644
  778MPD2     H11533   1.240   2.450  14.839 -0.4307  1.7070 -0.5970
  778MPD2    H111534   1.488   2.734  15.054 -0.7181  1.6239  1.2695
  778MPD2    H211535   1.162   2.556  15.249  0.1346 -1.2543  0.8333
  778MPD2    H311536   1.339   2.721  15.245  1.4156 -1.3605  1.6114
  778MPD2     N11537   1.462   2.599  14.816 -0.3978 -0.4137 -0.2235
  778MPD2    H511538   1.423   2.544  14.740  0.0364 -0.3245 -0.5142
  778MPD2    N111539   1.072   2.409  15.022  0.4724 -0.7149 -0.1282
  778MPD2    H711540   1.071   2.366  14.930 -0.7481  1.3995 -1.1129
  779MPD2     C11541   0.977   0.761  13.747  0.3551  0.0104 -0.4897
  779MPD2    C111542   0.953   0.752  13.880  0.2983  0.5430 -1.1153
  779MPD2    C211543   0.947   0.871  13.960  0.0040  0.0035 -0.2930
  779MPD2    C311544   0.945   0.996  13.902  0.2645  0.0921  0.2535
  779MPD2    C411545   0.960   1.004  13.761 -0.6916 -0.0581 -0.1140
  779MPD2    C511546   0.983   0.884  13.695 -0.1102  0.4071  0.2910
  779MPD2     H11547   0.931   0.873  14.067 -1.2320 -2.3007 -0.4201
  779MPD2    H111548   0.952   1.100  13.712  1.8010  0.4845  0.5595
  779MPD2    H211549   0.991   0.678  13.678 -1.2217 -2.1556  1.7914
  779MPD2    H311550   0.995   0.893  13.587 -0.9507  3.5053  0.4334
  779MPD2     N11551   0.934   1.108  13.978 -0.3159 -0.0164  0.1181
  779MPD2    H511552   0.958   1.099  14.076  1.9282  1.1445 -0.3474
  779MPD2    N111553   0.944   0.626  13.943 -0.0418  0.0186  0.1178
  779MPD2    H711554   0.929   0.619  14.043  0.5157 -0.4280  0.1659
  780MPD2     C11555   0.401   1.618   1.308  0.3725 -0.0750  0.5630
  780MPD2    C111556   0.351   1.528   1.217 -0.1425  1.1517 -0.3435
  780MPD2    C211557   0.433   1.468   1.124 -0.8218  0.4353 -0.2215
  780MPD2    C311558   0.570   1.494   1.119 -0.1608 -0.1429  0.8789
  780MPD2    C411559   0.622   1.577   1.218 -0.7963  0.2872  0.1315
  780MPD2    C511560   0.538   1.644   1.306  0.8453  0.8894 -0.0111
  780MPD2     H11561   0.388   1.391   1.063 -0.7103  0.4382 -0.3081
  780MPD2    H111562   0.725   1.610   1.211 -0.3804 -0.9041  0.7737
  780MPD2    H211563   0.348   1.668   1.389  0.4857 -0.8196  1.1024
  780MPD2    H311564   0.584   1.721   1.368  0.3709  1.3286 -0.2046
  780MPD2     N11565   0.652   1.440   1.017  0.0959 -0.4096 -1.0617
  780MPD2    H511566   0.609   1.371   0.956  1.9184 -1.9703 -0.5935
  780MPD2    N111567   0.216   1.488   1.233 -0.0221  0.3751  0.3999
  780MPD2    H711568   0.158   1.529   1.306 -0.1336  1.1993 -0.1554
  781MPD2     C11569   2.556   2.887  12.433 -0.0880 -0.2240 -0.5770
  781MPD2    C111570   2.433   2.825  12.446  0.0134 -0.1824 -0.1804
  781MPD2    C211571   2.337   2.874  12.355  0.4786 -0.1754 -0.1861
  781MPD2    C311572   2.378   2.962  12.251 -0.4483 -0.1837  0.0296
  781MPD2    C411573   2.503   3.002  12.239  0.0524  0.7646  0.2219
  781MPD2    C511574   2.592   2.961  12.329 -0.8354 -0.5750 -0.1079
  781MPD2     H11575   2.232   2.846  12.357  0.7129 -1.1733 -1.7074
  781MPD2    H111576   2.539   3.066  12.160  0.0466 -0.7528 -1.0045
  781MPD2    H211577   2.637   2.860  12.500 -0.9713 -1.4195  0.0211
  781MPD2    H311578   2.696   2.988  12.317 -1.0973 -0.2831 -1.6218
  781MPD2     N11579   2.290   3.018  12.157 -0.3689  0.4715 -0.5435
  781MPD2    H511580   2.342   3.084  12.100 -0.4618 -0.6449 -1.9227
  781MPD2    N111581   2.417   2.715  12.530  0.4488  0.3107 -0.4059
  781MPD2    H711582   2.493   2.685  12.591 -0.3421 -0.4571  0.1993
  782MPD2     C11583   0.503   3.856  10.120  0.3717 -0.1580 -0.3394
  782MPD2    C111584   0.588   3.796  10.219 -0.1553  0.6540  0.2161
  782MPD2    C211585   0.612   3.860  10.333  0.2586  0.5350 -0.4841
  782MPD2    C311586   0.552   3.986  10.356  0.0199 -0.5425 -0.3026
  782MPD2    C411587   0.474   4.044  10.255 -0.4676  0.2342  0.0553
  782MPD2    C511588   0.444   3.978  10.145  0.4296  0.7053 -0.8630
  782MPD2     H11589   0.675   3.809  10.405 -1.0749  1.2180  1.1880
  782MPD2    H111590   0.428   4.141  10.272 -1.9836 -0.7096  1.3468
  782MPD2    H211591   0.479   3.815  10.022  0.1263 -0.7632 -0.0248
  782MPD2    H311592   0.383   4.023  10.067  1.2110 -2.3514 -3.2219
  782MPD2     N11593   0.572   4.028  10.488 -0.1592 -0.2090  0.2007
  782MPD2    H511594   0.618   3.960  10.547  0.0302  1.0898  1.5433
  782MPD2    N111595   0.646   3.666  10.211  0.7644  0.1474  0.4526
  782MPD2    H711596   0.703   3.640  10.290 -0.0980 -0.3889  0.9038
  783MPD2     C11597   4.607   3.313  10.411 -0.6935 -0.0218 -0.2279
  783MPD2    C111598   4.700   3.354  10.504  0.1852 -0.7978 -0.7120
  783MPD2    C211599   0.103   3.325  10.479 -0.6085  0.7905 -0.3631
  783MPD2    C311600   0.150   3.272  10.363  0.0247  0.0626  0.0119
  783MPD2    C411601   0.056   3.236  10.268 -0.6907  0.0984  0.2016
  783MPD2    C511602   4.656   3.253  10.291 -0.0882  0.2567 -0.4326
  783MPD2     H11603   0.172   3.345  10.560  0.3576 -5.2282  0.2388
  783MPD2    H111604   0.075   3.188  10.173  0.2322  0.1919  0.3335
  783MPD2    H211605   4.502   3.336  10.408 -1.0633 -1.6976 -0.4660
  783MPD2    H311606   4.581   3.218  10.221 -1.4080 -0.1321  1.1563
  783MPD2     N11607   0.290   3.258  10.344  0.0879 -0.3832 -0.0200
  783MPD2    H511608   0.352   3.287  10.420 -0.1958  0.9039 -0.2897
  783MPD2    N111609   4.649   3.408  10.620  0.2371 -0.4016  0.0844
  783MPD2    H711610   4.549   3.408  10.634  0.0744  1.2567 -1.0017
  784MPD2     C11611   2.159   4.217   1.189  0.2156 -0.2587 -1.1289
  784MPD2    C111612   2.265   4.289   1.154 -0.2785  0.2520  0.1329
  784MPD2    C211613   2.256   4.390   1.058  0.6622  0.6283  0.3823
  784MPD2    C311614   2.135   4.421   1.004 -0.3745  0.1707 -0.2325
  784MPD2    C411615   2.030   4.342   1.036 -0.2144  0.0666 -0.2217
  784MPD2    C511616   2.042   4.242   1.127 -0.3735  0.8883  0.4423
  784MPD2     H11617   2.337   4.463   1.052  0.4860  0.6816 -1.2794
  784MPD2    H111618   1.928   4.350   1.001 -0.2743  0.4486  0.0402
  784MPD2    H211619   2.161   4.139   1.265 -0.4880  1.2274  0.4207
  784MPD2    H311620   1.958   4.177   1.149 -0.0550  0.2658 -0.1534
  784MPD2     N11621   2.122   4.534   0.916 -0.3454 -0.0460 -0.2450
  784MPD2    H511622   2.199   4.597   0.898  0.4352 -1.0884 -0.5615
  784MPD2    N111623   2.390   4.297   1.230 -0.3335  0.2125 -0.0965
  784MPD2    H711624   2.452   4.372   1.201  1.4509 -0.4032  2.1685
  785MPD2     C11625   2.653   2.450  10.832 -0.1887  0.2609 -0.1399
  785MPD2    C111626   2.563   2.557  10.842  0.0776 -0.5893  0.2979
  785MPD2    C211627   2.441   2.557  10.772  0.6173 -0.3971 -0.3477
  785MPD2    C311628   2.407   2.446  10.693 -0.6822 -0.4075  0.3235
  785MPD2    C411629   2.486   2.333  10.697 -0.7043  0.2688  0.0424
  785MPD2    C511630   2.611   2.341  10.753 -0.2151 -0.3627 -0.2243
  785MPD2     H11631   2.384   2.650  10.773 -0.5045 -1.0697 -1.3331
  785MPD2    H111632   2.463   2.238  10.650 -2.3435 -0.0175  1.4569
  785MPD2    H211633   2.753   2.445  10.874 -1.5436 -1.0480  2.9627
  785MPD2    H311634   2.683   2.263  10.732 -0.7904 -0.5329 -1.5646
  785MPD2     N11635   2.285   2.458  10.623  0.0335 -0.0844  0.5428
  785MPD2    H511636   2.230   2.543  10.630 -0.0966 -0.0296 -1.0553
  785MPD2    N111637   2.594   2.680  10.905  0.2593  0.1659 -0.1460
  785MPD2    H711638   2.520   2.750  10.900  1.9076  1.6904 -3.4341
  786MPD2     C11639   1.385   0.007  14.871 -0.2083 -0.0043 -1.0300
  786MPD2    C111640   1.515   4.714  14.833  0.1126  0.9098 -0.5640
  786MPD2    C211641   1.610   0.024  14.916 -0.8405  0.9292  0.8857
  786MPD2    C311642   1.590   0.108  15.023 -0.5311 -0.1769  0.1158
  786MPD2    C411643   1.459   0.143  15.054 -0.8013 -0.2174 -0.0166
  786MPD2    C511644   1.354   0.093  14.977  0.0303 -0.1158 -0.0374
  786MPD2     H11645   1.710   4.722  14.893 -0.2407  1.6553  2.3674
  786MPD2    H111646   1.428   0.200  15.141  0.2925  1.4377 -0.7064
  786MPD2    H211647   1.303   4.699  14.814 -0.6161 -0.2289 -0.2921
  786MPD2    H311648   1.252   0.107  15.009  0.2254  0.4607  0.3156
  786MPD2     N11649   1.690   0.167  15.103 -0.3383 -0.1243 -0.5237
  786MPD2    H511650   1.659   0.245  15.160  0.3974 -0.9903  1.0621
  786MPD2    N111651   1.559   4.659  14.709  0.5279  0.2197 -0.1083
  786MPD2    H711652   1.656   4.635  14.690  0.5849  0.7116 -0.4380
  787MPD2     C11653   2.036   4.310  14.718 -0.1129  0.0512  0.2368
  787MPD2    C111654   2.003   4.299  14.582  0.4186  0.7161  0.1999
  787MPD2    C211655   2.064   4.200  14.510 -0.3695  0.2563  0.0656
  787MPD2    C311656   2.158   4.115  14.568  0.0587  0.4595 -0.1587
  787MPD2    C411657   2.193   4.130  14.696  0.1213 -0.3356  0.1615
  787MPD2    C511658   2.132   4.231  14.772 -0.2314  0.4547  0.0970
  787MPD2     H11659   2.028   4.171  14.412  1.1275 -0.6129 -0.2164
  787MPD2    H111660   2.271   4.066  14.736 -0.8980 -2.5850 -1.4073
  787MPD2    H211661   1.987   4.388  14.774  0.0656  0.6424 -0.4292
  787MPD2    H311662   2.163   4.247  14.875 -2.1973  1.2564  0.5708
  787MPD2     N11663   2.225   4.023  14.477  0.2358 -0.7066  0.4922
  787MPD2    H511664   2.203   4.034  14.379  1.5168  1.4949  0.4649
  787MPD2    N111665   1.891   4.377  14.537 -0.3715 -0.1788 -0.1985
  787MPD2    H711666   1.858   4.462  14.582  1.0234 -0.7637  1.9287
  788MPD2     C11667   3.473   3.879   1.063  0.1147 -0.1620  0.4837
  788MPD2    C111668   3.550   3.857   0.949 -0.2732 -0.2481 -0.2561
  788MPD2    C211669   3.540   3.950   0.841 -0.6594 -0.1696 -0.0654
  788MPD2    C311670   3.455   4.056   0.847 -0.0553 -0.0258 -0.2417
  788MPD2    C411671   3.367   4.068   0.956  0.0526  0.4242 -0.2756
  788MPD2    C511672   3.370   3.977   1.054 -0.2429 -0.4229  0.1462
  788MPD2     H11673   3.611   3.942   0.760 -0.9991 -0.1706 -0.3612
  788MPD2    H111674   3.308   4.157   0.971 -0.0133  0.5388 -1.1800
  788MPD2    H211675   3.487   3.832   1.160  1.1156  1.1315  0.9573
  788MPD2    H311676   3.314   3.997   1.145 -0.0226  0.8705 -0.0088
  788MPD2     N11677   3.459   4.160   0.749 -0.2009  0.3482 -0.1429
  788MPD2    H511678   3.391   4.235   0.762  0.4363  0.4892  2.4295
  788MPD2    N111679   3.638   3.751   0.958 -0.2323  0.0102 -0.1716
  788MPD2    H711680   3.634   3.707   1.049 -0.2293 -0.8842 -0.6041
  789MPD2     C11681   4.100   2.809  17.106  0.3573 -0.3406 -0.3388
  789MPD2    C111682   4.006   2.823  17.016 -0.3748 -0.4273  0.3410
  789MPD2    C211683   3.903   2.918  17.021  0.6371  0.6042  0.3338
  789MPD2    C311684   3.907   3.006  17.127 -0.4292 -0.0850 -0.9694
  789MPD2    C411685   4.004   2.994  17.222  0.5539  0.2830  0.1163
  789MPD2    C511686   4.105   2.901  17.212  0.1632 -0.0161 -0.0729
  789MPD2     H11687   3.826   2.924  16.945  0.1655 -0.5464  0.7181
  789MPD2    H111688   3.995   3.056  17.310 -0.4485  0.3711 -0.0443
  789MPD2    H211689   4.176   2.732  17.102 -0.9976 -1.7410  1.3824
  789MPD2    H311690   4.173   2.886  17.295 -0.6855 -2.3580  0.1917
  789MPD2     N11691   3.808   3.111  17.143  0.0852  0.0594  0.0255
  789MPD2    H511692   3.797   3.151  17.236 -0.4596 -2.4980  1.0381
  789MPD2    N111693   3.991   2.729  16.909  0.2714 -0.6200  0.3058
  789MPD2    H711694   3.922   2.749  16.837  2.6832 -0.3080 -1.9562
  790MPD2     C11695   4.592   3.791  13.322 -0.3453 -0.0033 -0.2396
  790MPD2    C111696   4.667   3.908  13.292  0.0153 -0.7401 -0.4949
  790MPD2    C211697   4.622   3.985  13.187 -0.4092  0.1569  0.1294
  790MPD2    C311698   4.516   3.960  13.110  0.1144  0.2059  0.3029
  790MPD2    C411699   4.452   3.838  13.139  0.1045  0.4347 -0.2321
  790MPD2    C511700   4.484   3.761  13.246 -0.5645  0.1847  0.7263
  790MPD2     H11701   4.668   4.084  13.181  1.1958 -0.5058  1.5110
  790MPD2    H111702   4.363   3.814  13.083 -0.5980 -3.0124  2.3891
  790MPD2    H211703   4.605   3.731  13.410 -2.0311  0.0151  0.0262
  790MPD2    H311704   4.419   3.678  13.271 -0.5737  0.1392  0.5477
  790MPD2     N11705   4.476   4.052  13.012 -0.0239  0.1843 -0.3800
  790MPD2    H511706   4.527   4.138  12.992  0.4922 -0.0512 -0.0807
  790MPD2    N111707   0.027   3.954  13.384 -0.0587  0.1398  1.0134
  790MPD2    H711708   0.073   4.043  13.366 -0.3001  0.2687  1.0328
  791MPD2     C11709   3.839   4.546  12.771  0.6654 -0.2807 -0.1071
  791MPD2    C111710   3.864   4.409  12.780  0.2464 -0.3794  0.0462
  791MPD2    C211711   3.755   4.323  12.790  0.0804 -0.4322  0.3761
  791MPD2    C311712   3.627   4.377  12.783  0.2542  0.8224 -0.4247
  791MPD2    C411713   3.604   4.506  12.776  0.3812 -0.8887  0.1598
  791MPD2    C511714   3.712   4.587  12.775  0.2077 -0.6099 -0.1498
  791MPD2     H11715   3.765   4.216  12.807  0.6938 -0.5161 -0.5488
  791MPD2    H111716   3.506   4.553  12.768  0.5914 -0.5159 -0.2290
  791MPD2    H211717   3.918   4.619  12.759 -1.7715  2.4116  0.2241
  791MPD2    H311718   3.698   4.694  12.765  1.6561 -0.2521  1.6761
  791MPD2     N11719   3.526   4.289  12.816 -0.2698 -0.6498  0.0932
  791MPD2    H511720   3.544   4.197  12.854 -1.7812 -1.8625 -2.0892
  791MPD2    N111721   3.996   4.353  12.803 -0.7034 -0.1350  0.5460
  791MPD2    H711722   4.009   4.253  12.796  0.5816  0.1640 -1.3284
  792MPD2     C11723   0.220   0.037  11.250 -0.0321 -0.0384  0.3631
  792MPD2    C111724   0.122   0.093  11.175 -0.5973 -0.6789  0.0692
  792MPD2    C211725   0.003   0.030  11.173  0.2536 -0.5704  0.6582
  792MPD2    C311726   4.700   4.666  11.267 -0.1240 -0.4414 -0.0092
  792MPD2    C411727   0.067   4.618  11.351  0.5381  0.3569  0.7555
  792MPD2    C511728   0.197   4.660  11.326  0.0420  0.3941  0.1864
  792MPD2     H11729   4.654   0.083  11.124  2.1167  2.3434  0.6894
  792MPD2    H111730   0.054   4.528  11.410  2.7144 -0.1149  0.5346
  792MPD2    H211731   0.321   0.072  11.237 -0.8357  2.5138  1.0921
  792MPD2    H311732   0.285   4.622  11.377  1.1406 -0.5841 -2.4319
  792MPD2     N11733   4.576   4.615  11.286  0.4858  0.0723  0.6635
  792MPD2    H511734   4.559   4.556  11.367  0.1846  0.8782  1.1986
  792MPD2    N111735   0.158   0.190  11.078  0.4330  0.6101  0.3255
  792MPD2    H711736   0.259   0.198  11.067  0.8227 -3.1048  1.1608
  793MPD2     C11737   3.764   0.027  10.798  0.1067 -0.4732 -1.0657
  793MPD2    C111738   3.897   4.730  10.762 -0.0468 -0.2247 -0.2953
  793MPD2    C211739   3.981   4.673  10.860  0.2446 -0.7639  0.8507
  793MPD2    C311740   3.940   4.664  10.988  0.7422  0.8934 -1.0894
  793MPD2    C411741   3.810   4.691  11.022 -0.3842 -0.7644 -0.3171
  793MPD2    C511742   3.720   4.730  10.926 -0.4287  0.0317  0.0006
  793MPD2     H11743   4.080   4.635  10.836 -0.4824 -1.2857 -1.3392
  793MPD2    H111744   3.774   4.685  11.124  0.6960 -0.7524  0.0711
  793MPD2    H211745   3.693   0.070  10.728 -1.5669 -1.2468  0.1759
  793MPD2    H311746   3.618   0.019  10.955  0.0480  0.0641  1.6611
  793MPD2     N11747   4.032   4.619  11.088  0.2154  0.4636  0.3892
  793MPD2    H511748   4.125   4.597  11.053  0.2523 -0.3526  1.0098
  793MPD2    N111749   3.947   0.020  10.628 -0.4297  0.0132 -0.4289
  793MPD2    H711750   4.044   4.731  10.605 -1.2643 -0.7916 -3.2078
  794MPD2     C11751   4.209   4.004  17.068  0.1495 -0.5273  0.2845
  794MPD2    C111752   4.287   3.915  16.997  0.0871 -0.4733  0.3559
  794MPD2    C211753   4.245   3.872  16.868  0.0133 -0.6876  0.3850
  794MPD2    C311754   4.125   3.922  16.816 -0.6413  0.9309  0.5170
  794MPD2    C411755   4.048   4.010  16.889 -0.8196  0.3190 -0.4468
  794MPD2    C511756   4.098   4.052  17.013 -0.6436 -0.0291 -0.3112
  794MPD2     H11757   4.310   3.813  16.804  0.1084  0.1472 -0.2781
  794MPD2    H111758   3.963   4.062  16.846 -1.6253 -0.0428  0.6809
  794MPD2    H211759   4.234   4.050  17.163  1.0114  2.4815 -1.4093
  794MPD2    H311760   4.034   4.120  17.067 -0.4599  1.1170 -1.5479
  794MPD2     N11761   4.074   3.886  16.690 -0.0174  0.7723  0.4100
  794MPD2    H511762   3.985   3.931  16.670 -0.7167 -0.3861  0.9193
  794MPD2    N111763   4.401   3.862  17.056  0.5163  0.0256 -0.2357
  794MPD2    H711764   4.460   3.799  17.004  0.1284 -0.2834 -0.3022
  795MPD2     C11765   2.389   1.248  13.864  0.2175  0.1436 -0.1021
  795MPD2    C111766   2.318   1.129  13.898  0.0753 -0.5161 -0.1344
  795MPD2    C211767   2.389   1.032  13.961 -0.2862 -0.1086  0.0255
  795MPD2    C311768   2.523   1.050  13.990 -0.1022 -0.0346 -0.1831
  795MPD2    C411769   2.582   1.171  13.965  0.4393  0.1721  0.2122
  795MPD2    C511770   2.515   1.270  13.899 -0.3739  0.4736 -0.0176
  795MPD2     H11771   2.346   0.935  13.981  0.9012 -0.6620 -0.1113
  795MPD2    H111772   2.686   1.197  13.984  1.3379 -0.5686 -3.6933
  795MPD2    H211773   2.336   1.325  13.809 -4.0666 -0.8851  2.5260
  795MPD2    H311774   2.555   1.369  13.881 -1.5980  1.0427  0.3898
  795MPD2     N11775   2.591   0.938  14.047  0.5242  0.2664 -0.1290
  795MPD2    H511776   2.546   0.847  14.038 -0.4423  0.6901  0.3411
  795MPD2    N111777   2.186   1.112  13.879  0.7537  0.4908  0.0093
  795MPD2    H711778   2.143   1.026  13.911  1.4707  0.8543  1.9108
  796MPD2     C11779   2.386   2.775  16.132  0.3440 -0.5673  0.1022
  796MPD2    C111780   2.286   2.777  16.222  0.8472  0.1323 -0.5613
  796MPD2    C211781   2.174   2.865  16.198 -0.1855  0.1545  0.3129
  796MPD2    C311782   2.179   2.948  16.090  0.0446  0.1875 -0.0199
  796MPD2    C411783   2.283   2.944  16.000 -0.5042 -0.4512 -0.3344
  796MPD2    C511784   2.379   2.854  16.020 -0.2677  0.2113  0.1489
  796MPD2     H11785   2.095   2.860  16.272 -1.3701 -2.0287 -1.1106
  796MPD2    H111786   2.277   2.996  15.905  0.7659  0.4802  0.0962
  796MPD2    H211787   2.476   2.714  16.139  0.8854  0.2416  0.1688
  796MPD2    H311788   2.461   2.847  15.950 -0.8642 -1.3919 -0.3830
  796MPD2     N11789   2.069   3.037  16.074  1.1412 -0.2334 -0.0772
  796MPD2    H511790   1.995   3.011  16.138  1.9225 -4.0204 -0.7491
  796MPD2    N111791   2.294   2.692  16.329 -0.2542 -0.2961 -0.0543
  796MPD2    H711792   2.382   2.643  16.346  0.0118  0.5816  1.1510
  797MPD2     C11793   2.571   2.075  17.402  0.0999 -0.4399  0.0699
  797MPD2    C111794   2.688   2.037  17.467 -0.9599 -0.5830 -0.5608
  797MPD2    C211795   2.794   2.008  17.384 -0.0768  0.0447  0.1915
  797MPD2    C311796   2.795   2.053  17.250 -0.2621  0.1232 -0.6540
  797MPD2    C411797   2.679   2.085  17.184  0.9726  0.3220  0.9584
  797MPD2    C511798   2.566   2.094  17.262  0.2712  0.0240 -0.1925
  797MPD2     H11799   2.890   1.995  17.432 -0.6803  1.8274  1.8911
  797MPD2    H111800   2.678   2.106  17.077 -0.9009 -0.3046  0.8623
  797MPD2    H211801   2.484   2.111  17.455  0.8655 -0.6950  1.4843
  797MPD2    H311802   2.470   2.120  17.218  0.5878  0.7852 -0.4311
  797MPD2     N11803   2.910   2.083  17.176 -0.1100 -0.2084 -0.1902
  797MPD2    H511804   2.907   2.102  17.076  1.7426 -1.5005 -0.5062
  797MPD2    N111805   2.721   2.047  17.605 -0.0469  0.5487  0.7424
  797MPD2    H711806   2.814   2.018  17.633 -0.4806  0.4780  2.1273
  798MPD2     C11807   3.436   2.275  17.574 -0.4327 -0.1205 -0.7613
  798MPD2    C111808   3.315   2.295  17.512  0.4922 -0.6701  0.3688
  798MPD2    C211809   3.195   2.302  17.587  0.9691 -0.7156  1.0995
  798MPD2    C311810   3.202   2.287  17.722 -0.0335 -0.6352 -0.2889
  798MPD2    C411811   3.328   2.259   0.060  0.0967  0.4296 -0.3393
  798MPD2    C511812   3.441   2.261  17.706 -0.0258  0.1367 -0.3595
  798MPD2     H11813   3.100   2.316  17.537  1.2983 -0.6670  0.4758
  798MPD2    H111814   3.334   2.243   0.167 -3.3250 -2.3538 -0.5531
  798MPD2    H211815   3.526   2.261  17.515 -1.5522  0.0663 -2.5325
  798MPD2    H311816   3.534   2.243   0.031 -1.1219  1.2431  1.9220
  798MPD2     N11817   3.079   2.278   0.059  0.1675 -0.4318 -0.1793
  798MPD2    H511818   2.994   2.305   0.010  0.0164  0.9387  0.8207
  798MPD2    N111819   3.299   2.288  17.376 -0.0226  0.5087  0.1717
  798MPD2    H711820   3.205   2.267  17.342  0.4406  0.8203 -1.3045
  799MPD2     C11821   1.830   3.786  14.622  0.1054  0.1741  0.5754
  799MPD2    C111822   1.734   3.724  14.549 -0.2271  0.1494 -0.5416
  799MPD2    C211823   1.663   3.806  14.464 -0.2050 -0.0364 -0.0997
  799MPD2    C311824   1.714   3.927  14.431 -0.7321 -0.2461 -0.0818
  799MPD2    C411825   1.814   3.987  14.510  0.0602 -0.6894 -0.0685
  799MPD2    C511826   1.874   3.915  14.600  0.3709 -0.4186  0.1594
  799MPD2     H11827   1.579   3.757  14.416  0.9320 -1.6313 -0.4269
  799MPD2    H111828   1.856   4.084  14.484 -2.0829  0.4937  0.8892
  799MPD2    H211829   1.868   3.732  14.709  1.5093  1.0457  0.5062
  799MPD2    H311830   1.952   3.960  14.659  0.8681  0.2531 -1.0230
  799MPD2     N11831   1.676   3.995  14.309  0.2813  0.4015 -0.0348
  799MPD2    H511832   1.714   4.088  14.298 -2.0736  1.4443  0.6233
  799MPD2    N111833   1.697   3.587  14.553 -0.4922  0.0992 -0.1222
  799MPD2    H711834   1.607   3.563  14.515 -0.4958 -1.3625  0.8188
  800MPD2     C11835   1.841   0.471  14.794 -0.6277  0.5424 -0.2385
  800MPD2    C111836   1.967   0.438  14.751 -0.4164  0.9247 -0.1416
  800MPD2    C211837   1.979   0.351  14.640  0.5931  1.0517 -0.4065
  800MPD2    C311838   1.872   0.297  14.576 -0.0436 -0.5761 -0.3605
  800MPD2    C411839   1.744   0.334  14.623  0.2572  0.2877 -0.3218
  800MPD2    C511840   1.734   0.423  14.720  0.0846  0.3453 -0.1245
  800MPD2     H11841   2.077   0.321  14.604  0.3993 -0.9625  0.7574
  800MPD2    H111842   1.651   0.297  14.580  0.7176 -0.2627 -0.8480
  800MPD2    H211843   1.822   0.522  14.888  1.9660 -1.0819  1.1800
  800MPD2    H311844   1.631   0.444  14.749  0.1940  2.2380 -1.0750
  800MPD2     N11845   1.891   0.203  14.470  0.4196  0.4958  0.0479
  800MPD2    H511846   1.987   0.176  14.451 -0.1339 -1.4340  0.0050
  800MPD2    N111847   2.078   0.503  14.813 -0.2016 -0.7560 -0.0256
  800MPD2    H711848   2.063   0.590  14.862  0.9545  0.2334 -1.4230
  801MPD2     C11849   2.467   0.985  14.419 -0.4262 -0.2996 -0.6829
  801MPD2    C111850   2.362   0.964  14.507 -0.3966 -1.0311  0.4797
  801MPD2    C211851   2.252   1.052  14.507  0.7107  0.0006 -0.4219
  801MPD2    C311852   2.240   1.149  14.408  0.7974  0.5934 -0.5467
  801MPD2    C411853   2.349   1.171  14.321 -0.2739 -0.0999  0.3470
  801MPD2    C511854   2.462   1.089  14.334 -0.5131  0.3850 -0.1030
  801MPD2     H11855   2.173   1.052  14.581 -0.4430 -0.8434 -1.6391
  801MPD2    H111856   2.347   1.253  14.250  1.1776 -0.8690 -0.6036
  801MPD2    H211857   2.548   0.916  14.399 -0.5511  0.6683 -4.5731
  801MPD2    H311858   2.532   1.102  14.252 -0.2525  2.0178  0.3732
  801MPD2     N11859   2.132   1.245  14.411  0.7418 -0.2618 -0.1478
  801MPD2    H511860   2.146   1.340  14.378  1.8270  0.6051  2.8338
  801MPD2    N111861   2.374   0.870  14.616 -0.3796 -1.1753  0.0229
  801MPD2    H711862   2.300   0.875  14.685  0.3355  0.9429  0.6385
  802MPD2     C11863   1.438   1.616  17.531 -0.1659  0.1355 -0.4469
  802MPD2    C111864   1.541   1.601  17.616 -0.4042 -0.4884 -0.1990
  802MPD2    C211865   1.632   1.492  17.603 -0.0631 -0.0437 -0.2033
  802MPD2    C311866   1.613   1.403  17.506 -0.1369  0.5877  0.7541
  802MPD2    C411867   1.512   1.419  17.414  0.5447 -0.0620  0.2548
  802MPD2    C511868   1.426   1.526  17.427 -0.7102  0.5333  0.3473
  802MPD2     H11869   1.719   1.482  17.667 -1.3947 -1.5097  1.3570
  802MPD2    H111870   1.492   1.353  17.331  0.0469  0.3857  0.0195
  802MPD2    H211871   1.372   1.702  17.526 -1.5360 -0.9320 -0.6295
  802MPD2    H311872   1.343   1.543  17.359 -0.9868  0.2632  0.6159
  802MPD2     N11873   1.718   1.316  17.475 -0.4826 -0.2729  0.4697
  802MPD2    H511874   1.797   1.321  17.538 -0.4942 -1.6899  0.5976
  802MPD2    N111875   1.559   1.683  17.727  0.4250 -0.4566 -0.5537
  802MPD2    H711876   1.643   1.653   0.049 -0.9418  0.8473  2.4959
  803MPD2     C11877   2.259   4.235  12.208  1.2192 -0.2928 -0.3236
  803MPD2    C111878   2.237   4.371  12.248 -0.3123 -0.1424  0.4514
  803MPD2    C211879   2.226   4.411  12.378  0.4875 -0.0923  0.2762
  803MPD2    C311880   2.234   4.311  12.480  0.1066 -0.8002  0.0207
  803MPD2    C411881   2.246   4.178  12.436  0.5082  0.0435 -0.5196
  803MPD2    C511882   2.252   4.139  12.307  0.3761  0.3906  0.5176
  803MPD2     H11883   2.197   4.513  12.401  1.2761 -0.0624  1.1315
  803MPD2    H111884   2.227   4.102  12.510 -0.3918  0.4612 -0.3220
  803MPD2    H211885   2.270   4.207  12.103  2.3636 -0.1280 -0.2417
  803MPD2    H311886   2.256   4.035  12.276 -1.7356 -0.3187  2.6549
  803MPD2     N11887   2.203   4.331  12.615 -0.4581  0.0910 -0.0932
  803MPD2    H511888   2.196   4.254  12.681 -1.7964  2.0931  2.1120
  803MPD2    N111889   2.226   4.468  12.147  0.4967 -0.1960 -0.6932
  803MPD2    H711890   2.229   4.566  12.174 -0.0909 -0.1451 -0.8079
  804MPD2     C11891   2.667   1.148  16.759 -0.5220 -0.5905  0.1029
  804MPD2    C111892   2.667   1.131  16.900 -0.3995  0.4580 -0.4110
  804MPD2    C211893   2.771   1.181  16.974 -0.8811  0.1856 -0.3266
  804MPD2    C311894   2.872   1.244  16.909  0.6654  0.3622 -0.1587
  804MPD2    C411895   2.867   1.269  16.773 -0.1397 -0.0983  0.6265
  804MPD2    C511896   2.766   1.218  16.700 -0.2687  0.2716  0.2424
  804MPD2     H11897   2.774   1.169  17.082  1.8723 -0.7234 -0.5105
  804MPD2    H111898   2.942   1.333  16.729 -1.4126  1.9924  1.4877
  804MPD2    H211899   2.595   1.108  16.688  1.1152 -2.1097 -0.7012
  804MPD2    H311900   2.768   1.234  16.593  1.1471 -0.6673  0.1222
  804MPD2     N11901   2.981   1.280  16.994  0.4650 -0.0686 -0.2486
  804MPD2    H511902   2.975   1.266  17.095 -1.4091  0.6756 -0.2551
  804MPD2    N111903   2.570   1.050  16.970 -0.0391  0.3277 -0.0588
  804MPD2    H711904   2.574   1.036  17.070  4.1694 -0.6446 -0.3680
  805MPD2     C11905   1.184   4.110  15.392 -0.2862 -0.7694  0.7641
  805MPD2    C111906   1.294   4.135  15.318 -0.8194 -0.4514  0.7236
  805MPD2    C211907   1.406   4.174  15.384  0.6126 -0.5139 -0.5234
  805MPD2    C311908   1.403   4.204  15.517  0.4031 -0.6475  0.4598
  805MPD2    C411909   1.288   4.189  15.591 -0.1165  0.2345 -0.2647
  805MPD2    C511910   1.176   4.137  15.526  0.8978 -0.6099 -0.2803
  805MPD2     H11911   1.492   4.196  15.322  1.2390  0.2113  0.5967
  805MPD2    H111912   1.268   4.218  15.694  1.2003 -2.3444  0.7247
  805MPD2    H211913   1.095   4.070  15.346 -1.1781 -2.0223  3.5979
  805MPD2    H311914   1.086   4.113  15.582 -0.5206  3.2508 -0.9506
  805MPD2     N11915   1.526   4.256  15.576  0.2158 -0.1819  0.6180
  805MPD2    H511916   1.595   4.297  15.513  1.3394 -1.7624  0.8185
  805MPD2    N111917   1.324   4.105  15.184  0.6712  0.2296  0.3206
  805MPD2    H711918   1.421   4.106  15.156  0.5748  0.2085 -0.0163
  806MPD2     C11919   2.309   4.047   0.815  0.2509  0.3973 -0.1290
  806MPD2    C111920   2.197   3.971   0.792 -0.1713  0.7184  0.2247
  806MPD2    C211921   2.179   3.932   0.657 -0.6386  0.0056 -0.6372
  806MPD2    C311922   2.250   3.973   0.548  0.4480  0.9197  0.0508
  806MPD2    C411923   2.350   4.063   0.575 -0.3780 -0.2964  0.0658
  806MPD2    C511924   2.382   4.093   0.705  0.0449 -0.5715  0.5141
  806MPD2     H11925   2.114   3.847   0.640 -0.7147 -0.0805  0.0539
  806MPD2    H111926   2.418   4.102   0.500  0.4991 -1.0939  0.4505
  806MPD2    H211927   2.347   4.071   0.914  2.5387  3.6274 -1.7780
  806MPD2    H311928   2.474   4.149   0.720 -0.9763  1.3509 -0.3730
  806MPD2     N11929   2.218   3.935   0.414  0.3287 -0.0857 -0.8655
  806MPD2    H511930   2.134   3.879   0.402  1.3315 -1.5715 -0.9072
  806MPD2    N111931   2.150   3.920   0.907 -0.1482 -0.0475 -0.6294
  806MPD2    H711932   2.200   3.920   0.995 -1.4235 -0.5016  0.0942
  807MPD2     C11933   1.574   4.125   1.441 -0.2424 -0.6697 -0.6776
  807MPD2    C111934   1.632   4.011   1.492 -0.3375  0.0519  0.1823
  807MPD2    C211935   1.593   3.974   1.622 -0.1312 -0.4207  0.2434
  807MPD2    C311936   1.478   4.019   1.684 -0.8665  0.9635  0.4269
  807MPD2    C411937   1.421   4.134   1.637 -0.4418  0.2683  0.5440
  807MPD2    C511938   1.477   4.188   1.519  0.6755  0.3071  0.1093
  807MPD2     H11939   1.655   3.901   1.672 -1.4758 -2.2517 -0.7580
  807MPD2    H111940   1.332   4.177   1.682 -1.7189 -0.7490 -1.0126
  807MPD2    H211941   1.591   4.166   1.342 -2.6993  0.3373 -0.6638
  807MPD2    H311942   1.427   4.275   1.477 -2.8440 -1.3238  0.9309
  807MPD2     N11943   1.427   3.950   1.798 -0.1037  0.1648  0.1338
  807MPD2    H511944   1.460   3.856   1.818  2.2289  0.8698 -0.3809
  807MPD2    N111945   1.738   3.939   1.420 -0.0392  0.1240 -0.1110
  807MPD2    H711946   1.784   3.861   1.465  0.5873  1.1481  1.0281
  808MPD2     C11947   2.190   1.218   9.776 -0.0726 -0.9963  0.3178
  808MPD2    C111948   2.197   1.263   9.910 -0.4912 -0.2898  0.1982
  808MPD2    C211949   2.200   1.400   9.937  0.4110 -0.7950  0.1653
  808MPD2    C311950   2.217   1.495   9.834  0.5049 -0.0771  0.1525
  808MPD2    C411951   2.225   1.444   9.708 -0.5960 -0.2218  0.1684
  808MPD2    C511952   2.199   1.311   9.676 -0.2481 -0.6572 -0.2676
  808MPD2     H11953   2.214   1.433  10.039  0.9535  0.5591 -0.3528
  808MPD2    H111954   2.228   1.490   9.609  2.5451 -0.1187  0.3313
  808MPD2    H211955   2.182   1.112   9.751  1.7496 -0.8681 -0.8257
  808MPD2    H311956   2.200   1.276   9.574  0.7591 -0.9741 -0.1477
  808MPD2     N11957   2.218   1.634   9.865 -0.5021  0.4579  0.4275
  808MPD2    H511958   2.217   1.688   9.779  1.7240  0.9044  0.7007
  808MPD2    N111959   2.183   1.171  10.023 -0.0915 -0.0679 -0.4846
  808MPD2    H711960   2.201   1.210  10.115 -1.9216  0.7213 -0.4615
  809MPD2     C11961   2.787   2.339   9.574 -0.7504 -0.8011  0.6302
  809MPD2    C111962   2.706   2.246   9.514  0.1942  0.0992 -0.0718
  809MPD2    C211963   2.607   2.185   9.590  0.3074 -0.5630 -0.2656
  809MPD2    C311964   2.597   2.217   9.723  0.7100  0.3330 -0.4372
  809MPD2    C411965   2.674   2.312   9.780  0.2785  0.1636 -0.5762
  809MPD2    C511966   2.776   2.368   9.709  0.5768 -0.2933 -0.4044
  809MPD2     H11967   2.536   2.120   9.540  0.7247  0.6206 -2.3965
  809MPD2    H111968   2.666   2.340   9.885  1.0620 -0.1360 -0.4365
  809MPD2    H211969   2.865   2.383   9.513  0.2765 -0.6598  2.0381
  809MPD2    H311970   2.853   2.430   9.753 -1.4933  2.3254 -0.4915
  809MPD2     N11971   2.494   2.158   9.806  0.4476 -0.0188 -0.0467
  809MPD2    H511972   2.496   2.192   9.901  0.9614 -0.1103 -0.0215
  809MPD2    N111973   2.695   2.211   9.375  0.0898  0.4778  0.2783
  809MPD2    H711974   2.627   2.141   9.348  1.6511 -0.0495 -2.2678
  810MPD2     C11975   2.170   4.418  10.789 -0.3768  0.1728  0.7281
  810MPD2    C111976   2.098   4.510  10.722  0.1878  0.3973  0.8565
  810MPD2    C211977   2.162   4.626  10.677 -0.4781 -0.1809 -1.0868
  810MPD2    C311978   2.306   4.639  10.699 -0.4806 -0.4278 -0.0184
  810MPD2    C411979   2.373   4.538  10.770 -0.0634  0.9788 -0.1022
  810MPD2    C511980   2.303   4.423  10.806 -0.5139 -0.5299  0.1818
  810MPD2     H11981   2.106   4.698  10.618  1.5081  2.5811  0.4263
  810MPD2    H111982   2.480   4.549  10.784  0.1168  0.9333 -1.4873
  810MPD2    H211983   2.117   4.332  10.829 -1.0100  0.0705 -0.3291
  810MPD2    H311984   2.360   4.346  10.857  0.4117 -0.2261 -0.4106
  810MPD2     N11985   2.384   0.012  10.655  0.2072  0.2934  0.9134
  810MPD2    H511986   2.475   0.018  10.699  0.3491  0.2086  0.6328
  810MPD2    N111987   1.962   4.484  10.712 -0.4619  0.0983 -0.4874
  810MPD2    H711988   1.936   4.406  10.771  0.6898 -3.1886 -4.2897
  811MPD2     C11989   1.055   4.502  10.457  0.8479  0.8351 -0.4358
  811MPD2    C111990   1.169   4.582  10.442  0.1716  0.0895  0.0031
  811MPD2    C211991   1.168   4.694  10.360  0.3211 -0.4290 -0.3670
  811MPD2    C311992   1.055   4.713  10.277 -0.2599  0.1380 -0.1000
  811MPD2    C411993   0.952   4.623  10.281 -0.7407 -0.1516  0.5564
  811MPD2    C511994   0.950   4.521  10.367  0.1622 -0.5320  0.4033
  811MPD2     H11995   1.247   0.036  10.362  0.0903 -0.1899 -0.1024
  811MPD2    H111996   0.863   4.639  10.221  0.0214 -0.0502 -0.5455
  811MPD2    H211997   1.057   4.407  10.509  2.2996  0.8551 -0.4549
  811MPD2    H311998   0.865   4.453  10.365 -0.9625  0.9532 -1.7743
  811MPD2     N11999   1.060   0.097  10.202  0.0818  0.0846  0.5471
  811MPD2    H512000   1.147   0.148  10.215  0.5481 -0.7155  0.5249
  811MPD2    N112001   1.277   4.546  10.517  0.4199 -0.5600  0.3520
  811MPD2    H712002   1.264   4.462  10.574  0.2692  0.5487  1.9351
  812MPD2     C12003   0.670   4.401  12.136 -0.4844 -0.2497  0.4563
  812MPD2    C112004   0.534   4.395  12.170 -0.1862 -0.5658  0.5153
  812MPD2    C212005   0.497   4.310  12.269  0.2733  0.3011  0.6512
  812MPD2    C312006   0.588   4.245  12.341  0.5282  0.3599 -0.1758
  812MPD2    C412007   0.722   4.248  12.310  0.9698  0.0140 -0.7119
  812MPD2    C512008   0.758   4.324  12.207 -0.0424  0.1597 -0.4166
  812MPD2     H12009   0.392   4.308  12.295 -0.0847  0.6126 -0.7486
  812MPD2    H112010   0.786   4.182  12.368  0.5469 -0.1293 -0.4070
  812MPD2    H212011   0.710   4.470  12.062 -0.4850  0.8184  1.4534
  812MPD2    H312012   0.864   4.327  12.184 -0.1426  2.1044 -0.5624
  812MPD2     N12013   0.530   4.171  12.450 -0.0449  0.3833  0.6322
  812MPD2    H512014   0.429   4.169  12.452  0.0426 -3.8026  0.7436
  812MPD2    N112015   0.445   4.468  12.085  0.2314  0.4761  0.3430
  812MPD2    H712016   0.491   4.504  12.002 -2.2641  0.5998 -0.9842
  813MPD2     C12017   4.715   1.278  12.728 -0.1638  0.7196 -0.3208
  813MPD2    C112018   4.658   1.383  12.796  0.1459 -0.0059 -0.6980
  813MPD2    C212019   4.528   1.385  12.829 -0.9069  0.1496 -0.3016
  813MPD2    C312020   4.458   1.270  12.820 -0.1531  0.4467 -0.0283
  813MPD2    C412021   4.510   1.160  12.754  0.4129 -0.1570 -0.4782
  813MPD2    C512022   4.643   1.163  12.709 -0.2178  0.3472  0.4980
  813MPD2     H12023   4.484   1.463  12.890 -1.1558  0.5432 -0.9791
  813MPD2    H112024   4.452   1.074  12.723 -1.9167  1.6236 -1.0551
  813MPD2    H212025   0.088   1.276  12.700 -0.3780 -2.0411 -0.9509
  813MPD2    H312026   4.691   1.075  12.668 -1.2461 -0.3699  0.8132
  813MPD2     N12027   4.325   1.284  12.872  0.0974 -0.4025  0.8627
  813MPD2    H512028   4.293   1.376  12.903  0.7955 -0.5710  2.1003
  813MPD2    N112029   4.730   1.497  12.832  0.1745  1.2310  0.0666
  813MPD2    H712030   4.687   1.572  12.886  0.1068  1.8562 -0.8522
  814MPD2     C12031   0.286   2.793  12.128 -0.2876  0.2187 -0.4964
  814MPD2    C112032   0.261   2.884  12.027  0.0523 -0.0926 -0.0321
  814MPD2    C212033   0.314   3.014  12.034 -0.4530  0.5877 -0.5738
  814MPD2    C312034   0.380   3.044  12.154  0.5791  0.2527 -0.6093
  814MPD2    C412035   0.380   2.961  12.262 -0.7820  0.3269  0.0435
  814MPD2    C512036   0.331   2.832  12.244  0.0231 -0.3055 -0.1622
  814MPD2     H12037   0.312   3.083  11.950  0.4640  0.4524 -0.7100
  814MPD2    H112038   0.433   2.981  12.355 -0.2918 -0.2704 -0.1042
  814MPD2    H212039   0.256   2.689  12.134 -0.3520  0.2203 -0.8140
  814MPD2    H312040   0.336   2.761  12.325  0.2162 -1.6644 -1.3767
  814MPD2     N12041   0.440   3.171  12.173  0.1656  0.6511 -0.9410
  814MPD2    H512042   0.463   3.190  12.270  1.5446 -0.0118 -1.1362
  814MPD2    N112043   0.220   2.837  11.898 -0.1757  0.0648 -0.1916
  814MPD2    H712044   0.250   2.892  11.819  1.9414  0.4193  0.8593
  815MPD2     C12045   0.364   1.444  11.965 -0.7865  0.5603 -0.2556
  815MPD2    C112046   0.357   1.309  11.947  0.9219 -0.1706  0.4151
  815MPD2    C212047   0.238   1.236  11.959  0.0326  0.6725  0.2724
  815MPD2    C312048   0.117   1.307  11.973 -0.5217  0.3848  0.3089
  815MPD2    C412049   0.127   1.442  11.995 -0.3758  0.5505  0.2849
  815MPD2    C512050   0.244   1.501  11.992  0.0503 -0.0318 -0.1978
  815MPD2     H12051   0.226   1.131  11.937  0.7501  0.3607  1.3625
  815MPD2    H112052   0.042   1.507  12.007  0.7338  1.5078  3.0023
  815MPD2    H212053   0.460   1.493  11.971  0.1302 -1.3067  0.1096
  815MPD2    H312054   0.238   1.606  12.020  0.1079 -0.1409  0.2118
  815MPD2     N12055   0.000   1.232  11.947 -0.3604  0.4972  0.1261
  815MPD2    H512056   0.008   1.131  11.950  1.1539  0.5861 -0.7584
  815MPD2    N112057   0.476   1.253  11.894 -0.6373  0.5099  0.0192
  815MPD2    H712058   0.553   1.317  11.876 -1.1623  0.9976 -0.5166
  816MPD2     C12059   1.399   0.727  17.259  0.3667 -0.2774  0.5956
  816MPD2    C112060   1.291   0.684  17.188 -0.6645  0.7140  0.3655
  816MPD2    C212061   1.316   0.600  17.083  0.0614 -0.2586  0.0026
  816MPD2    C312062   1.450   0.557  17.058 -0.4398 -0.2963  0.6084
  816MPD2    C412063   1.553   0.604  17.132  1.1234  0.8210  0.2784
  816MPD2    C512064   1.530   0.684  17.235 -0.4142  0.2805  0.2469
  816MPD2     H12065   1.239   0.553  17.023 -0.2688  0.6571 -0.2845
  816MPD2    H112066   1.655   0.579  17.103  0.7545 -2.3881  1.7861
  816MPD2    H212067   1.381   0.796  17.340  0.9107  0.6334 -0.0630
  816MPD2    H312068   1.614   0.726  17.290  0.3899 -1.8542  0.6704
  816MPD2     N12069   1.474   0.471  16.949 -0.8087  0.1879 -0.5953
  816MPD2    H512070   1.396   0.457  16.885 -0.6577  1.1006 -0.9867
  816MPD2    N112071   1.162   0.729  17.225  0.6278  0.2997  0.1344
  816MPD2    H712072   1.151   0.795  17.301 -2.6456  0.5199 -0.5361
  817MPD2     C12073   1.857   2.714   9.577  0.2882  0.1048 -0.4298
  817MPD2    C112074   1.922   2.606   9.517 -0.3308 -0.6347  0.5787
  817MPD2    C212075   2.044   2.623   9.451  0.2502  0.0852 -0.6813
  817MPD2    C312076   2.104   2.746   9.451  0.5932  0.1775 -0.2199
  817MPD2    C412077   2.032   2.851   9.507 -0.9548  0.3159  0.0010
  817MPD2    C512078   1.916   2.836   9.568  0.2233  0.8124 -0.3821
  817MPD2     H12079   2.096   2.542   9.401  0.6341 -0.5172  0.7035
  817MPD2    H112080   2.069   2.953   9.500 -0.8073  0.3825  1.7169
  817MPD2    H212081   1.772   2.705   9.644 -0.7560 -1.1622 -1.9196
  817MPD2    H312082   1.871   2.922   9.616 -0.1840 -0.4781  1.5592
  817MPD2     N12083   2.227   2.762   9.383 -0.1826  0.0543 -0.2904
  817MPD2    H512084   2.246   2.684   9.320  0.6023  1.0224 -1.2591
  817MPD2    N112085   1.867   2.476   9.527  0.4523 -0.3850  0.3408
  817MPD2    H712086   1.909   2.394   9.485 -3.5039 -1.2233 -1.9536
  818MPD2     C12087   3.665   2.668   9.795 -0.2324 -0.0743  1.5185
  818MPD2    C112088   3.555   2.603   9.852 -0.2475 -0.0488 -0.3871
  818MPD2    C212089   3.508   2.476   9.813 -0.3074 -0.0242 -0.2954
  818MPD2    C312090   3.578   2.411   9.713 -0.3361  0.0241  0.9125
  818MPD2    C412091   3.692   2.469   9.657 -0.9158 -0.2425 -0.7326
  818MPD2    C512092   3.721   2.598   9.695  0.2233 -0.4635 -0.4393
  818MPD2     H12093   3.414   2.431   9.842 -0.1645  0.3984  0.8183
  818MPD2    H112094   3.749   2.407   9.589  0.4629 -1.6260  1.6760
  818MPD2    H212095   3.694   2.768   9.825  0.6739  0.4939 -1.3502
  818MPD2    H312096   3.813   2.639   9.654  0.9669 -2.9514 -1.2625
  818MPD2     N12097   3.545   2.283   9.663 -0.1901  0.5944  0.0844
  818MPD2    H512098   3.605   2.257   9.585  0.8984  0.3367  1.0210
  818MPD2    N112099   3.471   2.666   9.944  0.2976  0.0714  0.3905
  818MPD2    H712100   3.407   2.612  10.001 -1.1102 -0.7465 -1.9651
  819MPD2     C12101   2.300   3.787  15.908 -0.1194  0.3382  0.3750
  819MPD2    C112102   2.354   3.686  15.831 -0.1746  0.8033  0.6415
  819MPD2    C212103   2.460   3.610  15.881 -0.4812 -0.0307 -0.0312
  819MPD2    C312104   2.515   3.635  16.005  0.4661 -0.2687 -0.7365
  819MPD2    C412105   2.459   3.736  16.081  0.0549  0.3794  0.7023
  819MPD2    C512106   2.354   3.799  16.034 -0.4544  0.2936 -0.7783
  819MPD2     H12107   2.496   3.522  15.830  1.3675  1.2304 -0.8829
  819MPD2    H112108   2.509   3.766  16.172 -2.3017 -0.6263  2.3157
  819MPD2    H212109   2.212   3.845  15.884  1.0029  2.5074  1.4610
  819MPD2    H312110   2.310   3.876  16.097  0.8584  1.4305 -1.2530
  819MPD2     N12111   2.622   3.550  16.052  0.2803 -0.1550 -0.3602
  819MPD2    H512112   2.670   3.501  15.978 -0.3944  0.3870 -1.1498
  819MPD2    N112113   2.287   3.643  15.711 -0.2249 -0.4725 -0.2577
  819MPD2    H712114   2.198   3.689  15.696  1.1801  1.7820 -1.6407
  820MPD2     C12115   1.907   4.051  14.992 -0.6549  0.6122 -0.0068
  820MPD2    C112116   1.824   3.945  15.011  0.4318  0.3512  0.0271
  820MPD2    C212117   1.866   3.844  15.105  0.4422  0.3712  0.3987
  820MPD2    C312118   1.994   3.852  15.164 -0.4435 -0.3866  0.4580
  820MPD2    C412119   2.073   3.961  15.139 -0.2792  0.0453  0.2900
  820MPD2    C512120   2.031   4.065  15.051  0.5433 -0.1975 -0.0456
  820MPD2     H12121   1.801   3.758  15.120 -0.1065  0.8989  1.0777
  820MPD2    H112122   2.169   3.983  15.186  1.2856 -2.4386 -1.7651
  820MPD2    H212123   1.886   4.138  14.930  2.2851  1.4733  0.1689
  820MPD2    H312124   2.092   4.152  15.026 -1.4638  1.0484 -0.6193
  820MPD2     N12125   2.037   3.757  15.262 -0.0508  0.2109 -0.0542
  820MPD2    H512126   2.125   3.776  15.307 -0.6056  2.0110  0.2703
  820MPD2    N112127   1.690   3.949  14.952  0.2306  0.0375 -0.7819
  820MPD2    H712128   1.680   4.022  14.882 -1.5380 -0.2713 -0.8470
  821MPD2     C12129   1.870   0.358  13.669 -0.4034  0.3342  0.1747
  821MPD2    C112130   1.983   0.315  13.721 -1.1497  0.3619 -0.1898
  821MPD2    C212131   2.102   0.360  13.664  0.0470 -0.1249  0.0613
  821MPD2    C312132   2.109   0.448  13.562  0.1606 -0.5172 -0.6175
  821MPD2    C412133   1.988   0.494  13.513  0.4702 -0.3421 -0.6476
  821MPD2    C512134   1.872   0.444  13.566  0.1478 -0.1750  0.4444
  821MPD2     H12135   2.196   0.314  13.695  0.8348  0.8996 -0.8125
  821MPD2    H112136   1.975   0.571  13.437  2.3392  0.2430 -0.3794
  821MPD2    H212137   1.771   0.320  13.690  0.3629 -1.5170  0.4724
  821MPD2    H312138   1.776   0.481  13.532  1.1161  2.1700  0.2670
  821MPD2     N12139   2.221   0.495  13.496  0.2170 -0.0761 -0.0857
  821MPD2    H512140   2.214   0.572  13.431 -4.3367  0.5818  1.1795
  821MPD2    N112141   1.994   0.228  13.833  0.7164 -0.0081 -0.0570
  821MPD2    H712142   2.082   0.208  13.878  0.7403  0.1422 -0.0361
  822MPD2     C12143   3.194   0.397  15.848 -0.2844  0.3212 -0.6208
  822MPD2    C112144   3.110   0.360  15.948 -0.2223  0.2732  0.1167
  822MPD2    C212145   3.034   0.452  16.009  0.6947  0.3010 -0.3718
  822MPD2    C312146   3.038   0.588  15.971 -0.2783 -0.6738 -0.0577
  822MPD2    C412147   3.114   0.617  15.863 -0.4734  0.2339  0.0988
  822MPD2    C512148   3.194   0.523  15.796 -0.4387 -0.1270 -0.5940
  822MPD2     H12149   2.978   0.418  16.095  2.1939  0.6537  0.7547
  822MPD2    H112150   3.108   0.720  15.828  1.6694  0.4040  0.2369
  822MPD2    H212151   3.276   0.341  15.806  0.3970  1.4832 -0.8423
  822MPD2    H312152   3.265   0.555  15.720 -0.4895 -1.0466 -1.0325
  822MPD2     N12153   2.964   0.683  16.053  0.1768 -0.2239  0.7028
  822MPD2    H512154   2.900   0.632  16.113 -1.9581  1.6863  0.0394
  822MPD2    N112155   3.085   0.227  15.988 -0.1692  0.0827 -0.2808
  822MPD2    H712156   3.026   0.212  16.069  1.3534 -1.8225  0.4686
  823MPD2     C12157   2.767   0.810  16.858 -0.2879 -0.1668  0.3908
  823MPD2    C112158   2.762   0.746  16.733  0.5668 -0.3567 -0.0525
  823MPD2    C212159   2.713   0.616  16.722 -0.5903 -0.0461 -0.4244
  823MPD2    C312160   2.661   0.552  16.839 -0.9916 -0.0873  0.6006
  823MPD2    C412161   2.645   0.625  16.954 -0.0864 -0.3219  0.5053
  823MPD2    C512162   2.706   0.750  16.964 -0.0581 -0.4235  0.6928
  823MPD2     H12163   2.720   0.558  16.631  1.8592 -1.3500  0.5981
  823MPD2    H112164   2.603   0.589  17.047  0.1451 -1.2556  0.2449
  823MPD2    H212165   2.811   0.908  16.872 -0.7315  0.1935 -0.7250
  823MPD2    H312166   2.698   0.804  17.058  0.3376  1.7356 -0.5034
  823MPD2     N12167   2.624   0.419  16.855 -0.1802 -0.2394 -0.5600
  823MPD2    H512168   2.594   0.390  16.947 -2.2078  1.4021 -0.7132
  823MPD2    N112169   2.808   0.818  16.619  0.2832 -0.0775 -0.0355
  823MPD2    H712170   2.856   0.906  16.634 -1.5084  1.0737 -0.9853
  824MPD2     C12171   3.165   4.081  15.877 -0.0611  0.0200 -0.8611
  824MPD2    C112172   3.254   4.170  15.916  0.2259  0.5667 -0.0522
  824MPD2    C212173   3.388   4.126  15.924  0.8011 -0.2416 -0.4708
  824MPD2    C312174   3.428   3.999  15.903  0.0160  0.4609 -0.2469
  824MPD2    C412175   3.329   3.905  15.873  0.6088 -0.0892  0.3425
  824MPD2    C512176   3.204   3.948  15.860 -0.0534 -0.1729  0.0286
  824MPD2     H12177   3.459   4.204  15.950  0.0394  1.1091 -2.4113
  824MPD2    H112178   3.362   3.808  15.840 -2.1882 -1.3512  1.2876
  824MPD2    H212179   3.061   4.109  15.867  0.1446  0.7570 -0.9244
  824MPD2    H312180   3.131   3.877  15.823 -0.3806 -0.1478  0.6184
  824MPD2     N12181   3.566   3.975  15.914  0.4296 -0.1423 -0.1077
  824MPD2    H512182   3.619   4.060  15.925  1.7808 -1.0048  0.0846
  824MPD2    N112183   3.230   4.308  15.934  0.1980  0.1312  0.8618
  824MPD2    H712184   3.305   4.367  15.969 -0.0462  1.0668 -0.1879
  825MPD2     C12185   4.088   4.154  15.314 -0.1980  0.4731 -0.0661
  825MPD2    C112186   4.041   4.194  15.437 -0.0175  0.6248 -0.3329
  825MPD2    C212187   4.031   4.330  15.471  0.3335 -0.0313 -0.2593
  825MPD2    C312188   4.055   4.431  15.371 -0.7410 -0.0483 -0.6480
  825MPD2    C412189   4.094   4.388  15.247  0.0790  0.0335  0.0463
  825MPD2    C512190   4.114   4.256  15.228  0.6755 -0.3213 -0.1426
  825MPD2     H12191   4.014   4.368  15.571  0.8301  1.2582 -0.6640
  825MPD2    H112192   4.119   4.464  15.174 -1.4143 -1.0386 -1.5764
  825MPD2    H212193   4.099   4.052  15.277  0.7009  0.5177  0.0694
  825MPD2    H312194   4.171   4.225  15.141  0.4216  0.2016 -0.5005
  825MPD2     N12195   4.067   4.575  15.395 -0.6909  0.2634 -0.5529
  825MPD2    H512196   4.088   4.636  15.316 -3.1366  0.7751 -0.8259
  825MPD2    N112197   4.011   4.085  15.525 -0.2196 -0.2810  0.4107
  825MPD2    H712198   4.025   3.993  15.484  2.7588  0.3791 -0.0204
  826MPD2     C12199   3.466   3.974  13.780 -0.1871 -0.4281 -0.4655
  826MPD2    C112200   3.497   4.036  13.660  0.6151  0.1115  0.0166
  826MPD2    C212201   3.476   4.178  13.657 -0.2145  0.1445 -0.5414
  826MPD2    C312202   3.428   4.248  13.764 -0.0851 -0.5176 -0.1612
  826MPD2    C412203   3.387   4.173  13.873 -0.5053 -0.2152  0.1254
  826MPD2    C512204   3.416   4.042  13.884  1.4350 -0.1929  0.1942
  826MPD2     H12205   3.522   4.219  13.568 -0.9282  0.4774 -0.7527
  826MPD2    H112206   3.347   4.214  13.965  1.0113  1.7528 -0.0873
  826MPD2    H212207   3.493   3.870  13.794 -0.9199 -0.4104  1.1124
  826MPD2    H312208   3.407   3.983  13.974  0.3853  1.1136  0.9449
  826MPD2     N12209   3.392   4.385  13.756 -0.1091 -0.2449 -0.1842
  826MPD2    H512210   3.338   4.416  13.836  1.0600 -1.4572  1.0855
  826MPD2    N112211   3.537   3.958  13.554  0.0527  0.0180 -0.4724
  826MPD2    H712212   3.570   3.865  13.573  0.7994  0.3225 -0.2880
  827MPD2     C12213   4.178   1.165   9.882  0.4890 -0.3475  0.0239
  827MPD2    C112214   4.098   1.113   9.982 -0.0343  0.4276  0.2372
  827MPD2    C212215   3.960   1.120   9.973 -0.1192  0.2340  0.0418
  827MPD2    C312216   3.902   1.181   9.862 -0.4293  0.4170  0.4653
  827MPD2    C412217   3.991   1.232   9.769 -0.0472 -0.2162  0.2303
  827MPD2    C512218   4.127   1.225   9.779  0.0244 -0.0580  0.2122
  827MPD2     H12219   3.901   1.077  10.053 -0.1839 -0.8111 -0.5659
  827MPD2    H112220   3.953   1.291   9.686 -2.4889 -1.2913  0.5781
  827MPD2    H212221   4.286   1.160   9.878  0.5408  0.4131  0.4571
  827MPD2    H312222   4.185   1.266   9.697  0.4641 -0.2617  0.4231
  827MPD2     N12223   3.761   1.187   9.843  0.1170 -0.3079 -0.2549
  827MPD2    H512224   3.700   1.142   9.910  0.0056  0.9829  0.5202
  827MPD2    N112225   4.165   1.070  10.094  0.4023 -0.3557  0.2790
  827MPD2    H712226   4.265   1.064  10.081  0.6853 -0.3112  2.3587
  828MPD2     C12227   2.556   0.830  12.705 -0.1716 -0.8219 -0.1529
  828MPD2    C112228   2.502   0.914  12.605  0.1829 -0.4819  0.4648
  828MPD2    C212229   2.562   0.912  12.476 -0.3094  0.8586  0.5472
  828MPD2    C312230   2.677   0.831  12.457 -0.4087 -0.0664 -0.1096
  828MPD2    C412231   2.732   0.757  12.554  0.5071 -0.1615  0.8813
  828MPD2    C512232   2.676   0.761  12.678 -0.3784  0.2015 -0.1438
  828MPD2     H12233   2.524   0.983  12.403 -1.4539  0.9583  1.2396
  828MPD2    H112234   2.825   0.704  12.544  0.1790 -1.0710  2.6711
  828MPD2    H212235   2.515   0.823  12.805 -2.7341  1.9142 -1.0063
  828MPD2    H312236   2.709   0.694  12.757  1.9848  0.4791 -0.9015
  828MPD2     N12237   2.741   0.820  12.331  0.3049 -0.8368  0.1702
  828MPD2    H512238   2.821   0.758  12.330  2.4154  1.8783 -0.6057
  828MPD2    N112239   2.381   0.994  12.630  0.6176 -0.0806  0.3099
  828MPD2    H712240   2.356   1.064  12.561 -0.8724 -1.2220 -0.3042
  829MPD2     C12241   2.061   1.531  12.126  0.0511 -0.5111  0.1843
  829MPD2    C112242   1.958   1.513  12.207  0.1830  0.7756  0.4824
  829MPD2    C212243   1.971   1.463  12.334  0.1048 -0.7511 -0.0109
  829MPD2    C312244   2.099   1.435  12.378  0.5356  0.1022  0.3720
  829MPD2    C412245   2.208   1.460  12.294  0.5978  0.6823  0.3592
  829MPD2    C512246   2.191   1.514  12.169 -0.3855 -0.3516  0.2875
  829MPD2     H12247   1.883   1.451  12.396 -0.9332 -0.9331 -1.5358
  829MPD2    H112248   2.306   1.426  12.325 -0.0044 -2.9439 -1.7347
  829MPD2    H212249   2.058   1.582  12.030 -1.9608  3.5061  2.3704
  829MPD2    H312250   2.278   1.532  12.106  0.4985  0.1437  1.6422
  829MPD2     N12251   2.108   1.366  12.500 -0.9209  0.5595 -0.1268
  829MPD2    H512252   2.203   1.357  12.535 -1.9677 -1.8831  2.0751
  829MPD2    N112253   1.834   1.557  12.158  1.3646  1.1541  0.1958
  829MPD2    H712254   1.829   1.587  12.061  2.3978 -1.9875 -0.7998
  830MPD2     C12255   3.395   3.248  16.070  0.1492 -0.0425  0.1706
  830MPD2    C112256   3.280   3.291  16.006  0.2969 -0.0673  0.3872
  830MPD2    C212257   3.299   3.360  15.890  0.0660 -0.4719 -0.1703
  830MPD2    C312258   3.421   3.408  15.848  0.1578 -0.5015 -0.2062
  830MPD2    C412259   3.539   3.365  15.913  0.5105  0.0658  0.4476
  830MPD2    C512260   3.522   3.291  16.029  0.9136 -0.3189 -0.0511
  830MPD2     H12261   3.214   3.386  15.827  0.2333 -0.3074 -0.3280
  830MPD2    H112262   3.637   3.399  15.882  0.3757  0.3163  0.2947
  830MPD2    H212263   3.394   3.205  16.169 -1.4685 -1.9764 -0.6867
  830MPD2    H312264   3.609   3.275  16.091  1.1533 -0.1094 -0.3361
  830MPD2     N12265   3.428   3.491  15.738 -0.2338  0.5239  0.1621
  830MPD2    H512266   3.505   3.555  15.722 -1.0882  1.7244  0.7425
  830MPD2    N112267   3.156   3.263  16.067  0.0364  0.2046  0.2201
  830MPD2    H712268   3.161   3.197  16.144  0.2816  0.5278  0.4801
  831MPD2     C12269   3.242   0.615  16.410 -0.1009  0.4018 -0.1899
  831MPD2    C112270   3.240   0.501  16.333 -0.2284 -0.0493  0.5272
  831MPD2    C212271   3.137   0.409  16.326  0.1242 -0.1740  0.7501
  831MPD2    C312272   3.023   0.435  16.399  0.0876  0.4073  0.6234
  831MPD2    C412273   3.028   0.544  16.489 -0.1378  0.3261  0.1115
  831MPD2    C512274   3.134   0.629  16.495  0.0187 -0.5666  0.5287
  831MPD2     H12275   3.139   0.318  16.268  1.0998  0.8496 -0.8254
  831MPD2    H112276   2.940   0.559  16.550 -0.0720 -0.8166  0.4899
  831MPD2    H212277   3.327   0.683  16.414  0.3698 -0.2469  0.8370
  831MPD2    H312278   3.133   0.711  16.565  1.0484  2.7102 -3.3318
  831MPD2     N12279   2.901   0.362  16.384  0.2029 -0.2383  0.3431
  831MPD2    H512280   2.819   0.412  16.417 -0.1369  0.6380 -1.8531
  831MPD2    N112281   3.354   0.483  16.252  0.1627 -0.8008  0.0274
  831MPD2    H712282   3.406   0.569  16.236  0.4006 -0.9512 -0.0018
  832MPD2     C12283   1.797   1.535  17.231 -0.0083  1.0840  0.3119
  832MPD2    C112284   1.747   1.661  17.241 -0.1523  0.0920 -0.8150
  832MPD2    C212285   1.630   1.693  17.174  0.1393  0.5355  0.2500
  832MPD2    C312286   1.566   1.593  17.102 -0.4572 -0.0420  0.0269
  832MPD2    C412287   1.618   1.462  17.100 -0.1553 -0.1301 -0.1040
  832MPD2    C512288   1.736   1.435  17.164  0.2025  0.2070  0.0875
  832MPD2     H12289   1.569   1.776  17.208 -0.9451 -0.2052  0.1101
  832MPD2    H112290   1.563   1.384  17.049 -0.0981 -0.3664  0.1938
  832MPD2    H212291   1.888   1.507  17.284  0.3611 -1.1250 -1.4745
  832MPD2    H312292   1.784   1.338  17.166  0.6736  0.4282 -0.4154
  832MPD2     N12293   1.446   1.612  17.033  0.3054 -0.0514 -0.0023
  832MPD2    H512294   1.406   1.538  16.976  0.6338  0.0294 -0.3393
  832MPD2    N112295   1.811   1.750  17.321 -0.0655  0.1304 -0.5340
  832MPD2    H712296   1.883   1.711  17.381  1.8732  0.9899 -2.2654
  833MPD2     C12297   3.363   3.018  12.601 -1.2562 -0.1886  0.0985
  833MPD2    C112298   3.297   3.128  12.545  0.0484 -0.4474  0.1315
  833MPD2    C212299   3.366   3.236  12.490 -0.1751  0.0766 -0.5149
  833MPD2    C312300   3.503   3.227  12.477 -0.0676  0.2037  0.1469
  833MPD2    C412301   3.572   3.118  12.527  0.5260  0.0306  0.3851
  833MPD2    C512302   3.499   3.021  12.594 -0.1866  0.5742  0.0252
  833MPD2     H12303   3.311   3.320  12.448 -1.3961 -0.7826 -0.6201
  833MPD2    H112304   3.679   3.105  12.516  0.4632 -1.0657  1.1490
  833MPD2    H212305   3.311   2.928  12.633 -1.3114  0.6888  2.4688
  833MPD2    H312306   3.548   2.934  12.636  0.3545  1.2772  0.8542
  833MPD2     N12307   3.579   3.329  12.411  0.1826 -0.2275 -0.3897
  833MPD2    H512308   3.671   3.294  12.385  0.8390  1.0904  0.1844
  833MPD2    N112309   3.153   3.136  12.535  0.1873  0.7321 -0.2270
  833MPD2    H712310   3.119   3.227  12.505  2.1896  1.5395 -0.0816
  834MPD2     C12311   3.664   3.219  11.480  0.1544 -0.4807  0.6706
  834MPD2    C112312   3.529   3.223  11.520 -0.0613 -0.1449 -0.5322
  834MPD2    C212313   3.505   3.266  11.649 -0.7730 -0.5404  0.1531
  834MPD2    C312314   3.612   3.312  11.735  0.8137  0.4476  0.0613
  834MPD2    C412315   3.743   3.306  11.691  0.3756  0.0911  0.3162
  834MPD2    C512316   3.767   3.263  11.565  0.2086 -0.0536 -0.6137
  834MPD2     H12317   3.404   3.287  11.682 -1.2346  1.3150 -2.4456
  834MPD2    H112318   3.831   3.338  11.746  0.2498  0.2544  0.4243
  834MPD2    H212319   3.691   3.185  11.381 -0.1741 -3.9035  1.7503
  834MPD2    H312320   3.869   3.259  11.527  0.2650  1.5778 -0.6526
  834MPD2     N12321   3.584   3.380  11.853 -0.9936 -0.3879  0.0908
  834MPD2    H512322   3.485   3.393  11.871 -0.6696  1.4950  0.5024
  834MPD2    N112323   3.426   3.196  11.424  0.3465 -0.3131  0.1668
  834MPD2    H712324   3.457   3.152  11.338  0.1251  3.0963 -1.6313
  835MPD2     C12325   3.418   1.274  11.233 -0.1298  0.4433 -0.3470
  835MPD2    C112326   3.343   1.223  11.333 -0.2614 -0.1143  0.1321
  835MPD2    C212327   3.387   1.223  11.459  0.1046 -0.3585  0.3330
  835MPD2    C312328   3.515   1.270  11.487 -1.3378  0.9126 -0.5306
  835MPD2    C412329   3.593   1.311  11.380 -0.2183 -0.4731  0.3725
  835MPD2    C512330   3.544   1.312  11.251  0.0831  0.8056 -0.1045
  835MPD2     H12331   3.325   1.191  11.541 -0.4621 -2.8863 -1.0862
  835MPD2    H112332   3.696   1.342  11.389 -0.8977  2.0568 -0.5026
  835MPD2    H212333   3.396   1.272  11.127  0.5015  1.3440 -0.4998
  835MPD2    H312334   3.601   1.348  11.166  0.2469  0.2773 -0.2138
  835MPD2     N12335   3.582   1.267  11.608  0.4445  0.0977  0.1821
  835MPD2    H512336   3.682   1.278  11.611  0.3186  0.7706  1.8494
  835MPD2    N112337   3.207   1.175  11.309  0.1171 -0.6866  0.1670
  835MPD2    H712338   3.148   1.159  11.390 -0.0165  0.6003  0.3243
  836MPD2     C12339   3.038   1.190  11.903  0.6321  0.0181  0.5218
  836MPD2    C112340   3.125   1.183  12.011 -0.0683 -0.5234 -0.6003
  836MPD2    C212341   3.069   1.178  12.139  0.3510 -1.0823 -0.5527
  836MPD2    C312342   2.933   1.190  12.155  0.3695 -1.1822 -0.2582
  836MPD2    C412343   2.852   1.194  12.048  0.1499 -0.4863 -0.5205
  836MPD2    C512344   2.903   1.190  11.921 -0.5789  0.0613 -0.5875
  836MPD2     H12345   3.125   1.166  12.231  0.5913 -0.6847 -0.6437
  836MPD2    H112346   2.744   1.202  12.055 -0.0331 -3.6426  0.1221
  836MPD2    H212347   3.093   1.195  11.810  1.3755  0.4692  0.9799
  836MPD2    H312348   2.834   1.206  11.839  1.2868  2.1265 -1.7423
  836MPD2     N12349   2.853   1.186  12.279  0.0576  0.6495  0.0500
  836MPD2    H512350   2.752   1.201  12.272  0.5135  4.5391  1.6896
  836MPD2    N112351   3.266   1.186  11.993  0.5831  0.0372  0.4380
  836MPD2    H712352   3.292   1.190  11.895 -0.1879  0.4110  0.2469
  837MPD2     C12353   1.291   0.864  10.167 -0.5516  0.2578  0.7413
  837MPD2    C112354   1.239   0.817  10.052  0.2961 -0.9839  0.2640
  837MPD2    C212355   1.231   0.904   9.948  0.2310 -0.4292  0.9861
  837MPD2    C312356   1.263   1.036   9.958  0.0667  0.5140 -0.4642
  837MPD2    C412357   1.321   1.082  10.074 -0.2306  0.7338 -0.3655
  837MPD2    C512358   1.336   0.996  10.179 -0.0707  0.5416 -0.1975
  837MPD2     H12359   1.200   0.878   9.847 -0.5238 -1.6752  1.5353
  837MPD2    H112360   1.371   1.178  10.085  1.7925 -0.2865 -0.7568
  837MPD2    H212361   1.283   0.808  10.260  2.4240  0.3974  1.0836
  837MPD2    H312362   1.379   1.019  10.275  0.2174 -0.6569 -0.0336
  837MPD2     N12363   1.223   1.122   9.851  1.3625 -0.1998 -0.0959
  837MPD2    H512364   1.165   1.087   9.775  0.3077  0.5815  0.3566
  837MPD2    N112365   1.188   0.685  10.038  0.2459  0.2762 -0.2096
  837MPD2    H712366   1.145   0.663   9.949  1.2950  1.2440 -0.9599
  838MPD2     C12367   4.545   3.072  11.082  0.2344 -0.5921 -0.1174
  838MPD2    C112368   4.577   3.182  11.160  0.3640 -0.4287  0.5331
  838MPD2    C212369   4.494   3.203  11.271  0.2559  0.1493  0.2342
  838MPD2    C312370   4.389   3.118  11.303 -0.1316  0.1859  0.0191
  838MPD2    C412371   4.355   3.021  11.217 -0.0675  0.4524 -0.0025
  838MPD2    C512372   4.433   2.996  11.104 -0.2876  0.6231  0.2236
  838MPD2     H12373   4.510   3.298  11.322  1.6366 -0.4800  0.9555
  838MPD2    H112374   4.273   2.952  11.236  1.1829 -0.6539  1.4332
  838MPD2    H212375   4.612   3.045  11.001 -1.0923 -0.6348 -1.2012
  838MPD2    H312376   4.418   2.910  11.040  0.6022  0.1336  0.6697
  838MPD2     N12377   4.320   3.157  11.425 -0.1833 -0.3770 -0.0175
  838MPD2    H512378   4.369   3.231  11.474 -2.2354  0.2938  1.0198
  838MPD2    N112379   4.686   3.267  11.143 -0.1059  0.0111  0.2678
  838MPD2    H712380   4.711   3.324  11.224 -1.9939  0.7797  0.2939
  839MPD2     C12381   4.561   2.925  11.722 -0.5573  0.4000  0.2532
  839MPD2    C112382   4.553   2.885  11.589  0.0901 -0.1954  0.8187
  839MPD2    C212383   4.647   2.935  11.492  0.4357 -0.1181  0.2494
  839MPD2    C312384   0.018   3.022  11.530  0.9289 -0.3151 -0.5313
  839MPD2    C412385   0.031   3.052  11.669  0.4601  0.2835 -0.4510
  839MPD2    C512386   4.673   2.998  11.756 -0.4680  0.5300  0.5828
  839MPD2     H12387   4.646   2.898  11.390  1.1313 -0.7570  0.4690
  839MPD2    H112388   0.107   3.120  11.703  0.4852 -0.2265  0.4910
  839MPD2    H212389   4.493   2.906  11.805 -0.5957  0.5824  0.2623
  839MPD2    H312390   4.688   3.019  11.861 -1.6548  0.1226  0.8323
  839MPD2     N12391   0.105   3.073  11.425  0.2231 -0.5828  0.1628
  839MPD2    H512392   0.090   3.044  11.329 -1.7346  0.2439  0.2264
  839MPD2    N112393   4.453   2.801  11.538  0.7153 -0.3870 -0.0352
  839MPD2    H712394   4.476   2.765  11.445 -2.8142 -0.5011 -0.8766
  840MPD2     C12395   0.020   1.202  10.277  0.0562 -0.3124  0.5159
  840MPD2    C112396   4.684   1.204  10.394  0.6325  0.8336  0.5222
  840MPD2    C212397   0.014   1.253  10.507  0.3734  0.2688  0.0668
  840MPD2    C312398   0.146   1.300  10.506  0.4263  0.1036 -0.3860
  840MPD2    C412399   0.210   1.292  10.384  0.9388 -0.5394  0.3110
  840MPD2    C512400   0.146   1.238  10.273  0.3676  0.1888 -0.5381
  840MPD2     H12401   4.695   1.260  10.602 -0.4670 -0.1304 -0.3645
  840MPD2    H112402   0.314   1.319  10.379  0.5588  1.2229  2.1664
  840MPD2    H212403   4.707   1.146  10.196  2.3115 -0.8082 -0.3986
  840MPD2    H312404   0.210   1.224  10.187  0.9526  2.0488 -0.4146
  840MPD2     N12405   0.226   1.328  10.622  0.4712  0.3705  1.0466
  840MPD2    H512406   0.322   1.359  10.610  1.4343 -2.0886  2.3787
  840MPD2    N112407   4.553   1.149  10.384 -0.4286 -0.1082  0.2396
  840MPD2    H712408   4.531   1.113  10.291 -2.8383  1.5881  0.1470
  841MPD2     C12409   0.108   0.879  14.089 -0.6232 -0.3440 -0.0362
  841MPD2    C112410   0.170   0.827  14.199 -0.2805 -0.1046 -0.4937
  841MPD2    C212411   0.193   0.909  14.303  0.3733  0.1920  0.2952
  841MPD2    C312412   0.158   1.041  14.300 -0.6277 -1.0092  0.4183
  841MPD2    C412413   0.105   1.094  14.185 -0.0488 -0.3974  0.0185
  841MPD2    C512414   0.082   1.010  14.081  0.0509  0.8101 -0.7128
  841MPD2     H12415   0.233   0.860  14.391  1.1168  0.6315  0.2045
  841MPD2    H112416   0.077   1.197  14.165 -0.1974 -0.3275  0.5846
  841MPD2    H212417   0.085   0.813  14.006 -0.2387 -1.2534  0.5816
  841MPD2    H312418   0.035   1.048  13.991  0.8754  0.5169 -1.2580
  841MPD2     N12419   0.161   1.116  14.420 -0.1525  0.0682  0.3007
  841MPD2    H512420   0.183   1.065  14.505 -2.0541 -0.5285  0.4357
  841MPD2    N112421   0.194   0.687  14.225 -0.0916  0.1360 -0.8468
  841MPD2    H712422   0.239   0.661  14.313 -0.6462  1.9847 -0.0147
  842MPD2     C12423   0.959   2.154  16.878  0.1957  0.5841 -0.7694
  842MPD2    C112424   0.857   2.067  16.891  0.7333 -0.3123  1.3122
  842MPD2    C212425   0.862   1.976  16.999  0.3334 -0.5623  0.1194
  842MPD2    C312426   0.963   1.981  17.094 -0.0652 -0.2456  0.4223
  842MPD2    C412427   1.054   2.080  17.088  0.1105 -0.3115  0.1458
  842MPD2    C512428   1.063   2.151  16.974 -0.2056  0.4686 -0.2055
  842MPD2     H12429   0.794   1.892  16.999  1.9303 -1.8285  3.2371
  842MPD2    H112430   1.136   2.084  17.159  0.3800  1.9379 -0.2967
  842MPD2    H212431   0.958   2.233  16.804 -1.4497 -0.0955 -1.4814
  842MPD2    H312432   1.148   2.215  16.954 -0.2031  0.2347 -0.9587
  842MPD2     N12433   0.975   1.898  17.207 -0.1477  0.3311 -0.1449
  842MPD2    H512434   1.044   1.922  17.277  0.3821 -0.4046 -0.4105
  842MPD2    N112435   0.753   2.066  16.788 -0.6739  0.3150  0.0830
  842MPD2    H712436   0.776   2.111  16.700  0.9520 -1.6073 -0.4727
  843MPD2     C12437   2.664   2.621   0.184  0.0193 -0.1194  0.0894
  843MPD2    C112438   2.612   2.697   0.283  0.2519  0.0009  0.7626
  843MPD2    C212439   2.687   2.798   0.330  0.4546  0.3855 -0.2218
  843MPD2    C312440   2.805   2.837   0.276  0.8050  0.0363  0.1089
  843MPD2    C412441   2.856   2.759   0.176 -0.2154  0.4196  0.2058
  843MPD2    C512442   2.790   2.653   0.135 -0.8357  0.4573 -0.2543
  843MPD2     H12443   2.654   2.859   0.414 -0.5406 -1.0408  0.4134
  843MPD2    H112444   2.953   2.776   0.130 -0.7976  1.4553 -0.6464
  843MPD2    H212445   2.610   2.535   0.143  1.0257 -0.2667 -0.9335
  843MPD2    H312446   2.824   2.588   0.055  0.2787  1.1300 -0.3173
  843MPD2     N12447   2.883   2.943   0.314  0.0821 -0.6699 -0.5853
  843MPD2    H512448   2.976   2.957   0.276  0.5605 -0.3206  0.7237
  843MPD2    N112449   2.499   2.648   0.351 -0.2720  0.5248 -0.0543
  843MPD2    H712450   2.456   2.560   0.324 -0.4165 -0.4752  3.4779
  844MPD2     C12451   1.438   1.587  16.517 -0.6273  0.4885  0.2495
  844MPD2    C112452   1.558   1.526  16.528 -0.3514  0.8119 -0.6006
  844MPD2    C212453   1.650   1.579  16.618  0.1908  1.4385 -0.2077
  844MPD2    C312454   1.612   1.697  16.682 -0.1728 -0.1012  1.0794
  844MPD2    C412455   1.489   1.757  16.666  0.1742 -0.6167 -0.0747
  844MPD2    C512456   1.398   1.702  16.580 -0.1607  0.6736 -0.8150
  844MPD2     H12457   1.751   1.544  16.636 -0.4246 -1.2185 -1.8877
  844MPD2    H112458   1.462   1.846  16.721  0.0256 -0.8757  0.2752
  844MPD2    H212459   1.383   1.563  16.427  1.5835 -1.7529 -0.5211
  844MPD2    H312460   1.307   1.754  16.556 -1.6032 -0.8611  1.3489
  844MPD2     N12461   1.719   1.751  16.765 -0.2206  0.4052 -0.9364
  844MPD2    H512462   1.806   1.702  16.748 -0.0544  0.8908 -1.5141
  844MPD2    N112463   1.593   1.411  16.447  0.8718  0.7694 -0.2479
  844MPD2    H712464   1.689   1.383  16.463  0.7255  0.0425 -0.6790
  845MPD2     C12465   1.705   2.545  17.406 -0.2246  1.1126 -0.0881
  845MPD2    C112466   1.620   2.438  17.403 -0.6692  0.5324 -0.4928
  845MPD2    C212467   1.649   2.327  17.323 -0.3890 -0.5557  0.7221
  845MPD2    C312468   1.763   2.320  17.251  0.6786  0.1571 -1.2389
  845MPD2    C412469   1.843   2.434  17.248  0.7342 -1.0709 -0.7799
  845MPD2    C512470   1.813   2.547  17.319  0.3002  0.2591 -0.4211
  845MPD2     H12471   1.576   2.247  17.317  0.7615 -1.6034  0.8213
  845MPD2    H112472   1.933   2.447  17.191  1.1592 -2.1960 -0.3521
  845MPD2    H212473   1.680   2.634  17.462  1.3988  1.0076  0.8105
  845MPD2    H312474   1.876   2.635  17.315  3.1074 -1.8720 -2.9814
  845MPD2     N12475   1.798   2.204  17.168  0.1327  0.3183  0.7281
  845MPD2    H512476   1.725   2.135  17.157 -0.3246  0.9656 -0.2965
  845MPD2    N112477   1.504   2.445  17.484 -0.6663 -0.0755  0.2208
  845MPD2    H712478   1.491   2.534  17.531  2.6402  0.3336  0.3421
  846MPD2     C12479   2.864   2.231  14.142 -0.5026 -0.0577  0.0749
  846MPD2    C112480   2.793   2.348  14.162  0.3607  0.9417  0.4222
  846MPD2    C212481   2.774   2.386  14.296 -0.8387 -0.2717  0.1776
  846MPD2    C312482   2.799   2.304  14.407  1.0001 -0.4321 -0.0072
  846MPD2    C412483   2.888   2.195  14.380 -0.3572 -0.7529  0.2470
  846MPD2    C512484   2.918   2.162  14.248 -0.5098  0.0264  0.7082
  846MPD2     H12485   2.712   2.475  14.309 -2.4232 -1.2661 -0.4891
  846MPD2    H112486   2.953   2.135  14.443 -0.5632 -1.5994 -0.3510
  846MPD2    H212487   2.885   2.202  14.040 -0.2821 -0.3287  0.1966
  846MPD2    H312488   2.983   2.076  14.233 -2.4853 -1.2188 -0.7100
  846MPD2     N12489   2.757   2.342  14.536  0.2378 -0.3362 -0.2380
  846MPD2    H512490   2.711   2.432  14.535  0.0461 -0.4090  1.4755
  846MPD2    N112491   2.754   2.429  14.056  0.4188  0.2489  0.4814
  846MPD2    H712492   2.703   2.513  14.081  0.9144  0.8465 -0.4690
  847MPD2     C12493   2.844   3.476  14.683 -0.2454  0.4322  0.8063
  847MPD2    C112494   2.917   3.587  14.719  0.1008  0.9026 -0.2253
  847MPD2    C212495   3.048   3.570  14.759  0.0531 -0.4265 -0.1481
  847MPD2    C312496   3.116   3.449  14.754  0.2827  0.7851  0.9066
  847MPD2    C412497   3.043   3.345  14.698  0.7328 -0.4418  0.1532
  847MPD2    C512498   2.909   3.363  14.655  0.4101 -0.0368  0.3231
  847MPD2     H12499   3.090   3.652  14.817  1.7577 -0.5686 -1.1729
  847MPD2    H112500   3.088   3.247  14.686  1.7759  0.0841 -0.2491
  847MPD2    H212501   2.741   3.486  14.652  0.9165  0.6200 -2.9650
  847MPD2    H312502   2.848   3.291  14.601  1.2671  0.0520 -0.7573
  847MPD2     N12503   3.248   3.453  14.793  0.6318 -0.5125 -0.6208
  847MPD2    H512504   3.293   3.535  14.830 -1.8629 -0.0185  1.3569
  847MPD2    N112505   2.860   3.716  14.714  0.2971 -0.4011  0.3472
  847MPD2    H712506   2.919   3.798  14.724  2.2974 -1.9681  1.4599
  848MPD2     C12507   1.091   2.030  16.443  0.6757  0.0171 -0.1622
  848MPD2    C112508   1.138   2.067  16.570 -0.3183 -0.8764  0.1519
  848MPD2    C212509   1.175   2.200  16.597  0.0548  0.4205  0.0010
  848MPD2    C312510   1.190   2.286  16.486 -1.3049 -0.2427  0.0967
  848MPD2    C412511   1.143   2.254  16.358 -0.0689 -0.1122 -0.3015
  848MPD2    C512512   1.092   2.128  16.350 -0.7063  0.3518  0.6166
  848MPD2     H12513   1.203   2.226  16.699 -2.0867  2.9293 -0.0657
  848MPD2    H112514   1.139   2.314  16.268 -1.2605  0.9180  0.4505
  848MPD2    H212515   1.053   1.932  16.418  0.8928  0.0044 -0.4298
  848MPD2    H312516   1.068   2.100  16.248 -0.1463 -2.2298  1.1963
  848MPD2     N12517   1.245   2.417  16.495  0.5119 -0.7825 -0.3179
  848MPD2    H512518   1.250   2.470  16.409  0.2384  0.4979  0.4540
  848MPD2    N112519   1.136   1.972  16.678 -0.9103  0.3692  0.4376
  848MPD2    H712520   1.182   2.009  16.761 -1.2822  3.0559 -0.5588
  849MPD2     C12521   4.593   2.117  13.937  0.6525  0.2069  0.0867
  849MPD2    C112522   4.569   2.009  14.016  0.0718  0.3720  0.2262
  849MPD2    C212523   4.589   2.024  14.149 -0.5515 -0.1470 -0.0297
  849MPD2    C312524   4.660   2.131  14.202  0.8086  0.2737 -0.4620
  849MPD2    C412525   4.694   2.233  14.116 -0.0838 -0.0446 -0.0337
  849MPD2    C512526   4.656   2.221  13.985 -0.5086 -0.0219 -0.8740
  849MPD2     H12527   4.557   1.941  14.212 -0.0135 -0.3352 -0.0042
  849MPD2    H112528   0.024   2.316  14.150  0.6825 -0.1351 -1.2132
  849MPD2    H212529   4.564   2.119  13.832 -0.7960 -2.8802  0.4597
  849MPD2    H312530   4.689   2.306  13.926 -0.7623  1.1467  0.6452
  849MPD2     N12531   4.705   2.135  14.335  0.0508 -0.3689 -0.7277
  849MPD2    H512532   0.041   2.205  14.364 -3.3893  2.2987  0.8749
  849MPD2    N112533   4.516   1.889  13.965  0.0822  0.3184 -0.4107
  849MPD2    H712534   4.507   1.813  14.031 -0.7042  0.0161 -0.8705
  850MPD2     C12535   2.895   4.457  14.681  0.2932  0.3158  0.2019
  850MPD2    C112536   2.895   4.501  14.810  0.0175  0.5197 -0.5351
  850MPD2    C212537   3.012   4.530  14.874  0.1238  0.7535 -0.1905
  850MPD2    C312538   3.132   4.508  14.807 -0.1332 -0.6028 -0.5960
  850MPD2    C412539   3.134   4.468  14.673  0.1976  0.1516  0.6841
  850MPD2    C512540   3.012   4.449  14.612 -0.3700 -0.3719 -0.0083
  850MPD2     H12541   3.021   4.563  14.977 -0.5353  1.2982 -0.3086
  850MPD2    H112542   3.229   4.447  14.624 -1.0723  0.6768 -2.0136
  850MPD2    H212543   2.804   4.433  14.627 -1.0277  0.5253  2.2919
  850MPD2    H312544   3.006   4.422  14.508 -0.2498  0.7296 -0.3032
  850MPD2     N12545   3.262   4.530  14.858  0.1387  0.2708  0.1085
  850MPD2    H512546   3.342   4.509  14.798  1.2546  0.0900  1.6505
  850MPD2    N112547   2.760   4.494  14.862 -0.3203 -0.7070  0.0835
  850MPD2    H712548   2.692   4.448  14.802 -0.6222 -0.6423  0.3749
  851MPD2     C12549   3.331   4.448  15.520  0.3535  0.6742  1.0142
  851MPD2    C112550   3.221   4.394  15.466 -0.7665 -0.3468  0.4726
  851MPD2    C212551   3.226   4.256  15.451 -0.2292 -0.6083 -0.2640
  851MPD2    C312552   3.320   4.183  15.512 -0.4952 -0.2870 -0.7377
  851MPD2    C412553   3.429   4.243  15.575  0.0141 -0.1409 -0.6724
  851MPD2    C512554   3.428   4.378  15.581 -0.5740 -1.0734 -0.2399
  851MPD2     H12555   3.152   4.203  15.394 -1.3303  0.7762 -0.1156
  851MPD2    H112556   3.502   4.179  15.623 -0.2847 -0.1347 -0.2059
  851MPD2    H212557   3.350   4.553  15.499  0.0381  0.5343  0.0097
  851MPD2    H312558   3.505   4.433  15.635 -0.7432 -0.5777 -0.5063
  851MPD2     N12559   3.301   4.043  15.508 -0.5216  0.3447  0.6163
  851MPD2    H512560   3.204   4.017  15.497 -0.3882 -0.2151  0.7428
  851MPD2    N112561   3.116   4.478  15.418  0.1378 -0.9499 -0.1155
  851MPD2    H712562   3.145   4.573  15.399  0.5570 -1.2138 -0.7749
  852MPD2     C12563   2.200   2.778   9.915 -0.2520  0.3446 -0.1186
  852MPD2    C112564   2.233   2.823  10.039 -0.2096  0.5020  0.2285
  852MPD2    C212565   2.311   2.939  10.050 -0.3809 -0.4455  0.0132
  852MPD2    C312566   2.363   3.007   9.939  0.5500  0.0436  0.4801
  852MPD2    C412567   2.326   2.963   9.814  0.6897  0.0335  0.7246
  852MPD2    C512568   2.257   2.843   9.806  0.2314  0.5526 -0.2457
  852MPD2     H12569   2.350   2.960  10.149 -0.4408  1.6054 -0.3972
  852MPD2    H112570   2.354   3.019   9.726 -0.1783 -2.6517 -1.2569
  852MPD2    H212571   2.148   2.684   9.901  0.7660 -0.0457 -1.2574
  852MPD2    H312572   2.249   2.801   9.707 -0.7464 -2.5946  1.1763
  852MPD2     N12573   2.456   3.117   9.962  0.3211 -0.4479  0.3781
  852MPD2    H512574   2.466   3.148  10.058 -1.3229 -0.2355  0.4788
  852MPD2    N112575   2.200   2.748  10.160  0.5321  0.5081  0.1348
  852MPD2    H712576   2.232   2.785  10.249 -0.8758  4.7732 -1.1700
  853MPD2     C12577   4.214   1.668  11.971  0.1960  0.5581 -0.2288
  853MPD2    C112578   4.185   1.800  11.953 -0.1650 -0.5460  0.1927
  853MPD2    C212579   4.175   1.857  11.824 -0.4858 -0.5786 -0.9002
  853MPD2    C312580   4.200   1.773  11.719  0.4099 -0.2179 -0.7434
  853MPD2    C412581   4.224   1.635  11.740 -0.1580 -0.6910 -0.2147
  853MPD2    C512582   4.234   1.583  11.868 -0.0800  0.1568 -0.3592
  853MPD2     H12583   4.182   1.964  11.806 -0.4059 -0.3023  0.7507
  853MPD2    H112584   4.219   1.561  11.661 -0.5655  0.4345 -1.2320
  853MPD2    H212585   4.216   1.631  12.072 -2.5709 -1.6562 -0.9712
  853MPD2    H312586   4.248   1.476  11.881  0.6301  0.3292  0.3141
  853MPD2     N12587   4.203   1.822  11.587  0.1951  0.3846  0.3601
  853MPD2    H512588   4.233   1.760  11.512  0.1643 -0.1013  0.7518
  853MPD2    N112589   4.159   1.873  12.070 -0.4312  0.2235 -0.0369
  853MPD2    H712590   4.182   1.824  12.156  0.4452  1.4433  0.4236
  854MPD2     C12591   1.553   2.587  12.685 -1.4696  0.5193  0.9287
  854MPD2    C112592   1.470   2.512  12.767 -0.4739 -0.0206 -0.3007
  854MPD2    C212593   1.526   2.458  12.883  0.1347  0.3892 -0.4413
  854MPD2    C312594   1.661   2.472  12.907 -0.1621 -0.3800  0.2948
  854MPD2    C412595   1.739   2.531  12.813 -0.1602  0.4165  0.3954
  854MPD2    C512596   1.685   2.597  12.710  0.5875 -0.2727 -0.0555
  854MPD2     H12597   1.460   2.425  12.963  0.5197  1.2245  0.2104
  854MPD2    H112598   1.846   2.533  12.830 -0.2106  0.3528  0.7201
  854MPD2    H212599   1.512   2.633  12.595  0.0351 -3.5382 -1.8421
  854MPD2    H312600   1.751   2.641  12.636  1.0348  0.7285  0.9516
  854MPD2     N12601   1.725   2.412  13.017 -0.3913  0.1211  0.5977
  854MPD2    H512602   1.826   2.401  13.012 -0.4756 -0.4421  0.1169
  854MPD2    N112603   1.331   2.516  12.729 -0.1253 -0.7164 -0.4857
  854MPD2    H712604   1.308   2.581  12.655 -0.7596 -2.3872 -1.7703
  855MPD2     C12605   1.299   1.854  13.734  1.0647 -0.1551 -0.8026
  855MPD2    C112606   1.431   1.838  13.755 -0.4727  0.0778 -0.2417
  855MPD2    C212607   1.525   1.894  13.665  0.6259  0.4853 -0.8529
  855MPD2    C312608   1.481   1.974  13.567  0.7452 -0.4984 -0.3544
  855MPD2    C412609   1.347   1.973  13.531 -0.1991 -0.2792 -0.1004
  855MPD2    C512610   1.256   1.917  13.620  0.1739  0.0804  0.7513
  855MPD2     H12611   1.629   1.891  13.695  0.5475  0.0284 -0.6326
  855MPD2    H112612   1.308   2.032  13.449 -1.3502  0.7741  1.2014
  855MPD2    H212613   1.218   1.811  13.794 -0.2632  0.5367 -2.0971
  855MPD2    H312614   1.150   1.936  13.612  0.4067  2.6131  3.8077
  855MPD2     N12615   1.567   2.044  13.479  0.0271 -0.1187  0.6833
  855MPD2    H512616   1.519   2.101  13.410 -0.6206 -0.9173  0.4781
  855MPD2    N112617   1.490   1.755  13.856 -0.8002 -0.2251  0.1402
  855MPD2    H712618   1.591   1.759  13.865 -0.8177 -1.0157  0.6997
  856MPD2     C12619   3.539   2.783  14.358 -0.0518  0.3348 -0.2174
  856MPD2    C112620   3.569   2.892  14.283  0.5918 -0.3019 -0.1025
  856MPD2    C212621   3.485   2.996  14.302  0.2581  0.3913 -0.4404
  856MPD2    C312622   3.371   2.987  14.379  0.5850  0.0091 -0.3867
  856MPD2    C412623   3.335   2.877  14.443 -0.0984 -0.0734  0.3954
  856MPD2    C512624   3.420   2.773  14.431 -0.3349 -0.0868 -0.0570
  856MPD2     H12625   3.500   3.087  14.246 -0.4350 -1.1993 -3.2285
  856MPD2    H112626   3.247   2.871  14.506  0.5950 -2.7365  1.1054
  856MPD2    H212627   3.603   2.695  14.363  1.8272  1.8492  2.9553
  856MPD2    H312628   3.393   2.679  14.478  0.1135  0.0088  0.3841
  856MPD2     N12629   3.277   3.094  14.388  0.4936  0.0354  0.0778
  856MPD2    H512630   3.192   3.075  14.440  0.0567  0.0512 -0.6339
  856MPD2    N112631   3.684   2.905  14.199  0.3600 -0.3989 -0.0354
  856MPD2    H712632   3.692   2.994  14.153  0.3343 -0.7718 -0.7637
  857MPD2     C12633   0.682   0.324  12.708  0.2759 -0.7375 -0.1244
  857MPD2    C112634   0.721   0.268  12.828 -0.1154 -0.1373 -0.2716
  857MPD2    C212635   0.753   0.350  12.933  0.4195 -0.0309 -0.2398
  857MPD2    C312636   0.773   0.487  12.911  0.2858  0.2895 -0.3265
  857MPD2    C412637   0.750   0.534  12.784  0.0367 -0.3322  0.2197
  857MPD2    C512638   0.700   0.455  12.683  0.0873 -0.7329  0.9905
  857MPD2     H12639   0.755   0.311  13.034  0.0727  1.5869  0.3999
  857MPD2    H112640   0.755   0.641  12.768  0.6684 -0.5320 -0.9037
  857MPD2    H212641   0.627   0.266  12.636  0.7209  0.2635 -1.2756
  857MPD2    H312642   0.692   0.505  12.587 -2.6998  0.2269  1.7194
  857MPD2     N12643   0.810   0.572  13.020 -0.2372  0.0401  0.4350
  857MPD2    H512644   0.813   0.526  13.110 -1.9894 -2.0794 -0.5919
  857MPD2    N112645   0.704   0.132  12.841  0.7899 -0.2202 -0.3512
  857MPD2    H712646   0.673   0.080  12.759 -0.1114 -0.0618 -0.1145
  858MPD2     C12647   1.528   4.482  16.618 -0.4568  0.1522 -0.3102
  858MPD2    C112648   1.432   4.392  16.655  0.5716 -0.5150  0.3231
  858MPD2    C212649   1.352   4.418  16.765 -0.3206 -0.0205 -0.5758
  858MPD2    C312650   1.377   4.528  16.838 -0.7620  0.5032  0.2621
  858MPD2    C412651   1.464   4.626  16.792 -0.4707  0.0243 -0.4497
  858MPD2    C512652   1.539   4.596  16.687  0.2686 -0.3761  0.1287
  858MPD2     H12653   1.282   4.343  16.799 -0.4253  1.0366  1.5538
  858MPD2    H112654   1.481   4.708  16.862 -3.2909 -0.3512  0.6902
  858MPD2    H212655   1.595   4.449  16.539  0.2725  1.6696 -0.3361
  858MPD2    H312656   1.602   4.677  16.651  0.6467 -0.6112  0.2567
  858MPD2     N12657   1.305   4.550  16.956 -0.5400 -0.2477 -0.3385
  858MPD2    H512658   1.235   4.477  16.973  0.6749 -1.5359 -0.9051
  858MPD2    N112659   1.417   4.279  16.570 -0.0923  0.0361  0.2117
  858MPD2    H712660   1.476   4.270  16.488  0.4483 -1.1433  0.7300
  859MPD2     C12661   0.419   1.552  16.064 -0.7171 -0.3827  0.3153
  859MPD2    C112662   0.348   1.573  15.948 -0.0138 -0.1375  0.7610
  859MPD2    C212663   0.279   1.468  15.887 -0.0533  0.2944 -0.0107
  859MPD2    C312664   0.297   1.341  15.940  0.4295  0.8335 -0.6735
  859MPD2    C412665   0.359   1.325  16.061  0.1575 -0.2084 -0.4507
  859MPD2    C512666   0.432   1.427  16.117 -0.2396  0.1150 -0.2683
  859MPD2     H12667   0.235   1.481  15.789  0.4603 -1.3997 -0.4634
  859MPD2    H112668   0.361   1.228  16.109  2.8902 -1.5429 -3.2354
  859MPD2    H212669   0.461   1.634  16.121 -1.1949  0.9885 -1.2940
  859MPD2    H312670   0.492   1.409  16.206  0.9101  1.6956 -0.7161
  859MPD2     N12671   0.251   1.222  15.867  0.3493  0.7267  0.6394
  859MPD2    H512672   0.277   1.132  15.906  0.3878 -0.2945 -1.7527
  859MPD2    N112673   0.342   1.703  15.908 -0.3476 -0.4819  0.2917
  859MPD2    H712674   0.400   1.775  15.949 -0.6610  0.5805 -1.1222
  860MPD2     C12675   2.510   1.877  11.684  0.1655 -0.1690 -0.0999
  860MPD2    C112676   2.548   1.964  11.791 -0.3151 -0.3509 -0.4731
  860MPD2    C212677   2.455   1.999  11.894  0.2354  0.4060 -0.1669
  860MPD2    C312678   2.325   1.934  11.893 -0.3170  0.5445  0.1542
  860MPD2    C412679   2.295   1.849  11.785  0.5432 -0.5401  0.0736
  860MPD2    C512680   2.388   1.822  11.683  0.8934  0.6817  0.3983
  860MPD2     H12681   2.473   2.065  11.978  2.0066 -0.5294  0.1829
  860MPD2    H112682   2.201   1.797  11.772  0.7423 -0.6500 -0.9408
  860MPD2    H212683   2.571   1.841  11.602  0.9694  0.0946  0.3754
  860MPD2    H312684   2.366   1.759  11.598  2.8747 -0.7055  0.9071
  860MPD2     N12685   2.234   1.961  11.998 -0.4656  0.1271 -0.3834
  860MPD2    H512686   2.268   2.017  12.075  1.8746 -2.1678  0.2596
  860MPD2    N112687   2.674   2.017  11.805  0.2719 -0.1760 -0.2620
  860MPD2    H712688   2.688   2.072  11.890  1.5904 -1.8774  0.6300
  861MPD2     C12689   1.429   0.353  11.085  0.7512 -0.5235  0.3941
  861MPD2    C112690   1.297   0.329  11.108 -0.3003 -0.3009 -0.1703
  861MPD2    C212691   1.206   0.370  11.019 -0.4183 -0.3916  0.6662
  861MPD2    C312692   1.240   0.461  10.918  0.2766 -0.6153 -0.3508
  861MPD2    C412693   1.368   0.501  10.903 -0.3191  0.2897 -0.2622
  861MPD2    C512694   1.456   0.439  10.981  0.4006  0.5123 -0.3960
  861MPD2     H12695   1.104   0.343  11.043 -1.1631  1.3905 -0.4920
  861MPD2    H112696   1.403   0.579  10.836 -0.5286  0.1659 -0.5154
  861MPD2    H212697   1.507   0.318  11.152  3.2651  1.6512 -1.3740
  861MPD2    H312698   1.562   0.458  10.968  0.7671  0.0071  1.8272
  861MPD2     N12699   1.136   0.522  10.846 -0.2559 -0.2492  0.3020
  861MPD2    H512700   1.169   0.588  10.776  1.9755  0.5482  2.1271
  861MPD2    N112701   1.256   0.257  11.220  0.3661 -0.1968 -0.5744
  861MPD2    H712702   1.158   0.269  11.243  0.2007  0.4032 -1.6175
  862MPD2     C12703   0.345   0.466  10.504  0.6254  0.1873 -0.4044
  862MPD2    C112704   0.430   0.408  10.598 -0.1638  1.5642  0.3348
  862MPD2    C212705   0.397   0.291  10.661  0.3190  0.2131 -0.1398
  862MPD2    C312706   0.273   0.229  10.624  0.0695  0.4360 -0.2953
  862MPD2    C412707   0.192   0.286  10.530 -0.1660  0.1263  0.0629
  862MPD2    C512708   0.223   0.407  10.475 -0.5635 -0.0334  0.9489
  862MPD2     H12709   0.466   0.252  10.736 -1.5878 -1.2092  0.8876
  862MPD2    H112710   0.110   0.243  10.473 -1.0736 -0.4842  1.8321
  862MPD2    H212711   0.361   0.561  10.454 -0.9350 -0.8006 -2.8006
  862MPD2    H312712   0.157   0.459  10.407  0.5456  1.2698  0.8686
  862MPD2     N12713   0.232   0.104  10.672  0.0886  0.3568  0.1350
  862MPD2    H512714   0.144   0.066  10.636  0.3327 -0.0179 -0.0662
  862MPD2    N112715   0.552   0.468  10.630  0.3207  0.3847 -0.1787
  862MPD2    H712716   0.606   0.421  10.703  4.5778  2.0648 -2.2452
  863MPD2     C12717   4.394   2.779  16.915 -1.1939  0.3270 -0.5083
  863MPD2    C112718   4.384   2.911  16.954  0.0504  0.3496 -0.2396
  863MPD2    C212719   4.479   2.970  17.038  0.6546 -0.1922 -0.1314
  863MPD2    C312720   4.584   2.887  17.078 -0.3841 -0.4714 -0.1427
  863MPD2    C412721   4.598   2.760  17.029  0.0730 -0.0918  0.6125
  863MPD2    C512722   4.503   2.706  16.947 -0.3011  1.4211 -0.1286
  863MPD2     H12723   4.480   3.074  17.067  1.7601 -0.0925 -0.5054
  863MPD2    H112724   4.686   2.703  17.057 -0.7269 -0.8772  1.5156
  863MPD2    H212725   4.330   2.744  16.836  0.5032  1.3628 -2.3478
  863MPD2    H312726   4.527   2.612  16.900  1.7779  1.2262  1.3214
  863MPD2     N12727   4.694   2.932  17.158  0.5367  0.3890 -0.4023
  863MPD2    H512728   0.012   2.854  17.200  1.1518 -0.0405 -1.9288
  863MPD2    N112729   4.288   2.995  16.886  0.4844 -0.8775  0.3349
  863MPD2    H712730   4.246   2.956  16.802 -1.6418 -1.3243  1.6080
  864MPD2     C12731   0.853   0.154  17.166 -0.6351 -0.7713  0.4557
  864MPD2    C112732   0.846   0.053  17.078 -0.4133 -0.3862 -0.5625
  864MPD2    C212733   0.913   0.062  16.959 -0.0439 -0.2746 -0.6933
  864MPD2    C312734   0.991   0.171  16.933 -0.2436 -0.6193 -0.2124
  864MPD2    C412735   0.993   0.274  17.024  0.5148 -0.0742 -0.2172
  864MPD2    C512736   0.926   0.264  17.138  0.1317 -0.4932 -0.0112
  864MPD2     H12737   0.905   4.714  16.887 -2.6182  0.2477 -0.9878
  864MPD2    H112738   1.051   0.363  17.003  1.3498 -0.2001  1.6115
  864MPD2    H212739   0.797   0.138  17.258 -1.7768  1.0411  0.0632
  864MPD2    H312740   0.936   0.348  17.206  0.0528  1.3716 -2.3236
  864MPD2     N12741   1.064   0.187  16.817  0.0521 -0.0429  0.5566
  864MPD2    H512742   1.104   0.277  16.792 -1.1832  0.6653  1.1336
  864MPD2    N112743   0.760   4.682  17.118 -0.3878 -0.3835 -0.1880
  864MPD2    H712744   0.707   4.696  17.204  0.1006  0.1959  0.0243
  865MPD2     C12745   0.697   0.116  15.891 -0.7213  0.5086  1.1855
  865MPD2    C112746   0.723   0.023  15.990  0.0946 -0.6588  0.5107
  865MPD2    C212747   0.809   0.061  16.092 -0.0002  0.2292  0.2236
  865MPD2    C312748   0.878   0.183  16.088 -0.3849  0.1868 -0.1665
  865MPD2    C412749   0.858   0.263  15.984  0.4091 -0.0154 -0.0697
  865MPD2    C512750   0.758   0.240  15.892 -0.7265 -0.1248 -0.0424
  865MPD2     H12751   0.826   4.721  16.171 -3.7988  0.5457  1.3384
  865MPD2    H112752   0.911   0.357  15.975  0.2533  0.3634  2.8996
  865MPD2    H212753   0.623   0.082  15.819 -1.2872 -0.3216  2.1693
  865MPD2    H312754   0.734   0.316  15.818  1.5776 -0.5082 -1.1911
  865MPD2     N12755   0.971   0.227  16.186  0.0634 -0.3510 -0.5165
  865MPD2    H512756   1.037   0.301  16.162  0.6277 -0.8573 -0.5222
  865MPD2    N112757   0.677   4.620  15.987 -0.1184 -0.1322  0.0754
  865MPD2    H712758   0.642   4.590  15.897  2.8037 -0.3023 -1.0276
  866MPD2     C12759   1.724   0.225  11.563  0.4862 -0.2431 -0.2920
  866MPD2    C112760   1.747   0.269  11.436 -0.0724  0.9069  0.0168
  866MPD2    C212761   1.675   0.372  11.381  0.0930 -0.2466  0.9660
  866MPD2    C312762   1.568   0.426  11.448  0.1691 -0.6580 -0.8044
  866MPD2    C412763   1.536   0.366  11.565 -0.2235 -0.3244  0.3045
  866MPD2    C512764   1.612   0.276  11.623 -0.4738 -0.4307  0.4743
  866MPD2     H12765   1.696   0.401  11.279 -0.4317 -0.7854  0.7034
  866MPD2    H112766   1.455   0.401  11.628 -0.4071  0.3544 -0.3038
  866MPD2    H212767   1.764   0.132  11.602  1.9067 -0.3251 -1.9484
  866MPD2    H312768   1.580   0.229  11.715 -3.1883 -0.1934 -0.3654
  866MPD2     N12769   1.486   0.524  11.399  0.1169  0.7404 -0.2335
  866MPD2    H512770   1.397   0.535  11.446  0.3957  0.6977  0.3081
  866MPD2    N112771   1.858   0.215  11.370 -0.1733 -0.4012  0.0969
  866MPD2    H712772   1.914   0.147  11.421  0.8588  1.3097  1.2071
  867MPD2     C12773   3.563   4.231  16.330 -0.0426  0.0249  0.5471
  867MPD2    C112774   3.652   4.184  16.424  0.8007  0.7955 -0.4444
  867MPD2    C212775   3.711   4.278  16.510  0.2798 -0.4692  0.0177
  867MPD2    C312776   3.676   4.415  16.507 -0.3736  0.2044 -0.0126
  867MPD2    C412777   3.581   4.457  16.413  0.4350 -0.6239 -0.2436
  867MPD2    C512778   3.525   4.365  16.325  0.5705  0.2365 -0.6506
  867MPD2     H12779   3.786   4.242  16.579 -0.8024 -1.7839  0.5248
  867MPD2    H112780   3.542   4.557  16.399  0.2469 -0.7189 -0.3932
  867MPD2    H212781   3.516   4.167  16.256  2.1993  0.1078 -0.9462
  867MPD2    H312782   3.443   4.402  16.265 -1.5656  0.3966  2.3810
  867MPD2     N12783   3.734   4.512  16.594 -0.3155 -0.6378 -0.0092
  867MPD2    H512784   3.698   4.607  16.592 -0.2591 -0.5953  0.9677
  867MPD2    N112785   3.695   4.047  16.417  0.1672 -0.0083  0.7791
  867MPD2    H712786   3.644   3.996  16.345  1.4096 -0.1559 -0.0001
  868MPD2     C12787   0.714   3.180  12.968  0.6828  0.8656 -0.0104
  868MPD2    C112788   0.785   3.187  13.089  0.0812 -0.0250  0.7437
  868MPD2    C212789   0.724   3.234  13.199 -0.0727  0.4559 -0.2295
  868MPD2    C312790   0.588   3.249  13.203 -0.1787 -0.3875 -0.1643
  868MPD2    C412791   0.517   3.257  13.086  1.0755 -0.3270 -0.6076
  868MPD2    C512792   0.589   3.235  12.974 -0.0053 -0.2324  0.7122
  868MPD2     H12793   0.778   3.239  13.294  0.0931 -1.1907 -0.2464
  868MPD2    H112794   0.414   3.277  13.060  1.3177  1.0963 -0.4849
  868MPD2    H212795   0.768   3.164  12.875 -0.4700 -0.9428 -0.3644
  868MPD2    H312796   0.534   3.241  12.881  0.8288  3.2265  0.4477
  868MPD2     N12797   0.537   3.279  13.326 -0.1940  0.2704 -0.6875
  868MPD2    H512798   0.602   3.279  13.403 -0.0637  2.2042 -0.7918
  868MPD2    N112799   0.919   3.138  13.087  0.0337  0.5395  0.6885
  868MPD2    H712800   0.962   3.116  12.998  0.3346 -0.1890  1.0168
  869MPD2     C12801   2.523   3.284   1.992 -0.4714 -0.2879 -0.4522
  869MPD2    C112802   2.575   3.231   1.877 -0.5225 -0.5712 -0.9076
  869MPD2    C212803   2.504   3.258   1.767 -0.0780 -0.7305 -0.1027
  869MPD2    C312804   2.383   3.332   1.769 -0.7426  0.1579 -0.4747
  869MPD2    C412805   2.339   3.396   1.879  0.1437 -0.7298 -0.5871
  869MPD2    C512806   2.404   3.365   1.999  0.0766 -0.2793  0.1603
  869MPD2     H12807   2.519   3.201   1.676 -0.2490 -0.6079 -0.2062
  869MPD2    H112808   2.243   3.446   1.880  0.4298 -0.1606 -3.7216
  869MPD2    H212809   2.562   3.253   2.088  1.3938 -0.0681 -1.1312
  869MPD2    H312810   2.353   3.372   2.094  0.4098 -0.3098  0.3447
  869MPD2     N12811   2.294   3.342   1.657  0.3069  0.3344 -0.1355
  869MPD2    H512812   2.220   3.411   1.661 -0.1435 -0.1574 -0.0664
  869MPD2    N112813   2.685   3.150   1.888  0.1559 -0.6998  0.1653
  869MPD2    H712814   2.736   3.131   1.973 -1.4762  0.1569  1.3265
  870MPD2     C12815   2.344   1.040   1.592  0.2505 -0.5371 -0.5556
  870MPD2    C112816   2.300   0.990   1.470 -0.0558 -0.0299  1.3678
  870MPD2    C212817   2.179   1.027   1.423 -0.3153  0.5777 -0.0161
  870MPD2    C312818   2.097   1.099   1.501 -0.0423 -0.3870  0.4415
  870MPD2    C412819   2.139   1.163   1.616 -0.0620 -0.0868 -0.6255
  870MPD2    C512820   2.263   1.130   1.660  0.3638  0.2151 -0.0516
  870MPD2     H12821   2.130   0.971   1.344  0.5123 -0.2360  0.0403
  870MPD2    H112822   2.083   1.241   1.666  0.3948 -1.2819  1.7671
  870MPD2    H212823   2.435   1.008   1.640 -0.8068 -0.2342  1.6587
  870MPD2    H312824   2.297   1.184   1.748  1.7598 -0.5850 -0.1082
  870MPD2     N12825   1.967   1.130   1.446  0.3825  0.5369  0.0695
  870MPD2    H512826   1.946   1.080   1.360  0.3544 -0.1325  0.4666
  870MPD2    N112827   2.377   0.890   1.405  0.1155 -0.6522  0.5683
  870MPD2    H712828   2.467   0.869   1.446 -0.4896 -1.7833  1.3244
  871MPD2     C12829   2.671   4.606  16.283 -0.2617 -0.0583  0.6833
  871MPD2    C112830   2.653   4.540  16.400 -0.4926 -0.5628  1.3773
  871MPD2    C212831   2.677   4.405  16.405  1.3264  0.2702  0.6738
  871MPD2    C312832   2.744   4.349  16.296 -0.2295  0.5533 -0.3184
  871MPD2    C412833   2.770   4.416  16.177 -0.3849 -0.1698  0.3511
  871MPD2    C512834   2.729   4.542  16.175 -0.6514  0.3556 -0.3231
  871MPD2     H12835   2.669   4.353  16.500 -0.2218 -0.4470  0.1522
  871MPD2    H112836   2.815   4.374  16.087  0.5985 -0.3185  0.9153
  871MPD2    H212837   2.640   4.709  16.278 -1.5062 -0.4456  0.4723
  871MPD2    H312838   2.741   4.602  16.085  1.6522  0.1388 -0.1707
  871MPD2     N12839   2.782   4.216  16.316 -0.0994  0.5407  0.9900
  871MPD2    H512840   2.739   4.165  16.392  0.3195  1.0343  1.5536
  871MPD2    N112841   2.610   4.617  16.504  0.5176 -0.2213 -0.5047
  871MPD2    H712842   2.592   4.715  16.485  0.9791 -0.1769 -0.7056
  872MPD2     C12843   3.757   2.550  13.656  0.3808 -0.0542  0.1695
  872MPD2    C112844   3.800   2.450  13.738 -0.9579 -0.4508 -0.6236
  872MPD2    C212845   3.748   2.427  13.869 -0.3447 -0.9301 -0.0283
  872MPD2    C312846   3.641   2.508  13.909  0.7558  0.4384 -0.0120
  872MPD2    C412847   3.588   2.600  13.821 -0.1281 -0.3399  0.2658
  872MPD2    C512848   3.642   2.616  13.696 -0.3681  0.1274  0.5005
  872MPD2     H12849   3.781   2.351  13.939 -1.5300 -0.6730  0.8096
  872MPD2    H112850   3.497   2.656  13.837  1.1576  1.2924  1.8110
  872MPD2    H212851   3.814   2.574  13.568  0.1223  1.2796  0.3718
  872MPD2    H312852   3.599   2.684  13.622 -0.1900 -0.0877  0.2007
  872MPD2     N12853   3.575   2.482  14.028  0.3117 -0.5252 -0.2747
  872MPD2    H512854   3.490   2.536  14.043 -0.0233 -0.7237 -1.4944
  872MPD2    N112855   3.907   2.369  13.693  0.2131  0.1507 -0.4842
  872MPD2    H712856   3.925   2.299  13.764  1.4533  0.6337 -0.3160
  873MPD2     C12857   0.904   2.324   1.239  0.2684  0.0246 -0.1429
  873MPD2    C112858   0.771   2.337   1.268 -0.6727 -0.5687  0.3323
  873MPD2    C212859   0.678   2.234   1.248  0.0760  0.0814 -0.2939
  873MPD2    C312860   0.720   2.112   1.207 -0.2022 -0.0517 -0.2376
  873MPD2    C412861   0.853   2.100   1.177  0.0781 -0.0659  0.6422
  873MPD2    C512862   0.941   2.199   1.191 -0.1821  0.0761  1.1908
  873MPD2     H12863   0.574   2.263   1.255  0.3818  0.7742  1.5009
  873MPD2    H112864   0.884   1.997   1.161  0.1540 -0.1569  1.4169
  873MPD2    H212865   0.974   2.406   1.248 -1.9622  2.1842 -2.5161
  873MPD2    H312866   1.047   2.192   1.170 -0.9068  0.6211 -2.5749
  873MPD2     N12867   0.630   2.004   1.178 -0.5775  0.3277  0.4824
  873MPD2    H512868   0.641   1.935   1.105  0.1381  0.6985  0.2420
  873MPD2    N112869   0.727   2.460   1.321  0.5561 -0.6943 -0.3879
  873MPD2    H712870   0.803   2.524   1.337 -0.1865  0.2968 -0.8430
  874MPD2     C12871   0.685   2.508  16.203  0.0406 -0.2283 -0.0342
  874MPD2    C112872   0.733   2.439  16.311  0.3687 -0.1579 -0.4632
  874MPD2    C212873   0.853   2.476  16.356 -0.4123 -0.0739  0.3709
  874MPD2    C312874   0.928   2.576  16.292  0.3704  0.0418  0.0320
  874MPD2    C412875   0.881   2.643  16.180 -0.0088 -0.6460 -0.1607
  874MPD2    C512876   0.761   2.604  16.138 -0.2603 -0.0754 -1.0760
  874MPD2     H12877   0.894   2.428  16.444  0.4208  0.3168  0.1917
  874MPD2    H112878   0.938   2.719  16.127 -3.2062  2.3747  0.7290
  874MPD2    H212879   0.583   2.493  16.168 -1.1569  1.2769  2.8316
  874MPD2    H312880   0.718   2.669  16.063 -2.8418  2.2225  2.4187
  874MPD2     N12881   1.047   2.615  16.350 -0.1350 -0.1776  0.3044
  874MPD2    H512882   1.079   2.557  16.428  0.1653  2.0603  1.8299
  874MPD2    N112883   0.644   2.351  16.377 -0.3634 -0.1777 -0.2777
  874MPD2    H712884   0.552   2.340  16.335  0.7890  1.8903 -3.3404
  875MPD2     C12885   1.227   0.227  14.516 -0.1392 -0.1371  0.0232
  875MPD2    C112886   1.140   0.327  14.477  0.3341  0.2000  0.2546
  875MPD2    C212887   1.125   0.431  14.567  0.1195 -0.4266  1.3138
  875MPD2    C312888   1.196   0.439  14.686 -0.1130 -0.4989 -0.2103
  875MPD2    C412889   1.275   0.333  14.724  0.6098 -0.4546 -0.0142
  875MPD2    C512890   1.287   0.229  14.637  0.2279  0.3884 -0.1469
  875MPD2     H12891   1.070   0.518  14.533  2.5569  0.7810  0.4549
  875MPD2    H112892   1.332   0.328  14.816  1.7043  1.8876 -0.5669
  875MPD2    H212893   1.250   0.143  14.451 -0.6357 -1.8123  1.9881
  875MPD2    H312894   1.356   0.147  14.658  0.3932  0.4502 -0.4501
  875MPD2     N12895   1.195   0.548  14.778 -0.6433 -0.8285 -0.6312
  875MPD2    H512896   1.256   0.541  14.858  0.7874 -1.7457 -1.8020
  875MPD2    N112897   1.080   0.335  14.348 -0.7286  0.5544 -0.2483
  875MPD2    H712898   1.042   0.426  14.325 -1.2915  0.5424  0.6453
  876MPD2     C12899   0.529   1.757  16.404 -0.1531 -0.4959  0.0773
  876MPD2    C112900   0.661   1.767  16.368 -0.0082  0.4683  0.5567
  876MPD2    C212901   0.751   1.672  16.420  1.2139 -0.1802 -0.0919
  876MPD2    C312902   0.710   1.572  16.501  0.4349  0.1807 -0.4839
  876MPD2    C412903   0.580   1.577  16.556  0.1524  0.4101 -0.8326
  876MPD2    C512904   0.490   1.665  16.503  0.0071 -0.0642 -0.4440
  876MPD2     H12905   0.858   1.687  16.409  1.0428  0.6726 -0.6520
  876MPD2    H112906   0.548   1.512  16.636 -0.6830 -0.2760 -1.7165
  876MPD2    H212907   0.442   1.814  16.377  1.1847  1.3502 -0.3605
  876MPD2    H312908   0.387   1.672  16.536  0.1090  0.5824 -0.2573
  876MPD2     N12909   0.808   1.472  16.537  0.2341  0.1588 -0.1672
  876MPD2    H512910   0.905   1.480  16.508  0.7375 -1.5694  0.9993
  876MPD2    N112911   0.691   1.861  16.267 -0.5033 -0.2020  0.7884
  876MPD2    H712912   0.611   1.905  16.223  0.5437  0.9482  0.0340
  877MPD2     C12913   0.394   2.366  15.848  0.0074 -0.1693 -0.5986
  877MPD2    C112914   0.526   2.405  15.831 -0.0806 -0.1638 -0.2342
  877MPD2    C212915   0.558   2.495  15.733  0.4234  0.0745 -0.0200
  877MPD2    C312916   0.460   2.522  15.641  0.0062  0.2809  0.0795
  877MPD2    C412917   0.330   2.484  15.659 -0.1454  0.1190 -0.6389
  877MPD2    C512918   0.298   2.397  15.758  0.0758 -0.4249 -0.1115
  877MPD2     H12919   0.664   2.518  15.729 -0.0276  2.1055 -0.1610
  877MPD2    H112920   0.256   2.516  15.587 -0.0602  0.5503 -0.5364
  877MPD2    H212921   0.359   2.295  15.923  0.1161 -1.8406 -2.1174
  877MPD2    H312922   0.195   2.363  15.764 -0.9132  2.5549  0.0899
  877MPD2     N12923   0.497   2.595  15.525 -0.4793 -0.4147 -0.2592
  877MPD2    H512924   0.436   2.608  15.445  0.5705 -0.2630 -1.0468
  877MPD2    N112925   0.632   2.353  15.913 -0.3088  0.0952  0.0962
  877MPD2    H712926   0.730   2.363  15.888 -1.1636  0.7281 -2.9708
  878MPD2     C12927   0.451   1.489  13.453  0.3813 -0.0023 -0.5800
  878MPD2    C112928   0.345   1.575  13.410 -0.4103  0.2810  0.3962
  878MPD2    C212929   0.228   1.579  13.490  0.2541  0.5421 -0.1308
  878MPD2    C312930   0.222   1.519  13.613 -0.2396 -0.4943 -0.3068
  878MPD2    C412931   0.334   1.464  13.666 -0.3882  0.1475  0.3305
  878MPD2    C512932   0.433   1.434  13.579  0.2895 -0.1569  0.3650
  878MPD2     H12933   0.141   1.636  13.462 -0.4268 -0.9012 -0.9633
  878MPD2    H112934   0.340   1.418  13.764  3.7278  1.4489  0.6564
  878MPD2    H212935   0.542   1.479  13.396  1.1572 -2.3323  1.0869
  878MPD2    H312936   0.518   1.388  13.629  0.2428 -1.6560 -0.9504
  878MPD2     N12937   0.098   1.529  13.681  0.2520 -0.5675  0.1385
  878MPD2    H512938   0.024   1.584  13.639  0.3815 -1.5431 -1.3613
  878MPD2    N112939   0.345   1.620  13.274  0.1592  0.7780 -0.4100
  878MPD2    H712940   0.413   1.577  13.212 -0.5232 -2.0465  0.8505
  879MPD2     C12941   0.546   3.494  17.254 -0.0526  0.1123  0.2291
  879MPD2    C112942   0.612   3.431  17.359  0.1555  0.8145  0.4316
  879MPD2    C212943   0.611   3.295  17.360 -0.5045  0.0129  0.9876
  879MPD2    C312944   0.556   3.224  17.262 -0.5643  0.0147 -0.1497
  879MPD2    C412945   0.495   3.289  17.153  0.4309  0.0880  0.3494
  879MPD2    C512946   0.493   3.426  17.149  0.2595  0.0131  0.2628
  879MPD2     H12947   0.667   3.244  17.437  1.1732  3.4716  2.0279
  879MPD2    H112948   0.451   3.233  17.071  1.7588  0.8268 -0.8748
  879MPD2    H212949   0.548   3.602  17.264  1.2096 -0.0026  1.2913
  879MPD2    H312950   0.441   3.481  17.071  3.3083  1.4730 -0.7805
  879MPD2     N12951   0.552   3.078  17.274  0.0345 -0.1271  0.0299
  879MPD2    H512952   0.496   3.039  17.199 -0.2678 -0.3136  0.3551
  879MPD2    N112953   0.670   3.518  17.455  0.1443  0.5090  0.4250
  879MPD2    H712954   0.653   3.616  17.435  1.7240  0.2662 -2.1989
  880MPD2     C12955   1.752   0.390   0.112 -0.4849 -0.5977 -0.1103
  880MPD2    C112956   1.706   0.465   0.215 -0.1819  0.5915 -0.3045
  880MPD2    C212957   1.718   0.411   0.343 -0.0276 -0.4909  0.8777
  880MPD2    C312958   1.780   0.291   0.366  0.3174  0.6675  0.0226
  880MPD2    C412959   1.838   0.224   0.261  0.2319  0.4798  0.0789
  880MPD2    C512960   1.813   0.269   0.132  0.2357  0.1491 -0.0106
  880MPD2     H12961   1.673   0.467   0.424 -1.0860 -0.9129  0.5857
  880MPD2    H112962   1.892   0.130   0.260  0.3199  0.5153  1.5700
  880MPD2    H212963   1.741   0.428   0.011  1.0240  0.4285  0.1037
  880MPD2    H312964   1.850   0.208   0.050 -1.7643  1.6036 -1.9948
  880MPD2     N12965   1.778   0.247   0.501 -0.6616 -0.2617  0.2897
  880MPD2    H512966   1.741   0.310   0.572 -3.8635 -3.0022  1.0013
  880MPD2    N112967   1.682   0.607   0.190  0.4402 -0.7578  0.3082
  880MPD2    H712968   1.686   0.642   0.095  3.8124  1.7404  1.3672
  881MPD2     C12969   2.432   1.126  17.594 -0.0489 -0.1786  0.1133
  881MPD2    C112970   2.350   1.024  17.554  0.2716  0.2737  0.1839
  881MPD2    C212971   2.231   1.009  17.627 -0.5362 -0.5415  0.4103
  881MPD2    C312972   2.204   1.078   0.011  0.0903  0.1654 -0.4011
  881MPD2    C412973   2.302   1.169   0.053 -0.9469  0.0298 -0.7278
  881MPD2    C512974   2.409   1.187  17.713  0.1749  0.5607 -0.5592
  881MPD2     H12975   2.166   0.926  17.599 -1.0572  0.2048 -0.5891
  881MPD2    H112976   2.303   1.225   0.145 -0.4006 -2.4050  0.7304
  881MPD2    H212977   2.526   1.152  17.548  0.4007  0.6254  1.4972
  881MPD2    H312978   2.489   1.244   0.031 -0.9479  1.5214  0.2264
  881MPD2     N12979   2.092   1.063   0.094  0.4542  0.0933  0.0025
  881MPD2    H512980   2.105   1.105   0.185 -0.7436  0.2234  0.1154
  881MPD2    N112981   2.373   0.970  17.429  0.5902  0.2591  0.2854
  881MPD2    H712982   2.454   1.001  17.377 -0.2496  0.4045 -0.9176
  882MPD2     C12983   0.695   2.902  14.744 -0.1713 -0.2394 -0.8235
  882MPD2    C112984   0.648   2.883  14.876  0.0301  0.5490 -0.0377
  882MPD2    C212985   0.512   2.863  14.896 -0.0836  0.4634 -0.5565
  882MPD2    C312986   0.425   2.858  14.790  0.1932 -0.1382  0.1721
  882MPD2    C412987   0.473   2.877  14.660  0.4893  0.2239 -0.0214
  882MPD2    C512988   0.607   2.892  14.638  0.6679 -0.4016  0.2352
  882MPD2     H12989   0.479   2.843  14.997  0.3721 -1.5790 -0.8220
  882MPD2    H112990   0.413   2.868  14.570  0.3229  2.0222 -0.1015
  882MPD2    H212991   0.800   2.897  14.718  0.9510  2.3333  3.2375
  882MPD2    H312992   0.638   2.896  14.534  0.1782  0.3381  0.1185
  882MPD2     N12993   0.287   2.834  14.805  0.2377  0.0494 -0.3548
  882MPD2    H512994   0.228   2.827  14.722  0.0521 -0.9875 -0.1376
  882MPD2    N112995   0.743   2.877  14.985  0.6756 -0.3155  0.4223
  882MPD2    H712996   0.839   2.873  14.956  1.5363  1.4818  2.9884
  883MPD2     C12997   2.170   2.310  16.193  0.3050 -0.1067  0.1667
  883MPD2    C112998   2.277   2.309  16.106  0.0020  0.1788 -0.0428
  883MPD2    C212999   2.409   2.285  16.157  0.1360  0.0318  0.5327
  883MPD2    C313000   2.426   2.261  16.290  0.0714 -0.5300 -0.5333
  883MPD2    C413001   2.320   2.273  16.375  0.2224 -0.5732 -0.2543
  883MPD2    C513002   2.192   2.296  16.328  1.2723  0.4927 -0.4577
  883MPD2     H13003   2.494   2.285  16.089 -1.8228 -1.1716 -1.9428
  883MPD2    H113004   2.328   2.263  16.483 -1.5134  0.0062 -0.0815
  883MPD2    H213005   2.068   2.325  16.161  0.5233  1.4672  0.1985
  883MPD2    H313006   2.110   2.298  16.399  2.3866 -0.5115  0.8688
  883MPD2     N13007   2.557   2.232  16.330  0.6369  0.3507  0.2803
  883MPD2    H513008   2.624   2.239  16.254  0.6717  2.8118  0.5553
  883MPD2    N113009   2.256   2.306  15.965  0.3988 -0.3135 -0.5786
  883MPD2    H713010   2.329   2.262  15.909 -1.0245 -3.3804 -0.0697
  884MPD2     C13011   4.358   3.014  15.842 -0.7717 -0.2101  0.8840
  884MPD2    C113012   4.337   3.104  15.741  0.2293  0.0707 -0.0838
  884MPD2    C213013   4.209   3.150  15.712  0.1650 -0.7207  0.3571
  884MPD2    C313014   4.100   3.090  15.776  0.0003  0.0457  0.9758
  884MPD2    C413015   4.123   2.991  15.867  0.0915 -0.4053  0.1935
  884MPD2    C513016   4.249   2.965  15.904  0.1536 -0.1842 -0.2096
  884MPD2     H13017   4.194   3.226  15.637 -1.9768 -2.3726 -0.8961
  884MPD2    H113018   4.054   2.944  15.936  0.6282  0.3251  1.2283
  884MPD2    H213019   4.459   2.977  15.860 -0.3331  1.0491  0.9823
  884MPD2    H313020   4.262   2.892  15.983  1.5311  1.2302  0.8658
  884MPD2     N13021   3.970   3.145  15.739  0.2675 -0.7553  0.0054
  884MPD2    H513022   3.980   3.229  15.683 -0.6407 -0.8253 -0.2478
  884MPD2    N113023   4.445   3.163  15.671 -0.2022  0.4652 -0.4345
  884MPD2    H713024   4.426   3.243  15.612  0.0406  0.7244 -0.1587
  885MPD2     C13025   2.431   3.443   0.538 -0.6033  0.2068  0.4487
  885MPD2    C113026   2.498   3.330   0.491  0.1513  0.0568 -0.5109
  885MPD2    C213027   2.506   3.300   0.357  0.0350  0.0651 -0.1248
  885MPD2    C313028   2.425   3.375   0.274  1.0009  0.1109 -0.1493
  885MPD2    C413029   2.353   3.488   0.322 -0.2865  0.2136  0.7195
  885MPD2    C513030   2.354   3.519   0.454  0.2314 -0.3888 -0.3275
  885MPD2     H13031   2.555   3.211   0.320  0.5436  0.0655  0.5436
  885MPD2    H113032   2.292   3.551   0.257  0.0941 -1.4521 -1.2352
  885MPD2    H213033   2.427   3.478   0.641 -2.1490 -0.5187  0.6383
  885MPD2    H313034   2.299   3.607   0.485  0.0486 -0.6642  0.1262
  885MPD2     N13035   2.438   3.337   0.137 -0.0384  0.1472  0.3293
  885MPD2    H513036   2.507   3.266   0.117  0.6318  0.9474 -0.2212
  885MPD2    N113037   2.565   3.244   0.584 -0.0553 -0.0853 -0.2513
  885MPD2    H713038   2.602   3.159   0.542  1.3477  0.1327  0.5406
  886MPD2     C13039   4.270   1.432  15.486 -0.4908 -0.1978 -0.1598
  886MPD2    C113040   4.272   1.471  15.618 -0.2190  0.6440 -0.7186
  886MPD2    C213041   4.206   1.584  15.643  0.4017 -0.0415 -0.0946
  886MPD2    C313042   4.117   1.652  15.551 -0.3877  0.2859  0.2668
  886MPD2    C413043   4.104   1.598  15.427 -0.4998  0.0469 -0.1871
  886MPD2    C513044   4.183   1.493  15.394  0.4323 -0.0000  0.1117
  886MPD2     H13045   4.220   1.628  15.741 -2.1202  0.7303 -0.0994
  886MPD2    H113046   4.051   1.645  15.345 -1.8180  0.6465  1.0077
  886MPD2    H213047   4.317   1.342  15.449  1.4708  0.7966 -0.0924
  886MPD2    H313048   4.192   1.453  15.294  1.9595 -0.8749  0.6098
  886MPD2     N13049   4.063   1.776  15.577 -0.3346 -0.7094 -0.0285
  886MPD2    H513050   4.024   1.823  15.496  1.7625 -0.9305 -1.1735
  886MPD2    N113051   4.347   1.400  15.714  0.7120  0.3699 -0.5822
  886MPD2    H713052   4.353   1.429  15.811  0.8913 -0.1245 -0.4451
  887MPD2     C13053   0.135   1.496  16.265  0.4801  0.2681  0.2378
  887MPD2    C113054   0.045   1.544  16.168  0.2247  0.2394  0.0963
  887MPD2    C213055   0.023   1.682  16.165  0.4390  0.1094  0.5128
  887MPD2    C313056   0.090   1.766  16.252 -0.5988  0.0679 -0.7220
  887MPD2    C413057   0.163   1.719  16.356 -0.0178 -0.2662  0.2665
  887MPD2    C513058   0.184   1.585  16.358 -0.5149  0.6149  0.1840
  887MPD2     H13059   4.685   1.719  16.091  0.5113  1.3028  1.0479
  887MPD2    H113060   0.195   1.772  16.445 -0.7705 -0.5417  0.7003
  887MPD2    H213061   0.156   1.391  16.278  1.5098  0.3232 -0.9472
  887MPD2    H313062   0.240   1.535  16.436 -1.3618  0.4454  0.6835
  887MPD2     N13063   0.065   1.902  16.244 -0.0303  0.7484 -0.7020
  887MPD2    H513064   4.715   1.920  16.188 -1.8542 -1.3243  1.3384
  887MPD2    N113065   4.698   1.455  16.082  0.0771 -0.0296 -0.1127
  887MPD2    H713066   4.637   1.493  16.010 -1.1549 -0.9839  0.4399
  888MPD2     C13067   1.115   1.970  14.905 -0.2001  1.0735 -0.0022
  888MPD2    C113068   1.147   1.953  15.041  0.1277 -0.1399  0.9366
  888MPD2    C213069   1.222   2.047  15.113  0.0493  0.6045  0.3966
  888MPD2    C313070   1.292   2.142  15.047  0.4724 -0.2050  1.1069
  888MPD2    C413071   1.280   2.152  14.912 -0.1347 -0.0715 -0.6375
  888MPD2    C513072   1.192   2.064  14.846  0.5512 -0.2491 -0.0051
  888MPD2     H13073   1.233   2.031  15.219 -0.8237 -1.5958  0.1622
  888MPD2    H113074   1.327   2.227  14.850  0.7379 -0.6690 -0.7091
  888MPD2    H213075   1.066   1.894  14.845  0.3448 -1.1211  2.3502
  888MPD2    H313076   1.184   2.072  14.738 -0.5938  2.4468  0.2811
  888MPD2     N13077   1.378   2.227  15.128  0.0822 -0.0801 -0.4511
  888MPD2    H513078   1.369   2.229  15.229 -3.5242  1.6944 -0.8195
  888MPD2    N113079   1.107   1.840  15.124  0.3110  0.5235 -0.3240
  888MPD2    H713080   1.135   1.840  15.222 -1.3386 -0.4181  0.1323
  889MPD2     C13081   0.889   1.348  13.030  0.7811 -0.0004 -0.5768
  889MPD2    C113082   0.901   1.291  13.159  0.5405 -0.1609  0.7336
  889MPD2    C213083   0.896   1.379  13.268 -0.4455 -0.0638  0.4127
  889MPD2    C313084   0.836   1.499  13.248 -0.7014 -0.2491  0.0870
  889MPD2    C413085   0.793   1.539  13.124 -0.1971 -0.5208 -0.1175
  889MPD2    C513086   0.820   1.465  13.016  1.0106 -0.5291  0.0259
  889MPD2     H13087   0.908   1.342  13.369  0.6640 -0.6690  0.0599
  889MPD2    H113088   0.752   1.638  13.107  1.1501 -0.2988 -2.1428
  889MPD2    H213089   0.905   1.291  12.940 -0.6511 -0.6858 -0.3949
  889MPD2    H313090   0.788   1.509  12.923 -0.0914  1.5692  1.3951
  889MPD2     N13091   0.814   1.567  13.374 -0.0314  0.8727 -0.5475
  889MPD2    H513092   0.846   1.526  13.461 -4.4945  1.2229  1.2583
  889MPD2    N113093   0.942   1.155  13.161 -0.6835 -0.0356  0.4783
  889MPD2    H713094   0.924   1.102  13.076  1.2606  0.0492  0.0015
  890MPD2     C13095   0.083   3.147  14.963  0.1993 -0.7951 -0.2768
  890MPD2    C113096   0.219   3.158  14.948  0.0375 -0.4539 -0.1092
  890MPD2    C213097   0.299   3.109  15.053 -0.1951 -0.3636  0.1266
  890MPD2    C313098   0.238   3.079  15.175  0.2950 -0.9796  0.4021
  890MPD2    C413099   0.103   3.093  15.197 -0.9841 -0.2868 -0.5399
  890MPD2    C513100   0.030   3.125  15.086  0.6676  0.2055 -0.1320
  890MPD2     H13101   0.405   3.108  15.032 -0.0727  0.8535  0.6574
  890MPD2    H113102   0.046   3.081  15.288 -0.1301  0.8400  0.1404
  890MPD2    H213103   0.020   3.187  14.884  2.1966  2.1799 -0.3599
  890MPD2    H313104   4.655   3.121  15.103  0.3979 -0.2283 -1.9282
  890MPD2     N13105   0.331   3.044  15.273 -0.0451  0.0121 -0.1496
  890MPD2    H513106   0.422   3.060  15.233 -1.1218  1.4462 -2.0283
  890MPD2    N113107   0.268   3.187  14.817  0.2893 -0.3146 -0.4030
  890MPD2    H713108   0.204   3.166  14.741  0.3465 -0.8617 -0.3007
  891MPD2     C13109   3.570   1.843  17.306  0.3992  0.5908  0.1689
  891MPD2    C113110   3.601   1.772  17.195  0.0430 -0.6617  0.1990
  891MPD2    C213111   3.732   1.713  17.182 -0.8035  0.1286 -0.0489
  891MPD2    C313112   3.826   1.732  17.287  0.0600 -0.2027 -0.0316
  891MPD2    C413113   3.787   1.804  17.403  0.1100 -0.2310  0.3456
  891MPD2    C513114   3.662   1.853  17.410  1.1678 -0.4207 -0.1537
  891MPD2     H13115   3.755   1.656  17.093 -2.8962  0.0936 -0.5757
  891MPD2    H113116   3.849   1.813  17.491  1.0305 -1.2816 -0.2033
  891MPD2    H213117   3.470   1.876  17.332  0.4455  2.0178 -1.4471
  891MPD2    H313118   3.632   1.915  17.493  0.0695 -1.5463  0.3033
  891MPD2     N13119   3.949   1.669  17.270  0.0501 -0.4682 -0.1727
  891MPD2    H513120   3.975   1.627  17.181  1.9013 -1.7534  0.9970
  891MPD2    N113121   3.506   1.741  17.089  0.0689  0.4030  0.6627
  891MPD2    H713122   3.533   1.678  17.015  0.4359 -0.9900  1.9905
  892MPD2     C13123   4.316   2.743  15.572  0.6571 -0.2476  0.2933
  892MPD2    C113124   4.270   2.705  15.450  0.2811  0.2345  0.2977
  892MPD2    C213125   4.356   2.671  15.345 -0.5793  0.3142 -0.8723
  892MPD2    C313126   4.491   2.707  15.361 -0.2541  0.0764 -0.3595
  892MPD2    C413127   4.542   2.745  15.485 -0.2478 -0.2444  0.1177
  892MPD2    C513128   4.456   2.760  15.589  0.3758 -0.1445  0.8239
  892MPD2     H13129   4.315   2.633  15.252 -2.0750 -0.2643  0.0299
  892MPD2    H113130   4.643   2.764  15.518 -0.8866 -0.9685  2.4712
  892MPD2    H213131   4.246   2.743  15.654 -0.6892 -2.5684 -0.8654
  892MPD2    H313132   4.490   2.793  15.687  0.9359 -0.0782  0.6075
  892MPD2     N13133   4.582   2.701  15.253  0.2873  0.4686 -0.2372
  892MPD2    H513134   4.677   2.731  15.274  0.0635  1.5990 -0.8541
  892MPD2    N113135   4.126   2.697  15.437 -0.3457  0.2059 -0.6058
  892MPD2    H713136   4.070   2.722  15.518 -2.7375 -1.1217 -1.8359
  893MPD2     C13137   3.369   1.738   1.359  0.0696  0.0785  0.5558
  893MPD2    C113138   3.247   1.775   1.311 -0.0154 -0.0390  0.1024
  893MPD2    C213139   3.227   1.803   1.174  0.1345 -0.2504  0.0167
  893MPD2    C313140   3.334   1.809   1.089  0.4011 -0.2523  0.0511
  893MPD2    C413141   3.455   1.770   1.137 -0.4040  0.0929  0.0138
  893MPD2    C513142   3.468   1.728   1.265 -1.0173  0.2548  0.2939
  893MPD2     H13143   3.127   1.840   1.154  0.6802  2.4966  2.2868
  893MPD2    H113144   3.539   1.756   1.071 -0.9378  1.8315 -1.0412
  893MPD2    H213145   3.392   1.730   1.465 -2.5374  0.1405  1.1079
  893MPD2    H313146   3.567   1.711   1.306 -0.5074 -0.6749 -1.3260
  893MPD2     N13147   3.326   1.832   0.953  0.0709 -0.1454  0.5482
  893MPD2    H513148   3.411   1.829   0.898  1.0339 -0.6982  2.0690
  893MPD2    N113149   3.147   1.788   1.410  0.0314 -0.5223  0.0281
  893MPD2    H713150   3.175   1.809   1.506 -0.7956 -4.3145  1.0858
  894MPD2     C13151   3.863   3.596   1.674 -0.0680  0.0710  0.4680
  894MPD2    C113152   3.760   3.661   1.612  0.6244  0.8884  0.4200
  894MPD2    C213153   3.780   3.777   1.534  0.7776  0.5101 -0.6468
  894MPD2    C313154   3.903   3.823   1.513  0.1115 -0.6936 -0.4146
  894MPD2    C413155   4.005   3.764   1.584 -0.1224  0.2463 -0.2063
  894MPD2    C513156   3.991   3.649   1.658 -0.3241 -0.1549  0.4870
  894MPD2     H13157   3.693   3.827   1.493 -0.3051 -0.9613 -0.1562
  894MPD2    H113158   4.104   3.808   1.575 -2.3061  4.9943 -0.6600
  894MPD2    H213159   3.859   3.506   1.734 -2.1000  0.3605  0.7722
  894MPD2    H313160   4.071   3.603   1.715 -1.0013  0.2839  1.8163
  894MPD2     N13161   3.921   3.919   1.410  0.1502 -0.1748 -0.2083
  894MPD2    H513162   3.835   3.943   1.363  1.8314  3.7701 -1.2144
  894MPD2    N113163   3.618   3.625   1.625  0.0171  0.1404  0.0589
  894MPD2    H713164   3.550   3.681   1.574 -0.5113  0.5852  1.2592
  895MPD2     C13165   3.883   1.386  13.774  0.7942 -0.1202 -0.3506
  895MPD2    C113166   3.750   1.349  13.774  0.3401 -0.0434  0.1477
  895MPD2    C213167   3.713   1.216  13.799  0.0162  0.3787 -0.0749
  895MPD2    C313168   3.817   1.122  13.817 -0.0615  0.0879  0.3058
  895MPD2    C413169   3.944   1.159  13.815 -0.3704 -0.0849  0.2804
  895MPD2    C513170   3.978   1.298  13.812 -0.2181 -0.0673 -0.0443
  895MPD2     H13171   3.614   1.175  13.778  1.5562 -3.4179  0.0762
  895MPD2    H113172   4.028   1.091  13.820 -0.5160 -0.2757  0.0959
  895MPD2    H213173   3.914   1.488  13.756  0.1068  0.3136  0.9340
  895MPD2    H313174   4.081   1.332  13.822  0.5901 -1.9392 -1.8920
  895MPD2     N13175   3.774   0.988  13.804 -0.1335  0.1075 -0.1831
  895MPD2    H513176   3.674   0.970  13.802 -0.2336  0.6731 -0.3236
  895MPD2    N113177   3.648   1.433  13.714 -0.6480 -0.4369  0.1904
  895MPD2    H713178   3.556   1.390  13.706 -0.8982  0.8493 -3.9860
  896MPD2     C13179   1.301   0.230   1.668  0.6908  0.1054  0.0316
  896MPD2    C113180   1.257   0.211   1.541  0.9672 -0.2264 -0.6940
  896MPD2    C213181   1.122   0.170   1.528  0.6490  0.4284  0.4948
  896MPD2    C313182   1.044   0.155   1.645  0.9986  0.3179 -0.3430
  896MPD2    C413183   1.094   0.187   1.771  0.6364  0.3115 -0.9156
  896MPD2    C513184   1.221   0.228   1.783 -0.1083 -0.7788  0.5532
  896MPD2     H13185   1.082   0.136   1.433  2.9078 -1.0787  0.0826
  896MPD2    H113186   1.034   0.169   1.859 -1.9594 -0.6395 -2.8911
  896MPD2    H213187   1.401   0.269   1.684  1.5564 -1.8963 -0.4762
  896MPD2    H313188   1.270   0.252   1.877  2.8225 -0.6199 -1.0280
  896MPD2     N13189   0.916   0.102   1.618  0.0265  0.2351 -0.3279
  896MPD2    H513190   0.897   0.061   1.527  0.2146 -0.4078 -0.0808
  896MPD2    N113191   1.350   0.220   1.434 -0.6128  0.1843 -0.7017
  896MPD2    H713192   1.448   0.231   1.459  0.1780 -1.4578 -3.0748
  897MPD2     C13193   1.941   1.824  10.654  0.3171 -0.4740 -0.3538
  897MPD2    C113194   1.846   1.761  10.575 -0.5555 -0.8196  0.0580
  897MPD2    C213195   1.756   1.672  10.625  0.0126  0.2475 -0.0030
  897MPD2    C313196   1.762   1.628  10.756  0.4778  0.0603 -0.8185
  897MPD2    C413197   1.851   1.685  10.833 -0.4632  0.1478 -0.2376
  897MPD2    C513198   1.943   1.787  10.786  0.0121 -0.3959 -0.1841
  897MPD2     H13199   1.699   1.611  10.556  1.2143 -0.5416 -0.3048
  897MPD2    H113200   1.856   1.665  10.940  1.9433  1.8486 -0.0037
  897MPD2    H213201   2.018   1.893  10.620  0.1486 -0.0485  0.1244
  897MPD2    H313202   2.017   1.841  10.844  0.2096 -0.3043 -0.5189
  897MPD2     N13203   1.667   1.531  10.804  0.2602  0.1227 -0.3704
  897MPD2    H513204   1.596   1.502  10.737  0.7936 -0.4898 -0.6615
  897MPD2    N113205   1.838   1.819  10.445  0.3488 -0.0403 -0.3543
  897MPD2    H713206   1.900   1.895  10.420 -0.5901  0.2039 -1.8788
  898MPD2     C13207   0.216   2.851   0.928  0.6236 -0.2630  0.1728
  898MPD2    C113208   0.192   2.784   0.812 -0.7357  0.1468 -0.8904
  898MPD2    C213209   0.070   2.788   0.756  0.3555 -0.2965  0.0156
  898MPD2    C313210   4.711   2.886   0.796  0.4100 -0.5437 -0.6367
  898MPD2    C413211   0.009   2.968   0.900  0.2092  0.4953  0.5772
  898MPD2    C513212   0.128   2.944   0.974  0.5337  0.1491  0.3155
  898MPD2     H13213   0.043   2.726   0.671  1.4271  0.5976 -0.9797
  898MPD2    H113214   4.684   3.056   0.927  0.6894  0.1388  2.7618
  898MPD2    H213215   0.299   2.838   0.997  1.0155 -1.6447 -0.5724
  898MPD2    H313216   0.152   3.016   1.052  1.6089 -0.9103  0.9682
  898MPD2     N13217   4.593   2.891   0.718  0.0546 -0.0817 -0.5902
  898MPD2    H513218   4.586   2.835   0.633  0.3790 -2.3356  0.8481
  898MPD2    N113219   0.279   2.695   0.751 -0.2717 -0.0142  0.0419
  898MPD2    H713220   0.235   2.646   0.675 -0.4877 -0.1788  0.2738
  899MPD2     C13221   0.231   2.551  17.597 -0.4058  0.3720  0.0495
  899MPD2    C113222   0.235   2.677  17.648 -0.4952  0.3110  0.4913
  899MPD2    C213223   0.222   2.698   0.060 -0.3286  0.5764  0.1485
  899MPD2    C313224   0.213   2.584   0.139  0.4327  0.5741 -0.1696
  899MPD2    C413225   0.203   2.456   0.084  0.2953 -0.0234  0.1651
  899MPD2    C513226   0.205   2.444  17.677 -0.3140 -0.1319 -0.3491
  899MPD2     H13227   0.233   2.801   0.092  0.1849  0.7911 -0.6992
  899MPD2    H113228   0.172   2.364   0.133 -0.3365  0.0606 -0.0719
  899MPD2    H213229   0.232   2.531  17.491  1.8300 -0.0004  0.1309
  899MPD2    H313230   0.198   2.346  17.632  2.5353 -0.2794 -0.4818
  899MPD2     N13231   0.188   2.585   0.277 -0.4765 -0.8463 -0.4006
  899MPD2    H513232   0.195   2.500   0.331  1.9074  0.8677  2.0168
  899MPD2    N113233   0.237   2.785  17.550  0.4632 -0.5126 -0.4185
  899MPD2    H713234   0.244   2.758  17.453  1.9092 -1.2563 -0.0989
  900MPD2     C13235   4.594   4.143  12.360  0.2735 -0.3368  0.3202
  900MPD2    C113236   4.467   4.089  12.377  0.6092  0.5427  0.6942
  900MPD2    C213237   4.356   4.148  12.313  0.4653  0.1203  0.0171
  900MPD2    C313238   4.371   4.254  12.229 -0.2636  0.1993  0.1309
  900MPD2    C413239   4.492   4.325  12.224  0.1101 -0.5751  0.1772
  900MPD2    C513240   4.598   4.265  12.292  0.3738  0.3020  0.2809
  900MPD2     H13241   4.257   4.107  12.327  1.0345 -0.4014  2.7063
  900MPD2    H113242   4.505   4.423  12.181  0.7969 -0.0702  1.5499
  900MPD2    H213243   4.683   4.092  12.394 -0.9767 -1.3364  2.1149
  900MPD2    H313244   4.689   4.324  12.286 -0.6350  1.9020  0.7339
  900MPD2     N13245   4.251   4.305  12.178 -0.8175  0.0716  0.1648
  900MPD2    H513246   4.166   4.255  12.203 -0.6824  0.0686  0.6205
  900MPD2    N113247   4.469   3.970  12.448  0.5979 -0.2979 -0.0381
  900MPD2    H713248   4.557   3.922  12.463  0.4236 -0.9852 -1.2040
  901MPD2     C13249   3.960   3.065  12.718 -0.0964  1.1261 -0.0356
  901MPD2    C113250   4.095   3.042  12.714 -0.6509 -0.1089 -0.2854
  901MPD2    C213251   4.176   3.147  12.667 -0.1004 -0.7333 -0.4846
  901MPD2    C313252   4.122   3.273  12.639  0.5640 -0.8687  0.6773
  901MPD2    C413253   3.982   3.294  12.653  0.2896  0.1615 -0.1827
  901MPD2    C513254   3.904   3.187  12.685 -0.1581  0.4735  0.3917
  901MPD2     H13255   4.283   3.135  12.664 -0.1036 -0.6689 -0.8441
  901MPD2    H113256   3.927   3.383  12.623  0.0063 -0.2899 -1.0327
  901MPD2    H213257   3.897   2.977  12.726  0.6292  0.5781 -0.4032
  901MPD2    H313258   3.799   3.200  12.708 -0.3685 -0.7405  0.1124
  901MPD2     N13259   4.219   3.373  12.609  0.4966 -0.3305 -0.1416
  901MPD2    H513260   4.316   3.353  12.630  0.4453 -0.2028  0.2127
  901MPD2    N113261   4.136   2.908  12.726 -0.4199 -0.0770 -0.5493
  901MPD2    H713262   4.062   2.842  12.748 -1.7726  0.8874 -2.2490
  902MPD2     C13263   3.673   2.007  12.468 -0.3021 -0.1780  0.0004
  902MPD2    C113264   3.666   2.074  12.345  0.0996 -0.0789  0.8447
  902MPD2    C213265   3.720   2.017  12.234 -0.4870 -0.1644 -0.1300
  902MPD2    C313266   3.747   1.881  12.236  0.6803  0.2087 -0.4086
  902MPD2    C413267   3.732   1.805  12.349  0.5112 -0.3385  1.1476
  902MPD2    C513268   3.697   1.874  12.470  0.2667 -0.0419  0.4372
  902MPD2     H13269   3.743   2.080  12.149 -0.0322  0.2300  0.2868
  902MPD2    H113270   3.756   1.700  12.356  0.8955 -0.2867  0.5660
  902MPD2    H213271   3.629   2.049  12.558 -1.1072  2.7662 -1.7379
  902MPD2    H313272   3.699   1.819  12.564  0.2651  2.3700  1.8388
  902MPD2     N13273   3.784   1.807  12.117  0.2175 -0.0940 -0.4523
  902MPD2    H513274   3.792   1.707  12.124  1.9347  0.0247 -0.7592
  902MPD2    N113275   3.617   2.203  12.356  0.2098  0.4376  0.1979
  902MPD2    H713276   3.596   2.242  12.448 -2.3037 -0.0179 -0.1665
  903MPD2     C13277   3.630   2.022  11.412 -0.3569  0.3580  0.2777
  903MPD2    C113278   3.630   2.014  11.550  0.4195  0.0269  0.0391
  903MPD2    C213279   3.536   2.083  11.618 -0.1820 -0.1166  0.1630
  903MPD2    C313280   3.428   2.140  11.555 -0.0051 -1.0190 -0.6100
  903MPD2    C413281   3.428   2.142  11.414  0.2544 -0.2024 -0.2173
  903MPD2    C513282   3.523   2.078  11.347  1.0386  0.1038  0.1757
  903MPD2     H13283   3.534   2.088  11.726 -2.9648 -2.5633  0.2174
  903MPD2    H113284   3.344   2.179  11.355 -0.2248 -3.3231 -1.4580
  903MPD2    H213285   3.705   1.968  11.354 -1.2677  0.1537 -0.6990
  903MPD2    H313286   3.514   2.077  11.239  0.7668 -1.2395  0.2102
  903MPD2     N13287   3.317   2.183  11.633 -0.2975  0.8224  0.2924
  903MPD2    H513288   3.322   2.170  11.733 -1.0940 -1.9313 -0.0142
  903MPD2    N113289   3.722   1.933  11.617  0.5589 -0.2376  0.0760
  903MPD2    H713290   3.716   1.925  11.718 -3.9719 -2.4653 -0.3831
  904MPD2     C13291   3.596   0.767  14.182 -0.2447 -0.9134 -0.0517
  904MPD2    C113292   3.668   0.880  14.145  0.3286  0.0394  0.0830
  904MPD2    C213293   3.806   0.867  14.128 -0.2850  0.1208 -0.1609
  904MPD2    C313294   3.869   0.746  14.125 -0.1774 -0.1136 -0.7017
  904MPD2    C413295   3.794   0.635  14.141  0.4533 -0.3106  0.5118
  904MPD2    C513296   3.659   0.647  14.175  0.1681  0.1784 -0.3359
  904MPD2     H13297   3.869   0.954  14.113 -2.1616  0.9214 -3.6586
  904MPD2    H113298   3.835   0.536  14.127 -1.0836 -0.6996 -1.2492
  904MPD2    H213299   3.488   0.761  14.195 -0.1138 -0.3073  1.2407
  904MPD2    H313300   3.611   0.555  14.205 -0.9008  1.4616  1.9231
  904MPD2     N13301   4.005   0.738  14.085  0.0295  0.1742  0.0867
  904MPD2    H513302   4.050   0.825  14.058  0.7946 -0.8196 -1.8599
  904MPD2    N113303   3.611   1.009  14.138 -0.2258 -0.0512  0.3071
  904MPD2    H713304   3.669   1.090  14.120  0.4187 -0.0636  2.4440
  905MPD2     C13305   3.108   1.038  13.587  0.7410 -0.1666  0.9026
  905MPD2    C113306   3.220   1.097  13.646 -0.4492 -0.7213 -0.0533
  905MPD2    C213307   3.343   1.048  13.608  0.0814 -0.1215  0.1154
  905MPD2    C313308   3.358   0.937  13.519 -0.2392 -0.1340  0.1072
  905MPD2    C413309   3.242   0.880  13.463 -0.2149  0.0862  0.4567
  905MPD2    C513310   3.122   0.934  13.497  0.0799  0.0110 -0.5469
  905MPD2     H13311   3.431   1.090  13.656 -0.4799 -0.2088  1.2216
  905MPD2    H113312   3.239   0.790  13.402 -0.6796  0.8701 -0.6587
  905MPD2    H213313   3.005   1.062  13.613  0.3464 -0.5449 -0.2959
  905MPD2    H313314   3.028   0.901  13.456  0.5111 -1.8004 -0.0791
  905MPD2     N13315   3.484   0.873  13.521  0.4443  0.7459  0.1495
  905MPD2    H513316   3.549   0.916  13.587  1.6414 -0.7401 -0.0699
  905MPD2    N113317   3.204   1.194  13.748  0.0661 -0.1840 -0.8169
  905MPD2    H713318   3.115   1.197  13.797  0.9311  3.8907  0.5381
  906MPD2     C13319   0.269   1.275  11.479 -0.0690 -0.6262  0.5286
  906MPD2    C113320   0.193   1.257  11.365 -0.4677 -0.7440  0.8477
  906MPD2    C213321   0.081   1.183  11.375  0.0998  0.2907 -0.5579
  906MPD2    C313322   0.041   1.123  11.491  0.2898  0.0071 -0.2980
  906MPD2    C413323   0.111   1.150  11.605 -0.0554  0.5204  0.3573
  906MPD2    C513324   0.227   1.220  11.596 -0.3956  0.2702 -0.1875
  906MPD2     H13325   0.020   1.157  11.289 -0.3167  0.2853 -0.2599
  906MPD2    H113326   0.070   1.129  11.703  0.9207 -2.2469  0.1845
  906MPD2    H213327   0.358   1.337  11.481 -1.2148  1.0916 -1.8006
  906MPD2    H313328   0.289   1.237  11.683 -2.0411  1.1607  0.8086
  906MPD2     N13329   4.662   1.040  11.488  0.4349  0.4395  0.1657
  906MPD2    H513330   4.607   1.039  11.403  1.0159 -1.4108 -0.2075
  906MPD2    N113331   0.225   1.305  11.231  0.4732  0.1336 -0.2453
  906MPD2    H713332   0.179   1.259  11.153  1.1631 -0.2091 -0.4451
  907MPD2     C13333   4.261   0.453  15.897  0.2138 -0.2601 -0.4182
  907MPD2    C113334   4.235   0.319  15.922  1.2338  0.3527 -0.3545
  907MPD2    C213335   4.290   0.259  16.037 -0.0814  0.0297  0.6163
  907MPD2    C313336   4.380   0.330  16.111  0.7422  0.3634 -0.4262
  907MPD2    C413337   4.402   0.461  16.078 -0.0158 -0.4013 -0.2792
  907MPD2    C513338   4.341   0.521  15.976 -0.0332 -0.3525 -0.0634
  907MPD2     H13339   4.270   0.155  16.058 -2.6795  0.9490  2.6750
  907MPD2    H113340   4.481   0.526  16.116 -0.1701 -1.6983  2.2640
  907MPD2    H213341   4.224   0.508  15.811 -3.7940 -1.7304  0.3730
  907MPD2    H313342   4.377   0.622  15.955 -3.0253  0.7757  0.2958
  907MPD2     N13343   4.458   0.264  16.215 -0.0875 -0.0879 -0.0304
  907MPD2    H513344   4.448   0.163  16.222  1.6019 -0.3229 -1.0177
  907MPD2    N113345   4.144   0.249  15.845  0.6913  0.1450 -0.9397
  907MPD2    H713346   4.130   0.149  15.851 -1.3032  0.4316 -0.8024
  908MPD2     C13347   1.931   1.676   9.441 -0.0267 -0.1276 -0.2962
  908MPD2    C113348   1.813   1.632   9.490 -0.0407 -0.2631  0.3794
  908MPD2    C213349   1.764   1.688   9.613 -0.4163 -0.0466  0.3079
  908MPD2    C313350   1.845   1.774   9.686  0.0294 -0.4188  0.0728
  908MPD2    C413351   1.965   1.810   9.629 -0.7295 -0.2202  0.2450
  908MPD2    C513352   2.003   1.758   9.509  0.2359  0.9519  0.7515
  908MPD2     H13353   1.667   1.659   9.649 -1.8755  0.8539 -2.8926
  908MPD2    H113354   2.031   1.877   9.683 -0.1768  1.2777 -2.2818
  908MPD2    H213355   1.966   1.642   9.343  0.5416 -2.2681  0.6501
  908MPD2    H313356   2.101   1.790   9.477 -0.8215  0.2850 -3.0796
  908MPD2     N13357   1.804   1.821   9.812  0.2049  0.2814 -0.3260
  908MPD2    H513358   1.709   1.799   9.840  0.8772 -1.1424  0.8182
  908MPD2    N113359   1.740   1.551   9.399 -0.2434  0.2493 -0.3939
  908MPD2    H713360   1.800   1.525   9.321 -1.2853  1.2096 -1.5178
  909MPD2     C13361   2.150   3.760  12.168 -0.1989 -0.3170 -0.0598
  909MPD2    C113362   2.114   3.856  12.075  0.7642  0.1884 -0.4153
  909MPD2    C213363   2.015   3.941  12.112  0.8407  0.2365 -0.1448
  909MPD2    C313364   1.945   3.922  12.227  0.5668 -0.8437  0.1019
  909MPD2    C413365   1.972   3.819  12.313  0.5203  0.2895  0.7012
  909MPD2    C513366   2.082   3.741  12.279 -0.2215 -0.2931  0.2882
  909MPD2     H13367   2.003   4.036  12.062  0.9740  0.6804  0.6610
  909MPD2    H113368   1.917   3.810  12.406  0.6470  0.8310  0.8332
  909MPD2    H213369   2.228   3.686  12.151  0.0747 -0.3134  1.1855
  909MPD2    H313370   2.111   3.657  12.342  0.6461 -1.0316 -1.1074
  909MPD2     N13371   1.854   4.021  12.260  0.1149  0.1235  0.9134
  909MPD2    H513372   1.843   4.097  12.194  1.3917 -1.8098 -1.5535
  909MPD2    N113373   2.204   3.903  11.980 -0.0715 -0.2875  0.2988
  909MPD2    H713374   2.179   3.995  11.946 -2.6765 -0.9240  0.4617
  910MPD2     C13375   4.195   0.964  16.093 -0.1254  0.3954 -0.1296
  910MPD2    C113376   4.195   0.837  16.048 -0.2638  0.7456 -0.2977
  910MPD2    C213377   4.191   0.817  15.913  0.5718 -0.0470 -0.0943
  910MPD2    C313378   4.184   0.917  15.822 -0.2992 -0.2619 -0.2287
  910MPD2    C413379   4.158   1.036  15.869 -0.0401  0.1984 -0.0589
  910MPD2    C513380   4.170   1.062  16.001 -0.0149  0.3351 -0.4091
  910MPD2     H13381   4.205   0.714  15.881  0.5757 -0.6916  1.9979
  910MPD2    H113382   4.140   1.118  15.801 -1.2493 -0.9045 -1.0368
  910MPD2    H213383   4.194   0.991  16.198  1.0893  0.3074 -0.1010
  910MPD2    H313384   4.160   1.166  16.029  0.8737  0.9840 -2.5642
  910MPD2     N13385   4.189   0.904  15.677 -0.1805  0.0092 -0.3846
  910MPD2    H513386   4.178   0.984  15.617 -1.8641 -0.5586 -0.8430
  910MPD2    N113387   4.205   0.733  16.139  0.6278  0.2538  0.7436
  910MPD2    H713388   4.205   0.642  16.094 -0.5265  1.8265 -2.4274
  911MPD2     C13389   1.937   1.625  16.247 -0.7807  0.1415 -0.2202
  911MPD2    C113390   1.932   1.661  16.378 -0.0224 -0.1366  0.5270
  911MPD2    C213391   1.854   1.769  16.424 -0.1470  0.1080 -0.7313
  911MPD2    C313392   1.762   1.818  16.329 -0.3137 -0.8310 -0.1527
  911MPD2    C413393   1.757   1.770  16.201 -0.0112 -0.8189 -0.0021
  911MPD2    C513394   1.847   1.679  16.161 -0.3077  0.3656 -0.5989
  911MPD2     H13395   1.855   1.791  16.530  0.7891 -0.5848 -0.5883
  911MPD2    H113396   1.689   1.815  16.131  0.4700  0.1793  0.1646
  911MPD2    H213397   2.003   1.551  16.205 -1.0372 -1.2422  1.8135
  911MPD2    H313398   1.851   1.651  16.056 -1.3580  0.5089 -0.6788
  911MPD2     N13399   1.665   1.918  16.358 -0.3134  0.0939  0.6043
  911MPD2    H513400   1.591   1.927  16.289 -0.3840 -1.1129  0.5274
  911MPD2    N113401   2.032   1.594  16.454 -0.4192 -0.1928  0.4222
  911MPD2    H713402   2.094   1.540  16.395  1.0886 -1.5468  3.2782
  912MPD2     C13403   1.478   1.899  15.863  0.5440  0.2805  0.2407
  912MPD2    C113404   1.441   1.865  15.991 -0.2343 -0.4483  0.5428
  912MPD2    C213405   1.464   1.738  16.036  0.5931 -0.3906  0.5655
  912MPD2    C313406   1.532   1.649  15.954  0.3926  0.2335 -0.5940
  912MPD2    C413407   1.559   1.682  15.821  0.3508 -0.2822 -0.2638
  912MPD2    C513408   1.531   1.806  15.782 -0.2522  0.4594 -0.5147
  912MPD2     H13409   1.451   1.708  16.139  0.7792  0.0425  0.7148
  912MPD2    H113410   1.627   1.615  15.769 -2.0226 -2.2450 -0.8540
  912MPD2    H213411   1.467   1.998  15.820 -0.9606  0.8761  1.9858
  912MPD2    H313412   1.556   1.835  15.681 -1.0578  1.2808 -0.4831
  912MPD2     N13413   1.562   1.523  16.009 -0.5404 -0.5797 -0.0609
  912MPD2    H513414   1.538   1.507  16.106 -0.3083  1.8861  0.4013
  912MPD2    N113415   1.400   1.961  16.084  0.1798  0.1975 -0.4784
  912MPD2    H713416   1.390   2.054  16.045  1.6444  0.4387 -0.2894
  913MPD2     C13417   1.484   3.299  10.167  0.6388  0.1378 -0.0632
  913MPD2    C113418   1.558   3.366  10.267  0.2860 -0.6039 -0.2276
  913MPD2    C213419   1.598   3.497  10.247  0.4011 -0.1344  0.1769
  913MPD2    C313420   1.561   3.564  10.129  0.2735  0.5693  0.3958
  913MPD2    C413421   1.482   3.495  10.040 -0.3697  0.1715  0.5006
  913MPD2    C513422   1.447   3.360  10.056 -0.5031  0.3353 -0.3532
  913MPD2     H13423   1.667   3.547  10.314  0.6288 -0.7992  0.4380
  913MPD2    H113424   1.460   3.543   9.946  1.1939  0.6890  0.3995
  913MPD2    H213425   1.461   3.197  10.196 -1.1870 -0.1871 -2.6214
  913MPD2    H313426   1.380   3.312   9.985 -0.4022 -1.8841  1.0379
  913MPD2     N13427   1.582   3.702  10.095 -0.3292 -0.1211  0.0376
  913MPD2    H513428   1.544   3.739  10.008 -1.2971 -2.2386 -0.4468
  913MPD2    N113429   1.605   3.285  10.375 -0.1662  0.3686  0.0392
  913MPD2    H713430   1.575   3.188  10.385  0.9456 -0.0494 -0.7465
  914MPD2     C13431   4.056   2.644  11.910  0.0481  0.3040  0.2424
  914MPD2    C113432   4.083   2.762  11.970 -0.2273  0.2425  0.9694
  914MPD2    C213433   4.134   2.767  12.101 -0.2546 -0.6113 -0.3486
  914MPD2    C313434   4.166   2.651  12.174  0.8057 -0.0533 -0.0870
  914MPD2    C413435   4.153   2.534  12.107  0.0730  0.0795 -0.0719
  914MPD2    C513436   4.093   2.529  11.981  0.0237 -0.7714  0.1835
  914MPD2     H13437   4.162   2.859  12.151 -0.8464 -1.4010  1.4387
  914MPD2    H113438   4.182   2.435  12.140 -0.3941  0.7405  2.3242
  914MPD2    H213439   4.017   2.621  11.811  0.2201 -0.3361  0.3241
  914MPD2    H313440   4.076   2.431  11.940  1.9630 -0.5280 -1.1753
  914MPD2     N13441   4.230   2.662  12.295  0.0182 -0.3281 -0.4247
  914MPD2    H513442   4.238   2.758  12.326 -1.5035 -1.0010  2.0882
  914MPD2    N113443   4.058   2.876  11.890 -0.0926 -0.3334  0.4695
  914MPD2    H713444   4.018   2.859  11.798  0.4791 -0.9674  0.3457
  915MPD2     C13445   2.664   3.010  15.834 -0.1738  0.4553  0.0900
  915MPD2    C113446   2.556   3.068  15.764 -0.2825  0.3211 -0.1869
  915MPD2    C213447   2.467   3.156  15.827  0.6302  0.7762 -0.7100
  915MPD2    C313448   2.490   3.190  15.962 -0.1333  0.1748  0.1132
  915MPD2    C413449   2.595   3.139  16.030  0.6299 -0.9561 -0.3045
  915MPD2    C513450   2.682   3.056  15.963  0.0138  0.7538 -0.6082
  915MPD2     H13451   2.375   3.189  15.780  0.8000 -2.0469 -3.0519
  915MPD2    H113452   2.621   3.166  16.132  0.5631 -1.0005 -0.2758
  915MPD2    H213453   2.735   2.938  15.795 -2.3747 -1.7932  0.3276
  915MPD2    H313454   2.768   3.020  16.018 -0.4913 -0.7279 -0.7862
  915MPD2     N13455   2.390   3.266  16.029 -0.3300 -0.5139  0.1436
  915MPD2    H513456   2.302   3.279  15.981 -0.6164 -0.4069  0.6933
  915MPD2    N113457   2.538   3.019  15.635 -0.4440  0.6825  0.0415
  915MPD2    H713458   2.607   2.951  15.605 -1.8545 -1.3386  1.3635
  916MPD2     C13459   1.225   1.381  16.116 -0.1016  0.4741 -0.1927
  916MPD2    C113460   1.192   1.247  16.137 -0.4450 -1.0213 -0.7005
  916MPD2    C213461   1.213   1.150  16.042 -0.5221 -0.7777 -0.5743
  916MPD2    C313462   1.238   1.190  15.909 -0.0263  0.4856  0.2337
  916MPD2    C413463   1.272   1.322  15.890  1.0894  0.3558  0.0961
  916MPD2    C513464   1.272   1.415  15.988  0.0511 -0.3902 -0.2462
  916MPD2     H13465   1.185   1.047  16.056 -0.4335 -0.8191 -0.7086
  916MPD2    H113466   1.321   1.357  15.800  1.9288 -0.2362  0.3166
  916MPD2    H213467   1.223   1.456  16.194 -0.5240  0.3398 -0.0760
  916MPD2    H313468   1.296   1.517  15.962 -0.2763 -0.1259  0.4949
  916MPD2     N13469   1.217   1.104  15.801 -0.6382 -0.2452  0.4744
  916MPD2    H513470   1.197   1.006  15.822 -0.9874 -0.2176  0.2784
  916MPD2    N113471   1.119   1.224  16.256 -0.4429  0.5877 -0.0371
  916MPD2    H713472   1.106   1.296  16.327  0.6383  0.3236  0.4230
  917MPD2     C13473   1.314   3.657  11.635 -0.7699  0.3844  0.7135
  917MPD2    C113474   1.201   3.663  11.559  0.3569 -0.4660 -0.3612
  917MPD2    C213475   1.174   3.777  11.477 -0.1313 -0.6395 -1.0735
  917MPD2    C313476   1.267   3.882  11.473  1.1874  0.2828 -0.1544
  917MPD2    C413477   1.382   3.866  11.557 -0.5144  0.6695  0.0376
  917MPD2    C513478   1.409   3.759  11.641  0.3187 -0.3814  0.0322
  917MPD2     H13479   1.091   3.775  11.407 -0.6760 -0.3820 -0.4373
  917MPD2    H113480   1.460   3.940  11.574  1.4878 -1.3636 -0.3121
  917MPD2    H213481   1.328   3.570  11.698 -0.6842 -0.5251 -0.5556
  917MPD2    H313482   1.493   3.745  11.708 -2.0880 -3.1769  2.4865
  917MPD2     N13483   1.249   4.004  11.413  0.5721  0.0200  0.3006
  917MPD2    H513484   1.315   4.076  11.442 -1.1246  1.8243 -0.3265
  917MPD2    N113485   1.106   3.567  11.583 -0.7833 -0.6342  0.1012
  917MPD2    H713486   1.114   3.525  11.675 -1.1319 -0.3076  0.2815
  918MPD2     C13487   0.836   3.858  12.319 -0.2815  0.1592  0.4187
  918MPD2    C113488   0.950   3.802  12.259  1.4091 -0.2437  0.1678
  918MPD2    C213489   0.938   3.742  12.144  0.5856 -0.3886 -0.3278
  918MPD2    C313490   0.818   3.725  12.072 -0.0322 -0.7355  0.1085
  918MPD2    C413491   0.705   3.770  12.136 -0.3118 -0.5970 -0.1233
  918MPD2    C513492   0.718   3.843  12.254 -0.1361  0.3694 -0.1410
  918MPD2     H13493   1.023   3.681  12.116  0.9863  0.8929 -1.9253
  918MPD2    H113494   0.602   3.757  12.106 -0.6373  2.3447 -0.3330
  918MPD2    H213495   0.834   3.905  12.417 -1.6887  1.6246 -0.3090
  918MPD2    H313496   0.624   3.878  12.296  0.1969 -2.4352  2.9659
  918MPD2     N13497   0.819   3.648  11.954 -0.4108 -0.3127  0.3006
  918MPD2    H513498   0.912   3.626  11.920 -0.7569 -1.9993  0.4571
  918MPD2    N113499   1.070   3.812  12.324 -0.0092  0.9936  0.4614
  918MPD2    H713500   1.148   3.775  12.271 -0.8790  0.6228 -0.5671
  919MPD2     C13501   1.331   2.775  11.912  0.3466 -0.4870 -0.1155
  919MPD2    C113502   1.250   2.685  11.849 -0.2254 -0.1226  0.1013
  919MPD2    C213503   1.211   2.702  11.715 -0.2318  0.4085  0.1553
  919MPD2    C313504   1.253   2.810  11.645 -0.0407  0.6205  0.4860
  919MPD2    C413505   1.347   2.891  11.701 -0.1738  0.1172 -0.0975
  919MPD2    C513506   1.389   2.874  11.829  0.3102  0.0444  0.2089
  919MPD2     H13507   1.145   2.628  11.672  1.4685 -1.1415  0.1856
  919MPD2    H113508   1.397   2.967  11.643  0.4346  0.2499  0.6008
  919MPD2    H213509   1.366   2.754  12.012 -0.2157  0.3247  0.2463
  919MPD2    H313510   1.469   2.935  11.870 -0.8602  1.7104  0.0135
  919MPD2     N13511   1.209   2.838  11.511 -0.0837  0.2146 -0.7637
  919MPD2    H513512   1.276   2.894  11.459  0.2993 -0.6250 -1.1821
  919MPD2    N113513   1.205   2.565  11.907 -0.4497  0.5415  0.1111
  919MPD2    H713514   1.181   2.492  11.841 -0.3725 -0.8020  1.5724
  920MPD2     C13515   1.335   3.369  10.685 -0.0577  0.7000 -0.1580
  920MPD2    C113516   1.242   3.271  10.638 -0.1666 -0.5819  0.2057
  920MPD2    C213517   1.197   3.176  10.726 -0.2510 -0.5507 -0.1901
  920MPD2    C313518   1.254   3.171  10.855 -0.2333  0.4562  0.3821
  920MPD2    C413519   1.355   3.260  10.888  0.1442  0.3643  0.2800
  920MPD2    C513520   1.392   3.361  10.806  0.0478 -0.1807 -0.6926
  920MPD2     H13521   1.113   3.109  10.715 -0.0953 -1.0653  1.8897
  920MPD2    H113522   1.409   3.247  10.982 -2.3831 -1.7856  1.4481
  920MPD2    H213523   1.377   3.446  10.622 -0.8430  1.3281  0.0946
  920MPD2    H313524   1.464   3.437  10.837  0.0877 -0.8633  0.9174
  920MPD2     N13525   1.201   3.072  10.939  0.4710 -0.0276 -0.3758
  920MPD2    H513526   1.127   3.012  10.903 -0.1596 -0.3653  1.4813
  920MPD2    N113527   1.183   3.267  10.511  0.1219 -0.1358 -0.0337
  920MPD2    H713528   1.120   3.190  10.494 -0.5016  0.4465 -0.3566
  921MPD2     C13529   2.717   1.717  17.190 -0.1959  0.1172 -0.1746
  921MPD2    C113530   2.747   1.677  17.059  0.3770 -0.1663 -0.0289
  921MPD2    C213531   2.646   1.637  16.971 -0.5961 -0.7941  0.0969
  921MPD2    C313532   2.511   1.636  17.010  0.0690  0.0939 -0.3219
  921MPD2    C413533   2.485   1.693  17.134 -0.2363 -0.2824 -0.4055
  921MPD2    C513534   2.582   1.725  17.224  0.0280  0.4333 -1.0799
  921MPD2     H13535   2.678   1.587  16.881 -1.9399  1.9565 -1.9101
  921MPD2    H113536   2.383   1.686  17.170 -1.4579 -0.5934 -3.9020
  921MPD2    H213537   2.797   1.734  17.261  0.3483 -2.6442 -0.1436
  921MPD2    H313538   2.546   1.762  17.320  2.8499  2.2836 -0.7417
  921MPD2     N13539   2.401   1.581  16.940 -0.4317  0.1942 -0.0392
  921MPD2    H513540   2.307   1.601  16.972 -0.1500 -0.0178  0.9253
  921MPD2    N113541   2.887   1.662  17.033 -0.0815  0.9096  0.3844
  921MPD2    H713542   2.956   1.674  17.107  2.5625 -2.3510 -1.5401
  922MPD2     C13543   3.106   4.159  16.955 -0.2733  0.1672 -0.4962
  922MPD2    C113544   3.027   4.232  17.043 -0.7198 -0.1799 -0.0478
  922MPD2    C213545   2.924   4.165  17.106 -0.6010 -1.1519  0.2108
  922MPD2    C313546   2.904   4.026  17.107 -0.0121 -1.1273 -0.7089
  922MPD2    C413547   2.981   3.956  17.024 -0.2301 -0.3504  0.3884
  922MPD2    C513548   3.072   4.025  16.949 -0.1667  0.4103 -0.2666
  922MPD2     H13549   2.877   4.221  17.186  2.3046  1.4232  0.1179
  922MPD2    H113550   2.986   3.848  17.020  1.9898 -0.3096  1.8820
  922MPD2    H213551   3.188   4.196  16.896 -1.1524  1.4849 -0.8991
  922MPD2    H313552   3.136   3.962  16.888 -2.5274  0.0519 -2.3623
  922MPD2     N13553   2.796   3.975  17.183  0.1601 -0.4326 -0.0265
  922MPD2    H513554   2.724   4.042  17.209  0.4313  0.8272 -2.5399
  922MPD2    N113555   3.044   4.375  17.071  0.0957  0.4557 -0.0714
  922MPD2    H713556   2.985   4.420  17.140 -0.3932 -1.2086  0.6172
  923MPD2     C13557   4.499   1.809   8.953 -0.3929  0.1506  0.1779
  923MPD2    C113558   4.441   1.914   9.022  0.1487  1.0868  0.0207
  923MPD2    C213559   4.431   1.905   9.158  0.3387 -1.3859 -0.2578
  923MPD2    C313560   4.501   1.803   9.232 -0.1996  0.1463  0.3106
  923MPD2    C413561   4.560   1.699   9.158  0.3046 -0.7651 -0.0658
  923MPD2    C513562   4.557   1.704   9.023 -0.1890  0.4701 -0.5084
  923MPD2     H13563   4.377   1.981   9.213 -0.7591 -0.8340 -2.0835
  923MPD2    H113564   4.598   1.608   9.203  0.5456  0.3062  1.9179
  923MPD2    H213565   4.492   1.811   8.845  0.9647 -0.4482  0.0859
  923MPD2    H313566   4.602   1.619   8.973 -0.7643 -0.1203 -0.0328
  923MPD2     N13567   4.527   1.794   9.372 -0.5038 -0.5023  0.3790
  923MPD2    H513568   4.572   1.705   9.395 -1.6291 -1.3192 -0.5545
  923MPD2    N113569   4.376   2.026   8.952 -0.1827  0.9580  0.3998
  923MPD2    H713570   4.366   2.023   8.851  0.7697 -1.8421  0.3865
  924MPD2     C13571   4.512   4.275  16.127  0.6304  0.0106  0.0874
  924MPD2    C113572   4.535   4.288  16.260  0.0809  0.2220  0.1983
  924MPD2    C213573   4.617   4.388  16.304  0.2111 -0.6565  0.6113
  924MPD2    C313574   4.679   4.475  16.213  0.0436 -0.2241  0.0440
  924MPD2    C413575   4.653   4.449  16.085 -0.8157  0.4417  0.3940
  924MPD2    C513576   4.572   4.352  16.042  0.3441  0.6241 -0.2848
  924MPD2     H13577   4.636   4.397  16.410  0.3087  1.1553  0.4375
  924MPD2    H113578   4.703   4.512  16.012  0.4355  2.5488  3.0750
  924MPD2    H213579   4.464   4.185  16.089  0.7735  0.3076 -0.8041
  924MPD2    H313580   4.559   4.346  15.934 -1.4580  2.3155 -0.1654
  924MPD2     N13581   0.009   4.602  16.248  0.1025 -0.9686  0.4932
  924MPD2    H513582   0.026   4.669  16.174  0.2139 -0.0667  1.3349
  924MPD2    N113583   4.479   4.193  16.362 -0.0328  0.3531  0.4571
  924MPD2    H713584   4.415   4.123  16.325  0.5399  0.4114 -0.6545
  925MPD2     C13585   3.638   2.151  14.835  0.3920 -0.4917  0.2750
  925MPD2    C113586   3.511   2.148  14.782  0.5451 -0.7274  0.3199
  925MPD2    C213587   3.412   2.095  14.865  0.2680 -0.7959  0.5673
  925MPD2    C313588   3.436   2.056  14.996  0.5694  0.8386 -0.1215
  925MPD2    C413589   3.561   2.068  15.048  0.9104  0.0360 -0.1259
  925MPD2    C513590   3.658   2.108  14.962 -0.2629 -0.1853  0.3157
  925MPD2     H13591   3.309   2.088  14.834 -0.0751  0.0579  1.5098
  925MPD2    H113592   3.597   2.051  15.149  0.3510 -0.7604 -0.0596
  925MPD2    H213593   3.717   2.197  14.777 -0.1787  3.3285  2.4984
  925MPD2    H313594   3.755   2.133  15.005 -0.1686  1.8197 -1.0258
  925MPD2     N13595   3.335   1.990  15.074 -0.0147 -0.1403  0.5401
  925MPD2    H513596   3.361   1.971  15.170 -1.0681 -1.8691  0.4841
  925MPD2    N113597   3.472   2.190  14.657  0.1585  0.0127 -0.2290
  925MPD2    H713598   3.373   2.181  14.635 -0.2856 -0.1209  1.8810
  926MPD2     C13599   2.324   0.588  13.902 -1.3884  0.0181  0.2439
  926MPD2    C113600   2.205   0.641  13.855  0.0880 -0.2785 -0.2239
  926MPD2    C213601   2.198   0.747  13.763 -0.4076 -0.4878 -1.0400
  926MPD2    C313602   2.315   0.801  13.711 -0.0442  0.1687 -0.7491
  926MPD2    C413603   2.433   0.740  13.750  0.2622 -0.0820 -0.0780
  926MPD2    C513604   2.439   0.633  13.842  0.0040 -0.0827 -0.0815
  926MPD2     H13605   2.105   0.775  13.715  0.1177  0.4228 -1.5095
  926MPD2    H113606   2.529   0.770  13.711  0.3686  0.1278  0.3506
  926MPD2    H213607   2.325   0.504  13.972  0.7748  0.0234  0.2255
  926MPD2    H313608   2.535   0.586  13.862 -0.3756 -1.8641 -2.3715
  926MPD2     N13609   2.323   0.907  13.609  0.0252  0.0665  0.2377
  926MPD2    H513610   2.420   0.929  13.586 -0.1659  0.3180 -0.3287
  926MPD2    N113611   2.080   0.610  13.915 -0.1413  0.4715 -0.3367
  926MPD2    H713612   2.006   0.672  13.883 -0.7397  0.3672  0.8352
  927MPD2     C13613   1.465   3.441   0.209  0.2758 -0.1523 -0.0760
  927MPD2    C113614   1.412   3.393   0.329 -0.3310  0.5129  0.4138
  927MPD2    C213615   1.460   3.276   0.378  0.1350 -0.2560  0.5383
  927MPD2    C313616   1.560   3.211   0.304  0.0176 -0.2548  0.2738
  927MPD2    C413617   1.610   3.255   0.183 -0.0436  0.6079  0.2978
  927MPD2    C513618   1.557   3.371   0.138  0.9196 -0.2213  0.1973
  927MPD2     H13619   1.423   3.224   0.466 -0.3304 -0.6752  0.0932
  927MPD2    H113620   1.686   3.203   0.126 -0.9489 -2.0040  1.4631
  927MPD2    H213621   1.446   3.543   0.177  0.5831  0.4485  1.6798
  927MPD2    H313622   1.590   3.421   0.048 -1.3293  0.3298 -0.3266
  927MPD2     N13623   1.609   3.087   0.362  0.3780  0.3264  0.4427
  927MPD2    H513624   1.586   3.071   0.460  2.2350  0.9907  1.0000
  927MPD2    N113625   1.310   3.468   0.394 -0.1746  0.1141 -0.3280
  927MPD2    H713626   1.279   3.546   0.338  0.1392  1.0923  0.8535
  928MPD2     C13627   4.020   1.954   0.429 -0.9505 -0.2376  0.4327
  928MPD2    C113628   4.084   2.003   0.542  1.1180  0.1429 -0.1194
  928MPD2    C213629   4.224   1.977   0.570 -0.0244  0.6222 -0.8509
  928MPD2    C313630   4.294   1.907   0.470 -0.0637  0.4671  0.3532
  928MPD2    C413631   4.231   1.876   0.350 -0.8789  0.4841  0.9533
  928MPD2    C513632   4.098   1.899   0.331 -0.0055 -0.4206 -0.6709
  928MPD2     H13633   4.271   2.019   0.658 -1.2113  0.5406 -0.1778
  928MPD2    H113634   4.288   1.828   0.273  0.2858  0.9154  1.5505
  928MPD2    H213635   3.915   1.975   0.413 -1.3278 -1.4596  1.2928
  928MPD2    H313636   4.052   1.855   0.243  3.4102 -1.5857 -1.8377
  928MPD2     N13637   4.428   1.873   0.472 -0.1492  0.3073 -0.5875
  928MPD2    H513638   4.470   1.830   0.391 -1.7495 -1.2989 -0.5672
  928MPD2    N113639   4.002   2.078   0.628 -0.3192  0.4126 -0.1233
  928MPD2    H713640   3.903   2.075   0.606 -0.3800 -1.4450  0.4144
  929MPD2     C13641   4.113   1.695   9.734 -0.3926 -0.5700  0.2469
  929MPD2    C113642   4.000   1.634   9.782  0.6475 -0.0056  0.2979
  929MPD2    C213643   3.880   1.676   9.721 -0.1569 -0.0898 -0.5325
  929MPD2    C313644   3.876   1.778   9.620 -0.0073 -0.1726 -0.2438
  929MPD2    C413645   4.001   1.828   9.577  0.3042 -0.4813 -0.3919
  929MPD2    C513646   4.116   1.781   9.628 -0.2468  0.2356 -0.4245
  929MPD2     H13647   3.786   1.649   9.767  1.6809 -4.8635  0.3153
  929MPD2    H113648   3.998   1.901   9.497  1.6261 -0.2469 -0.2329
  929MPD2    H213649   4.207   1.657   9.772 -0.1950  1.2288  1.5125
  929MPD2    H313650   4.207   1.817   9.581 -0.2936  0.6573 -0.1912
  929MPD2     N13651   3.753   1.843   9.581 -0.6936  0.1157  0.2609
  929MPD2    H513652   3.770   1.925   9.524  0.6444 -0.4395 -0.1261
  929MPD2    N113653   4.014   1.545   9.895 -0.2128 -0.1385  1.0653
  929MPD2    H713654   4.105   1.528   9.936  1.1955 -1.8067 -2.7421
  930MPD2     C13655   1.308   3.606  14.016  0.9585  0.3521  0.5854
  930MPD2    C113656   1.427   3.537  14.047 -0.0976 -0.0773 -0.5148
  930MPD2    C213657   1.434   3.405  13.997  0.1334 -0.2306  0.7484
  930MPD2    C313658   1.340   3.352  13.915  0.0903  0.4231  0.0094
  930MPD2    C413659   1.230   3.429  13.877  0.3627 -0.2981  0.0252
  930MPD2    C513660   1.220   3.552  13.929 -0.5967  0.2871 -0.0751
  930MPD2     H13661   1.516   3.344  14.032  0.1203  1.1247  3.1390
  930MPD2    H113662   1.163   3.386  13.803  1.8115  1.4876 -2.3179
  930MPD2    H213663   1.297   3.709  14.047 -2.3968  0.1795 -0.0091
  930MPD2    H313664   1.128   3.608  13.914 -0.1942  0.5280 -1.5919
  930MPD2     N13665   1.362   3.217  13.871 -0.4077 -0.4718  0.0681
  930MPD2    H513666   1.296   3.187  13.799 -0.2311 -1.6425  0.3860
  930MPD2    N113667   1.534   3.602  14.113  0.1702 -0.5201 -0.0703
  930MPD2    H713668   1.517   3.699  14.140  2.4220 -0.5204  1.3584
  931MPD2     C13669   0.684   3.833   1.021  0.0246  0.3243 -0.0345
  931MPD2    C113670   0.797   3.753   1.008  0.2572 -0.4031  0.0012
  931MPD2    C213671   0.872   3.728   1.112  0.3784  0.9924 -0.3194
  931MPD2    C313672   0.833   3.767   1.241  0.1781  0.2619  0.0099
  931MPD2    C413673   0.718   3.839   1.255 -0.1835 -0.5363  0.6452
  931MPD2    C513674   0.648   3.874   1.145 -0.4627  0.2339 -0.4778
  931MPD2     H13675   0.964   3.673   1.094 -1.3561 -1.5825 -1.2794
  931MPD2    H113676   0.684   3.871   1.353  2.0325  1.2233  0.8608
  931MPD2    H213677   0.616   3.859   0.941 -0.6518 -2.2987 -0.3143
  931MPD2    H313678   0.558   3.933   1.159 -0.4237 -0.4926  2.9839
  931MPD2     N13679   0.916   3.733   1.354  0.0077 -0.3361 -0.9579
  931MPD2    H513680   0.996   3.674   1.339  1.8444  1.4410  1.8511
  931MPD2    N113681   0.835   3.709   0.880  0.0658  0.9774 -0.2074
  931MPD2    H713682   0.797   3.755   0.798 -0.9681  1.7217  0.6668
  932MPD2     C13683   2.782   2.647  11.418 -0.2493 -0.3857 -0.0007
  932MPD2    C113684   2.867   2.657  11.307 -0.5150  0.2266 -0.2125
  932MPD2    C213685   2.907   2.546  11.239 -0.3732 -0.1079 -0.1301
  932MPD2    C313686   2.881   2.417  11.291  0.4560 -0.4848  0.1625
  932MPD2    C413687   2.792   2.406  11.402  0.1411  0.5633  0.3024
  932MPD2    C513688   2.743   2.524  11.458 -0.2239 -0.4448 -0.6656
  932MPD2     H13689   2.962   2.562  11.148  0.4325 -0.0627  0.3673
  932MPD2    H113690   2.753   2.318  11.452  2.2984  0.9066  2.5779
  932MPD2    H213691   2.757   2.731  11.482 -0.0926  0.8164 -1.5305
  932MPD2    H313692   2.676   2.512  11.542  0.1786  0.0649 -0.2684
  932MPD2     N13693   2.938   2.302  11.229  0.1626 -0.2207 -0.7070
  932MPD2    H513694   2.932   2.214  11.278 -3.0581  0.7471  0.6306
  932MPD2    N113695   2.928   2.780  11.277 -0.0400  0.6780  0.2204
  932MPD2    H713696   2.994   2.776  11.200 -1.9949  0.4520 -1.4410
  933MPD2     C13697   3.371   2.657   0.626  0.1395 -0.1741  0.2901
  933MPD2    C113698   3.484   2.583   0.577  0.0194 -0.0314 -0.2926
  933MPD2    C213699   3.504   2.572   0.441  0.3134 -0.9698  0.3099
  933MPD2    C313700   3.409   2.626   0.353 -0.3372 -0.5520 -0.2301
  933MPD2    C413701   3.297   2.692   0.405  0.8089  0.2030  0.0997
  933MPD2    C513702   3.278   2.707   0.539 -0.1349  0.0270 -0.3473
  933MPD2     H13703   3.595   2.532   0.398  0.2550  3.7486 -4.2374
  933MPD2    H113704   3.214   2.734   0.350  1.6737  1.9297  0.1080
  933MPD2    H213705   3.352   2.659   0.733 -1.3403 -1.8512  0.0469
  933MPD2    H313706   3.190   2.759   0.575 -0.0652 -0.2148  0.1869
  933MPD2     N13707   3.429   2.615   0.217  0.0260  0.3647  0.3595
  933MPD2    H513708   3.514   2.569   0.185  1.5451  0.6862  3.9751
  933MPD2    N113709   3.574   2.518   0.674  0.0788  0.1477  0.1435
  933MPD2    H713710   3.555   2.544   0.771  1.4599  2.2203 -0.1547
  934MPD2     C13711   0.569   4.582   1.935  0.4837  0.5899  0.1166
  934MPD2    C113712   0.664   4.523   1.864  0.2748 -0.1516  0.2938
  934MPD2    C213713   0.628   4.447   1.752 -0.8246  0.5593 -0.1709
  934MPD2    C313714   0.495   4.424   1.710  0.4488 -0.5368  0.8919
  934MPD2    C413715   0.406   4.498   1.781 -0.2911  0.5802 -0.4519
  934MPD2    C513716   0.436   4.564   1.894 -0.1403  0.4656  0.4895
  934MPD2     H13717   0.707   4.407   1.689 -0.7191  1.0005 -0.3196
  934MPD2    H113718   0.299   4.481   1.771 -0.1052 -0.3701 -0.8165
  934MPD2    H213719   0.593   4.637   2.025 -0.2252 -0.9673  1.2661
  934MPD2    H313720   0.359   4.611   1.955  2.8386  1.5855  3.3799
  934MPD2     N13721   0.448   4.343   1.607  0.1996  0.4112  0.3994
  934MPD2    H513722   0.352   4.354   1.579  0.4262 -1.3788 -1.0253
  934MPD2    N113723   0.802   4.535   1.894 -0.2696  0.5927 -0.1458
  934MPD2    H713724   0.859   4.524   1.811  1.4265  1.2965  0.9213
  935MPD2     C13725   0.619   3.376   1.586 -0.6715  0.1515 -0.2052
  935MPD2    C113726   0.573   3.416   1.460 -1.0136 -0.1894  0.5900
  935MPD2    C213727   0.509   3.540   1.464 -0.2755 -0.3274  0.2135
  935MPD2    C313728   0.504   3.615   1.577 -0.0570 -0.6252  0.2470
  935MPD2    C413729   0.561   3.584   1.700 -0.7796 -0.0868 -0.3649
  935MPD2    C513730   0.627   3.461   1.697 -0.6131 -0.4153 -0.1546
  935MPD2     H13731   0.464   3.569   1.370  0.0737  0.1693  0.1972
  935MPD2    H113732   0.572   3.657   1.780 -3.1097 -1.8843  1.6206
  935MPD2    H213733   0.674   3.283   1.598  0.1653  1.1234  3.6735
  935MPD2    H313734   0.678   3.425   1.786 -1.3449 -0.7858  0.1161
  935MPD2     N13735   0.452   3.750   1.565  0.2361 -0.5782  0.6447
  935MPD2    H513736   0.463   3.820   1.638 -0.5285  0.9603 -0.7156
  935MPD2    N113737   0.584   3.332   1.347  0.0810 -0.1149 -0.1391
  935MPD2    H713738   0.549   3.378   1.263  2.3804  1.2530 -0.3540
  936MPD2     C13739   3.163   0.762  12.449  0.1365 -0.0157  0.4837
  936MPD2    C113740   3.194   0.629  12.481  0.8002  0.3918 -0.6251
  936MPD2    C213741   3.320   0.601  12.546 -0.5797  0.4531  0.4024
  936MPD2    C313742   3.416   0.703  12.551 -0.3262  0.0275  0.1802
  936MPD2    C413743   3.387   0.828  12.507  0.4554 -0.0134  1.1077
  936MPD2    C513744   3.265   0.856  12.450  0.1663  0.1058  0.4388
  936MPD2     H13745   3.341   0.498  12.574  1.7518  0.4274 -1.4488
  936MPD2    H113746   3.456   0.911  12.515  1.6079 -1.0695  2.3111
  936MPD2    H213747   3.062   0.794  12.431 -0.8029 -2.8047  0.7808
  936MPD2    H313748   3.236   0.959  12.434  1.0159  0.4377  1.0992
  936MPD2     N13749   3.548   0.679  12.597 -0.7924 -0.4558 -0.4767
  936MPD2    H513750   3.617   0.753  12.591 -0.0972 -1.0519  0.2008
  936MPD2    N113751   3.108   0.519  12.467  0.6217  0.6139 -0.4200
  936MPD2    H713752   3.151   0.436  12.508  0.1745  0.5864  0.0058
  937MPD2     C13753   1.358   2.001  11.542 -0.0791  0.3862  0.4190
  937MPD2    C113754   1.431   2.094  11.617 -0.0276  0.0081  0.1378
  937MPD2    C213755   1.524   2.168  11.551  0.0341 -0.3474 -0.0292
  937MPD2    C313756   1.553   2.154  11.414  0.8093 -0.7046 -0.0253
  937MPD2    C413757   1.478   2.063  11.348  0.0622  0.3765  0.3123
  937MPD2    C513758   1.384   1.987  11.410 -0.2712  0.0916 -0.3153
  937MPD2     H13759   1.575   2.238  11.617  0.2238 -1.0056  0.5275
  937MPD2    H113760   1.488   2.031  11.245 -2.3109  2.5854 -0.5850
  937MPD2    H213761   1.291   1.933  11.593  0.4674 -1.4441 -1.3324
  937MPD2    H313762   1.329   1.912  11.355  1.0024 -0.1124 -1.3065
  937MPD2     N13763   1.635   2.248  11.344 -0.2561 -0.7138  0.3925
  937MPD2    H513764   1.668   2.322  11.404  0.6306  0.2405 -1.2876
  937MPD2    N113765   1.394   2.138  11.748 -0.6103 -0.1972 -0.0898
  937MPD2    H713766   1.454   2.204  11.798 -0.5419 -0.0840 -0.3226
  938MPD2     C13767   4.587   3.799   0.668  0.3190  0.6538  0.0416
  938MPD2    C113768   4.551   3.883   0.774  0.9389  0.3666  0.2736
  938MPD2    C213769   4.462   3.830   0.862  0.1000  0.0566  0.3883
  938MPD2    C313770   4.432   3.697   0.873  0.4291  1.1266  0.2397
  938MPD2    C413771   4.493   3.617   0.786  0.0687  0.6695  0.4222
  938MPD2    C513772   4.567   3.668   0.679 -0.9582  0.3286  0.5826
  938MPD2     H13773   4.423   3.896   0.939  1.4495 -0.3491  1.4183
  938MPD2    H113774   4.475   3.511   0.791  1.4541  0.3507 -1.4196
  938MPD2    H213775   4.641   3.836   0.581  1.9766 -0.7432  0.4744
  938MPD2    H313776   4.594   3.593   0.605 -0.2166  1.4822 -0.3230
  938MPD2     N13777   4.350   3.638   0.970  0.2272  0.3299 -0.0112
  938MPD2    H513778   4.369   3.540   0.990 -1.1185  0.0901  0.1327
  938MPD2    N113779   4.570   4.023   0.774 -0.4421 -0.0388 -0.4320
  938MPD2    H713780   4.511   4.068   0.843  2.0465  2.2318  0.2181
  939MPD2     C13781   0.591   0.298   0.793  0.0428  0.1176  0.1954
  939MPD2    C113782   0.709   0.326   0.862  0.4760  0.4549  0.7063
  939MPD2    C213783   0.820   0.244   0.835  0.6040  0.0585  0.1702
  939MPD2    C313784   0.827   0.145   0.741 -0.3839 -0.2414  0.8338
  939MPD2    C413785   0.717   0.129   0.660  0.6854 -0.3445 -0.8084
  939MPD2    C513786   0.599   0.195   0.701 -0.3999  0.5979  0.3070
  939MPD2     H13787   0.901   0.249   0.906 -1.1876 -1.7019  2.3358
  939MPD2    H113788   0.719   0.065   0.573  1.8583 -1.9766  0.4077
  939MPD2    H213789   0.492   0.334   0.819 -0.5151 -1.3468  0.1016
  939MPD2    H313790   0.500   0.191   0.656  0.1835 -0.5337 -0.8510
  939MPD2     N13791   0.949   0.073   0.731 -0.0543 -0.6287  0.0571
  939MPD2    H513792   1.019   0.098   0.800  0.9329 -2.0512 -0.4096
  939MPD2    N113793   0.710   0.426   0.962  0.0520 -0.1450  0.0746
  939MPD2    H713794   0.624   0.479   0.971  0.1753  0.4759 -2.5429
  940MPD2     C13795   4.691   0.118  13.311 -0.3143 -0.3041 -0.4831
  940MPD2    C113796   4.588   0.038  13.261  0.0728  0.6596 -0.1992
  940MPD2    C213797   4.553   0.049  13.133  0.1146  0.5528  0.0911
  940MPD2    C313798   4.629   0.125  13.040 -0.6899 -0.1105  0.7037
  940MPD2    C413799   4.727   0.207  13.094 -0.4322  0.0272 -1.1302
  940MPD2    C513800   0.022   0.210  13.230  0.0732  0.7954  0.0692
  940MPD2     H13801   4.473   4.715  13.101 -0.1161 -0.3815  2.5687
  940MPD2    H113802   0.051   0.277  13.033 -0.4690  0.8812 -0.1815
  940MPD2    H213803   0.005   0.110  13.409 -0.3741  0.0718 -0.4242
  940MPD2    H313804   0.101   0.278  13.262 -2.4990  2.8778  1.9744
  940MPD2     N13805   4.609   0.115  12.900  0.8568 -0.1515 -0.0568
  940MPD2    H513806   4.666   0.174  12.840 -0.5159  0.8278 -0.4054
  940MPD2    N113807   4.529   4.673  13.345 -1.2136 -0.2169  0.7158
  940MPD2    H713808   4.440   4.631  13.318 -1.2953  1.5453 -1.7084
  941MPD2     C13809   2.885   0.355  10.003  0.2984  0.1638  0.8800
  941MPD2    C113810   3.005   0.306  10.053 -0.5855 -0.1775  0.3812
  941MPD2    C213811   3.014   0.172  10.100  0.6495 -0.8176 -0.0583
  941MPD2    C313812   2.901   0.088  10.092  0.5955 -0.7469  0.1749
  941MPD2    C413813   2.785   0.140  10.049 -0.2163  0.2897 -0.4372
  941MPD2    C513814   2.781   0.267   9.995 -0.0235  0.9376  0.1608
  941MPD2     H13815   3.105   0.137  10.147  1.2808 -1.3971 -1.7166
  941MPD2    H113816   2.690   0.087  10.046  0.1497 -0.3080 -1.5353
  941MPD2    H213817   2.868   0.456   9.968  1.9544 -0.2447 -1.0972
  941MPD2    H313818   2.682   0.295   9.962  0.1337  0.0764 -1.0688
  941MPD2     N13819   2.886   4.686  10.143  0.3404 -0.2599  0.2382
  941MPD2    H513820   2.793   4.646  10.138  0.6550 -1.2286  2.1404
  941MPD2    N113821   3.122   0.384  10.046  0.4474 -0.7045  0.3112
  941MPD2    H713822   3.206   0.353  10.095 -0.5642 -3.1934  0.4887
  942MPD2     C13823   3.134   2.753   9.228 -0.3257  0.1520 -0.6075
  942MPD2    C113824   3.055   2.638   9.220 -0.5603 -0.0908  0.2176
  942MPD2    C213825   3.108   2.533   9.147 -0.4506  0.3118 -1.6044
  942MPD2    C313826   3.233   2.530   9.087 -0.4476  0.0123 -0.3514
  942MPD2    C413827   3.307   2.645   9.101 -0.4921  0.4770 -0.0942
  942MPD2    C513828   3.256   2.746   9.172 -0.4137 -0.2858 -0.0999
  942MPD2     H13829   3.052   2.440   9.147  0.0891 -0.0413  1.0084
  942MPD2    H113830   3.404   2.657   9.052  0.0084  0.2321  0.8460
  942MPD2    H213831   3.107   2.846   9.276 -1.9039 -0.8711  0.4829
  942MPD2    H313832   3.318   2.832   9.193 -0.4302  0.2996 -2.4432
  942MPD2     N13833   3.288   2.413   9.043 -0.1150 -0.1536  0.2277
  942MPD2    H513834   3.390   2.411   9.036 -0.2277 -0.9804 -1.1200
  942MPD2    N113835   2.936   2.629   9.296 -0.3735  0.3150  0.2125
  942MPD2    H713836   2.884   2.543   9.283 -0.9359  0.9002 -1.4359
  943MPD2     C13837   2.597   0.527  10.320 -0.4817  0.1659  0.0066
  943MPD2    C113838   2.579   0.389  10.294  0.0761  0.0376  0.8326
  943MPD2    C213839   2.679   0.297  10.331  0.0378 -0.4194 -0.2752
  943MPD2    C313840   2.796   0.354  10.392 -0.1285  0.3734 -0.2833
  943MPD2    C413841   2.814   0.488  10.406  0.3691  1.0671  0.0651
  943MPD2    C513842   2.713   0.577  10.366  0.2578  0.0795  0.4904
  943MPD2     H13843   2.687   0.190  10.315  1.0635 -0.1338 -1.6326
  943MPD2    H113844   2.905   0.531  10.446 -0.6231  2.2545  1.0388
  943MPD2    H213845   2.524   0.599  10.285 -1.5897  0.1069  2.1512
  943MPD2    H313846   2.722   0.684  10.382 -3.0219  0.5009 -0.3824
  943MPD2     N13847   2.899   0.279  10.439 -0.4924 -0.3717 -0.4639
  943MPD2    H513848   2.990   0.321  10.460 -1.0236  0.7596 -0.3876
  943MPD2    N113849   2.466   0.342  10.227 -0.3300  0.3133 -0.2853
  943MPD2    H713850   2.397   0.414  10.210 -1.7030 -0.5824  1.4512
  944MPD2     C13851   2.391   3.904  11.350 -0.1289  0.7023 -0.1382
  944MPD2    C113852   2.432   3.775  11.336 -0.4128 -0.3814 -0.0908
  944MPD2    C213853   2.381   3.679  11.418  0.5561 -0.1920  0.1794
  944MPD2    C313854   2.288   3.715  11.517  0.1455  0.5972 -0.0863
  944MPD2    C413855   2.252   3.848  11.542  0.5610 -0.0592 -0.2052
  944MPD2    C513856   2.308   3.940  11.453  0.2513  0.0156 -0.5520
  944MPD2     H13857   2.404   3.574  11.403 -3.1649 -1.0955  0.8290
  944MPD2    H113858   2.191   3.889  11.622 -1.8179 -0.3802 -1.8530
  944MPD2    H213859   2.426   3.985  11.288  0.6586  0.7856  0.4166
  944MPD2    H313860   2.281   4.045  11.463 -1.3735 -0.4691  0.1682
  944MPD2     N13861   2.233   3.603  11.581  0.3141 -0.8071  0.0457
  944MPD2    H513862   2.273   3.512  11.563 -2.2419 -1.7750 -0.7070
  944MPD2    N113863   2.517   3.743  11.227  0.1934 -0.5300  0.0188
  944MPD2    H713864   2.537   3.812  11.155  2.4175 -0.2740  0.8678
    1TMC1    C113865   1.070   3.823  14.501  0.2865 -0.7250  0.0437
    1TMC1    C213866   0.947   3.773  14.485 -0.0188  0.1642  0.1403
    1TMC1    C313867   0.925   3.640  14.449 -0.3268  0.3910  0.2502
    1TMC1    C413868   1.182   3.754  14.463  0.2158 -0.4298  0.2789
    1TMC1    C513869   1.159   3.619  14.430  0.2739 -0.8568 -1.0351
    1TMC1    C613870   1.035   3.562  14.423  0.6962 -0.2999  0.1300
    1TMC1     C13871   1.080   3.955  14.544  0.4661  0.0741 -0.0061
    1TMC1     O13872   1.173   3.984  14.613  1.0921 -0.5805 -0.5427
    1TMC1     H13873   0.856   3.833  14.489  0.6929  1.2624 -0.2166
    1TMC1    H113874   1.281   3.792  14.486  0.2977  0.3694 -1.3893
    1TMC1    H213875   1.022   3.457  14.396  0.4879  0.3448 -2.3095
    1TMC1    C713876   1.279   3.550  14.404 -0.1767 -0.3644  0.6243
    1TMC1    C813877   0.784   3.599  14.426 -0.5688 -0.2495  0.2388
    1TMC1    O113878   1.391   3.596  14.411 -0.0597 -0.1221  0.2805
    1TMC1    O213879   0.687   3.671  14.449  0.1532 -0.0256  0.1029
    1TMC1    O313880   1.245   3.439  14.336 -0.0523  0.3294  0.2521
    1TMC1    H313881   1.324   3.389  14.308 -0.6252 -0.3796 -0.0956
    1TMC1    O513882   0.783   3.504  14.328 -0.2481  0.2546  0.1076
    1TMC1    H513883   0.862   3.482  14.274  0.7856  0.5492  1.5075
    2MPD2     C13884   0.906   4.441  14.623  0.4685 -0.2342 -0.1780
    2MPD2    C113885   0.832   4.387  14.517 -0.6517 -0.8094 -0.5525
    2MPD2    C213886   0.853   4.252  14.474  0.5048  0.0546 -1.0799
    2MPD2    C313887   0.953   4.173  14.532 -0.4116  0.2152 -0.1347
    2MPD2    C413888   1.026   4.231  14.636  0.3726  0.0572 -0.0229
    2MPD2    C513889   1.007   4.365  14.671  0.0253 -0.1184  0.2060
    2MPD2     H13890   0.788   4.210  14.398 -1.3059 -2.5580  1.9165
    2MPD2    H113891   1.104   4.181  14.693 -0.5396 -1.4558 -0.1129
    2MPD2    H213892   0.896   4.544  14.654 -0.0283  0.0601 -1.3364
    2MPD2    H313893   1.074   4.404  14.747 -1.3021  0.8893  0.8653
    2MPD2     N13894   0.977   4.036  14.491 -0.2071  0.0152  0.2918
    2MPD2    H513895   0.920   3.993  14.418 -0.2944  0.5086  0.0690
    2MPD2    N113896   0.734   4.465  14.456 -0.0784 -0.2446  0.0929
    2MPD2    H713897   0.739   4.565  14.471  0.1055 -0.4918  1.7185
    3TMC2    C113898   0.540   4.533  14.342 -0.3578  0.3748  0.1341
    3TMC2    C213899   0.417   4.496  14.305 -0.3706 -0.1185  0.1652
    3TMC2    C313900   0.341   4.580  14.232 -0.5844  0.9147  0.2484
    3TMC2    C413901   0.594   4.650  14.297 -0.0847 -0.0126 -0.0052
    3TMC2    C513902   0.524   4.722  14.203 -0.2613  0.1774 -0.4192
    3TMC2    C613903   0.394   4.694  14.176 -0.2734 -0.1952 -0.6682
    3TMC2     C13904   0.629   4.422  14.379 -0.2658  0.4417 -0.2245
    3TMC2     O13905   0.597   4.309  14.336  0.2968  0.4322 -0.2242
    3TMC2     H13906   0.379   4.399  14.333 -1.9794  1.2749  2.7961
    3TMC2    H113907   0.702   4.659  14.307  0.0210  0.3699 -1.5291
    3TMC2    H213908   0.332   0.026  14.115  0.0135  1.9884  1.3167
    3TMC2    C713909   0.582   0.123  14.182 -0.1214  0.6870 -0.3020
    3TMC2    C813910   0.210   4.532  14.183 -0.3754  0.0136 -0.2049
    3TMC2    O113911   0.669   0.157  14.261 -0.2938 -0.5762 -0.4432
    3TMC2    O213912   0.167   4.578  14.077  0.1257 -0.4345 -0.4184
    3TMC2    O513913   0.137   4.464  14.272 -0.3736 -0.1385 -0.3555
    3TMC2    H513914   0.176   4.476  14.361 -0.7659 -1.7614  0.0225
    4TMC2    C113915   0.098   0.569  13.446  0.6652  0.3931 -0.3779
    4TMC2    C213916   0.004   0.634  13.517 -0.0381 -0.3224 -0.1886
    4TMC2    C313917   0.037   0.663  13.648  0.2090  0.5399 -0.7695
    4TMC2    C413918   0.224   0.532  13.499 -0.1668  0.2479  0.4820
    4TMC2    C513919   0.248   0.566  13.628 -0.5099 -0.0361  0.6821
    4TMC2    C613920   0.154   0.623  13.708 -0.0407  0.0419 -0.1777
    4TMC2     C13921   0.086   0.580  13.301  0.1716 -0.4287  0.2365
    4TMC2     O13922   0.191   0.579  13.240 -0.2605  0.2112  0.5405
    4TMC2     H13923   4.643   0.678  13.482 -1.2999 -0.9869  2.3011
    4TMC2    H113924   0.308   0.501  13.438  0.6810 -0.5110  2.0515
    4TMC2    H213925   0.159   0.636  13.816 -0.0022  0.8540 -0.2762
    4TMC2    C713926   0.353   0.489  13.699 -0.0391  0.0757  0.2350
    4TMC2    C813927   4.691   0.777  13.704  0.4749  1.0262 -0.1310
    4TMC2    O113928   0.363   0.376  13.657 -0.3903 -0.0010  0.3201
    4TMC2    O213929   4.578   0.806  13.659  0.4323 -0.0866  0.0019
    4TMC2    O513930   0.053   0.867  13.738  0.7900  0.0491 -0.0659
    4TMC2    H513931   0.142   0.828  13.744  0.6953 -0.2322 -0.4394
    5MPD2     C13932   4.575   0.818  12.933 -0.1195 -0.5910 -0.3970
    5MPD2    C113933   4.477   0.766  13.021 -0.1300 -0.3335 -0.3926
    5MPD2    C213934   4.523   0.700  13.133 -0.1867  0.2582  0.0239
    5MPD2    C313935   4.659   0.673  13.142 -0.3025  0.1365 -0.0394
    5MPD2    C413936   0.019   0.705  13.046  0.5683 -0.1865  0.1722
    5MPD2    C513937   4.705   0.782  12.942 -0.4104  0.5398 -0.3978
    5MPD2     H13938   4.457   0.669  13.212 -0.8425 -1.8417 -1.3378
    5MPD2    H113939   0.126   0.686  13.051  0.6450  0.1529 -0.1985
    5MPD2    H213940   4.546   0.871  12.843  0.1475 -0.6662 -0.5259
    5MPD2    H313941   0.043   0.813  12.865 -0.3848 -1.5457 -1.1969
    5MPD2     N13942   4.691   0.609  13.259  0.0404 -0.2698  0.0239
    5MPD2    H513943   4.617   0.586  13.325 -1.4355 -2.6376 -2.4597
    5MPD2    N113944   4.339   0.796  13.000  0.0865  0.0008 -0.2666
    5MPD2    H713945   4.310   0.868  12.934  0.2667 -0.7936 -1.2179
    6MPD1     C13946   3.385   2.297  12.733  0.2941 -0.8127 -0.7811
    6MPD1    C113947   3.394   2.268  12.863  1.0019  0.6792 -0.3762
    6MPD1    C213948   3.402   2.134  12.906  1.0104 -0.4904  0.4048
    6MPD1    C313949   3.391   2.031  12.808 -0.3941 -0.0768 -0.3341
    6MPD1    C413950   3.384   2.069  12.680  0.5577  0.0546  0.1751
    6MPD1    C513951   3.379   2.200  12.637  0.5775  0.0682 -0.1758
    6MPD1     H13952   3.401   2.106  13.011 -1.7938 -0.0847  0.4828
    6MPD1    H113953   3.376   1.992  12.604 -0.6528  2.2421 -1.8871
    6MPD1    H213954   3.375   2.400  12.700 -0.3440 -0.8436 -0.6841
    6MPD1    H313955   3.369   2.223  12.531  0.4472 -1.9903 -0.6047
    6MPD1     N13956   3.408   1.893  12.835 -0.4409  0.1132  0.2340
    6MPD1    H513957   3.383   1.830  12.759 -1.5043  0.3557  0.3811
    6MPD1    N113958   3.383   2.372  12.950  0.7870 -0.1830  0.2618
    6MPD1    H613959   3.408   2.464  12.913  0.6050 -0.9224 -1.6847
    6MPD1    H713960   3.434   2.355  13.036 -0.4205 -0.6664  0.8780
    7MPD2     C13961   3.725   1.278  13.376  0.4934  1.0679 -0.5102
    7MPD2    C113962   3.648   1.224  13.269 -1.5401  0.0730  0.0998
    7MPD2    C213963   3.685   1.094  13.239  0.0043 -0.6098  0.5609
    7MPD2    C313964   3.775   1.014  13.312  0.8820 -0.3853  0.7607
    7MPD2    C413965   3.833   1.073  13.422  0.1733 -0.1995  0.7998
    7MPD2    C513966   3.810   1.203  13.453  0.4136  1.1832 -0.0042
    7MPD2     H13967   3.632   1.050  13.155 -0.1822 -0.3273  0.5299
    7MPD2    H113968   3.912   1.027  13.480 -0.0817 -1.1762  0.3572
    7MPD2    H213969   3.713   1.380  13.412 -0.0219  1.1633 -0.9487
    7MPD2    H313970   3.864   1.251  13.534  0.7485 -1.6818  1.4618
    7MPD2     N13971   3.822   0.893  13.271  0.2564 -0.0517  0.3618
    7MPD2    H513972   3.907   0.856  13.314 -0.1283 -1.4684 -0.1073
    7MPD2    N113973   3.557   1.301  13.191 -0.9383 -0.1164 -0.8737
    7MPD2    H713974   3.519   1.247  13.114  0.4142 -0.6908 -1.1480
    8TMC3    C113975   3.885   0.746  13.089 -0.7399 -0.1740 -0.1518
    8TMC3    C213976   4.013   0.768  13.133  0.2719 -0.3304  0.7145
    8TMC3    C313977   4.108   0.792  13.036  0.2566  1.1260 -0.6249
    8TMC3    C413978   3.850   0.728  12.956 -0.3080 -1.0001  0.2334
    8TMC3    C513979   3.947   0.770  12.867 -0.3219 -0.1386  0.3434
    8TMC3    C613980   4.075   0.803  12.904  0.0757 -0.9604  0.5868
    8TMC3     C13981   3.776   0.812  13.167 -0.2765 -0.1196 -0.1335
    8TMC3     O13982   3.674   0.825  13.103  0.6415  0.1754 -0.4639
    8TMC3     H13983   4.040   0.773  13.238 -1.7375 -0.7391  1.2424
    8TMC3    H113984   3.747   0.709  12.927 -0.7780  1.1399  0.4479
    8TMC3    H213985   4.156   0.823  12.835 -2.3491 -0.3876 -2.0603
    8TMC3    C713986   3.885   0.865  12.768 -0.8635 -0.7193 -0.2485
    8TMC3    C813987   4.240   0.743  13.071  0.7460 -0.1202 -0.3541
    8TMC3    O113988   3.764   0.863  12.765  0.1764  0.8852  0.0065
    8TMC3    O213989   4.241   0.677  13.173 -0.0014  0.4262 -0.2945
    9TMC3    C113990   3.454   1.695  12.956 -0.6284  0.4244 -0.4764
    9TMC3    C213991   3.520   1.643  12.851  0.3027 -0.1466 -0.0989
    9TMC3    C313992   3.559   1.518  12.847 -0.4315 -0.8100  0.0727
    9TMC3    C413993   3.438   1.622  13.067 -0.5767 -0.0273 -0.0611
    9TMC3    C513994   3.491   1.494  13.068  0.7525  0.0878  0.1978
    9TMC3    C613995   3.554   1.437  12.963  0.0348 -0.2245 -0.4676
    9TMC3     C13996   3.443   1.836  12.961 -0.1630  0.1505 -0.6431
    9TMC3     O13997   3.448   1.887  13.073  0.0328  0.1267 -1.6058
    9TMC3     H13998   3.549   1.711  12.772  0.1615  1.8903  1.5965
    9TMC3    H113999   3.401   1.659  13.162  0.4868  0.8497  0.0145
    9TMC3    H214000   3.610   1.345  12.977  1.1911  0.2401 -1.9531
    9TMC3    C714001   3.531   1.431  13.200 -0.6553  0.4411 -0.2712
    9TMC3    C814002   3.657   1.478  12.743 -0.4062  0.3867  0.3539
    9TMC3    O114003   3.557   1.502  13.299  0.3422  0.9848  0.0110
    9TMC3    O214004   3.698   1.560  12.662  0.3188  0.0483 -0.3437
   10MPD2     C14005   4.027   1.150  12.598  0.1626  0.1064  0.3173
   10MPD2    C114006   3.943   1.085  12.683  0.2604 -0.2642  0.2220
   10MPD2    C214007   3.829   1.149  12.727 -0.0287  0.0353 -0.5137
   10MPD2    C314008   3.803   1.278  12.698 -0.4111 -0.0268  0.4267
   10MPD2    C414009   3.896   1.344  12.613  0.5770 -0.3464  0.2439
   10MPD2    C514010   3.993   1.276  12.551 -0.4400 -0.7676  0.0424
   10MPD2     H14011   3.768   1.098  12.801  0.3227 -0.0148 -0.2617
   10MPD2    H114012   3.893   1.451  12.596 -0.6556 -0.3343  0.4957
   10MPD2    H214013   4.119   1.106  12.559  0.1820  0.4339 -0.0024
   10MPD2    H314014   4.060   1.329  12.484 -1.5982 -1.4160 -1.6321
   10MPD2     N14015   3.695   1.343  12.755 -0.2242 -0.0407  0.0065
   10MPD2    H514016   3.643   1.290  12.825  2.8337  1.5128  3.4299
   10MPD2    N114017   3.972   0.953  12.716  0.4183  0.4951 -0.1635
   10MPD2    H714018   4.063   0.927  12.680 -0.1471 -2.3871  0.4523
   11MPD2     C14019   0.573   0.425  14.151  0.0190  0.4703  0.1780
   11MPD2    C114020   0.518   0.335  14.056  0.0567  0.4445  0.0012
   11MPD2    C214021   0.471   0.375  13.937 -0.1536 -0.6863  0.2672
   11MPD2    C314022   0.465   0.512  13.921  0.6119  0.0603  0.4742
   11MPD2    C414023   0.503   0.604  14.019  0.1601 -0.5753  0.6524
   11MPD2    C514024   0.556   0.561  14.131  0.0356 -0.3070 -0.5316
   11MPD2     H14025   0.431   0.308  13.861  1.3964 -0.8863 -0.3701
   11MPD2    H114026   0.483   0.707  13.992  1.8052 -0.5676 -0.5155
   11MPD2    H214027   0.628   0.396  14.240 -2.0507 -2.5398  0.4518
   11MPD2    H314028   0.598   0.636  14.197  1.2870 -0.5754 -1.0234
   11MPD2     N14029   0.394   0.561  13.808  0.2613 -0.3468 -0.3580
   11MPD2    H514030   0.361   0.657  13.809 -0.9399 -0.7424 -1.5878
   11MPD2    N114031   0.509   0.196  14.086  0.4302  0.4850  0.1960
   11MPD2    H714032   0.458   0.147  14.013 -0.1428  0.4784  0.6053
    1MPD1     C14033   1.967   2.214   0.706 -0.0643  0.0115 -0.6964
    1MPD1    C114034   2.004   2.249   0.833 -0.2075 -0.3920  0.3018
    1MPD1    C214035   2.131   2.200   0.872 -0.1154  0.5060  0.2697
    1MPD1    C314036   2.212   2.118   0.802 -0.1597  0.0259  0.4728
    1MPD1    C414037   2.171   2.088   0.676 -0.2635 -0.6614  0.1097
    1MPD1    C514038   2.053   2.142   0.628 -0.7505  0.4953  0.9876
    1MPD1     H14039   2.156   2.227   0.974  2.0712 -0.5676  0.0107
    1MPD1    H114040   2.224   2.011   0.621  0.2403 -0.3227  0.1151
    1MPD1    H214041   1.868   2.242   0.670  1.2071  2.6670 -2.1139
    1MPD1    H314042   2.009   2.101   0.538  2.2802 -1.0190  0.2053
    1MPD1     N14043   2.338   2.072   0.840 -0.4515 -0.4755  0.5718
    1MPD1    H514044   2.395   2.041   0.762  0.1151  0.0652  0.7833
    1MPD1    N114045   1.933   2.345   0.902  0.1478  0.3200  0.0908
    1MPD1    H614046   1.925   2.330   1.002  0.8824  4.9092  0.8163
    1MPD1    H714047   1.835   2.341   0.874  0.8474 -0.1859 -2.2819
    2MPD1     C14048   3.305   2.208   1.284  0.4634 -0.7260 -0.0449
    2MPD1    C114049   3.297   2.193   1.148 -0.5223  0.3825 -0.4357
    2MPD1    C214050   3.179   2.148   1.099 -0.1803 -0.1355 -0.1790
    2MPD1    C314051   3.071   2.119   1.181 -0.1466  1.3098 -0.6035
    2MPD1    C414052   3.082   2.139   1.315  0.5626 -0.5421  0.2692
    2MPD1    C514053   3.197   2.198   1.363 -0.3533 -0.3882 -0.1786
    2MPD1     H14054   3.169   2.119   0.995  1.2988  2.2570 -1.0123
    2MPD1    H114055   3.011   2.118   1.394  0.3195  1.5082  0.6162
    2MPD1    H214056   3.400   2.249   1.315  0.9934 -0.7128 -1.6686
    2MPD1    H314057   3.200   2.215   1.470 -0.4101 -0.8383 -0.1072
    2MPD1     N14058   2.961   2.055   1.121  0.0718 -0.1818 -0.1412
    2MPD1    H514059   2.983   2.002   1.037 -0.3841 -1.2597  0.4228
    2MPD1    N114060   3.408   2.210   1.059  0.0533  0.3735  0.5393
    2MPD1    H614061   3.464   2.294   1.072  1.6831 -0.6137 -0.1860
    2MPD1    H714062   3.371   2.228   0.966 -0.4434 -2.0465  0.2652
    3TMC3    C114063   2.734   2.003   1.073  0.0352  0.3869 -0.2473
    3TMC3    C214064   2.779   1.925   0.972  0.7135  0.1950  0.0230
    3TMC3    C314065   2.691   1.893   0.876 -0.2710  0.1881 -0.7306
    3TMC3    C414066   2.610   2.064   1.072  0.6053  0.3915 -0.3291
    3TMC3    C514067   2.527   2.023   0.966 -0.9205 -0.1529 -0.7768
    3TMC3    C614068   2.561   1.935   0.872 -0.2963 -0.0838  0.7398
    3TMC3     C14069   2.832   2.060   1.167  0.3418 -0.0651 -0.3630
    3TMC3     O14070   2.792   2.134   1.255 -0.5134  0.8307  0.3968
    3TMC3     H14071   2.863   1.860   0.995 -0.6382 -0.4230  3.1977
    3TMC3    H114072   2.583   2.141   1.143 -2.2287 -1.1656  0.2988
    3TMC3    H214073   2.499   1.906   0.788  0.3113  0.7220  0.0086
    3TMC3    C714074   2.397   2.079   0.964 -0.2867  0.1837 -0.4007
    3TMC3    C814075   2.726   1.809   0.763  0.3813  0.5200  0.4066
    3TMC3    O114076   2.348   2.124   1.065  0.0303 -0.0510 -0.0575
    3TMC3    O214077   2.642   1.788   0.678  0.1062 -0.2986 -0.9313
    4MPD1     C14078   3.074   1.536   0.505 -0.5197 -0.6114  0.6588
    4MPD1    C114079   3.118   1.550   0.638 -0.9411 -0.1929 -0.2889
    4MPD1    C214080   3.049   1.640   0.718  0.3277  0.2523 -0.0717
    4MPD1    C314081   2.925   1.687   0.677 -0.0193  0.3506 -0.0412
    4MPD1    C414082   2.882   1.667   0.549 -0.0755 -0.1049 -0.2571
    4MPD1    C514083   2.957   1.588   0.459 -0.2182  0.6735  0.7723
    4MPD1     H14084   3.079   1.655   0.821  2.5644 -1.6602 -0.4361
    4MPD1    H114085   2.787   1.705   0.512 -1.7231 -2.5331  1.4835
    4MPD1    H214086   3.122   1.474   0.430 -0.8122  0.4121 -0.3770
    4MPD1    H314087   2.919   1.560   0.362  1.1385  3.2356 -0.4982
    4MPD1     N14088   2.860   1.775   0.768  0.6597  0.2662 -0.0926
    4MPD1    H514089   2.912   1.775   0.855 -4.0150 -0.2866  2.6754
    4MPD1    N114090   3.246   1.499   0.669 -0.0140 -0.3947 -0.4919
    4MPD1    H614091   3.246   1.477   0.768  0.5830 -2.7639 -1.0346
    4MPD1    H714092   3.287   1.428   0.608  1.8492  0.5220 -0.2890
    1TCq1    O114093   3.906   1.684  10.711 -0.0013 -0.4745  0.5515
    1TCq1    C114094   3.799   1.728  10.637 -0.1617 -0.4144  1.1808
    1TCq1    O214095   3.767   1.680  10.528  0.2671  0.7440  0.3408
    1TCq1    C214096   3.738   1.852  10.688  0.5062 -0.1066 -0.2022
    1TCq1    C314097   3.698   1.863  10.820 -0.3178  0.1757 -0.2220
    1TCq1    C414098   3.652   1.980  10.864  0.2617 -0.4990  0.2018
    1TCq1    C514099   3.606   2.069  10.771 -0.7090  0.1103 -0.4704
    1TCq1    C614100   3.629   2.053  10.639 -1.0905  0.4464  0.2240
    1TCq1    C714101   3.704   1.944  10.599  0.3156  0.0267 -0.0839
    1TCq1    C814102   3.594   2.142  10.535 -0.2557  0.3780  0.3920
    1TCq1    O414103   3.599   2.106  10.420 -0.5429  0.1941  0.2800
    1TCq1    C914104   3.578   1.971  10.990  0.3345 -0.1539  0.6496
    1TCq1    O514105   3.612   1.871  11.064  0.3417  0.0245  0.2308
    1TCq1    O614106   3.462   2.027  10.982  0.1182 -0.6453  0.0392
    1TCq1    H114107   3.920   1.741  10.789  2.5819 -0.0192 -0.2473
    1TCq1    H214108   3.719   1.782  10.890  1.3743  1.1748  0.4221
    1TCq1    H314109   3.538   2.150  10.796  0.2487  0.2763  1.5773
    1TCq1    H414110   3.718   1.910  10.497  0.5466  2.4260 -0.8703
    2MPD1     C14111   3.534   2.643  10.397  0.8836 -0.7122 -0.0913
    2MPD1    C114112   3.540   2.635  10.535 -0.1403 -0.3902 -0.1969
    2MPD1    C214113   3.545   2.513  10.592  0.5599  0.3686  0.6359
    2MPD1    C314114   3.550   2.395  10.517 -0.5388  0.7098  0.7276
    2MPD1    C414115   3.541   2.409  10.381  0.0046  0.7998 -0.2324
    2MPD1    C514116   3.535   2.530  10.319 -0.5824  0.6356 -0.0340
    2MPD1     H14117   3.546   2.505  10.700 -0.3682 -2.3489  0.4312
    2MPD1    H114118   3.536   2.321  10.319  0.2845  1.1910 -0.8129
    2MPD1    H214119   3.528   2.734  10.338 -0.8579  1.1345  2.9100
    2MPD1    H314120   3.518   2.541  10.212 -1.0831  0.9221  0.0764
    2MPD1     N14121   3.569   2.270  10.584 -0.6414  0.1334 -0.0640
    2MPD1    H514122   3.572   2.275  10.685  1.0688  0.0726 -0.1054
    2MPD1    N114123   3.545   2.753  10.609 -0.7978  0.0310  0.2259
    2MPD1    H614124   3.505   2.832  10.559 -0.6660 -0.5957 -0.8862
    2MPD1    H714125   3.504   2.743  10.702 -0.2525  0.4721  0.5092
    1TMC1    C114126   0.773   0.793   0.757  0.4612  0.4542 -0.2331
    1TMC1    C214127   0.887   0.725   0.739 -0.5649  0.2884  0.0539
    1TMC1    C314128   0.876   0.600   0.689  0.0384  0.0337  1.0377
    1TMC1    C414129   0.651   0.748   0.713  0.0733 -0.1828  0.4191
    1TMC1    C514130   0.652   0.618   0.659  0.7447 -0.1181 -0.3777
    1TMC1    C614131   0.768   0.541   0.639  0.3080  0.2300 -0.4515
    1TMC1     C14132   0.769   0.924   0.829 -0.3776  0.0539 -0.4589
    1TMC1     O14133   0.655   0.941   0.872  0.2687  0.0381 -0.3286
    1TMC1     H14134   0.976   0.766   0.785  0.5591  0.6768 -2.4602
    1TMC1    H114135   0.557   0.801   0.717 -0.6972 -1.6432  1.4422
    1TMC1    H214136   0.773   0.439   0.601  0.0980 -0.8213  2.3282
    1TMC1    C714137   0.544   0.589   0.571  0.4599 -0.1048  0.9430
    1TMC1    C814138   1.001   0.524   0.653  0.5974  0.0857  1.1495
    1TMC1    O114139   0.431   0.585   0.616  0.2461 -0.1372  0.2434
    1TMC1    O214140   1.005   0.444   0.558 -0.1222  0.0107  0.3088
    1TMC1    O314141   0.595   0.525   0.465  0.0953 -0.2914 -0.7118
    1TMC1    H314142   0.683   0.565   0.446 -0.4128  1.8424  1.4191
    1TMC1    O514143   1.104   0.554   0.735  0.6541  0.0296  0.1493
    1TMC1    H514144   1.098   0.608   0.816  0.0636 -0.4492  0.4255
    2MPD1     C14145   0.964   1.244   1.170 -0.3340 -0.3135  0.0253
    2MPD1    C114146   1.061   1.202   1.076  0.5149  0.1916  0.4650
    2MPD1    C214147   1.027   1.114   0.982 -0.2585 -0.7618 -0.8191
    2MPD1    C314148   0.909   1.056   0.975  0.7186 -0.0948  0.7067
    2MPD1    C414149   0.812   1.086   1.070  0.2884  0.6319 -0.8962
    2MPD1    C514150   0.843   1.182   1.162 -0.4747  0.4023 -0.3590
    2MPD1     H14151   1.100   1.088   0.907  1.2108  1.7271 -0.2519
    2MPD1    H114152   0.721   1.027   1.072  1.8274 -1.6969  1.0133
    2MPD1    H214153   0.976   1.328   1.238  0.2891 -0.4935  0.1334
    2MPD1    H314154   0.768   1.212   1.235 -1.4244 -0.9226 -0.7953
    2MPD1     N14155   0.888   0.969   0.867  0.0367 -0.7579  0.0844
    2MPD1    H514156   0.965   0.935   0.810 -0.3537  2.1030 -2.1790
    2MPD1    N114157   1.189   1.263   1.067 -0.1747  0.0397  0.0992
    2MPD1    H614158   1.212   1.274   1.165 -0.5607  2.9739 -0.1571
    2MPD1    H714159   1.265   1.206   1.031 -0.9491  0.6378 -2.4982
    1MPD1     C14160   4.361   1.151  12.314 -0.0528 -0.0769  0.2379
    1MPD1    C114161   4.394   1.279  12.286 -0.9160  1.0752  0.1803
    1MPD1    C214162   4.527   1.318  12.308  0.7551  0.6466  0.3838
    1MPD1    C314163   4.625   1.225  12.339 -0.4629  0.5556  0.1264
    1MPD1    C414164   4.592   1.089  12.338 -0.7618 -0.8184  0.4564
    1MPD1    C514165   4.459   1.058  12.337 -0.1503  0.2087 -0.7302
    1MPD1     H14166   4.567   1.419  12.298  0.1988  0.7575 -0.6996
    1MPD1    H114167   4.659   1.018  12.385 -0.1484 -0.7702 -0.3403
    1MPD1    H214168   4.257   1.123  12.328 -0.5974  2.4330  1.3256
    1MPD1    H314169   4.433   0.960  12.372 -0.6722  0.3385 -0.7611
    1MPD1     N14170   0.022   1.277  12.352 -0.2898 -0.2242  0.1825
    1MPD1    H514171   0.024   1.379  12.346  0.7214 -0.2194  0.6406
    1MPD1    N114172   4.292   1.373  12.265 -0.1132 -0.2771  0.2760
    1MPD1    H614173   4.225   1.327  12.203 -1.5662  0.3348  1.3865
    1MPD1    H714174   4.326   1.449  12.206 -0.0919  0.5049  1.2989
    2MPD1     C14175   0.067   1.694  10.794  0.5372 -0.8066  0.3580
    2MPD1    C114176   0.127   1.743  10.906 -0.2601  0.0811 -0.4538
    2MPD1    C214177   0.261   1.782  10.905 -0.1105 -0.6691  0.0531
    2MPD1    C314178   0.341   1.765  10.796  0.2842 -0.9285  0.2650
    2MPD1    C414179   0.278   1.728  10.680  0.5988 -0.7738  0.3876
    2MPD1    C514180   0.137   1.703  10.671 -0.2235  0.0872 -0.1334
    2MPD1     H14181   0.295   1.815  11.003  0.7352 -0.8109 -0.1946
    2MPD1    H114182   0.332   1.724  10.586 -1.1526  0.6736 -0.6772
    2MPD1    H214183   4.696   1.662  10.799  0.7335 -1.3840  0.7176
    2MPD1    H314184   0.087   1.675  10.578 -3.1112 -0.6621  1.6351
    2MPD1     N14185   0.485   1.779  10.795  0.4490 -0.2373  0.2300
    2MPD1    H514186   0.534   1.778  10.706  0.0785 -1.0468  0.0306
    2MPD1    N114187   0.047   1.768  11.018  0.5152 -0.2991  0.0948
    2MPD1    H614188   4.694   1.713  11.008  0.9064 -0.6671 -1.2569
    2MPD1    H714189   0.088   1.751  11.109  0.9331  1.5615  0.2637
    3MPD1     C14190   1.270   2.313  10.537 -0.1829 -0.1027  0.3103
    3MPD1    C114191   1.324   2.251  10.652  0.5236 -0.0775 -0.2187
    3MPD1    C214192   1.255   2.141  10.709  0.8017 -0.0702  0.0203
    3MPD1    C314193   1.129   2.109  10.652 -0.1159  0.4622 -0.0254
    3MPD1    C414194   1.084   2.171  10.537  0.0129 -0.2863  0.8447
    3MPD1    C514195   1.148   2.276  10.486 -0.0076  0.4141  0.3289
    3MPD1     H14196   1.292   2.093  10.799  1.2474 -1.3956 -0.8661
    3MPD1    H114197   0.995   2.132  10.487 -1.1260  0.1040  2.5775
    3MPD1    H214198   1.311   2.403  10.493 -0.4575  0.3511  0.9725
    3MPD1    H314199   1.111   2.313  10.391 -0.3979 -1.1200 -0.1280
    3MPD1     N14200   1.063   2.003  10.715  0.0574 -0.3144  0.3456
    3MPD1    H514201   1.102   1.975  10.804 -1.7167 -0.3677  1.1012
    3MPD1    N114202   1.458   2.277  10.682 -0.8076  0.7845  0.1568
    3MPD1    H614203   1.501   2.366  10.657 -1.1294  0.7784 -0.4369
    3MPD1    H714204   1.468   2.263  10.782 -0.2043  0.5868  0.0653
    4MPD2     C14205   0.488   1.836  12.162  0.4942  0.3478  0.2129
    4MPD2    C114206   0.544   1.709  12.190  0.1515 -0.4897 -0.1134
    4MPD2    C214207   0.658   1.675  12.120  0.5258 -0.0096 -0.1400
    4MPD2    C314208   0.726   1.770  12.048 -0.3264 -0.4836  0.2756
    4MPD2    C414209   0.679   1.893  12.034 -0.4928  0.3704  0.0309
    4MPD2    C514210   0.553   1.924  12.076 -0.4673  0.1837  0.4455
    4MPD2     H14211   0.683   1.569  12.129 -1.4264 -0.4468  0.0947
    4MPD2    H114212   0.734   1.964  11.974  0.5659 -0.8009 -0.3836
    4MPD2    H214213   0.392   1.861  12.207  1.9730  0.5900  3.2087
    4MPD2    H314214   0.507   2.019  12.049 -0.5060  0.4831  1.5581
    4MPD2     N14215   0.855   1.743  11.989 -0.1953  0.3945 -0.3117
    4MPD2    H514216   0.894   1.817  11.932  2.2711 -1.1153 -0.5774
    4MPD2    N114217   0.489   1.609  12.268  0.4626  0.6179 -0.4488
    4MPD2    H714218   0.546   1.525  12.270  0.0445  0.3195 -1.1663
    5TMC3    C114219   0.363   1.491  12.427 -0.1465 -0.1533  0.4397
    5TMC3    C214220   0.250   1.427  12.403 -0.1051 -0.0170  0.6381
    5TMC3    C314221   0.256   1.287  12.371 -0.2619  0.1158  0.6296
    5TMC3    C414222   0.477   1.419  12.434  0.0286  0.4129  0.3654
    5TMC3    C514223   0.494   1.289  12.394 -0.0769  0.0132 -0.1806
    5TMC3    C614224   0.380   1.221  12.361 -0.3850  0.0811  0.2978
    5TMC3     C14225   0.379   1.615  12.351 -0.6160  0.2935 -0.1837
    5TMC3     O14226   0.280   1.689  12.354  0.0994 -0.0374  0.2927
    5TMC3     H14227   0.154   1.477  12.404  1.0968  2.2501  2.5327
    5TMC3    H114228   0.569   1.475  12.452 -1.3224  2.0846  2.0136
    5TMC3    H214229   0.390   1.119  12.327  2.7078  0.2857  0.6066
    5TMC3    C714230   0.608   1.266  12.315 -0.3213 -0.3713  0.1295
    5TMC3    C814231   0.137   1.206  12.348 -0.2117 -0.3632  0.9084
    5TMC3    O114232   0.678   1.363  12.297  0.4430 -0.2601 -0.0689
    5TMC3    O214233   0.147   1.083  12.367  0.0239 -0.2977  0.0425
    6TMC3    C114234   0.699   1.775  10.879  0.0644 -0.4985 -0.2731
    6TMC3    C214235   0.752   1.841  10.773 -0.1919  0.1233  0.1308
    6TMC3    C314236   0.893   1.841  10.767  0.6611  0.2538 -0.0667
    6TMC3    C414237   0.771   1.714  10.981 -0.4531  0.1817  0.3309
    6TMC3    C514238   0.908   1.731  10.968 -0.2167 -0.4348  0.5268
    6TMC3    C614239   0.974   1.786  10.857  0.0835  0.8358 -0.6093
    6TMC3     C14240   0.560   1.789  10.913  0.4833  0.5552  0.1900
    6TMC3     O14241   0.522   1.772  11.027  0.1757 -0.2380 -0.7354
    6TMC3     H14242   0.690   1.878  10.692 -0.4973 -0.8931 -0.1021
    6TMC3    H114243   0.719   1.687  11.073  0.9648 -0.3471  0.9850
    6TMC3    H214244   1.081   1.784  10.839  0.5777 -1.2769  2.6450
    6TMC3    C714245   0.985   1.703  11.089  0.1010  0.0976  0.6889
    6TMC3    C814246   0.955   1.927  10.664  0.9885 -0.3930  0.4040
    6TMC3    O114247   0.911   1.687  11.185  0.5046  0.1166  0.2003
    6TMC3    O214248   0.909   1.933  10.554  0.5000  0.2926 -0.4029
    7MPD2     C14249   0.940   1.031  12.011 -0.7409  0.3289 -0.0108
    7MPD2    C114250   0.911   1.162  12.021 -0.7620  0.3240  0.0651
    7MPD2    C214251   0.804   1.204  12.101  0.1812 -0.2617  0.0608
    7MPD2    C314252   0.735   1.113  12.178 -0.4601 -0.8110  0.4295
    7MPD2    C414253   0.772   0.974  12.165 -0.1346 -0.1531 -0.1983
    7MPD2    C514254   0.868   0.936  12.076 -0.1546 -0.4677 -0.0510
    7MPD2     H14255   0.777   1.309  12.109 -1.3578 -0.7453  1.4062
    7MPD2    H114256   0.721   0.894  12.217 -0.9077 -0.6033 -1.6732
    7MPD2    H214257   1.032   0.993  11.968  0.8354 -0.6685  4.3003
    7MPD2    H314258   0.891   0.831  12.063  1.3429 -0.3383  1.4506
    7MPD2     N14259   0.629   1.139  12.264  0.3660  0.4907  0.2674
    7MPD2    H514260   0.573   1.063  12.303 -0.7370  0.1766 -1.9441
    7MPD2    N114261   0.990   1.273  11.969  0.5153  0.7389  0.8663
    7MPD2    H714262   0.957   1.364  12.000 -0.9429 -0.0721  1.7003
    8TMC3    C114263   1.153   1.406  11.881 -0.2192 -0.0983  0.1245
    8TMC3    C214264   1.168   1.445  11.753 -0.1045 -0.4571  0.3519
    8TMC3    C314265   1.109   1.564  11.721 -0.2368 -0.1156  0.2947
    8TMC3    C414266   1.106   1.490  11.975 -0.5739 -1.0674 -0.1007
    8TMC3    C514267   1.045   1.603  11.941  0.0176  0.3464  0.2267
    8TMC3    C614268   1.043   1.647  11.810  0.1985  0.0271 -0.3367
    8TMC3     C14269   1.105   1.273  11.894 -0.8083 -0.8084  0.0900
    8TMC3     O14270   1.150   1.182  11.826 -0.1772  0.8174 -0.4325
    8TMC3     H14271   1.203   1.385  11.670  0.0848  4.4101 -3.0048
    8TMC3    H114272   1.113   1.460  12.079 -0.3551  0.7812  0.4132
    8TMC3    H214273   1.005   1.741  11.775 -2.7872 -0.0128  2.8330
    8TMC3    C714274   0.919   1.623  12.004  0.1697 -0.6684 -0.5978
    8TMC3    C814275   1.114   1.608  11.585 -0.4250 -0.3724  0.6634
    8TMC3    O114276   0.894   1.527  12.074 -0.7756  0.8562  0.4368
    8TMC3    O214277   1.008   1.656  11.540  0.2582 -0.2781  0.6994
    9MPD2     C14278   1.401   1.641  11.370 -0.0645 -0.6701 -0.1958
    9MPD2    C114279   1.273   1.613  11.398 -0.3807  0.5045 -0.5510
    9MPD2    C214280   1.175   1.618  11.299  0.1503 -1.4641 -0.5639
    9MPD2    C314281   1.210   1.666  11.174 -0.4965 -0.4902 -0.2833
    9MPD2    C414282   1.339   1.703  11.152 -0.2686 -0.0059  0.2350
    9MPD2    C514283   1.438   1.671  11.245  0.6514  0.0216  0.0435
    9MPD2     H14284   1.075   1.587  11.327  0.2342 -1.7050 -0.5277
    9MPD2    H114285   1.370   1.742  11.056 -0.7409  1.4716  0.6839
    9MPD2    H214286   1.484   1.641  11.439  1.3726 -1.0417 -1.9067
    9MPD2    H314287   1.541   1.697  11.225  0.6833  0.5081  0.8298
    9MPD2     N14288   1.121   1.681  11.069 -0.6819  0.7389 -0.1359
    9MPD2    H514289   1.159   1.698  10.977 -1.7301 -3.7957 -1.3987
    9MPD2    N114290   1.242   1.594  11.533  0.1741  0.5281 -0.1988
    9MPD2    H714291   1.318   1.579  11.599  0.7845 -1.1757 -1.2767
    1MPD1     C14292   1.672   1.133  16.908 -0.3414 -0.3357  0.0554
    1MPD1    C114293   1.689   1.140  16.773 -0.0363 -0.1478  0.2212
    1MPD1    C214294   1.599   1.064  16.696  0.3063 -0.2221 -0.2290
    1MPD1    C314295   1.515   0.970  16.759 -0.4458  0.7310 -0.1042
    1MPD1    C414296   1.518   0.952  16.896 -0.0385 -0.3005  0.1406
    1MPD1    C514297   1.588   1.042  16.963 -0.4263 -0.0806  0.6438
    1MPD1     H14298   1.593   1.072  16.588  1.1119  1.6605 -0.1270
    1MPD1    H114299   1.451   0.878  16.939  0.1784  0.5157  1.8408
    1MPD1    H214300   1.724   1.192  16.982 -2.1265 -1.7007  2.3960
    1MPD1    H314301   1.580   1.042  17.072  2.0067 -1.9001  0.8179
    1MPD1     N14302   1.421   0.887  16.698 -0.4752 -0.7955  0.0452
    1MPD1    H514303   1.358   0.841  16.763 -2.9805  1.5965 -0.7106
    1MPD1    N114304   1.755   1.250  16.715 -0.5729  0.3026  0.2604
    1MPD1    H614305   1.791   1.228  16.623  0.9664 -1.8498  1.3517
    1MPD1    H714306   1.832   1.276  16.777  1.6043 -1.9870 -1.4841
    2TMC2    C114307   1.159   0.666  16.374  0.9323  0.5491 -0.8622
    2TMC2    C214308   1.127   0.568  16.470 -0.2131 -0.0958 -0.1550
    2TMC2    C314309   1.185   0.581  16.593  0.0050 -0.7715 -0.5494
    2TMC2    C414310   1.244   0.768  16.406 -0.3238  0.4230 -0.3338
    2TMC2    C514311   1.286   0.786  16.537 -0.4334 -0.3223 -0.6162
    2TMC2    C614312   1.268   0.682  16.626  0.9751 -0.1641 -0.1629
    2TMC2     C14313   1.123   0.639  16.233  0.0644 -0.3957 -0.5104
    2TMC2     O14314   1.093   0.519  16.215  0.1014 -0.5167  0.7051
    2TMC2     H14315   1.051   0.495  16.447  0.6954 -1.0429 -0.1498
    2TMC2    H114316   1.268   0.845  16.333  0.6700  1.6753  1.3329
    2TMC2    H214317   1.312   0.678  16.724 -0.5893 -3.3647  0.4107
    2TMC2    C714318   1.393   0.883  16.558 -0.3914 -0.9090 -0.4213
    2TMC2    C814319   1.157   0.489  16.699  0.3210 -0.7287 -0.9104
    2TMC2    O114320   1.425   0.951  16.471  0.0306  0.4445 -0.2057
    2TMC2    O214321   1.241   0.433  16.764 -1.0319 -0.4920 -0.8638
    2TMC2    O514322   1.032   0.451  16.679  0.2525  0.1709  0.4287
    2TMC2    H514323   0.971   0.518  16.640 -0.6777  0.1846  1.9169
    3MPD1     C14324   0.872   0.764  15.803 -0.3081 -0.1127  0.0470
    3MPD1    C114325   0.889   0.880  15.874  0.1901 -0.1905 -0.5904
    3MPD1    C214326   0.959   0.866  15.994  0.5475  0.1871  0.2515
    3MPD1    C314327   1.022   0.750  16.035  0.2546  0.2712 -0.3626
    3MPD1    C414328   1.007   0.640  15.959  0.1789  0.8105 -0.0757
    3MPD1    C514329   0.930   0.645  15.842  0.7438 -0.3023 -0.1748
    3MPD1     H14330   0.960   0.950  16.063  1.2498 -0.2782  0.8069
    3MPD1    H114331   1.058   0.550  15.992 -1.1888  0.7928  1.9367
    3MPD1    H214332   0.814   0.759  15.711  0.8383  0.4998 -0.7079
    3MPD1    H314333   0.913   0.557  15.781 -1.6958  1.1731 -1.6267
    3MPD1     N14334   1.088   0.750  16.163  0.2884  0.5618  0.6067
    3MPD1    H514335   1.096   0.840  16.209  1.0545  1.0858 -0.5483
    3MPD1    N114336   0.817   0.993  15.845  0.7477 -0.6108  0.5332
    3MPD1    H614337   0.804   1.015  15.746  2.1937 -0.8730  0.2912
    3MPD1    H714338   0.856   1.076  15.889 -1.4004  0.6586  0.0650
    1TMC1    C114339   2.980   4.642  12.805 -0.2607 -0.4314 -0.3791
    1TMC1    C214340   2.846   4.665  12.817 -0.2609 -0.0932  0.0176
    1TMC1    C314341   2.757   4.572  12.769  0.0058 -0.0688  0.0940
    1TMC1    C414342   3.031   4.544  12.723  0.4002  0.1689  0.5412
    1TMC1    C514343   2.943   4.452  12.684 -0.1643 -0.2330 -0.1792
    1TMC1    C614344   2.807   4.461  12.704 -0.2308 -0.5766 -0.0448
    1TMC1     C14345   3.076   0.005  12.849  0.4335 -0.2778  0.3535
    1TMC1     O14346   3.038   0.121  12.850  0.6086 -0.2345  0.7678
    1TMC1     H14347   2.813   0.014  12.881 -1.8382  1.6675 -3.0087
    1TMC1    H114348   3.135   4.536  12.692 -0.1592 -0.5100 -1.1216
    1TMC1    H214349   2.746   4.382  12.662 -0.5956 -0.9292  1.1352
    1TMC1    C714350   2.991   4.348  12.605 -0.3387  0.1900  0.1591
    1TMC1    C814351   2.651   4.557  12.869  0.9647  0.6303 -0.1102
    1TMC1    O114352   2.944   4.237  12.603 -0.2099 -0.1461 -0.4154
    1TMC1    O214353   2.647   4.604  12.983 -1.0308  0.6800 -0.0395
    1TMC1    O314354   3.030   4.408  12.490 -0.2267  0.0922 -0.3171
    1TMC1    H314355   3.012   4.505  12.491  3.3201  0.7652 -1.1536
    1TMC1    O514356   2.567   4.463  12.818  0.4525  0.5062  0.2111
    1TMC1    H514357   2.571   4.463  12.720 -1.0071 -3.0962  0.1549
    2MPD2     C14358   3.325   0.146  12.927 -0.2385  0.0569  0.0234
    2MPD2    C114359   3.302   0.013  12.954  0.2596 -0.6005  0.5351
    2MPD2    C214360   3.396   4.675  13.020 -0.1695 -0.3029  0.4833
    2MPD2    C314361   3.517   4.729  13.051 -0.1659 -0.7042  0.0062
    2MPD2    C414362   3.545   0.132  13.028  0.4596  0.1378  0.9849
    2MPD2    C514363   3.444   0.205  12.967 -0.5855  0.0348  0.3748
    2MPD2     H14364   3.380   4.568  13.029  1.0063 -0.4308  1.0881
    2MPD2    H114365   3.638   0.179  13.057  1.0162 -0.7346  0.5944
    2MPD2    H214366   3.262   0.201  12.858 -0.6288 -0.1322  0.2321
    2MPD2    H314367   3.448   0.311  12.943 -1.5038  0.0819  0.4281
    2MPD2     N14368   3.621   4.650  13.103  0.1335 -0.5040 -0.2735
    2MPD2    H514369   3.610   4.553  13.128 -1.4888 -0.7943 -2.1507
    2MPD2    N114370   3.193   4.675  12.898  0.3191  0.5735  0.2468
    2MPD2    H714371   3.190   4.574  12.903 -2.4003  0.7495  1.8608
    3TCq1    O114372   4.211   4.609  13.275  0.0331 -0.5042 -0.8937
    3TCq1    C114373   4.198   4.543  13.163  0.2882  0.5740  0.9051
    3TCq1    O214374   4.291   4.481  13.112 -0.0083 -0.4555  0.2876
    3TCq1    C214375   4.060   4.508  13.174 -0.3435 -0.3774  0.2009
    3TCq1    C314376   4.020   4.370  13.177  0.0557  0.4136  0.3529
    3TCq1    C414377   3.891   4.341  13.142 -0.3848 -0.5337  0.0913
    3TCq1    C514378   3.802   4.443  13.120  0.0380 -0.7836 -0.3234
    3TCq1    C614379   3.849   4.571  13.126 -0.5761  0.5951  0.0216
    3TCq1    C714380   3.976   4.613  13.159 -0.0781 -0.1858  0.1009
    3TCq1    C814381   3.757   4.684  13.108  0.0191  0.0146 -0.8603
    3TCq1    O414382   3.815   0.055  13.080  0.0708  0.3673  0.5434
    3TCq1    C914383   3.849   4.206  13.132 -0.2732  0.3054 -1.0456
    3TCq1    O514384   3.943   4.127  13.138  0.4076 -0.0073  0.0529
    3TCq1    O614385   3.731   4.191  13.158 -0.0490 -0.0210  0.2396
    3TCq1    H114386   4.125   4.616  13.322  1.3175  2.0968  1.0712
    3TCq1    H214387   4.096   4.295  13.191  1.5289  2.1963  2.0055
    3TCq1    H314388   3.701   4.414  13.097  0.4006 -3.4079  1.3592
    3TCq1    H414389   4.017   4.713  13.162  0.1710 -0.2065 -2.6126
    1MPD2     C14390   3.523   1.110  15.231  0.5525  0.8505 -0.1490
    1MPD2    C114391   3.414   1.030  15.219 -0.6058  0.1562  0.8223
    1MPD2    C214392   3.434   0.894  15.207  0.1607  0.7183 -0.3918
    1MPD2    C314393   3.560   0.842  15.226  0.8192  0.4297 -0.2785
    1MPD2    C414394   3.667   0.925  15.251 -0.0357 -0.7410 -0.4368
    1MPD2    C514395   3.647   1.062  15.249  0.0839  0.5586  0.4353
    1MPD2     H14396   3.349   0.830  15.184 -0.0826  0.2426  1.8698
    1MPD2    H114397   3.769   0.889  15.252  0.4986  0.7819 -0.0972
    1MPD2    H214398   3.509   1.217  15.219  0.3664  0.9847  1.2660
    1MPD2    H314399   3.730   1.131  15.256  0.0242  0.4681  1.9132
    1MPD2     N14400   3.584   0.702  15.214 -0.2367  1.3012  0.0928
    1MPD2    H514401   3.670   0.665  15.253 -2.1730 -3.3784 -0.0724
    1MPD2    N114402   3.287   1.088  15.206 -0.6588  0.4917  0.8059
    1MPD2    H714403   3.282   1.190  15.207 -0.3398  0.5041  1.1638
    2TMC3    C114404   3.055   1.107  15.160 -0.5566  0.4852 -0.4266
    2TMC3    C214405   2.937   1.033  15.197  0.7393  0.3541 -0.5948
    2TMC3    C314406   2.831   1.012  15.109 -0.0594 -0.2151 -0.1808
    2TMC3    C414407   3.059   1.165  15.038 -0.9516 -0.4041 -0.3384
    2TMC3    C514408   2.951   1.147  14.952  0.2154  0.7954  0.5349
    2TMC3    C614409   2.840   1.074  14.987  0.3188 -0.0144  0.2152
    2TMC3     C14410   3.167   1.028  15.199 -0.3417  0.4694  0.2295
    2TMC3     O14411   3.135   0.916  15.222  0.3689  0.0629 -0.1365
    2TMC3     H14412   2.925   0.985  15.293  1.0520  2.1694  0.3452
    2TMC3    H114413   3.154   1.192  14.994 -1.0166  0.1593 -0.1406
    2TMC3    H214414   2.770   1.044  14.910 -1.1146 -1.0893  1.9482
    2TMC3    C714415   2.978   1.165  14.809 -0.3869  0.3288  0.2925
    2TMC3    C814416   2.781   0.877  15.114 -0.0024  0.5403  0.1416
    2TMC3    O114417   2.908   1.096  14.736  0.1664 -0.4051  0.4242
    2TMC3    O214418   2.671   0.849  15.075 -0.4006 -0.6097 -0.3478
    3TCq1    O114419   3.609   1.860  14.031  0.4271 -0.2817 -0.0925
    3TCq1    C114420   3.632   1.919  14.146 -0.0441 -0.2933 -0.4115
    3TCq1    O214421   3.680   2.029  14.166 -0.0750 -0.2636  0.5913
    3TCq1    C214422   3.612   1.829  14.261 -0.5733 -0.6466  0.0936
    3TCq1    C314423   3.691   1.856  14.366 -0.8164 -0.5779 -0.0119
    3TCq1    C414424   3.661   1.787  14.481 -0.1434  0.5199 -0.3998
    3TCq1    C514425   3.554   1.696  14.486 -0.5747 -0.2225  0.3062
    3TCq1    C614426   3.468   1.684  14.380  0.6002  0.0984 -0.1533
    3TCq1    C714427   3.500   1.747  14.267 -0.1175 -0.7809 -0.1525
    3TCq1    C814428   3.371   1.577  14.363 -0.1484  0.0022  0.2721
    3TCq1    O414429   3.324   1.558  14.250  0.3513  0.4933 -0.8292
    3TCq1    C914430   3.748   1.811  14.597 -0.7151 -0.2595  0.0930
    3TCq1    O514431   3.828   1.905  14.570  0.1807  0.0120  0.2139
    3TCq1    O614432   3.737   1.727  14.688 -0.3350  0.3557  0.3259
    3TCq1    H114433   3.585   1.766  14.024  0.9429 -0.4775  0.9182
    3TCq1    H214434   3.777   1.922  14.360 -0.6831 -0.8971 -1.7171
    3TCq1    H314435   3.540   1.650  14.583 -0.9851 -2.1481 -0.6531
    3TCq1    H414436   3.422   1.748  14.192  0.3315 -1.1068 -0.6212
    4MPD2     C14437   3.211   1.341  14.402  0.0126  0.2082 -0.2187
    4MPD2    C114438   3.259   1.416  14.507 -0.2551 -0.5363  0.6252
    4MPD2    C214439   3.209   1.390  14.632 -0.1306 -0.6316 -0.3241
    4MPD2    C314440   3.128   1.281  14.654 -0.2523 -0.2301  0.1748
    4MPD2    C414441   3.098   1.195  14.544  0.0254 -0.0066 -0.0044
    4MPD2    C514442   3.136   1.231  14.416 -0.1949  0.3256  0.2133
    4MPD2     H14443   3.241   1.456  14.712 -0.9684  1.0693 -1.4009
    4MPD2    H114444   3.048   1.100  14.559  0.4700 -0.2143  0.1835
    4MPD2    H214445   3.230   1.362  14.297 -1.7652 -1.0608 -0.7911
    4MPD2    H314446   3.098   1.174  14.332 -0.3197 -0.0411  0.5164
    4MPD2     N14447   3.073   1.262  14.780 -0.2637 -0.7080 -0.7861
    4MPD2    H514448   3.098   1.317  14.862  2.3741 -3.0559  0.0100
    4MPD2    N114449   3.340   1.523  14.485  0.1146  0.5761  0.1481
    4MPD2    H714450   3.365   1.580  14.565 -0.4770  0.8296  0.1568
    5TMC2    C114451   3.366   0.311  15.183  0.0760  0.9590  0.2974
    5TMC2    C214452   3.402   0.275  15.306  0.7617 -0.2953  0.6592
    5TMC2    C314453   3.516   0.334  15.356  0.3812  0.0962 -0.6825
    5TMC2    C414454   3.433   0.412  15.110 -0.5398  0.2432 -0.7547
    5TMC2    C514455   3.530   0.478  15.174 -0.1107  0.2104  0.7189
    5TMC2    C614456   3.574   0.443  15.301  0.2623 -0.2139  0.3966
    5TMC2     C14457   3.228   0.311  15.170  0.0036 -0.6776 -0.0825
    5TMC2     O14458   3.169   0.217  15.219  0.5750 -0.3842  0.6054
    5TMC2     H14459   3.355   0.191  15.357 -0.0160  0.0667  0.5299
    5TMC2    H114460   3.413   0.422  15.004  1.8592  1.0085 -1.1406
    5TMC2    H214461   3.671   0.477  15.337 -0.1207  0.9240  0.3468
    5TMC2    C714462   3.488   0.612  15.164  0.4540 -0.1705  0.1165
    5TMC2    C814463   3.539   0.328  15.497 -0.0428 -0.1800  0.7446
    5TMC2    O114464   3.384   0.631  15.097  0.1736 -0.1171  0.3583
    5TMC2    O214465   3.651   0.324  15.539  0.0364  0.3301 -0.3323
    5TMC2    O514466   3.430   0.366  15.566 -0.2296  0.1186  0.1533
    5TMC2    H514467   3.355   0.412  15.523 -1.1478 -0.6212  0.9685
    6MPD2     C14468   2.801   0.580  15.122  0.2143  0.0051  0.1735
    6MPD2    C114469   2.904   0.664  15.133  0.9241 -0.6863  0.1347
    6MPD2    C214470   3.028   0.610  15.145  0.0266 -0.0489  0.2129
    6MPD2    C314471   3.058   0.477  15.140 -0.3671  0.6585  0.1000
    6MPD2    C414472   2.949   0.389  15.132 -0.1657 -0.2732 -0.0324
    6MPD2    C514473   2.823   0.444  15.120  0.4657 -0.3080 -0.6290
    6MPD2     H14474   3.116   0.672  15.152 -0.2908  0.2523  1.4191
    6MPD2    H114475   2.961   0.283  15.115 -2.2701 -0.8418  2.1131
    6MPD2    H214476   2.702   0.621  15.107 -0.1806 -1.2162 -0.6090
    6MPD2    H314477   2.736   0.380  15.131 -0.2864  1.0425  1.2848
    6MPD2     N14478   3.194   0.440  15.141  0.5809  0.2642  0.0899
    6MPD2    H514479   3.270   0.507  15.131 -0.2750  1.6529  2.8208
    6MPD2    N114480   2.892   0.803  15.130  0.2716  0.6812  0.0347
    6MPD2    H714481   2.972   0.864  15.142  1.0100  0.0292 -1.6340
  945NH3     N114482   4.459   2.050  11.554 -0.4818 -0.0879  0.1543
  945NH3     H214483   4.504   2.138  11.578 -1.8231  0.4677  0.6190
  945NH3     H314484   4.421   2.019  11.643  1.0011 -0.2704  0.7190
  945NH3     H414485   4.376   2.076  11.502 -1.7511 -1.3602  1.5400
  946SOD     NA14486   4.603   3.311  16.963  0.1100  0.4654  0.0042
  947SOD     NA14487   0.447   0.184  13.293  0.0259  0.2090 -0.4786
  948SOD     NA14488   3.175   0.280   6.830  0.3863  0.1171 -0.0281
  949SOD     NA14489   4.333   2.007  13.102  0.0402  0.0786 -0.2010
  950SOD     NA14490   3.489   1.730  11.137 -0.1014 -0.2672 -0.6970
  951SOD     NA14491   1.340   2.424   4.542 -0.4387  0.6859 -0.4566
  952SOD     NA14492   2.582   3.272  16.831 -0.4871  0.0568  0.2655
  953SOD     NA14493   0.595   1.520  11.387 -0.0294  0.2177 -0.2430
  954SOL     OW14494   4.038   2.933   2.564 -0.1777 -0.6089 -0.0703
  954SOL    HW114495   4.027   3.011   2.510 -1.7278 -0.5711  0.3124
  954SOL    HW214496   4.087   2.872   2.508  0.6260  0.0954 -0.1375
  955SOL     OW14497   3.493   4.331   2.761 -0.7371  0.0490 -0.2472
  955SOL    HW114498   3.408   4.314   2.802 -1.3193  0.8139 -1.1461
  955SOL    HW214499   3.481   4.266   2.691  2.5594  1.3922 -2.0770
  956SOL     OW14500   4.339   1.287   6.626 -0.0827 -0.1719 -0.4340
  956SOL    HW114501   4.259   1.260   6.580 -0.4715 -0.1364  0.2275
  956SOL    HW214502   4.370   1.212   6.675 -0.8063  0.9741  1.7463
  957SOL     OW14503   2.900   0.792   5.690 -0.3177 -0.1100 -0.4384
  957SOL    HW114504   2.976   0.749   5.731 -0.8899 -3.6693 -3.1434
  957SOL    HW214505   2.905   0.875   5.737 -0.9932  0.8436 -2.0747
  958SOL     OW14506   1.846   4.161   1.822 -0.2023  0.0051 -0.5121
  958SOL    HW114507   1.755   4.168   1.848  0.2076 -2.1171  1.4523
  958SOL    HW214508   1.851   4.232   1.757 -1.6196  0.4600 -0.1064
  959SOL     OW14509   3.992   0.980   6.221  0.0627  0.0531  0.2050
  959SOL    HW114510   3.931   1.054   6.215  1.0073  0.9202  1.3539
  959SOL    HW214511   3.930   0.907   6.215  0.9504 -0.5281 -1.8831
  960SOL     OW14512   0.088   2.104   6.369  0.0629 -0.6474  0.6766
  960SOL    HW114513   0.162   2.101   6.430 -0.4142 -1.9130  1.2057
  960SOL    HW214514   0.119   2.058   6.291 -0.7303  1.3592 -0.8263
  961SOL     OW14515   1.527   0.272   3.370  0.1399 -0.0300 -0.1924
  961SOL    HW114516   1.552   0.285   3.278 -2.2882  0.3745 -0.8110
  961SOL    HW214517   1.575   0.345   3.410  3.0419 -1.1057 -1.7031
  962SOL     OW14518   0.943   0.584   4.195 -0.1215  0.1559  0.5284
  962SOL    HW114519   0.912   0.573   4.105  1.0004  0.6531  0.0713
  962SOL    HW214520   0.911   0.501   4.229  0.4093  0.0198  0.7047
  963SOL     OW14521   0.450   3.190  10.876 -0.3962 -0.2969  0.2196
  963SOL    HW114522   0.404   3.273  10.890  2.1385  1.1665  0.0417
  963SOL    HW214523   0.539   3.217  10.901  0.1865 -1.4196 -0.6807
  964SOL     OW14524   0.910   2.320  10.143  0.4875  0.1460 -0.7454
  964SOL    HW114525   0.979   2.383  10.165  0.0646  1.1395 -2.2694
  964SOL    HW214526   0.889   2.344  10.053 -0.3729  1.9775 -0.0601
  965SOL     OW14527   2.045   2.753   8.377  0.2582  0.3488  0.1619
  965SOL    HW114528   2.071   2.681   8.435 -0.7755  0.8973  1.3090
  965SOL    HW214529   2.130   2.784   8.347 -0.1124  0.8154 -0.3948
  966SOL     OW14530   0.425   4.164   7.131 -0.5158  0.8931 -0.2747
  966SOL    HW114531   0.350   4.114   7.098 -1.9319  2.0521  1.1544
  966SOL    HW214532   0.401   4.257   7.125  0.1114  1.1455  1.2152
  967SOL     OW14533   2.177   0.149   1.952 -0.1689  0.5716 -0.8331
  967SOL    HW114534   2.092   0.192   1.943  0.3419  1.2189 -2.5830
  967SOL    HW214535   2.234   0.181   1.882 -2.3840  2.3131 -1.7909
  968SOL     OW14536   0.691   3.190  16.927 -0.7901 -0.5551 -0.6266
  968SOL    HW114537   0.748   3.173  16.852  1.6444 -0.7387  1.2689
  968SOL    HW214538   0.756   3.201  16.996 -0.0624  0.0412 -1.4074
  969SOL     OW14539   1.953   2.743   2.602 -0.5121 -0.1740  0.6104
  969SOL    HW114540   1.904   2.756   2.683 -2.3703  0.0495 -0.5714
  969SOL    HW214541   1.893   2.703   2.539 -0.1474 -1.0094  0.7835
  970SOL     OW14542   2.752   4.434  11.238  0.2379 -0.1422 -0.2622
  970SOL    HW114543   2.748   4.487  11.318  0.9361 -0.4932  0.0016
  970SOL    HW214544   2.834   4.387  11.250 -0.2136 -0.9780 -0.4587
  971SOL     OW14545   3.624   2.182   4.787  0.0351 -0.6246 -0.5332
  971SOL    HW114546   3.552   2.214   4.733 -0.6270 -0.0466  0.6995
  971SOL    HW214547   3.681   2.254   4.813  0.9083 -0.9898 -1.3940
  972SOL     OW14548   1.460   0.719  11.660 -0.3172 -0.3974 -0.3611
  972SOL    HW114549   1.405   0.662  11.713 -0.4238 -0.1003 -0.1479
  972SOL    HW214550   1.391   0.779  11.629  1.3358  0.5487 -2.2131
  973SOL     OW14551   2.240   1.499  16.290 -0.4713 -0.3660 -0.5805
  973SOL    HW114552   2.276   1.522  16.204 -1.5658  0.2773 -0.8606
  973SOL    HW214553   2.313   1.474  16.347  0.9439  1.1161 -1.7257
  974SOL     OW14554   1.201   0.845  16.865 -0.0376  0.0871  1.1320
  974SOL    HW114555   1.124   0.878  16.818 -0.1800  1.0166  2.0209
  974SOL    HW214556   1.165   0.809  16.946  0.0281 -2.6031 -0.0312
  975SOL     OW14557   0.273   1.504   8.179 -0.1744 -0.5771  0.5521
  975SOL    HW114558   0.343   1.530   8.119 -1.2054  1.6794  0.3362
  975SOL    HW214559   0.284   1.409   8.175  0.5876 -0.4666  0.1143
  976SOL     OW14560   0.568   4.116  12.014  0.2990 -0.4902  0.1181
  976SOL    HW114561   0.594   4.167  12.091  0.4473  1.4308 -1.1965
  976SOL    HW214562   0.498   4.062  12.051  0.0768  1.3505  2.3951
  977SOL     OW14563   2.857   2.605  13.119 -0.3594 -0.2633 -0.5304
  977SOL    HW114564   2.826   2.525  13.161  1.0120  0.1425  1.2263
  977SOL    HW214565   2.775   2.650  13.100 -0.2581  0.0744 -0.1675
  978SOL     OW14566   4.221   2.516   1.636  0.0629 -0.0598  0.4040
  978SOL    HW114567   4.140   2.466   1.627  0.7573 -1.1854  0.3770
  978SOL    HW214568   4.262   2.496   1.552  0.2316 -0.4993  0.5856
  979SOL     OW14569   3.242   4.062  13.205  0.2610 -0.1687 -0.0889
  979SOL    HW114570   3.300   4.038  13.278 -1.7015 -0.0481  1.4976
  979SOL    HW214571   3.174   3.996  13.197 -0.8427  1.0444 -0.5732
  980SOL     OW14572   2.222   0.730  15.264  0.1336  0.2373  0.4692
  980SOL    HW114573   2.213   0.759  15.355  3.0474  1.1483  0.4723
  980SOL    HW214574   2.278   0.797  15.224 -0.5798 -1.6315 -3.6521
  981SOL     OW14575   4.542   0.996   1.604 -0.6596 -0.3062 -0.4215
  981SOL    HW114576   4.582   1.041   1.679  0.6968 -1.4288 -0.4695
  981SOL    HW214577   4.468   1.053   1.581 -1.1309 -0.5361  0.5245
  982SOL     OW14578   2.636   4.118  16.969 -0.1218  0.2798 -0.5492
  982SOL    HW114579   2.598   4.073  16.893 -0.3954  0.6143 -0.6125
  982SOL    HW214580   2.726   4.086  16.962  0.7273  2.1490  1.5566
  983SOL     OW14581   1.945   1.191  15.797 -0.0875  0.4649 -0.1157
  983SOL    HW114582   1.900   1.109  15.814  0.7573 -0.3865 -2.0079
  983SOL    HW214583   1.972   1.170  15.708  0.8735  1.0564  0.0274
  984SOL     OW14584   2.890   4.291   8.483 -0.0481  0.4034  0.0382
  984SOL    HW114585   2.954   4.231   8.522  0.0682 -0.3576 -1.3044
  984SOL    HW214586   2.947   4.341   8.424 -0.5786 -0.9458 -1.6185
  985SOL     OW14587   0.033   2.568  15.950 -0.1312  0.0982 -0.3747
  985SOL    HW114588   4.705   2.585  15.878  0.4590 -1.5086 -1.2636
  985SOL    HW214589   0.016   2.652  15.992 -0.4594 -0.6912  1.0453
  986SOL     OW14590   0.772   0.240   7.569  0.3287 -0.1473  0.2912
  986SOL    HW114591   0.721   0.165   7.599  0.3997  0.0597  0.9223
  986SOL    HW214592   0.811   0.197   7.493  2.2935 -1.1754  1.8593
  987SOL     OW14593   2.968   2.548   2.468 -0.3040  0.6609 -0.1209
  987SOL    HW114594   2.882   2.584   2.491 -0.3177 -0.7996  2.1761
  987SOL    HW214595   3.011   2.530   2.552 -0.7632  0.6919  0.1235
  988SOL     OW14596   1.788   1.864   2.268  0.6627  0.2009  0.4332
  988SOL    HW114597   1.737   1.846   2.347 -0.6704  2.3408  0.0697
  988SOL    HW214598   1.771   1.958   2.270  0.2269  0.1097  1.0989
  989SOL     OW14599   3.541   2.986   1.752  0.1688  0.3557  0.1495
  989SOL    HW114600   3.599   2.972   1.677  0.9309  2.0506  0.4047
  989SOL    HW214601   3.463   3.009   1.701  0.1355 -1.6349 -0.7050
  990SOL     OW14602   2.988   3.318  15.686  0.7254  0.6681 -0.1123
  990SOL    HW114603   3.083   3.326  15.675  0.7601 -1.1580 -1.0745
  990SOL    HW214604   2.977   3.319  15.781  0.9393 -1.8389 -0.0563
  991SOL     OW14605   2.225   1.208   2.892 -0.0057 -0.0197 -0.2648
  991SOL    HW114606   2.291   1.277   2.897  1.0664 -1.1837  1.4456
  991SOL    HW214607   2.182   1.222   2.807  1.0762 -0.6239 -0.9251
  992SOL     OW14608   1.005   1.859   0.836  0.1588  0.2504 -0.1027
  992SOL    HW114609   0.970   1.812   0.760 -0.9519  1.1530 -0.1449
  992SOL    HW214610   0.924   1.862   0.886  1.3302  1.2217  1.7175
  993SOL     OW14611   1.076   1.597   2.815 -0.2524 -0.0280 -0.3448
  993SOL    HW114612   1.152   1.617   2.870  0.4978  0.0654 -1.4218
  993SOL    HW214613   1.119   1.574   2.734 -1.1370 -0.8539 -0.5738
  994SOL     OW14614   2.817   1.302   4.167  0.0869 -0.5644 -0.2496
  994SOL    HW114615   2.799   1.287   4.260 -0.6304  0.9857 -0.1469
  994SOL    HW214616   2.901   1.349   4.167  0.9074 -2.0317 -1.7863
  995SOL     OW14617   3.754   4.526   1.246  0.2550  0.2717  0.2303
  995SOL    HW114618   3.729   4.618   1.241  1.5828  0.7369  2.2348
  995SOL    HW214619   3.673   4.480   1.224 -0.7551  1.1421  2.1692
  996SOL     OW14620   0.812   2.280  17.284 -0.4281 -0.0316 -0.3098
  996SOL    HW114621   0.730   2.257  17.240 -0.5141 -1.5018  0.6375
  996SOL    HW214622   0.844   2.348  17.225  2.4774 -0.6856  0.5383
  997SOL     OW14623   0.190   1.878  12.514 -0.1790  0.0381 -0.3943
  997SOL    HW114624   0.269   1.864  12.566 -0.3136 -2.2143 -0.7868
  997SOL    HW214625   0.205   1.812  12.446  0.0711  0.6737 -0.9623
  998SOL     OW14626   4.394   0.471   7.520 -0.4379 -0.1803 -0.2247
  998SOL    HW114627   4.348   0.409   7.464 -1.9030 -0.4201  1.2465
  998SOL    HW214628   4.446   0.415   7.578  2.2675  2.8362  0.3266
  999SOL     OW14629   3.121   0.323  13.503  0.4355 -0.4181 -0.0116
  999SOL    HW114630   3.160   0.342  13.417  1.7573  2.0261  1.1337
  999SOL    HW214631   3.206   0.318  13.548  0.1822 -0.5092  0.4532
 1000SOL     OW14632   3.854   1.393   1.336 -0.2848 -0.1118  0.9076
 1000SOL    HW114633   3.852   1.481   1.299  0.9795  0.1338  1.3989
 1000SOL    HW214634   3.763   1.378   1.361 -0.3557 -1.6143 -0.2760
 1001SOL     OW14635   3.837   1.886  11.180 -0.3292  0.1229 -0.3450
 1001SOL    HW114636   3.807   1.862  11.268  1.5969 -0.2376  0.2109
 1001SOL    HW214637   3.754   1.885  11.133  0.2895 -0.8208 -1.4047
 1002SOL     OW14638   2.896   3.690   3.657 -0.4242  0.0013  0.2182
 1002SOL    HW114639   2.855   3.772   3.627 -0.2925  0.2197  0.6334
 1002SOL    HW214640   2.906   3.641   3.575  0.3812  0.1765  0.2117
 1003SOL     OW14641   0.700   0.082  16.679 -0.0428 -1.0233  0.2645
 1003SOL    HW114642   0.730   0.004  16.632 -1.7289 -0.5189 -1.6263
 1003SOL    HW214643   0.707   0.143  16.606  1.5247  0.0296  1.2807
 1004SOL     OW14644   4.573   1.014   6.165  0.7540 -0.1780 -0.4271
 1004SOL    HW114645   4.507   1.082   6.151 -0.5025 -0.8414  2.2247
 1004SOL    HW214646   4.521   0.941   6.199  1.5990 -0.6573 -0.1578
 1005SOL     OW14647   3.133   1.038   7.544  0.6738 -0.2431  0.7099
 1005SOL    HW114648   3.132   1.134   7.546 -0.3110 -0.2228 -1.0444
 1005SOL    HW214649   3.095   1.013   7.628 -1.5380 -0.7324 -0.4292
 1006SOL     OW14650   1.333   1.999   2.700 -0.4374 -0.4469 -0.1067
 1006SOL    HW114651   1.408   2.054   2.722 -0.4238 -0.6872  0.4513
 1006SOL    HW214652   1.296   1.976   2.785  0.0313 -0.1863  0.1648
 1007SOL     OW14653   0.273   3.589  10.512 -0.2586 -0.1041 -0.2337
 1007SOL    HW114654   0.202   3.631  10.462 -0.4677 -0.3226 -0.1183
 1007SOL    HW214655   0.210   3.542  10.567  0.5358 -1.1150 -0.2022
 1008SOL     OW14656   2.548   4.202  13.783  0.1042 -0.5182  0.0425
 1008SOL    HW114657   2.481   4.237  13.725  1.5276 -0.2989 -1.4858
 1008SOL    HW214658   2.520   4.120  13.824 -0.0179 -1.2926 -1.5740
 1009SOL     OW14659   1.717   4.486  17.245 -0.2594  0.4874  0.3267
 1009SOL    HW114660   1.764   4.546  17.303  0.9693  0.5418 -0.7322
 1009SOL    HW214661   1.654   4.465  17.313 -0.9656 -1.2089 -0.8515
 1010SOL     OW14662   2.637   1.603  14.718  0.9785  0.1955 -0.0389
 1010SOL    HW114663   2.694   1.559  14.655  1.8172  0.2522  0.6864
 1010SOL    HW214664   2.595   1.533  14.768  1.1031  0.1229 -0.0345
 1011SOL     OW14665   2.493   4.693   8.086 -0.3516 -0.3143 -0.4926
 1011SOL    HW114666   2.521   4.641   8.162  4.0683 -1.3136 -2.8615
 1011SOL    HW214667   2.568   0.012   8.058 -1.0027  1.1135  0.3725
 1012SOL     OW14668   3.734   3.948  10.918  0.3095  0.0828  0.0476
 1012SOL    HW114669   3.827   3.971  10.915 -0.1545  1.5787 -2.4884
 1012SOL    HW214670   3.750   3.882  10.986  2.1283  1.3927  0.9105
 1013SOL     OW14671   0.419   1.944   8.562  0.3744  0.5284  0.6645
 1013SOL    HW114672   0.372   1.945   8.479  2.4953  0.2536 -0.5494
 1013SOL    HW214673   0.372   1.873   8.606 -0.1346 -0.1898 -1.0658
 1014SOL     OW14674   2.980   2.763  11.799  0.1668 -0.2981 -1.0525
 1014SOL    HW114675   3.055   2.789  11.853 -1.2796  0.4772  0.5901
 1014SOL    HW214676   3.010   2.678  11.769 -0.6436 -0.9216 -0.1174
 1015SOL     OW14677   2.426   0.533   6.893  0.6992  0.3478 -0.0586
 1015SOL    HW114678   2.372   0.459   6.921  0.2083  0.6609 -0.1745
 1015SOL    HW214679   2.355   0.595   6.877  1.1304  0.4092 -1.8046
 1016SOL     OW14680   1.480   1.837  10.547 -0.2219 -0.3328  0.0442
 1016SOL    HW114681   1.556   1.810  10.496 -1.1066  0.0632 -1.4725
 1016SOL    HW214682   1.505   1.928  10.561 -1.9958  0.4798 -2.1115
 1017SOL     OW14683   0.016   1.433   3.944 -0.9680  0.3722 -0.1311
 1017SOL    HW114684   4.677   1.440   4.007  1.1706 -0.7437  2.4276
 1017SOL    HW214685   0.063   1.512   3.973 -1.3046  0.3579  0.4448
 1018SOL     OW14686   3.341   2.251   6.228 -0.0313 -0.5350 -0.6098
 1018SOL    HW114687   3.326   2.158   6.244 -0.5994 -0.6775 -1.9618
 1018SOL    HW214688   3.371   2.276   6.315 -1.9482 -0.4930  0.0545
 1019SOL     OW14689   3.879   3.428  16.538 -0.2587  0.2588 -0.6017
 1019SOL    HW114690   3.904   3.485  16.611  0.4844 -0.0368 -0.6211
 1019SOL    HW214691   3.867   3.343  16.579  0.6414  0.1667 -0.5103
 1020SOL     OW14692   0.783   4.088   3.087  0.7965  0.0780  0.1394
 1020SOL    HW114693   0.816   4.075   2.999 -0.4290  2.0426 -0.6253
 1020SOL    HW214694   0.846   4.152   3.121  1.9268 -0.5116 -0.8648
 1021SOL     OW14695   4.178   3.383   3.686 -0.5142  0.8190 -0.0415
 1021SOL    HW114696   4.251   3.330   3.655 -1.7684 -1.3556  0.7372
 1021SOL    HW214697   4.165   3.450   3.619  1.2393  0.1637 -1.0437
 1022SOL     OW14698   2.003   3.677   5.990 -0.5574 -0.0352  0.1234
 1022SOL    HW114699   2.075   3.625   5.955 -1.6776 -1.1694 -0.5141
 1022SOL    HW214700   1.937   3.614   6.020 -0.2074 -0.5359 -0.1618
 1023SOL     OW14701   1.151   3.419   9.726  0.5965  0.7068  0.5310
 1023SOL    HW114702   1.118   3.373   9.648  2.9158  1.5090 -0.9102
 1023SOL    HW214703   1.246   3.410   9.728  0.5586  0.1275 -0.0099
 1024SOL     OW14704   1.167   3.602   5.054 -0.0323  0.5221 -0.0254
 1024SOL    HW114705   1.123   3.524   5.087 -0.5023  0.7026 -0.2251
 1024SOL    HW214706   1.258   3.584   5.077 -0.1631  0.1085  0.1683
 1025SOL     OW14707   3.795   4.356  14.290  0.0357 -0.0221 -0.4603
 1025SOL    HW114708   3.747   4.342  14.372  1.8738 -0.6511  0.5083
 1025SOL    HW214709   3.831   4.271  14.264 -1.2430 -1.2325  1.6893
 1026SOL     OW14710   2.632   1.276   6.563 -0.0530 -0.0796 -0.0438
 1026SOL    HW114711   2.684   1.320   6.631  0.2957  2.1321 -1.7497
 1026SOL    HW214712   2.617   1.344   6.497 -0.4919 -0.9889 -0.8734
 1027SOL     OW14713   3.486   0.766  12.207  0.6228 -0.5295 -0.0208
 1027SOL    HW114714   3.484   0.672  12.190 -0.6494 -0.5675  0.3228
 1027SOL    HW214715   3.391   0.781  12.211  0.5322 -1.0772 -0.1440
 1028SOL     OW14716   0.262   1.937   8.326 -0.1263  0.4763 -0.1861
 1028SOL    HW114717   0.236   2.025   8.297  1.3917  0.7712 -0.6846
 1028SOL    HW214718   0.177   1.894   8.331  0.1230 -0.1644 -1.4550
 1029SOL     OW14719   0.748   3.414   1.030  0.4054 -0.0143 -0.2302
 1029SOL    HW114720   0.820   3.352   1.041  0.2482 -0.3775 -1.2439
 1029SOL    HW214721   0.802   3.492   1.017 -1.1054  1.2049  0.8127
 1030SOL     OW14722   1.264   3.918   9.063  0.6620 -0.3619 -0.0006
 1030SOL    HW114723   1.275   3.873   8.979 -0.6497 -0.8577  0.0890
 1030SOL    HW214724   1.239   4.005   9.032  0.0624  0.0901  1.7393
 1031SOL     OW14725   4.287   0.042   1.326 -0.4794  0.3762  0.0605
 1031SOL    HW114726   4.251   4.706   1.382 -1.0529 -0.1501 -0.9529
 1031SOL    HW214727   4.270   0.015   1.236  0.3912 -1.8668  0.5909
 1032SOL     OW14728   3.744   0.918   0.594  0.2520 -0.3902  0.1826
 1032SOL    HW114729   3.686   0.959   0.530  0.3092  0.6236  0.7940
 1032SOL    HW214730   3.811   0.895   0.529 -0.0328  2.5597 -1.1195
 1033SOL     OW14731   0.736   3.921   3.387  0.1999  0.2622 -0.1298
 1033SOL    HW114732   0.722   3.942   3.295  0.8474 -0.3583 -0.3721
 1033SOL    HW214733   0.746   4.008   3.424 -0.1411  1.5098 -2.9917
 1034SOL     OW14734   1.178   1.833   4.093 -0.0851 -0.0424  0.1028
 1034SOL    HW114735   1.153   1.795   4.009 -2.9324  0.8523  0.5376
 1034SOL    HW214736   1.233   1.761   4.125 -0.7372  0.7413  2.9636
 1035SOL     OW14737   2.328   0.646   3.445 -0.0168  0.1351  0.6124
 1035SOL    HW114738   2.336   0.559   3.407  0.3804 -0.3987  1.9297
 1035SOL    HW214739   2.248   0.646   3.497 -0.6695 -0.3758 -0.3766
 1036SOL     OW14740   1.977   1.423   2.652  0.4417 -0.8750 -0.7505
 1036SOL    HW114741   2.070   1.410   2.673  0.1151  0.3416  1.4149
 1036SOL    HW214742   1.968   1.347   2.594  2.2140 -2.5336  1.1665
 1037SOL     OW14743   1.697   0.727  11.552 -0.0899 -0.1855 -0.4177
 1037SOL    HW114744   1.611   0.713  11.592 -1.0065 -0.6651 -2.5945
 1037SOL    HW214745   1.695   0.654  11.491 -0.8724 -0.4365 -0.0955
 1038SOL     OW14746   3.901   4.211  11.792  0.2545  0.2781 -0.7109
 1038SOL    HW114747   3.988   4.197  11.830 -0.2845  1.1075  0.8124
 1038SOL    HW214748   3.851   4.148  11.844  0.7534 -0.0556 -0.6395
 1039SOL     OW14749   2.701   0.730   3.800  0.9143 -0.2737 -0.2522
 1039SOL    HW114750   2.763   0.678   3.850  2.0047 -0.6250 -1.9603
 1039SOL    HW214751   2.731   0.705   3.712  0.6498 -0.9541 -0.1476
 1040SOL     OW14752   0.907   4.622   6.367  0.3153 -0.2681  0.2155
 1040SOL    HW114753   0.973   4.575   6.417 -1.3575 -1.6538  1.1137
 1040SOL    HW214754   0.837   4.646   6.428  2.9229  2.4363  2.0824
 1041SOL     OW14755   0.205   4.058   4.619  0.4831  0.5451 -0.3137
 1041SOL    HW114756   0.126   4.035   4.667 -0.3737  2.3187 -0.8727
 1041SOL    HW214757   0.231   4.141   4.658 -0.6106  0.1511  1.2390
 1042SOL     OW14758   2.430   0.239  11.591 -0.0594 -0.2177  0.1401
 1042SOL    HW114759   2.511   0.280  11.623  0.6045 -0.2370 -1.5305
 1042SOL    HW214760   2.456   0.222  11.501 -0.6988  0.9753 -0.2713
 1043SOL     OW14761   3.437   0.272   4.693 -0.1059 -0.0470 -0.5014
 1043SOL    HW114762   3.344   0.283   4.711 -0.2472  1.0153 -1.8393
 1043SOL    HW214763   3.449   0.188   4.738 -0.3135  1.3432  2.0765
 1044SOL     OW14764   0.171   3.710   4.909 -0.7696  0.2881 -0.1133
 1044SOL    HW114765   0.111   3.734   4.980 -0.7501  2.3036 -0.7591
 1044SOL    HW214766   0.233   3.658   4.959 -0.4400  0.3225 -0.4900
 1045SOL     OW14767   2.854   4.453   4.757  0.0427  0.4509  0.3438
 1045SOL    HW114768   2.767   4.445   4.796 -0.6275 -1.3740 -1.5034
 1045SOL    HW214769   2.903   4.507   4.820  4.1938 -0.8677 -1.7133
 1046SOL     OW14770   0.982   4.408   9.442 -0.4231 -0.0915 -0.0534
 1046SOL    HW114771   1.033   4.485   9.417  0.0808 -0.9614 -1.6504
 1046SOL    HW214772   1.019   4.381   9.527  0.7225  0.7089 -0.2938
 1047SOL     OW14773   2.555   4.396   1.936 -0.1212 -0.2231  0.0473
 1047SOL    HW114774   2.616   4.351   1.995 -0.6773 -3.1146 -1.5657
 1047SOL    HW214775   2.541   4.322   1.877 -0.5841 -0.9231  1.0155
 1048SOL     OW14776   4.047   3.974   2.592 -0.6269 -0.2234 -0.5771
 1048SOL    HW114777   4.015   4.046   2.646  2.8995  0.3495  0.7696
 1048SOL    HW214778   3.963   3.929   2.598  0.0888 -1.2060  1.9339
 1049SOL     OW14779   0.677   2.187   3.005 -0.2543  0.0982  0.1100
 1049SOL    HW114780   0.745   2.139   3.053 -1.1581 -0.6796  0.6239
 1049SOL    HW214781   0.708   2.166   2.917 -1.4096  0.2518 -0.3255
 1050SOL     OW14782   0.935   3.381   1.433  0.1444  0.1307 -0.3654
 1050SOL    HW114783   0.977   3.358   1.350  0.1638  0.0105 -0.3218
 1050SOL    HW214784   0.843   3.368   1.413  0.2750 -0.0629 -0.8295
 1051SOL     OW14785   2.916   3.331   4.129  0.2766  0.3377 -0.8150
 1051SOL    HW114786   2.845   3.269   4.139 -0.4382  1.2696 -0.0934
 1051SOL    HW214787   2.985   3.308   4.192  0.9559  0.6657 -1.4366
 1052SOL     OW14788   0.860   2.935   4.794  0.1919 -0.8521  0.5815
 1052SOL    HW114789   0.778   2.954   4.840  0.5073  1.9225 -0.0195
 1052SOL    HW214790   0.881   3.019   4.754 -0.0869 -1.3100 -0.5377
 1053SOL     OW14791   3.305   4.364   9.222 -0.4348 -0.4142  0.3344
 1053SOL    HW114792   3.389   4.333   9.258  0.1712  0.3863 -0.3883
 1053SOL    HW214793   3.312   4.459   9.226 -0.1918 -0.4743  1.3439
 1054SOL     OW14794   2.574   0.760   8.064  0.1408  0.5826 -0.4292
 1054SOL    HW114795   2.657   0.757   8.113 -0.4549 -1.4303  0.4458
 1054SOL    HW214796   2.524   0.694   8.113 -0.1090  0.3993 -0.9345
 1055SOL     OW14797   0.988   1.671  14.605 -0.5222  0.0293  0.3173
 1055SOL    HW114798   0.900   1.696  14.576 -0.2199  1.6003  0.7677
 1055SOL    HW214799   1.036   1.744  14.566 -0.5403 -0.6483 -0.9897
 1056SOL     OW14800   0.046   1.625   1.407  0.0774  0.5060 -0.1465
 1056SOL    HW114801   4.687   1.630   1.378 -0.1842  0.5237  0.6868
 1056SOL    HW214802   0.040   1.686   1.480  0.9165 -1.0224  1.1954
 1057SOL     OW14803   1.328   3.217  15.004 -0.3885 -0.1490  0.3876
 1057SOL    HW114804   1.415   3.255  15.008 -0.3061 -0.3245  0.2496
 1057SOL    HW214805   1.293   3.265  14.929 -0.4935 -0.4194  0.2608
 1058SOL     OW14806   0.045   0.787   8.838 -0.1810 -0.3348  0.0951
 1058SOL    HW114807   0.137   0.810   8.825 -0.1528 -1.3956 -1.6542
 1058SOL    HW214808   0.031   0.715   8.776 -1.6035  0.1370 -0.1238
 1059SOL     OW14809   1.117   0.882   5.862 -0.2073  0.0997  0.8499
 1059SOL    HW114810   1.203   0.840   5.853 -0.4947  0.1334 -2.1002
 1059SOL    HW214811   1.117   0.916   5.952  2.5116  1.2973  0.3926
 1060SOL     OW14812   0.775   4.241  14.131 -0.5269 -0.5473  0.2209
 1060SOL    HW114813   0.720   4.252  14.208 -0.5969  1.5011 -0.1262
 1060SOL    HW214814   0.715   4.265  14.060 -1.5483 -1.2611  0.8410
 1061SOL     OW14815   1.187   4.145   4.057  0.0168  0.0906 -0.1104
 1061SOL    HW114816   1.248   4.193   4.000 -1.0562 -1.2674 -2.4350
 1061SOL    HW214817   1.115   4.208   4.045  0.5633  0.8525  0.6234
 1062SOL     OW14818   2.311   3.765   2.802  0.4025 -0.7586  0.0539
 1062SOL    HW114819   2.295   3.850   2.844 -1.9826 -1.1517 -0.0241
 1062SOL    HW214820   2.253   3.702   2.844  0.7720 -1.8271 -1.0203
 1063SOL     OW14821   2.057   3.471  13.944  0.2669 -0.4968  1.0860
 1063SOL    HW114822   2.080   3.523  13.867 -0.3714  0.6508  1.6799
 1063SOL    HW214823   1.972   3.432  13.921 -0.2439  1.4008 -0.1996
 1064SOL     OW14824   4.131   2.216   3.990  0.3029  0.2924 -0.3332
 1064SOL    HW114825   4.097   2.280   3.927 -0.4842  0.3807  0.1889
 1064SOL    HW214826   4.192   2.164   3.937  1.5775  1.1961  0.2510
 1065SOL     OW14827   0.509   3.999   9.579  0.6055 -0.1903  0.2159
 1065SOL    HW114828   0.492   4.069   9.516  2.0682 -2.2745 -2.4949
 1065SOL    HW214829   0.519   4.053   9.658  0.1567  1.7493 -1.0520
 1066SOL     OW14830   2.964   1.352  12.760 -0.3847  0.7686  0.0810
 1066SOL    HW114831   3.019   1.290  12.712 -0.5168 -1.3940  2.7159
 1066SOL    HW214832   2.949   1.422  12.697 -3.3614 -0.8402 -1.0309
 1067SOL     OW14833   1.168   3.556   8.656 -0.5940 -0.0463  0.1563
 1067SOL    HW114834   1.112   3.631   8.640 -0.1122  0.7373  2.1324
 1067SOL    HW214835   1.121   3.506   8.723 -2.4568  2.8330  1.0098
 1068SOL     OW14836   3.345   2.535   7.811 -0.1210 -0.7564 -0.1458
 1068SOL    HW114837   3.317   2.505   7.725 -0.1171  1.8167 -1.0346
 1068SOL    HW214838   3.383   2.459   7.854 -0.7163 -1.1085 -0.2398
 1069SOL     OW14839   2.926   3.806   9.053  0.0550  0.4599 -0.3576
 1069SOL    HW114840   2.977   3.880   9.087  0.9027 -0.5783  0.6478
 1069SOL    HW214841   2.912   3.839   8.965 -0.9972 -1.7060 -1.0012
 1070SOL     OW14842   2.691   3.532   3.831 -0.4237 -0.1814  0.0842
 1070SOL    HW114843   2.620   3.540   3.768  1.3747  0.5664 -1.8338
 1070SOL    HW214844   2.768   3.492   3.791  0.6812  1.7791  0.2214
 1071SOL     OW14845   3.523   0.895  11.678  0.4538 -0.7446 -0.3045
 1071SOL    HW114846   3.609   0.865  11.649  2.5275  1.9177  3.1189
 1071SOL    HW214847   3.514   0.832  11.750 -1.4735 -0.0608  0.0535
 1072SOL     OW14848   2.857   0.760   4.680  0.1246 -0.3897  0.0711
 1072SOL    HW114849   2.933   0.776   4.624  0.2744 -2.0625 -0.2186
 1072SOL    HW214850   2.813   0.695   4.625  2.2533 -1.5754 -0.2282
 1073SOL     OW14851   3.034   0.975   1.967 -0.2574  0.3482 -0.2117
 1073SOL    HW114852   3.062   1.065   1.954  1.5031  0.0362  1.6012
 1073SOL    HW214853   3.018   0.944   1.877 -1.1096 -1.0688  0.4158
 1074SOL     OW14854   3.970   1.226   4.502  0.5634  0.9168  0.2421
 1074SOL    HW114855   3.925   1.280   4.438  1.5704 -1.4194 -2.4453
 1074SOL    HW214856   3.902   1.164   4.526  0.1890  1.8883  1.7103
 1075SOL     OW14857   3.996   4.562   4.481 -0.2180  0.4605  0.3200
 1075SOL    HW114858   4.015   4.502   4.408 -0.1396 -0.9229  1.4671
 1075SOL    HW214859   3.915   4.607   4.458  0.0775  0.4555 -0.7627
 1076SOL     OW14860   3.651   3.803   7.407  0.3380 -0.8201 -0.5920
 1076SOL    HW114861   3.604   3.805   7.324 -2.6454 -1.3978  1.0921
 1076SOL    HW214862   3.742   3.791   7.380 -0.0790 -0.7880 -2.0062
 1077SOL     OW14863   4.576   1.021  14.627  0.5141 -0.6907  0.3240
 1077SOL    HW114864   4.549   1.046  14.539 -2.3691 -0.5232  1.2420
 1077SOL    HW214865   4.503   0.960  14.643 -0.6511  0.9043  1.1479
 1078SOL     OW14866   0.936   3.581   2.517  0.2168  0.6394  0.3829
 1078SOL    HW114867   1.013   3.532   2.487 -0.8634 -0.9783  0.2651
 1078SOL    HW214868   0.939   3.553   2.609  0.5278  1.0166  0.4887
 1079SOL     OW14869   1.094   3.731   3.057 -0.3905  0.1831  0.0630
 1079SOL    HW114870   1.007   3.706   3.027  0.4049 -0.1178 -2.0280
 1079SOL    HW214871   1.146   3.655   3.029 -1.2165 -0.1349 -0.6034
 1080SOL     OW14872   4.235   0.094   5.911 -0.0733 -0.3117 -0.0076
 1080SOL    HW114873   4.278   0.148   5.977 -1.2391  0.6695 -0.0401
 1080SOL    HW214874   4.148   0.080   5.948 -0.5060  0.0371 -0.8707
 1081SOL     OW14875   0.151   2.766  13.096 -0.3373 -0.0648  0.4913
 1081SOL    HW114876   0.141   2.744  13.004  1.8892  0.0991  0.2070
 1081SOL    HW214877   0.077   2.824  13.116  0.9838  1.4245  1.0686
 1082SOL     OW14878   2.187   1.709   7.460  0.3033  0.3997 -0.3379
 1082SOL    HW114879   2.259   1.767   7.482  2.0320 -2.1130  0.6838
 1082SOL    HW214880   2.135   1.706   7.541 -1.1699  0.0878 -1.2848
 1083SOL     OW14881   2.928   2.546  12.750 -0.6835 -0.3939 -0.2541
 1083SOL    HW114882   2.919   2.633  12.788  0.7782  0.6299 -2.3339
 1083SOL    HW214883   2.983   2.498  12.812  0.1659  1.4074  0.3523
 1084SOL     OW14884   0.945   3.369   6.895  0.1834 -0.3516  0.4730
 1084SOL    HW114885   0.936   3.370   6.990 -1.1219 -0.2622  0.3376
 1084SOL    HW214886   1.039   3.383   6.880  0.5603 -1.0366  2.2147
 1085SOL     OW14887   0.330   0.998   5.021  0.1306  0.1059  0.0321
 1085SOL    HW114888   0.381   0.920   5.001  1.1201  0.1698  2.2716
 1085SOL    HW214889   0.354   1.060   4.952 -1.5190 -2.2106 -2.6097
 1086SOL     OW14890   0.588   3.610  16.814  0.2090  0.0098  0.3896
 1086SOL    HW114891   0.566   3.529  16.767  0.8844 -2.1013  3.7098
 1086SOL    HW214892   0.603   3.662  16.735 -1.6911  1.0979  0.7472
 1087SOL     OW14893   3.748   3.869   4.675  0.2598  0.2735  0.1090
 1087SOL    HW114894   3.760   3.904   4.763  2.4336 -0.9126  0.2986
 1087SOL    HW214895   3.667   3.819   4.684  0.1405  0.4918  0.2515
 1088SOL     OW14896   3.583   4.035   5.606 -0.4249  0.1468 -0.5712
 1088SOL    HW114897   3.640   4.109   5.625 -0.2093 -0.1685  0.0115
 1088SOL    HW214898   3.517   4.071   5.547 -2.8597  1.1891  2.7244
 1089SOL     OW14899   2.751   0.868  15.438  0.1095 -0.4558  0.1520
 1089SOL    HW114900   2.740   0.816  15.358 -0.5073 -1.6606  1.0231
 1089SOL    HW214901   2.756   0.793  15.496 -0.6197  0.9417  2.0146
 1090SOL     OW14902   1.863   2.646   5.625 -0.4766  0.3536 -0.3146
 1090SOL    HW114903   1.944   2.621   5.580  0.1770 -1.4081  1.8364
 1090SOL    HW214904   1.862   2.568   5.681  0.7898  0.2698 -0.4069
 1091SOL     OW14905   0.327   4.079   6.869 -0.0056 -0.3814 -0.3477
 1091SOL    HW114906   0.241   4.107   6.839  0.1445 -0.1111 -0.5324
 1091SOL    HW214907   0.324   3.985   6.854  2.6694 -0.2234 -1.7917
 1092SOL     OW14908   1.706   2.689   5.161  0.2475 -0.2799 -0.3344
 1092SOL    HW114909   1.796   2.712   5.184  0.0362  0.3052 -0.0891
 1092SOL    HW214910   1.670   2.771   5.127 -1.4072 -0.9731 -0.2798
 1093SOL     OW14911   0.735   4.661   0.294  0.9335  0.2963  0.3432
 1093SOL    HW114912   0.709   0.015   0.326  1.7796 -0.1502  2.2573
 1093SOL    HW214913   0.806   4.647   0.357 -0.1055 -0.8170  1.2649
 1094SOL     OW14914   4.528   0.791   2.675  0.4435  0.2067 -0.0406
 1094SOL    HW114915   4.540   0.764   2.584  1.5777  1.8465 -0.3866
 1094SOL    HW214916   4.440   0.761   2.695  0.9525 -1.2784 -0.0080
 1095SOL     OW14917   3.024   1.356   3.661 -0.4349  0.4006 -0.0642
 1095SOL    HW114918   2.962   1.289   3.633 -0.6029 -0.3490  2.1175
 1095SOL    HW214919   3.008   1.360   3.755  2.3013  0.7150  0.4074
 1096SOL     OW14920   3.866   4.171   8.337 -0.2200 -0.4483  0.3815
 1096SOL    HW114921   3.931   4.101   8.344 -1.3553 -1.3162  2.1769
 1096SOL    HW214922   3.795   4.121   8.296 -1.4353  1.7689 -0.2081
 1097SOL     OW14923   0.835   1.824   5.698  0.0143  0.3663  0.0293
 1097SOL    HW114924   0.764   1.760   5.694  1.4985 -1.3608  1.4386
 1097SOL    HW214925   0.823   1.862   5.785 -1.1842 -0.1885  0.1019
 1098SOL     OW14926   3.071   1.093   6.431  0.3184 -0.0642  0.0673
 1098SOL    HW114927   2.978   1.104   6.448  0.6896  2.5346  0.3052
 1098SOL    HW214928   3.105   1.079   6.520  0.6774  2.2147  0.2912
 1099SOL     OW14929   1.192   1.409  13.129 -0.6663 -0.0001  0.1643
 1099SOL    HW114930   1.141   1.396  13.049 -0.3905 -0.3496  0.0444
 1099SOL    HW214931   1.153   1.473  13.189 -0.0015 -0.8889  1.5280
 1100SOL     OW14932   3.350   2.618  13.339  0.2593  0.6191  0.3138
 1100SOL    HW114933   3.292   2.603  13.264 -1.8262  1.6766  1.7299
 1100SOL    HW214934   3.341   2.543  13.398 -0.9742  1.4514  1.1761
 1101SOL     OW14935   1.906   0.919   1.251 -0.3723  0.4210 -0.0200
 1101SOL    HW114936   1.960   0.912   1.173 -0.7730 -2.4309 -0.0544
 1101SOL    HW214937   1.827   0.918   1.197 -1.0580 -2.8195  1.0164
 1102SOL     OW14938   0.860   4.152   5.356 -0.8884  0.2738 -0.6104
 1102SOL    HW114939   0.778   4.200   5.363  0.0626  1.5095  2.1529
 1102SOL    HW214940   0.920   4.223   5.378 -0.9032  0.5388 -1.4659
 1103SOL     OW14941   3.738   1.958   3.399 -0.0573 -0.3366  0.5131
 1103SOL    HW114942   3.707   1.901   3.470  2.1256  1.1749  2.6782
 1103SOL    HW214943   3.654   1.996   3.373  0.3126 -0.4136 -0.7827
 1104SOL     OW14944   1.753   4.573   2.183  0.4584  0.4052  0.4841
 1104SOL    HW114945   1.766   4.536   2.096  0.3264 -1.4939  1.2678
 1104SOL    HW214946   1.842   4.568   2.217  1.0153 -0.9847 -1.1342
 1105SOL     OW14947   3.572   2.117  13.914  0.5106 -0.1795 -0.2524
 1105SOL    HW114948   3.612   2.156  13.992 -0.0104  0.6043 -0.3764
 1105SOL    HW214949   3.602   2.027  13.915  1.2305  0.0702  0.6150
 1106SOL     OW14950   3.690   3.442   7.890 -0.1883 -0.2971  0.2411
 1106SOL    HW114951   3.774   3.403   7.914  1.5891  2.9303 -0.7385
 1106SOL    HW214952   3.717   3.490   7.812  0.0365  0.1785  0.6082
 1107SOL     OW14953   2.782   2.813  14.813  0.2699 -0.5994 -0.4883
 1107SOL    HW114954   2.768   2.832  14.906 -1.4805 -0.2542 -0.8152
 1107SOL    HW214955   2.695   2.818  14.773  0.1636 -0.9552 -0.3015
 1108SOL     OW14956   1.569   3.572   4.284 -0.1477  0.2152  0.0697
 1108SOL    HW114957   1.500   3.509   4.302 -0.8397  1.0446  0.3108
 1108SOL    HW214958   1.609   3.584   4.371  0.4006  0.7145 -0.2494
 1109SOL     OW14959   3.512   2.157   1.503 -0.4877  0.3524  0.1794
 1109SOL    HW114960   3.586   2.202   1.462  1.0912 -3.0218 -0.6659
 1109SOL    HW214961   3.470   2.104   1.435  1.3795  2.1596 -2.4110
 1110SOL     OW14962   3.537   3.257   6.747  0.2190 -0.4434 -0.1216
 1110SOL    HW114963   3.567   3.237   6.659  1.9945  0.5682  0.2493
 1110SOL    HW214964   3.612   3.305   6.782 -0.0968  1.9449 -2.7831
 1111SOL     OW14965   2.689   1.241   5.154 -0.1755  0.0611 -0.1823
 1111SOL    HW114966   2.697   1.230   5.249  0.0339 -1.9148 -0.4232
 1111SOL    HW214967   2.781   1.259   5.136 -0.3388  1.0670 -0.0164
 1112SOL     OW14968   4.460   1.311   3.098  0.0703 -0.7224  0.6232
 1112SOL    HW114969   4.532   1.263   3.057  0.7676  0.7299  0.1441
 1112SOL    HW214970   4.463   1.283   3.189  2.6081 -0.0045  0.7514
 1113SOL     OW14971   2.513   2.707   7.999  1.0203 -0.4634 -0.8023
 1113SOL    HW114972   2.417   2.697   7.996  0.9825 -0.1109 -0.7852
 1113SOL    HW214973   2.527   2.613   8.006 -2.7692 -0.9672  0.4270
 1114SOL     OW14974   0.091   2.717   2.856  0.5939  0.7035  0.2095
 1114SOL    HW114975   0.019   2.667   2.820 -1.3818  0.8577  3.9329
 1114SOL    HW214976   0.158   2.656   2.826  1.1614  0.8286  1.1994
 1115SOL     OW14977   3.209   1.745   1.701 -0.0508 -0.0782 -0.0608
 1115SOL    HW114978   3.297   1.782   1.699 -1.0243  2.2101 -0.7768
 1115SOL    HW214979   3.194   1.719   1.792  1.3200  0.4728  0.3243
 1116SOL     OW14980   3.874   1.534  12.120  0.1964 -0.2349  0.3330
 1116SOL    HW114981   3.942   1.555  12.183  1.3938  1.0864 -1.3831
 1116SOL    HW214982   3.822   1.462  12.156  0.0082 -0.5928 -0.6256
 1117SOL     OW14983   0.199   0.880   6.069 -0.3296 -0.0822 -0.1917
 1117SOL    HW114984   0.159   0.793   6.065  2.5704 -1.4276  0.3499
 1117SOL    HW214985   0.264   0.883   5.998  0.3599  1.7147  0.5316
 1118SOL     OW14986   4.191   1.289   1.195  0.1868  0.0806  0.1078
 1118SOL    HW114987   4.249   1.244   1.134  0.4749 -0.6654  0.9288
 1118SOL    HW214988   4.163   1.363   1.141 -0.3199 -1.9795 -2.4073
 1119SOL     OW14989   3.033   3.139   6.704 -0.0470 -0.1908 -0.1900
 1119SOL    HW114990   3.107   3.158   6.646 -0.3163  0.6933 -0.2432
 1119SOL    HW214991   3.062   3.060   6.750 -3.1660  0.3509  2.6672
 1120SOL     OW14992   2.648   4.275   6.085  0.1895  0.2632  0.3720
 1120SOL    HW114993   2.595   4.312   6.156  0.3627  0.0406  0.6183
 1120SOL    HW214994   2.607   4.190   6.069 -0.8829  1.1981 -1.8007
 1121SOL     OW14995   1.292   3.140   9.288  0.2794  0.3420  0.5534
 1121SOL    HW114996   1.337   3.221   9.262 -0.3831 -0.2959 -2.5952
 1121SOL    HW214997   1.338   3.087   9.223 -0.8950 -0.3843  0.3252
 1122SOL     OW14998   3.536   1.169   7.042  0.0315  0.0722 -0.0184
 1122SOL    HW114999   3.540   1.264   7.029  2.4796 -0.2930 -1.7496
 1122SOL    HW215000   3.462   1.176   7.102 -0.4213 -0.4514 -0.5219
 1123SOL     OW15001   0.339   2.262  10.892  0.7202 -0.4485  0.0225
 1123SOL    HW115002   0.276   2.329  10.867  0.8630 -0.4451 -0.3288
 1123SOL    HW215003   0.338   2.193  10.826 -1.0836  0.2386 -0.6604
 1124SOL     OW15004   3.080   1.368   6.762  0.0813  0.4265  0.0133
 1124SOL    HW115005   3.073   1.367   6.858 -1.3873 -0.2785 -0.1020
 1124SOL    HW215006   3.066   1.460   6.742  0.9222  0.9714  1.8908
 1125SOL     OW15007   4.392   1.853  16.187  0.1703 -0.0803 -0.0780
 1125SOL    HW115008   4.303   1.832  16.162  0.1532 -1.6678  1.3348
 1125SOL    HW215009   4.429   1.765  16.188  3.4524  1.3004  3.4776
 1126SOL     OW15010   2.380   4.147   6.526 -0.1615 -0.0293  0.1495
 1126SOL    HW115011   2.369   4.214   6.593 -0.5917  0.2624 -0.2095
 1126SOL    HW215012   2.438   4.077   6.554  1.1101 -0.2569 -2.9988
 1127SOL     OW15013   0.219   0.990   7.495 -0.3354  0.2018  0.0368
 1127SOL    HW115014   0.228   1.033   7.580 -0.4393 -0.4279  0.3691
 1127SOL    HW215015   0.147   1.030   7.445  1.1570  1.4070 -1.1582
 1128SOL     OW15016   1.954   1.402  17.691 -0.5400  0.1008 -0.2825
 1128SOL    HW115017   1.951   1.488   0.004 -0.2299  0.4135 -0.9225
 1128SOL    HW215018   1.948   1.339   0.035  3.7269 -0.6892 -0.6494
 1129SOL     OW15019   1.427   2.861   7.787  0.0825  0.2163  0.2257
 1129SOL    HW115020   1.358   2.888   7.726  0.2258 -1.4024 -0.6617
 1129SOL    HW215021   1.375   2.861   7.868 -0.3005 -3.4023 -0.0097
 1130SOL     OW15022   1.273   2.958   0.195  0.7070  0.5869  0.1361
 1130SOL    HW115023   1.219   2.895   0.147  0.7258  0.6173  0.0760
 1130SOL    HW215024   1.217   2.983   0.268  0.0673 -1.2979  0.3055
 1131SOL     OW15025   2.729   1.251  17.484  0.0149  0.3777 -0.2118
 1131SOL    HW115026   2.770   1.238  17.570  0.8874  0.3610 -0.6255
 1131SOL    HW215027   2.721   1.346  17.478 -2.7351  0.1456 -0.1604
 1132SOL     OW15028   2.973   3.390  13.173 -0.2165  0.0287  0.5028
 1132SOL    HW115029   2.928   3.336  13.239  0.2474 -0.9452  0.0237
 1132SOL    HW215030   2.959   3.476  13.211  2.3832 -0.0638  1.6568
 1133SOL     OW15031   4.087   0.992   0.500 -0.2094  0.9010 -0.0094
 1133SOL    HW115032   4.077   0.932   0.574  0.6595 -0.2327 -0.8121
 1133SOL    HW215033   4.159   1.047   0.530 -0.6841  1.0172  0.9262
 1134SOL     OW15034   3.075   3.139   3.562 -0.1117  0.2534  0.4469
 1134SOL    HW115035   3.075   3.103   3.651  2.0752 -1.1073 -0.1148
 1134SOL    HW215036   2.987   3.115   3.531  0.7592 -1.2678 -0.8313
 1135SOL     OW15037   4.155   1.561   7.503  0.3735  0.1586  0.5648
 1135SOL    HW115038   4.216   1.631   7.529 -0.0465  0.7715 -0.0862
 1135SOL    HW215039   4.149   1.506   7.581 -1.5635 -1.0073 -0.4330
 1136SOL     OW15040   1.442   2.299   2.056 -0.3940 -0.1205 -0.1329
 1136SOL    HW115041   1.537   2.285   2.060 -0.0548  2.7529  2.1896
 1136SOL    HW215042   1.436   2.392   2.036  1.5543  0.6967  2.9653
 1137SOL     OW15043   4.076   4.366  15.904  0.2550 -0.2669 -0.4611
 1137SOL    HW115044   4.044   4.318  15.827 -0.7492 -0.8503  0.3105
 1137SOL    HW215045   4.050   4.313  15.979 -0.8600  3.1102  1.5559
 1138SOL     OW15046   4.398   2.231   0.636 -0.1154  0.4256  0.0505
 1138SOL    HW115047   4.450   2.153   0.654 -0.9073 -0.1378 -0.1043
 1138SOL    HW215048   4.310   2.207   0.663  0.0077 -1.2454 -1.0310
 1139SOL     OW15049   2.405   3.622  13.983  0.0064  0.2143 -0.2986
 1139SOL    HW115050   2.453   3.566  14.044 -2.2839 -0.3333  0.9653
 1139SOL    HW215051   2.346   3.670  14.040 -0.2546 -1.2690  0.6573
 1140SOL     OW15052   2.466   2.762   4.776 -0.3174  0.3560 -0.5972
 1140SOL    HW115053   2.408   2.834   4.749  3.0396  2.4489 -2.2673
 1140SOL    HW215054   2.528   2.765   4.703  0.7631 -2.4202  0.2221
 1141SOL     OW15055   2.119   1.849   6.337 -0.2429  0.1216  0.5432
 1141SOL    HW115056   2.119   1.941   6.362  0.0734 -0.2453  1.9517
 1141SOL    HW215057   2.054   1.826   6.404 -1.5140 -1.2970 -1.1979
 1142SOL     OW15058   2.760   3.786   3.207  0.0832  0.5779 -0.4671
 1142SOL    HW115059   2.815   3.836   3.268 -1.1003  0.5016  0.6760
 1142SOL    HW215060   2.828   3.780   3.141 -3.1730 -0.6267 -3.6806
 1143SOL     OW15061   2.094   1.799   0.835  0.3955 -0.2373 -0.0900
 1143SOL    HW115062   2.119   1.891   0.822 -2.7392  0.6663  0.0892
 1143SOL    HW215063   2.005   1.811   0.870  1.3138 -1.9362  2.8109
 1144SOL     OW15064   1.107   1.545   5.443 -0.5024 -0.4914  0.7630
 1144SOL    HW115065   1.150   1.460   5.451 -2.7421 -1.8924 -2.1553
 1144SOL    HW215066   1.180   1.597   5.478  0.4703 -0.9512 -0.5821
 1145SOL     OW15067   2.127   3.006   3.517 -0.2917  0.7411  0.8959
 1145SOL    HW115068   2.208   3.055   3.518  1.0161 -1.4509  2.1013
 1145SOL    HW215069   2.119   2.985   3.610 -1.9331 -0.0905  0.5704
 1146SOL     OW15070   0.587   1.062   9.073  0.0072  0.4922 -0.1160
 1146SOL    HW115071   0.578   1.129   9.140  0.0121  0.9013 -0.5186
 1146SOL    HW215072   0.679   1.035   9.078  0.5476  2.4333  0.5675
 1147SOL     OW15073   4.479   4.120   8.315  0.1925  0.3144  0.4785
 1147SOL    HW115074   4.435   4.205   8.317  0.5951  0.4978  1.2832
 1147SOL    HW215075   4.462   4.107   8.408  2.5757  2.0841  1.1536
 1148SOL     OW15076   2.099   1.477  14.183 -0.5276  0.3011  0.3269
 1148SOL    HW115077   2.070   1.479  14.092 -0.9550 -1.6995  0.4201
 1148SOL    HW215078   2.012   1.466  14.223 -1.2305  1.5884 -0.8728
 1149SOL     OW15079   1.212   0.767   8.204 -0.0760 -0.2683  0.1506
 1149SOL    HW115080   1.238   0.797   8.290 -1.2632  3.3744 -0.7544
 1149SOL    HW215081   1.199   0.856   8.171  0.2148 -0.2225  0.1631
 1150SOL     OW15082   0.246   3.852  10.573  0.2903 -0.1367 -0.1978
 1150SOL    HW115083   0.222   3.893  10.656  0.4363 -0.0710 -0.1889
 1150SOL    HW215084   0.284   3.765  10.582  0.0570 -0.3189 -0.9251
 1151SOL     OW15085   2.212   4.076  16.285 -0.7131 -0.1577 -0.4837
 1151SOL    HW115086   2.128   4.034  16.304 -0.3042 -1.0220 -0.5603
 1151SOL    HW215087   2.210   4.140  16.356 -1.2187 -2.0923  1.2312
 1152SOL     OW15088   1.799   2.913   7.643  0.1865  0.1272  0.4682
 1152SOL    HW115089   1.878   2.955   7.611  0.0625  0.1571  0.2065
 1152SOL    HW215090   1.763   2.876   7.563  0.9808  0.6044 -0.1063
 1153SOL     OW15091   4.460   4.073   5.414  0.5394  0.2049 -0.3979
 1153SOL    HW115092   4.493   3.987   5.388 -0.3179 -0.5718  1.0377
 1153SOL    HW215093   4.536   4.122   5.383  1.3160  0.3177  1.6617
 1154SOL     OW15094   1.888   1.527   5.858  0.2498  0.3261  0.6119
 1154SOL    HW115095   1.920   1.507   5.946  1.1817  1.2217  0.4705
 1154SOL    HW215096   1.951   1.595   5.832  0.3031  0.7100  1.7557
 1155SOL     OW15097   2.727   1.307   8.490  0.4144  0.0412  0.3538
 1155SOL    HW115098   2.763   1.293   8.402  0.6920 -1.7763  0.7556
 1155SOL    HW215099   2.809   1.293   8.537  0.0114 -0.2070  0.9802
 1156SOL     OW15100   0.832   0.230  12.096 -0.3082  0.1139 -0.0254
 1156SOL    HW115101   0.776   0.282  12.153 -2.2688  0.5061 -2.3156
 1156SOL    HW215102   0.791   0.146  12.117 -2.0642  0.9588 -0.0462
 1157SOL     OW15103   3.113   1.567   7.733 -0.4481 -0.4513 -0.4399
 1157SOL    HW115104   3.153   1.539   7.815 -1.2060  2.5619  0.9263
 1157SOL    HW215105   3.024   1.581   7.766  0.5873 -0.1452  2.1435
 1158SOL     OW15106   3.551   4.263   3.632  0.1980 -0.1057 -0.2713
 1158SOL    HW115107   3.616   4.204   3.668  1.2208  0.0573 -1.8263
 1158SOL    HW215108   3.541   4.220   3.547  1.0162 -3.4552  1.3255
 1159SOL     OW15109   3.514   0.825   5.831 -0.0275 -0.0080 -0.0592
 1159SOL    HW115110   3.602   0.794   5.807 -0.0927  1.1552 -1.7887
 1159SOL    HW215111   3.495   0.778   5.913  2.8808 -2.4121 -0.7494
 1160SOL     OW15112   3.723   2.253  12.677 -0.6776 -0.3395 -0.0905
 1160SOL    HW115113   3.750   2.279  12.765 -1.5006  1.9418 -0.4988
 1160SOL    HW215114   3.629   2.264  12.693 -0.5156  1.2500 -0.2523
 1161SOL     OW15115   4.540   2.316   2.513  0.4023 -0.0689  0.2235
 1161SOL    HW115116   4.541   2.220   2.510  0.7708 -0.0111 -1.6306
 1161SOL    HW215117   4.603   2.328   2.442  0.0174  0.1049 -0.0844
 1162SOL     OW15118   3.843   4.200  11.514  0.4564  0.0284  0.0432
 1162SOL    HW115119   3.755   4.237  11.515  0.9497  1.2067 -0.3624
 1162SOL    HW215120   3.864   4.202  11.607 -0.7255 -0.2508  0.3126
 1163SOL     OW15121   3.639   2.917   4.742  0.3903 -0.5789  0.6164
 1163SOL    HW115122   3.599   2.844   4.791  1.2198  0.0520  2.2295
 1163SOL    HW215123   3.610   2.988   4.799  0.7486 -0.9442  1.2622
 1164SOL     OW15124   3.268   0.804  13.809 -0.1569  0.1462  0.0779
 1164SOL    HW115125   3.225   0.747  13.745 -0.1262 -0.0185  0.2049
 1164SOL    HW215126   3.217   0.770  13.882  0.1650 -1.4575 -0.4334
 1165SOL     OW15127   3.620   3.519   3.313 -0.0114 -0.3187  0.9697
 1165SOL    HW115128   3.662   3.604   3.323  0.1982  0.0458 -2.7958
 1165SOL    HW215129   3.559   3.521   3.386 -0.0987  1.1846  0.8583
 1166SOL     OW15130   2.284   2.557   4.872 -0.1409  0.0597  0.0391
 1166SOL    HW115131   2.352   2.499   4.905 -0.8183  0.9055  2.9305
 1166SOL    HW215132   2.330   2.617   4.813  0.9528  1.2947  2.1915
 1167SOL     OW15133   2.990   1.251   0.726 -0.1944  0.7526 -0.5112
 1167SOL    HW115134   3.028   1.287   0.806 -2.3226  0.0201  0.8218
 1167SOL    HW215135   3.000   1.322   0.662  1.4380  0.8636 -0.1326
 1168SOL     OW15136   4.273   0.280   7.339  0.4555 -0.2991 -0.4695
 1168SOL    HW115137   4.263   0.270   7.245  2.4608  3.4359 -1.0908
 1168SOL    HW215138   4.345   0.220   7.356  1.2598  0.6410 -0.5392
 1169SOL     OW15139   2.877   1.232  10.763  0.7637 -0.6398 -0.3818
 1169SOL    HW115140   2.792   1.208  10.725 -0.0547  0.7382  0.5692
 1169SOL    HW215141   2.929   1.180  10.701  1.5510 -0.6868  0.3222
 1170SOL     OW15142   3.199   2.579   5.037 -0.4914 -0.6557  0.3937
 1170SOL    HW115143   3.292   2.562   5.023 -1.4752 -4.1198 -2.1310
 1170SOL    HW215144   3.205   2.620   5.124 -1.6593 -0.8544  0.5669
 1171SOL     OW15145   4.342   1.357   1.711  0.6858 -0.4342 -0.0385
 1171SOL    HW115146   4.364   1.328   1.623  2.2406  1.4000 -0.2561
 1171SOL    HW215147   4.259   1.396   1.683  1.6629  0.0142 -2.2625
 1172SOL     OW15148   4.531   1.186   5.636  0.5846 -0.3586 -0.2049
 1172SOL    HW115149   4.510   1.099   5.672 -0.7406  0.2292  0.4168
 1172SOL    HW215150   4.622   1.207   5.657  0.5119  1.0792 -1.3630
 1173SOL     OW15151   1.664   0.998   7.912 -0.2063  0.4737 -0.5404
 1173SOL    HW115152   1.722   0.932   7.875  1.3799  0.9254  1.1235
 1173SOL    HW215153   1.738   1.055   7.933  1.1040 -2.0342  1.6501
 1174SOL     OW15154   3.364   2.950   3.158 -0.0274 -0.3956  0.0991
 1174SOL    HW115155   3.373   3.035   3.115 -1.3416 -0.4358 -0.2390
 1174SOL    HW215156   3.454   2.918   3.167  1.3865  2.4701 -4.1703
 1175SOL     OW15157   0.881   0.121   7.333 -0.0796  0.4682  0.4545
 1175SOL    HW115158   0.885   0.026   7.342 -2.2173  0.3632  0.4676
 1175SOL    HW215159   0.966   0.158   7.353 -0.0790 -0.7317  2.6466
 1176SOL     OW15160   0.048   1.918   8.693  0.3164 -0.5198 -0.2848
 1176SOL    HW115161   0.126   1.881   8.733  1.8194  2.5050 -0.4256
 1176SOL    HW215162   0.035   1.983   8.762  0.3257  0.0479 -0.8178
 1177SOL     OW15163   3.610   4.722   1.861 -0.4244  0.0031 -0.3418
 1177SOL    HW115164   3.586   0.042   1.785  0.3686  2.5254  1.1140
 1177SOL    HW215165   3.548   0.020   1.927 -0.2245  1.3146 -0.7523
 1178SOL     OW15166   4.422   2.850   4.049  0.1306  0.4134  0.1728
 1178SOL    HW115167   4.510   2.857   4.087  0.5543 -0.8563 -0.5904
 1178SOL    HW215168   4.457   2.807   3.971 -1.5959 -0.7018  0.0286
 1179SOL     OW15169   3.672   1.105   7.589 -0.0132 -0.5932 -0.2168
 1179SOL    HW115170   3.581   1.086   7.612  0.0772  0.0911  0.7293
 1179SOL    HW215171   3.703   1.019   7.561  0.2206  0.0618 -1.9950
 1180SOL     OW15172   0.226   2.335   5.876  0.4263 -0.8222 -0.2000
 1180SOL    HW115173   0.257   2.391   5.805 -1.9635  0.6178 -0.1016
 1180SOL    HW215174   0.259   2.254   5.838  0.4969 -0.6114 -0.5818
 1181SOL     OW15175   1.701   1.227   0.119 -0.0250  0.0769 -0.1222
 1181SOL    HW115176   1.620   1.272   0.095  0.9341  0.4397 -2.6742
 1181SOL    HW215177   1.703   1.254   0.211 -0.4186 -0.8502  0.1561
 1182SOL     OW15178   1.089   1.917   5.599 -0.0689 -0.2684 -0.0638
 1182SOL    HW115179   1.070   1.917   5.505  1.7099 -1.0485 -0.4299
 1182SOL    HW215180   1.001   1.910   5.638 -0.2740  0.3000 -0.4219
 1183SOL     OW15181   2.412   0.554   8.214 -0.2091  0.2829 -0.2849
 1183SOL    HW115182   2.379   0.499   8.285  1.1898 -1.0648 -0.6810
 1183SOL    HW215183   2.343   0.542   8.150 -0.6667 -1.6130  0.5870
 1184SOL     OW15184   3.168   3.590   7.513  0.2013 -0.0614  0.0340
 1184SOL    HW115185   3.236   3.579   7.446 -0.4927 -0.7666 -0.5550
 1184SOL    HW215186   3.140   3.502   7.540  0.4000  0.1699  0.9882
 1185SOL     OW15187   2.891   1.456   9.322 -0.2025  0.0103  0.3714
 1185SOL    HW115188   2.875   1.526   9.385  3.0708 -0.6774  1.9602
 1185SOL    HW215189   2.954   1.495   9.261 -0.6844 -2.6928 -1.8645
 1186SOL     OW15190   3.756   0.659   1.290  0.0900  0.6332 -0.3386
 1186SOL    HW115191   3.667   0.638   1.319 -0.0359  1.6946  0.0190
 1186SOL    HW215192   3.729   0.672   1.199 -0.6142 -0.7764 -0.3406
 1187SOL     OW15193   1.000   2.816   5.156 -0.0729  0.4715 -0.1392
 1187SOL    HW115194   1.036   2.848   5.073 -0.8078 -0.8568 -0.9660
 1187SOL    HW215195   1.081   2.812   5.206  0.1210  0.8077 -0.4323
 1188SOL     OW15196   0.954   1.796   8.987  0.6836  0.4631 -0.0286
 1188SOL    HW115197   1.017   1.835   9.048  0.3681 -1.6544  1.6683
 1188SOL    HW215198   0.943   1.708   9.022 -1.1255  1.6206  2.3945
 1189SOL     OW15199   4.097   0.447   5.688  0.1693  0.1591 -0.2027
 1189SOL    HW115200   4.160   0.518   5.678  0.4859 -0.2330 -1.0295
 1189SOL    HW215201   4.032   0.476   5.623  0.4400 -0.5185 -0.7680
 1190SOL     OW15202   1.060   2.578   3.727  0.2400  0.4758  0.8491
 1190SOL    HW115203   1.022   2.661   3.698  1.9836  1.4671  1.3763
 1190SOL    HW215204   1.102   2.610   3.807  0.2972 -0.6708  1.2742
 1191SOL     OW15205   1.039   3.070  12.369  0.5088 -0.0631  1.4533
 1191SOL    HW115206   1.018   3.161  12.391  0.9387 -0.2282  2.5549
 1191SOL    HW215207   0.961   3.039  12.323  2.0138 -0.7122 -0.6240
 1192SOL     OW15208   1.350   1.360   7.519  0.2181 -0.2941 -0.0708
 1192SOL    HW115209   1.362   1.417   7.594  1.2984  0.3148 -0.7002
 1192SOL    HW215210   1.303   1.287   7.559 -1.2195  1.1820  0.8661
 1193SOL     OW15211   2.036   3.441  14.882 -0.3402  0.6203 -0.5875
 1193SOL    HW115212   2.075   3.525  14.907  0.7020  0.0482 -0.3052
 1193SOL    HW215213   1.956   3.468  14.836 -0.7887  2.6563  1.3195
 1194SOL     OW15214   0.231   0.865   4.179  0.3600 -0.0190  0.1611
 1194SOL    HW115215   0.325   0.878   4.182  0.5910 -1.9099  0.9940
 1194SOL    HW215216   0.225   0.794   4.243 -0.7460 -0.4208 -0.3940
 1195SOL     OW15217   0.278   3.120   7.361  0.6770 -0.1481  0.2954
 1195SOL    HW115218   0.298   3.187   7.427 -1.6036  0.8675 -0.0487
 1195SOL    HW215219   0.290   3.182   7.289 -1.0613  0.8725  0.8822
 1196SOL     OW15220   3.396   1.309   4.938  0.3531  0.0549 -0.2953
 1196SOL    HW115221   3.330   1.304   5.007 -0.0983 -2.5994 -0.8975
 1196SOL    HW215222   3.357   1.253   4.871  0.8153 -0.7379  0.0898
 1197SOL     OW15223   0.162   3.041   8.516 -0.2053  0.4130  0.3962
 1197SOL    HW115224   0.168   3.118   8.459 -0.2472  0.3018  0.2397
 1197SOL    HW215225   0.251   3.007   8.529 -1.0196 -0.9696  2.2803
 1198SOL     OW15226   4.086   3.977   7.359  0.1896  0.4080  0.0751
 1198SOL    HW115227   4.038   3.921   7.298  0.8088  2.2632 -2.1287
 1198SOL    HW215228   4.035   3.950   7.435  1.8868 -3.0159  0.0237
 1199SOL     OW15229   0.847   3.803   4.654  0.4083 -0.3033  0.1974
 1199SOL    HW115230   0.836   3.763   4.568  0.0005 -0.1772  0.1932
 1199SOL    HW215231   0.883   3.722   4.692  0.8490 -0.3313 -0.2801
 1200SOL     OW15232   4.123   2.799  17.516  0.0116 -1.2583  0.2460
 1200SOL    HW115233   4.206   2.770  17.480 -0.4839 -1.2574 -0.9025
 1200SOL    HW215234   4.147   2.820  17.606 -1.5496  0.2946  0.3067
 1201SOL     OW15235   2.736   4.081  12.649  0.1149 -0.2210  0.3786
 1201SOL    HW115236   2.781   4.005  12.685  0.4747  0.5551  1.5749
 1201SOL    HW215237   2.813   4.121  12.609 -1.2822  2.2162  0.1483
 1202SOL     OW15238   3.102   0.530   5.584  0.1606  0.1297  0.0317
 1202SOL    HW115239   3.181   0.483   5.557 -0.5680 -0.8571 -0.3432
 1202SOL    HW215240   3.052   0.461   5.626  0.3816  1.2557  2.1445
 1203SOL     OW15241   1.231   2.791   4.211  0.3623  0.4781  0.1785
 1203SOL    HW115242   1.281   2.871   4.197  0.0134  0.3424 -1.9214
 1203SOL    HW215243   1.175   2.820   4.284  1.4307 -1.8529  1.9233
 1204SOL     OW15244   0.188   3.551  14.585  0.1144 -0.1362 -0.2623
 1204SOL    HW115245   0.196   3.518  14.495  1.8616 -1.1815  0.2696
 1204SOL    HW215246   0.146   3.637  14.585  1.3875  0.4773 -0.6127
 1205SOL     OW15247   3.055   3.160   2.460 -0.1743 -0.6334  0.2947
 1205SOL    HW115248   3.007   3.226   2.410  1.1780 -0.1831 -0.4164
 1205SOL    HW215249   3.115   3.134   2.390 -0.1463 -1.3043  0.5695
 1206SOL     OW15250   3.628   2.585  13.255 -0.2369 -0.7136 -0.0851
 1206SOL    HW115251   3.639   2.505  13.306  0.7374 -0.2088  0.5016
 1206SOL    HW215252   3.532   2.590  13.263 -0.0571  1.8105  0.6048
 1207SOL     OW15253   3.730   4.032   9.338  0.1738  0.6281 -0.4388
 1207SOL    HW115254   3.823   4.056   9.336  0.3048  0.2065  0.6462
 1207SOL    HW215255   3.719   3.986   9.421  1.2792 -2.0834 -1.7942
 1208SOL     OW15256   0.874   3.288  17.111 -0.3349  0.0504 -0.1227
 1208SOL    HW115257   0.841   3.370  17.075  0.4975 -0.6081 -2.4291
 1208SOL    HW215258   0.902   3.315  17.198  1.0687 -1.3711 -0.1236
 1209SOL     OW15259   3.991   2.037  14.412  0.1098  0.2058  0.0806
 1209SOL    HW115260   3.952   2.121  14.435 -1.0433 -0.1132 -0.7124
 1209SOL    HW215261   3.931   1.982  14.462  1.0914 -2.7355 -1.9882
 1210SOL     OW15262   1.064   4.570   2.786 -0.0388  0.5911  0.4120
 1210SOL    HW115263   0.972   4.584   2.808 -0.8678  0.2333 -2.8357
 1210SOL    HW215264   1.053   4.487   2.740  1.4655  1.4361 -1.4325
 1211SOL     OW15265   1.100   0.143   0.993 -0.2577  0.4057 -0.0337
 1211SOL    HW115266   1.067   0.233   0.989  1.5762  1.1570  1.5905
 1211SOL    HW215267   1.128   0.134   1.084 -2.4129 -0.8776  0.5108
 1212SOL     OW15268   1.058   1.420   1.975 -0.0820  0.3135 -0.3572
 1212SOL    HW115269   1.107   1.469   1.909  1.0102 -1.5419 -0.9143
 1212SOL    HW215270   0.982   1.386   1.927  1.2819 -0.3964 -1.9867
 1213SOL     OW15271   3.678   0.793   3.153  0.0281  0.6877 -0.2783
 1213SOL    HW115272   3.694   0.724   3.088 -2.2710  1.6693 -1.9044
 1213SOL    HW215273   3.751   0.852   3.134  0.3338  0.2365 -0.5062
 1214SOL     OW15274   3.688   1.001   1.441 -0.1416 -0.0070  0.5678
 1214SOL    HW115275   3.698   0.990   1.535  0.4035  0.8217  0.6113
 1214SOL    HW215276   3.767   1.047   1.413 -0.1699  0.4239  1.2038
 1215SOL     OW15277   3.277   0.912  10.892 -0.3977 -0.0556 -0.0057
 1215SOL    HW115278   3.229   0.975  10.945 -1.4562 -1.1565  0.3283
 1215SOL    HW215279   3.356   0.887  10.941 -0.0929 -0.0854 -0.5029
 1216SOL     OW15280   4.032   1.063   5.678 -0.2111 -0.4464  0.1676
 1216SOL    HW115281   4.014   1.153   5.649 -1.4276 -1.1449 -1.2865
 1216SOL    HW215282   3.970   1.052   5.750 -0.0865  0.5527  0.4316
 1217SOL     OW15283   4.076   0.171  13.450  0.3571  0.0266 -0.0482
 1217SOL    HW115284   4.046   0.230  13.518  0.3975 -0.6534  0.5607
 1217SOL    HW215285   4.048   0.084  13.478 -0.8513  0.3077 -0.4028
 1218SOL     OW15286   0.163   1.881   7.534  0.0528 -0.4468  0.4964
 1218SOL    HW115287   0.112   1.876   7.615  0.1937  1.4125  0.7053
 1218SOL    HW215288   0.232   1.816   7.546  1.6490  0.8917 -1.5957
 1219SOL     OW15289   4.586   1.705  11.780 -0.2653 -0.5556 -0.4961
 1219SOL    HW115290   4.619   1.694  11.869 -0.3320  1.5865 -0.1982
 1219SOL    HW215291   4.491   1.703  11.789 -0.3360  1.5173 -0.6051
 1220SOL     OW15292   4.412   4.716  16.212  0.2722 -0.1146  0.2493
 1220SOL    HW115293   4.457   4.696  16.130 -3.2614  0.1127 -1.7362
 1220SOL    HW215294   4.341   4.652  16.214  1.2088 -1.1632  0.2449
 1221SOL     OW15295   0.892   2.556  11.640 -0.1715  0.4726  0.7554
 1221SOL    HW115296   0.949   2.611  11.585 -2.0002  1.6260 -0.0079
 1221SOL    HW215297   0.840   2.514  11.572  0.8159 -0.1649  0.3889
 1222SOL     OW15298   4.704   3.215   4.523 -0.0674  0.3042 -0.4728
 1222SOL    HW115299   4.722   3.308   4.528  2.1030 -0.2454  1.6550
 1222SOL    HW215300   0.060   3.188   4.499  0.0659  0.6734 -0.3837
 1223SOL     OW15301   0.242   2.639   7.759 -0.2246 -0.0315  0.2416
 1223SOL    HW115302   0.216   2.566   7.702  2.4036 -0.2681 -0.6438
 1223SOL    HW215303   0.231   2.716   7.703  1.6776  0.5960  0.7286
 1224SOL     OW15304   2.688   3.473  16.855 -0.5500  0.0145  0.1619
 1224SOL    HW115305   2.660   3.557  16.891 -0.0039 -0.2821  1.2569
 1224SOL    HW215306   2.783   3.484  16.858 -0.7914  1.8871  1.1044
 1225SOL     OW15307   1.032   2.495   3.377  0.1280  0.7256 -0.3445
 1225SOL    HW115308   1.092   2.460   3.443  0.5525  0.4695 -0.8610
 1225SOL    HW215309   1.085   2.548   3.317  1.7249 -1.4902 -0.8891
 1226SOL     OW15310   4.246   2.173  10.483 -0.3946 -0.0021 -1.2915
 1226SOL    HW115311   4.234   2.247  10.425  2.9043  1.0590 -0.6765
 1226SOL    HW215312   4.156   2.141  10.480 -0.4734 -0.0738  1.4193
 1227SOL     OW15313   1.868   0.279   7.187  0.8378 -0.5665 -0.0824
 1227SOL    HW115314   1.856   0.203   7.244 -0.5961  0.3131  0.7672
 1227SOL    HW215315   1.944   0.249   7.136  1.6831 -0.3614  1.0453
 1228SOL     OW15316   1.564   2.682   7.100 -0.0728  0.4941  0.2910
 1228SOL    HW115317   1.536   2.684   7.192 -0.0912 -2.0388  0.3400
 1228SOL    HW215318   1.634   2.747   7.099  0.8559 -0.5101  0.1054
 1229SOL     OW15319   4.619   1.891   6.595  0.1252 -0.4962 -0.0858
 1229SOL    HW115320   4.546   1.889   6.656  1.5497  0.4344  1.6667
 1229SOL    HW215321   4.694   1.942   6.626 -0.3138  0.0133  0.1296
 1230SOL     OW15322   1.418   4.003   5.505 -0.3124  0.4072 -0.6134
 1230SOL    HW115323   1.340   3.955   5.476  0.2337 -0.7897 -0.1144
 1230SOL    HW215324   1.386   4.036   5.588  1.3418 -0.2946  0.3009
 1231SOL     OW15325   1.521   0.805  13.139  0.3517 -0.4997  0.5657
 1231SOL    HW115326   1.601   0.771  13.179  0.5049  0.3462  0.9622
 1231SOL    HW215327   1.479   0.737  13.086  0.0369  0.2578 -0.1592
 1232SOL     OW15328   1.280   1.572   4.303 -0.1974  0.1412 -0.1706
 1232SOL    HW115329   1.317   1.618   4.378 -1.2440  1.6134 -0.5546
 1232SOL    HW215330   1.205   1.528   4.343 -0.8110  1.4440  0.1285
 1233SOL     OW15331   1.413   1.911   6.544 -0.2225  0.6182 -0.0022
 1233SOL    HW115332   1.344   1.974   6.566 -2.5149 -1.8999 -0.0115
 1233SOL    HW215333   1.452   1.903   6.631 -0.1606  1.8580  0.0883
 1234SOL     OW15334   3.527   1.038   0.433 -0.5155 -0.4121 -0.2589
 1234SOL    HW115335   3.512   1.109   0.496 -1.1051 -1.1190  0.3932
 1234SOL    HW215336   3.452   1.048   0.375  0.6070  1.1036 -1.4529
 1235SOL     OW15337   0.205   0.035   4.497  0.1766 -0.5904 -0.8959
 1235SOL    HW115338   0.152   4.706   4.446 -0.8953 -0.8736  0.5313
 1235SOL    HW215339   0.254   0.073   4.425  0.0281  2.1432  0.4258
 1236SOL     OW15340   0.602   0.506   1.653  0.1616  0.6543 -0.0764
 1236SOL    HW115341   0.628   0.433   1.597 -2.2806 -0.2850  0.0495
 1236SOL    HW215342   0.520   0.541   1.618 -1.3045 -1.2898  1.3882
 1237SOL     OW15343   3.677   1.999   1.976  0.1316 -0.4957  0.6275
 1237SOL    HW115344   3.679   2.093   1.957  0.4371  0.0361  3.2921
 1237SOL    HW215345   3.668   2.006   2.072 -0.0378  1.6347  0.4529
 1238SOL     OW15346   4.031   2.289   8.189  0.3409 -0.4508 -0.1102
 1238SOL    HW115347   3.954   2.326   8.146 -0.0638 -1.1201  0.0435
 1238SOL    HW215348   4.097   2.332   8.134  2.7609 -1.8341  1.6681
 1239SOL     OW15349   1.161   3.707   6.233 -0.1535 -0.5609  0.4992
 1239SOL    HW115350   1.167   3.749   6.319  0.3304 -0.2667  0.3176
 1239SOL    HW215351   1.069   3.682   6.222 -0.5985  1.2726  0.0842
 1240SOL     OW15352   1.526   0.979  14.293  0.1428  0.3658 -0.1731
 1240SOL    HW115353   1.564   1.062  14.263  0.6902  1.2675  2.9917
 1240SOL    HW215354   1.543   0.978  14.388  0.8077  3.3105 -0.2345
 1241SOL     OW15355   1.965   4.633   9.638  0.4978  0.1954 -0.5962
 1241SOL    HW115356   1.904   4.559   9.635  0.6765  0.0761 -1.3271
 1241SOL    HW215357   1.954   4.658   9.730 -1.3292  0.3103 -0.8359
 1242SOL     OW15358   2.239   3.701   9.517  0.6730  0.4924 -0.1010
 1242SOL    HW115359   2.187   3.626   9.487 -1.4767  2.2395 -0.6559
 1242SOL    HW215360   2.312   3.657   9.561  1.6199  0.7207 -1.4618
 1243SOL     OW15361   1.065   4.458   6.531 -0.0916  0.5438 -0.3659
 1243SOL    HW115362   1.155   4.448   6.503 -0.2539 -0.1193 -0.6550
 1243SOL    HW215363   1.067   4.482   6.624 -0.5609  0.3736 -0.3097
 1244SOL     OW15364   4.320   4.243   4.209  0.0893 -0.2269 -0.1383
 1244SOL    HW115365   4.271   4.219   4.130  1.8858 -0.1402 -1.2837
 1244SOL    HW215366   4.406   4.255   4.170 -0.5922  3.6026 -0.4174
 1245SOL     OW15367   2.807   1.974  10.859 -0.4919  0.6420 -0.1252
 1245SOL    HW115368   2.864   1.910  10.902  0.6727  0.4243 -1.9942
 1245SOL    HW215369   2.774   1.924  10.784 -0.8904  1.1280 -0.2710
 1246SOL     OW15370   0.259   4.123  13.977 -0.3443 -0.2618 -0.0901
 1246SOL    HW115371   0.292   4.125  14.067  1.0366  0.0604 -0.6070
 1246SOL    HW215372   0.194   4.053  13.983  1.2847 -1.6855  0.9899
 1247SOL     OW15373   1.288   0.939  13.145  0.3107  0.4096 -0.0785
 1247SOL    HW115374   1.376   0.902  13.140 -1.0437 -2.6699 -0.9945
 1247SOL    HW215375   1.240   0.884  13.083  1.3034  1.1280 -1.4888
 1248SOL     OW15376   3.029   2.236   0.801  0.9509  0.3877  0.3252
 1248SOL    HW115377   2.986   2.296   0.862 -2.2621 -2.4916  0.8740
 1248SOL    HW215378   3.122   2.254   0.816  0.8372  0.4638  0.9547
 1249SOL     OW15379   0.496   0.546   2.280  0.1169 -0.6743  0.3946
 1249SOL    HW115380   0.581   0.534   2.323  1.4417 -1.6231 -2.5141
 1249SOL    HW215381   0.477   0.454   2.259 -1.6341 -0.7000  1.9981
 1250SOL     OW15382   0.733   0.784   4.219 -0.2026  0.1587 -0.0617
 1250SOL    HW115383   0.793   0.813   4.151  0.8421 -0.8854  0.4238
 1250SOL    HW215384   0.773   0.702   4.248  0.2516 -0.1689 -1.6125
 1251SOL     OW15385   2.067   1.236   6.304  0.3080  0.1871  0.4250
 1251SOL    HW115386   2.091   1.328   6.317 -1.0974  1.0977 -3.4066
 1251SOL    HW215387   2.120   1.211   6.228 -0.2135  1.1407 -0.2675
 1252SOL     OW15388   2.954   2.648   9.985  0.0860  0.7058 -0.1571
 1252SOL    HW115389   2.887   2.679   9.924 -0.7026 -0.1952  0.2487
 1252SOL    HW215390   3.032   2.671   9.935  1.3015 -2.3443  0.3516
 1253SOL     OW15391   0.012   0.106   5.761  0.0288 -0.1954  0.2636
 1253SOL    HW115392   0.034   0.189   5.719 -0.2873  0.3326  1.1467
 1253SOL    HW215393   4.692   0.057   5.697  2.6646  0.2815 -2.2558
 1254SOL     OW15394   4.306   1.131   9.093  0.0818  0.0927 -0.0256
 1254SOL    HW115395   4.368   1.204   9.085  0.7756 -0.4514  0.3105
 1254SOL    HW215396   4.224   1.174   9.070 -1.0520 -1.3644  1.2280
 1255SOL     OW15397   4.568   2.735   7.294 -0.0990  0.5138 -0.5739
 1255SOL    HW115398   4.543   2.821   7.259 -0.4426  1.2242  1.4249
 1255SOL    HW215399   4.608   2.705   7.212 -0.5686 -1.1517 -0.1912
 1256SOL     OW15400   0.212   3.973   5.687  0.0294 -0.0629 -0.1948
 1256SOL    HW115401   0.273   4.021   5.630 -2.0249 -0.9301 -3.1092
 1256SOL    HW215402   0.248   4.001   5.771  1.4314  1.6879 -1.3812
 1257SOL     OW15403   4.530   1.617   7.924 -0.4073 -0.5405  0.8075
 1257SOL    HW115404   4.502   1.528   7.904  0.3175 -0.3575 -1.0189
 1257SOL    HW215405   4.609   1.609   7.978 -0.2808 -3.9253  0.1357
 1258SOL     OW15406   0.778   2.851   0.032  0.5509  0.4216 -0.4967
 1258SOL    HW115407   0.690   2.878   0.060  0.2863 -0.3175 -0.6104
 1258SOL    HW215408   0.763   2.761   0.004 -1.1619  0.1721  1.1976
 1259SOL     OW15409   0.415   3.263   6.018 -0.2142  0.2212 -0.1865
 1259SOL    HW115410   0.501   3.246   5.980  0.1848  1.1622  0.2789
 1259SOL    HW215411   0.410   3.359   6.013  2.0658  0.2634 -1.5248
 1260SOL     OW15412   4.366   0.228  14.181  0.5252  0.1979 -0.6652
 1260SOL    HW115413   4.399   0.192  14.263 -0.8404 -1.0017 -0.6442
 1260SOL    HW215414   4.437   0.290  14.163  0.2599  0.6545 -0.1534
 1261SOL     OW15415   4.046   0.831  14.752 -0.3684  0.3449 -0.8554
 1261SOL    HW115416   3.959   0.867  14.737 -0.1902  0.3616 -1.8614
 1261SOL    HW215417   4.071   0.856  14.841 -1.8220 -3.2669  0.5351
 1262SOL     OW15418   0.510   0.200  15.545 -0.1212  0.1648  0.1321
 1262SOL    HW115419   0.445   0.247  15.598 -0.8213  0.4160 -0.9326
 1262SOL    HW215420   0.455   0.137  15.499 -0.5784  1.6089 -1.3163
 1263SOL     OW15421   0.314   1.072  16.819  0.0545 -0.3952 -0.1610
 1263SOL    HW115422   0.305   1.052  16.913  0.4821 -2.5279 -0.5709
 1263SOL    HW215423   0.300   0.987  16.776  2.7866 -0.8750 -0.1337
 1264SOL     OW15424   2.150   3.816  12.879 -1.0047 -0.0958 -0.0105
 1264SOL    HW115425   2.190   3.777  12.956  2.3800 -0.5470 -2.0028
 1264SOL    HW215426   2.067   3.832  12.923 -0.8847 -0.3750  0.3165
 1265SOL     OW15427   0.101   2.625   9.852  0.2365  0.0671 -0.0335
 1265SOL    HW115428   0.105   2.720   9.846  0.5513  0.2043  2.4696
 1265SOL    HW215429   0.011   2.605   9.879 -1.1841  3.2983 -2.4287
 1266SOL     OW15430   2.089   0.975  14.083 -0.3976 -0.2740 -0.2849
 1266SOL    HW115431   2.124   0.925  14.157 -1.4344 -0.5815 -0.0046
 1266SOL    HW215432   2.142   1.054  14.088 -2.1119  0.9406 -1.2581
 1267SOL     OW15433   0.105   3.242  15.943 -0.3863 -0.2241  0.0823
 1267SOL    HW115434   0.072   3.273  16.027 -0.7054  1.5108 -0.6821
 1267SOL    HW215435   0.139   3.155  15.962 -0.7674 -0.7325 -1.6121
 1268SOL     OW15436   1.866   0.298   4.400 -0.0492  0.0579 -0.1571
 1268SOL    HW115437   1.889   0.206   4.390  0.0310  0.1502 -0.8079
 1268SOL    HW215438   1.814   0.288   4.480 -0.0201  0.6383 -0.0648
 1269SOL     OW15439   3.306   4.635   9.182  0.2806 -0.2942  0.2593
 1269SOL    HW115440   3.262   4.666   9.103 -0.1399 -1.6173 -0.0274
 1269SOL    HW215441   3.375   4.697   9.206  0.1259  0.1385 -0.4338
 1270SOL     OW15442   2.628   1.903   2.407  0.0544 -0.2752 -0.4043
 1270SOL    HW115443   2.588   1.942   2.485 -0.9191  0.6336 -1.3448
 1270SOL    HW215444   2.722   1.911   2.423 -0.0899  0.8102 -0.0832
 1271SOL     OW15445   4.569   3.883   2.157 -0.5860  0.1984 -0.4938
 1271SOL    HW115446   4.655   3.877   2.115  0.3846  3.0828  1.0791
 1271SOL    HW215447   4.537   3.793   2.161 -0.5204  0.2468  1.3213
 1272SOL     OW15448   1.967   1.051   7.506  0.4153  0.0443  0.1883
 1272SOL    HW115449   1.892   0.998   7.533 -1.4654  1.3476 -2.5098
 1272SOL    HW215450   1.940   1.139   7.534  1.6839  1.3991 -2.8366
 1273SOL     OW15451   0.497   2.436   4.633 -0.3419 -0.0824  0.4365
 1273SOL    HW115452   0.532   2.452   4.545  0.4477 -4.2329 -0.0155
 1273SOL    HW215453   0.409   2.419   4.599 -0.6734 -1.1656  1.8583
 1274SOL     OW15454   1.494   4.330   3.158  0.6808  0.3002 -0.1382
 1274SOL    HW115455   1.517   4.394   3.091  0.2389 -0.2076 -0.7744
 1274SOL    HW215456   1.576   4.308   3.202  0.2949 -1.6025 -0.3904
 1275SOL     OW15457   4.332   0.251   3.611  0.1521  0.1661  0.5757
 1275SOL    HW115458   4.384   0.173   3.630  0.2897  0.1107 -0.0124
 1275SOL    HW215459   4.294   0.230   3.525  0.3137 -1.1869  0.8358
 1276SOL     OW15460   0.739   2.515   9.281  0.0445  0.3409 -0.0201
 1276SOL    HW115461   0.677   2.572   9.327  3.4874  2.2765  2.1599
 1276SOL    HW215462   0.714   2.516   9.188  0.4317  1.0925 -0.1118
 1277SOL     OW15463   2.541   2.909  14.713 -0.4008 -0.4500  0.2214
 1277SOL    HW115464   2.473   2.967  14.680  0.1990 -1.0795 -2.0950
 1277SOL    HW215465   2.504   2.878  14.796 -2.3355  0.6779 -0.2293
 1278SOL     OW15466   0.792   1.153  12.568 -0.1218  0.0956  0.4294
 1278SOL    HW115467   0.701   1.137  12.591  0.2605 -0.2405  1.6916
 1278SOL    HW215468   0.820   1.063  12.552 -0.6294  0.3792 -2.1170
 1279SOL     OW15469   1.064   1.117  12.406  0.1167 -0.2678 -0.7984
 1279SOL    HW115470   0.973   1.088  12.402  0.3114 -0.9002 -0.6840
 1279SOL    HW215471   1.066   1.206  12.372 -2.3275 -0.4246 -1.3791
 1280SOL     OW15472   2.711   4.105  16.623  0.0720  0.4407  0.0421
 1280SOL    HW115473   2.801   4.135  16.609 -0.0594  2.2232  3.0743
 1280SOL    HW215474   2.717   4.036  16.689 -1.3681  0.8920  0.6339
 1281SOL     OW15475   3.054   1.577   9.143  0.4108 -0.0916 -1.2668
 1281SOL    HW115476   3.082   1.664   9.116 -0.0800  0.3979 -0.2319
 1281SOL    HW215477   3.020   1.539   9.062 -1.5615 -2.7101  0.7505
 1282SOL     OW15478   3.393   1.613   6.344  0.3152  0.8185  0.7514
 1282SOL    HW115479   3.484   1.584   6.339  0.3961  1.0299  0.9966
 1282SOL    HW215480   3.383   1.612   6.439 -1.5594 -1.8408  0.5315
 1283SOL     OW15481   1.474   0.695   8.798  0.1575 -0.5397  0.1299
 1283SOL    HW115482   1.438   0.693   8.709 -0.8886  2.3622  0.4897
 1283SOL    HW215483   1.543   0.756   8.773  1.9026 -2.8209 -0.5805
 1284SOL     OW15484   4.605   1.971   3.516  0.1022  0.2313 -0.1396
 1284SOL    HW115485   4.517   2.007   3.521  0.8498  2.2558 -1.5408
 1284SOL    HW215486   4.611   1.930   3.602  0.1837  0.1975 -0.1617
 1285SOL     OW15487   4.561   1.885  11.386  0.2618 -0.4810  0.4257
 1285SOL    HW115488   4.533   1.815  11.446  3.8462 -3.0383 -0.8414
 1285SOL    HW215489   4.545   1.963  11.439 -1.0091  0.1000 -0.8251
 1286SOL     OW15490   3.692   3.063   1.524 -0.9916  0.2156  0.7374
 1286SOL    HW115491   3.733   3.143   1.493 -1.7940  0.8443  1.2818
 1286SOL    HW215492   3.636   3.047   1.448  0.9064  0.0182 -0.5983
 1287SOL     OW15493   4.510   4.614   7.654  0.4381  0.5591  0.0343
 1287SOL    HW115494   4.417   4.601   7.638 -0.1211  0.8958  3.0015
 1287SOL    HW215495   4.552   4.539   7.612  1.8021  0.3906  1.6856
 1288SOL     OW15496   3.170   4.367   7.066  0.0959  0.6526  0.4184
 1288SOL    HW115497   3.186   4.279   7.101  1.6460 -0.1402 -2.2814
 1288SOL    HW215498   3.083   4.358   7.027  1.7990 -1.7832 -2.8097
 1289SOL     OW15499   1.558   1.509   5.849 -0.2691 -0.2040  0.4341
 1289SOL    HW115500   1.569   1.458   5.929 -0.0478 -1.0172 -0.1185
 1289SOL    HW215501   1.487   1.462   5.806 -0.0261  1.0777 -1.3862
 1290SOL     OW15502   1.043   3.014  15.784  0.4117 -0.1637  0.1647
 1290SOL    HW115503   1.029   3.032  15.691  1.3218 -1.1120 -0.1603
 1290SOL    HW215504   1.130   2.973  15.793  0.2371 -0.4674  0.5116
 1291SOL     OW15505   4.518   0.724   3.151 -0.4439  0.0525  0.0513
 1291SOL    HW115506   4.441   0.755   3.199  0.4660  0.3095  1.3184
 1291SOL    HW215507   4.543   0.642   3.192  1.4066 -0.1447 -1.4528
 1292SOL     OW15508   2.100   0.835   7.629 -0.4447 -0.4468 -0.4529
 1292SOL    HW115509   2.164   0.781   7.583  1.2323  0.0017  1.3663
 1292SOL    HW215510   2.091   0.917   7.579  0.8511  0.1959  0.3694
 1293SOL     OW15511   2.829   2.278  12.375 -0.0313  0.3534  0.4940
 1293SOL    HW115512   2.816   2.281  12.469 -1.0098  1.3446  0.3250
 1293SOL    HW215513   2.778   2.354  12.346 -0.8874  0.9708  3.6722
 1294SOL     OW15514   2.469   2.861  14.409 -0.1224 -0.0640 -0.0797
 1294SOL    HW115515   2.426   2.828  14.488 -1.2200 -1.3826 -1.2285
 1294SOL    HW215516   2.415   2.931  14.373 -1.0242 -0.1962  1.0327
 1295SOL     OW15517   1.770   0.733   5.722 -0.2342  0.0668 -0.2099
 1295SOL    HW115518   1.813   0.781   5.793 -0.6523  1.8413 -1.1554
 1295SOL    HW215519   1.716   0.802   5.683  1.2796  0.8682 -0.8978
 1296SOL     OW15520   2.706   1.291   5.504  0.0208 -0.4519  0.4885
 1296SOL    HW115521   2.743   1.280   5.592 -0.4417  1.4366  0.9316
 1296SOL    HW215522   2.692   1.202   5.474  0.4527 -1.0154  1.9376
 1297SOL     OW15523   1.664   4.078   7.433  0.4638  0.1226  0.6362
 1297SOL    HW115524   1.584   4.043   7.395  0.7404  0.9403 -0.6963
 1297SOL    HW215525   1.640   4.171   7.436 -2.0479 -0.4956 -0.6554
 1298SOL     OW15526   1.054   1.205   3.476 -0.2572  0.5826  0.3098
 1298SOL    HW115527   1.020   1.124   3.438  0.1823  0.6313 -0.1805
 1298SOL    HW215528   1.003   1.271   3.428  0.1783  0.6925 -0.0065
 1299SOL     OW15529   1.652   0.391  17.348 -0.7395 -0.0949  0.7131
 1299SOL    HW115530   1.708   0.464  17.323  0.7239 -0.6468  2.3644
 1299SOL    HW215531   1.584   0.424  17.406 -0.4405  1.2105  0.3085
 1300SOL     OW15532   4.020   0.068   6.083  0.6330 -0.1988  0.8369
 1300SOL    HW115533   3.937   0.107   6.057  0.6555 -1.1936 -0.6754
 1300SOL    HW215534   4.010   0.061   6.178 -2.0020  0.4652  0.6264
 1301SOL     OW15535   0.397   1.873   3.579  0.1295  0.0158  0.4889
 1301SOL    HW115536   0.480   1.831   3.602  1.0021  0.8093 -1.2047
 1301SOL    HW215537   0.427   1.947   3.526 -0.2617 -0.2626 -0.1218
 1302SOL     OW15538   4.310   0.165   0.750  0.5338  0.3296  0.0405
 1302SOL    HW115539   4.364   0.105   0.800  1.0018 -0.7486 -1.7638
 1302SOL    HW215540   4.274   0.105   0.685  1.8326 -0.5281  0.1234
 1303SOL     OW15541   2.255   0.058   5.355  0.2810 -0.2236  0.3273
 1303SOL    HW115542   2.256   0.122   5.426 -0.9178  1.9299 -1.6085
 1303SOL    HW215543   2.255   4.709   5.405  1.3901 -0.0526  0.6033
 1304SOL     OW15544   2.433   1.562  11.085  0.2346  0.0554  0.2226
 1304SOL    HW115545   2.464   1.492  11.027 -0.7303 -0.4679  0.3550
 1304SOL    HW215546   2.499   1.629  11.068 -1.0860  1.1142 -0.6776
 1305SOL     OW15547   1.033   4.052  10.792 -0.1964 -0.7253  0.1458
 1305SOL    HW115548   1.027   3.987  10.722 -2.2604  0.5151 -0.7927
 1305SOL    HW215549   1.079   4.127  10.756 -1.6366  0.4058  0.6767
 1306SOL     OW15550   3.895   4.661   2.951 -0.8018  0.2594 -0.5404
 1306SOL    HW115551   3.835   0.003   2.941  0.5092  1.0502 -2.5167
 1306SOL    HW215552   3.913   4.629   2.863 -1.3077 -1.3717 -0.0527
 1307SOL     OW15553   3.408   2.946   3.728  0.0327  0.1175 -0.4711
 1307SOL    HW115554   3.348   2.891   3.677  0.7820  0.0952 -1.3171
 1307SOL    HW215555   3.357   2.995   3.793  0.0707  1.9668 -1.8274
 1308SOL     OW15556   3.052   0.162   0.226 -0.4139  0.6488  0.0665
 1308SOL    HW115557   3.008   0.130   0.147 -0.3700 -1.5209  0.9105
 1308SOL    HW215558   3.134   0.199   0.191  2.2938 -3.2051  2.2511
 1309SOL     OW15559   0.315   1.946   5.855 -0.3130  1.2845  0.3158
 1309SOL    HW115560   0.405   1.930   5.881 -0.6511 -0.6766  0.2602
 1309SOL    HW215561   0.278   1.862   5.826 -0.9073  0.9144  2.1378
 1310SOL     OW15562   0.322   2.748   4.567 -0.4262  0.6739 -0.0400
 1310SOL    HW115563   0.338   2.707   4.482  0.0990 -1.3382  1.0303
 1310SOL    HW215564   0.229   2.768   4.570 -0.4494  0.3617  1.5827
 1311SOL     OW15565   0.669   0.121  13.225 -0.0612  0.3368  0.0379
 1311SOL    HW115566   0.744   0.139  13.169  0.4571 -0.5134  0.4555
 1311SOL    HW215567   0.709   0.100  13.309 -0.7599  2.4474  0.8960
 1312SOL     OW15568   2.740   2.481   7.446  0.3669  0.5472  0.0996
 1312SOL    HW115569   2.750   2.566   7.487 -1.2676  1.5166 -1.5154
 1312SOL    HW215570   2.831   2.477   7.416  0.0933  2.1198 -0.9173
 1313SOL     OW15571   4.279   2.956  12.384  0.0621 -0.8155  0.1273
 1313SOL    HW115572   4.342   2.934  12.316  1.1938  3.9242 -0.3981
 1313SOL    HW215573   4.327   3.014  12.444 -1.4164  0.3733  0.1661
 1314SOL     OW15574   3.538   1.419   9.249  0.0194 -0.0766 -0.0789
 1314SOL    HW115575   3.572   1.329   9.252 -0.0170 -0.0679  0.5456
 1314SOL    HW215576   3.537   1.440   9.342 -2.7832  0.9683 -0.3506
 1315SOL     OW15577   3.424   0.051   9.589 -0.5561 -0.3507 -0.5915
 1315SOL    HW115578   3.408   0.103   9.510 -2.5168  0.9747  0.6744
 1315SOL    HW215579   3.404   0.112   9.660 -1.0359 -0.7081 -0.4215
 1316SOL     OW15580   2.936   3.366   5.922  0.0544  0.5219  0.1152
 1316SOL    HW115581   2.912   3.376   6.014 -1.1757 -2.4810  0.1350
 1316SOL    HW215582   2.868   3.422   5.887 -0.7158 -0.7701 -0.4555
 1317SOL     OW15583   1.290   4.522   6.849  0.3121 -0.1052  0.4500
 1317SOL    HW115584   1.200   4.551   6.836  0.5530  1.0679  1.4988
 1317SOL    HW215585   1.303   4.511   6.943  0.7965 -0.5010  0.3364
 1318SOL     OW15586   0.827   3.454   5.696  0.0694 -0.0973 -0.3221
 1318SOL    HW115587   0.749   3.399   5.697  0.5379 -0.8235 -2.7682
 1318SOL    HW215588   0.797   3.541   5.721 -1.6938 -1.2522  1.5601
 1319SOL     OW15589   1.067   3.397   8.877 -0.0649  0.3030  0.5772
 1319SOL    HW115590   1.082   3.336   8.949 -1.5486  2.0028  2.3155
 1319SOL    HW215591   1.070   3.478   8.928 -0.1531  1.0679 -0.6476
 1320SOL     OW15592   3.145   4.695   3.126  0.0231  0.0941 -0.3417
 1320SOL    HW115593   3.227   4.667   3.166 -2.3393 -4.9521  1.0554
 1320SOL    HW215594   3.183   0.006   3.050  2.7285 -2.1618 -0.2709
 1321SOL     OW15595   2.829   3.905  15.759  0.0494  0.2178  0.1397
 1321SOL    HW115596   2.782   3.840  15.707 -0.0819 -0.9960  1.7594
 1321SOL    HW215597   2.756   3.963  15.778  0.3826  0.6130  0.2277
 1322SOL     OW15598   3.684   4.533  10.161 -0.2581  0.2688  0.0862
 1322SOL    HW115599   3.762   4.479  10.174 -1.1807 -1.5139 -1.7098
 1322SOL    HW215600   3.705   4.584  10.083 -1.5256 -1.8880 -1.6852
 1323SOL     OW15601   3.023   4.042   3.775 -0.0844 -0.2892  0.5927
 1323SOL    HW115602   3.067   4.005   3.852 -2.7919 -0.9157  1.8362
 1323SOL    HW215603   3.093   4.056   3.712 -0.1469  0.2202  0.6356
 1324SOL     OW15604   2.893   4.125   5.511  0.0416  0.5738  0.5320
 1324SOL    HW115605   2.847   4.206   5.486  1.3764  1.7539  1.9010
 1324SOL    HW215606   2.903   4.076   5.429  1.6443  2.1630 -0.2335
 1325SOL     OW15607   1.773   3.918   8.400 -0.2884  0.3875 -0.2816
 1325SOL    HW115608   1.721   3.998   8.399  1.4542  1.4833 -3.1355
 1325SOL    HW215609   1.857   3.944   8.363  0.0632 -1.5944 -0.8692
 1326SOL     OW15610   1.509   2.896  16.632 -0.6559  0.1265 -0.8085
 1326SOL    HW115611   1.454   2.965  16.595 -0.5857 -0.0000 -1.1487
 1326SOL    HW215612   1.580   2.896  16.568  0.2474 -1.1495  0.1900
 1327SOL     OW15613   3.937   3.803  14.512 -0.1798 -0.9009  0.0627
 1327SOL    HW115614   3.884   3.814  14.591  0.3254  0.9336  0.1336
 1327SOL    HW215615   3.918   3.717  14.475  0.8924 -0.8664 -0.5436
 1328SOL     OW15616   0.023   3.691   5.549  0.6155 -0.1422 -0.4044
 1328SOL    HW115617   4.681   3.690   5.609  0.0293 -2.0908 -1.1375
 1328SOL    HW215618   4.714   3.734   5.474  3.2631  0.0609 -1.7767
 1329SOL     OW15619   0.480   0.424  14.980  0.1490  0.9376 -0.5944
 1329SOL    HW115620   0.495   0.472  15.061  2.2926 -0.4093 -0.1922
 1329SOL    HW215621   0.561   0.376  14.961 -0.5981 -0.5327 -0.1189
 1330SOL     OW15622   0.209   2.616   3.833  0.5265 -0.0298  0.5477
 1330SOL    HW115623   0.289   2.649   3.793 -0.4651  0.2910 -1.1816
 1330SOL    HW215624   0.161   2.699   3.834  1.5014  0.5670 -3.0297
 1331SOL     OW15625   2.448   1.963   7.952  0.0591  0.1233  0.3371
 1331SOL    HW115626   2.490   2.046   7.975  0.5705  0.5890 -2.3124
 1331SOL    HW215627   2.362   1.985   7.916  0.8569 -0.2945 -1.8645
 1332SOL     OW15628   4.137   0.886   8.448  0.4163 -0.5019  0.0837
 1332SOL    HW115629   4.150   0.979   8.469  0.2871 -0.2640 -0.9070
 1332SOL    HW215630   4.223   0.856   8.479 -0.2437 -1.2569  1.1651
 1333SOL     OW15631   3.987   0.952   7.761 -0.3021 -0.2686  0.3089
 1333SOL    HW115632   4.044   0.994   7.696 -1.9214 -0.4214 -1.2364
 1333SOL    HW215633   4.032   0.868   7.768  0.6773  0.2576  0.2863
 1334SOL     OW15634   0.567   1.365  15.753 -0.4456 -0.5890 -0.2445
 1334SOL    HW115635   0.536   1.313  15.678 -1.5238 -0.2994 -0.0052
 1334SOL    HW215636   0.515   1.346  15.831  0.5895 -0.8017  0.3803
 1335SOL     OW15637   3.217   1.438  17.725  0.2562 -0.7681 -0.0435
 1335SOL    HW115638   3.153   1.487  17.674  2.1490  1.8883  0.1507
 1335SOL    HW215639   3.284   1.412  17.662  0.1751  1.7737 -1.1776
 1336SOL     OW15640   2.865   1.228   3.417  0.1001 -0.1195  0.3340
 1336SOL    HW115641   2.836   1.152   3.468 -1.0813 -0.1221 -0.3409
 1336SOL    HW215642   2.783   1.276   3.415 -0.0957 -0.4199  1.0224
 1337SOL     OW15643   1.530   0.305   9.287  0.0485 -0.2177  0.1845
 1337SOL    HW115644   1.595   0.375   9.286 -1.5459  1.2382 -1.9759
 1337SOL    HW215645   1.574   0.231   9.328  0.7945  1.1099  1.7530
 1338SOL     OW15646   2.016   1.272   5.043  0.3325 -0.4606 -0.2235
 1338SOL    HW115647   2.048   1.346   4.992  2.3822 -2.6365 -2.1056
 1338SOL    HW215648   2.074   1.199   5.019 -1.4805 -1.2517 -2.2382
 1339SOL     OW15649   0.554   4.487   7.958 -0.2901 -0.4698  0.2360
 1339SOL    HW115650   0.623   4.543   7.921  0.4579 -2.7097 -1.7322
 1339SOL    HW215651   0.501   4.555   7.999  0.3545  0.5067 -0.5435
 1340SOL     OW15652   4.367   4.430   8.121 -0.1935 -0.5847 -0.0122
 1340SOL    HW115653   4.302   4.393   8.180 -1.0974  1.8837  0.5478
 1340SOL    HW215654   4.326   4.419   8.035 -1.3399 -0.8736  0.5659
 1341SOL     OW15655   4.008   3.068  14.335  0.2471  0.5419  0.2564
 1341SOL    HW115656   4.093   3.110  14.318  0.1830  0.5044 -0.1606
 1341SOL    HW215657   4.039   3.007  14.402  1.8027  1.7541  0.6330
 1342SOL     OW15658   2.118   0.017   8.840 -0.4243  0.4063 -0.2876
 1342SOL    HW115659   2.177   0.071   8.894  0.5732  0.8741 -1.8496
 1342SOL    HW215660   2.036   0.017   8.889 -1.5677 -0.5905 -2.2358
 1343SOL     OW15661   1.567   0.673   3.797 -0.4660  0.1410  0.2703
 1343SOL    HW115662   1.496   0.734   3.816 -0.0179  0.6012  0.4625
 1343SOL    HW215663   1.650   0.721   3.804  1.4394 -3.1278  0.2549
 1344SOL     OW15664   1.400   3.258  15.404  0.5129  0.2194 -0.2436
 1344SOL    HW115665   1.485   3.274  15.363  0.6006 -0.3352 -0.2736
 1344SOL    HW215666   1.365   3.347  15.392  2.8238  1.2435  0.7105
 1345SOL     OW15667   1.083   2.553   6.584 -0.3695 -0.0592  0.1278
 1345SOL    HW115668   1.036   2.504   6.651 -2.0739  0.3805 -0.7440
 1345SOL    HW215669   1.007   2.597   6.544 -1.3694 -1.0616  0.9432
 1346SOL     OW15670   0.515   0.790   5.538 -0.0964  0.5271  0.2315
 1346SOL    HW115671   0.488   0.874   5.500 -1.2147 -0.3209 -0.8735
 1346SOL    HW215672   0.548   0.741   5.462  3.2211 -1.8886  3.2272
 1347SOL     OW15673   3.239   0.504  17.678 -0.4284  0.2461 -0.3106
 1347SOL    HW115674   3.170   0.518   0.015 -0.3625  0.2452 -0.2405
 1347SOL    HW215675   3.208   0.576  17.623 -0.1446 -0.1899 -1.0396
 1348SOL     OW15676   4.391   4.375   4.433  0.4472 -0.3761  0.1531
 1348SOL    HW115677   4.364   4.302   4.377 -1.4106  0.8454 -0.5311
 1348SOL    HW215678   4.411   4.325   4.512  1.6476  3.9261  2.5871
 1349SOL     OW15679   3.968   1.284  17.628 -0.2506 -0.0740 -0.0503
 1349SOL    HW115680   3.939   1.373  17.650 -0.5102 -0.0178 -0.6117
 1349SOL    HW215681   3.957   1.289  17.533  2.3114 -1.5441 -0.4131
 1350SOL     OW15682   0.145   4.717   3.445 -0.4214 -0.2392  0.4611
 1350SOL    HW115683   0.202   4.650   3.408  1.2094  1.2269  0.3132
 1350SOL    HW215684   0.207   0.043   3.489  1.0448 -0.6078 -1.1202
 1351SOL     OW15685   1.448   0.319   4.508 -0.0205 -0.7835  0.7592
 1351SOL    HW115686   1.511   0.389   4.523 -0.4279 -0.3415  0.3895
 1351SOL    HW215687   1.494   0.240   4.536 -1.1909 -2.1586 -1.1577
 1352SOL     OW15688   1.364   1.227  13.241  0.1780 -0.6007  0.6350
 1352SOL    HW115689   1.311   1.159  13.200 -0.7853  0.5019  0.0449
 1352SOL    HW215690   1.315   1.306  13.218  0.0172 -1.0715 -0.6401
 1353SOL     OW15691   1.172   1.619   3.220 -0.2740  0.3297 -0.1126
 1353SOL    HW115692   1.186   1.528   3.247 -0.0153  0.0519 -1.1893
 1353SOL    HW215693   1.208   1.617   3.131 -0.1271  0.1654 -0.0510
 1354SOL     OW15694   1.164   2.818   0.598 -0.3062 -0.0500  0.1774
 1354SOL    HW115695   1.100   2.804   0.528 -0.4564 -2.6676  0.8253
 1354SOL    HW215696   1.183   2.911   0.583  0.0022  0.0945  1.5320
 1355SOL     OW15697   3.251   4.059   3.608 -0.5413 -0.4147  0.4068
 1355SOL    HW115698   3.303   3.999   3.555  0.5245  1.9838 -1.2234
 1355SOL    HW215699   3.248   4.133   3.547  1.4164  0.2170  1.0866
 1356SOL     OW15700   2.531   2.614  17.354 -0.2240  0.3049  0.3566
 1356SOL    HW115701   2.479   2.694  17.361 -1.2573 -0.1642 -2.2305
 1356SOL    HW215702   2.519   2.585  17.264 -1.9531  0.8190  0.4212
 1357SOL     OW15703   4.451   4.443   8.645 -0.7376 -0.4364  0.5474
 1357SOL    HW115704   4.511   4.406   8.580 -1.0446 -1.6665  0.9681
 1357SOL    HW215705   4.404   4.367   8.677  0.8331 -0.6875  2.2599
 1358SOL     OW15706   1.972   4.547   2.337 -0.6725 -0.0491 -0.1700
 1358SOL    HW115707   2.059   4.534   2.298  0.8344  0.8117  2.9113
 1358SOL    HW215708   1.981   4.622   2.396  1.1936 -0.8538  0.5788
 1359SOL     OW15709   1.693   0.174   7.007  0.2493 -0.3605  0.5327
 1359SOL    HW115710   1.746   0.219   7.072  3.0240 -1.8277 -0.7128
 1359SOL    HW215711   1.707   0.227   6.929 -1.9547  0.2310  0.5412
 1360SOL     OW15712   0.187   3.460   5.418 -0.4242  0.6525 -0.3503
 1360SOL    HW115713   0.105   3.491   5.379 -0.5321 -1.4078 -1.8111
 1360SOL    HW215714   0.233   3.543   5.407 -0.1144  0.5235 -0.0126
 1361SOL     OW15715   3.065   1.620  14.263 -0.1995  0.2119 -0.0672
 1361SOL    HW115716   3.017   1.549  14.222  0.3950 -0.0855 -0.2552
 1361SOL    HW215717   3.150   1.579  14.245  0.7989  1.1255  2.5005
 1362SOL     OW15718   0.752   1.588  11.545  0.3013 -0.0166  0.3219
 1362SOL    HW115719   0.836   1.545  11.530  0.5561  0.4710  0.3662
 1362SOL    HW215720   0.773   1.680  11.529 -2.3896  0.8974  1.8072
 1363SOL     OW15721   0.944   1.455  17.715 -0.3466  0.3273 -0.0528
 1363SOL    HW115722   0.934   1.361  17.695 -0.6596  0.0777  1.3342
 1363SOL    HW215723   1.017   1.470  17.654  1.6646  0.9073  2.5224
 1364SOL     OW15724   0.268   2.979  13.278  0.1686  0.0272  0.1081
 1364SOL    HW115725   0.254   3.042  13.207 -2.1249  0.2672  0.7387
 1364SOL    HW215726   0.277   2.899  13.227  1.6547  0.4963 -0.3476
 1365SOL     OW15727   2.035   2.038  16.453  0.0544  0.0673  0.2257
 1365SOL    HW115728   1.944   2.010  16.452  0.6064 -1.6756 -1.4526
 1365SOL    HW215729   2.030   2.094  16.531  1.8371  0.5148  0.0308
 1366SOL     OW15730   3.088   2.710   4.032  0.3336  0.7579 -0.2087
 1366SOL    HW115731   3.166   2.694   3.978  0.6792 -3.0518  1.4475
 1366SOL    HW215732   3.079   2.623   4.071 -1.6372  1.0806  0.0369
 1367SOL     OW15733   0.484   1.829  12.683  0.6022  0.0858 -0.1227
 1367SOL    HW115734   0.528   1.786  12.756 -0.0377  0.6195  0.5702
 1367SOL    HW215735   0.492   1.918  12.716 -1.0655  0.2306 -0.0657
 1368SOL     OW15736   1.269   1.744   8.003  0.0768 -0.2082 -0.2975
 1368SOL    HW115737   1.310   1.830   7.998  1.7451 -1.0697 -1.3757
 1368SOL    HW215738   1.206   1.754   8.074 -0.0540  0.7596 -0.5470
 1369SOL     OW15739   1.003   0.288   2.880 -0.7845  0.2074 -0.2677
 1369SOL    HW115740   1.028   0.325   2.965 -0.6654  0.8208 -0.5698
 1369SOL    HW215741   1.052   0.207   2.893  1.8859  1.7744 -0.3018
 1370SOL     OW15742   3.768   2.957   5.128  0.4369  0.1967 -0.2436
 1370SOL    HW115743   3.736   3.017   5.195 -0.6380 -0.4721 -0.1592
 1370SOL    HW215744   3.722   2.874   5.144  1.5435 -0.2529  0.5935
 1371SOL     OW15745   2.773   1.764  12.559 -0.4196 -0.2847 -0.1280
 1371SOL    HW115746   2.833   1.690  12.563  0.2610  0.1304 -2.6878
 1371SOL    HW215747   2.763   1.781  12.465 -1.0271  1.3562  0.2279
 1372SOL     OW15748   2.278   0.391   7.792  0.3457 -0.4143 -0.1135
 1372SOL    HW115749   2.223   0.314   7.777  1.7734 -1.1077 -1.8565
 1372SOL    HW215750   2.217   0.463   7.780  1.1036 -0.1066 -2.1980
 1373SOL     OW15751   1.687   3.852   8.634 -0.2055 -0.0600  0.0232
 1373SOL    HW115752   1.722   3.860   8.545 -2.1513 -1.2108 -0.8453
 1373SOL    HW215753   1.755   3.899   8.683 -0.4757  0.2800  0.0748
 1374SOL     OW15754   4.420   4.361  14.917  0.0795 -0.1212  0.2850
 1374SOL    HW115755   4.442   4.305  14.992 -0.3950 -1.1866 -0.3566
 1374SOL    HW215756   4.458   4.313  14.843  1.1165  0.0365  0.7251
 1375SOL     OW15757   3.111   3.261   4.296  0.0566  0.9963  0.3629
 1375SOL    HW115758   3.128   3.219   4.380 -1.4214 -2.5757 -1.1560
 1375SOL    HW215759   3.124   3.350   4.330 -1.2353  2.3333 -2.6452
 1376SOL     OW15760   2.035   0.692   4.975  0.2845 -0.5348  0.6046
 1376SOL    HW115761   2.023   0.609   5.021 -2.6773 -1.5862 -2.0106
 1376SOL    HW215762   2.036   0.756   5.046  1.5416  1.3211 -1.0854
 1377SOL     OW15763   1.300   2.867  15.745  0.2859  0.0076  0.0443
 1377SOL    HW115764   1.340   2.922  15.678  0.4901 -0.6052 -0.3388
 1377SOL    HW215765   1.271   2.797  15.687  0.0418 -0.7463  1.0709
 1378SOL     OW15766   0.647   4.511   4.772  0.3990 -0.1681  0.4058
 1378SOL    HW115767   0.734   4.469   4.769  1.5780  2.5380 -3.0802
 1378SOL    HW215768   0.595   4.431   4.765  2.3185 -1.3597 -0.4282
 1379SOL     OW15769   1.152   0.703  12.242 -0.0510 -0.1343 -0.2974
 1379SOL    HW115770   1.165   0.774  12.305  0.1476 -0.9526  0.5854
 1379SOL    HW215771   1.074   0.661  12.278  0.6036 -1.0503  0.0399
 1380SOL     OW15772   3.836   2.220   0.364 -0.7954  0.9040 -0.0651
 1380SOL    HW115773   3.794   2.272   0.433 -0.7822  0.9808 -0.1157
 1380SOL    HW215774   3.905   2.273   0.326  1.4682 -1.7384  0.3387
 1381SOL     OW15775   0.770   4.683  12.119 -0.5317  0.1595 -0.2781
 1381SOL    HW115776   0.708   4.683  12.192  0.3880  0.2904  0.5079
 1381SOL    HW215777   0.849   4.678  12.173 -0.8847  0.2244  0.2496
 1382SOL     OW15778   1.338   2.861   8.835 -0.4426  0.2305  0.7550
 1382SOL    HW115779   1.287   2.781   8.845 -1.7994  0.8501 -1.3207
 1382SOL    HW215780   1.292   2.920   8.776 -2.1307 -2.5033 -0.6469
 1383SOL     OW15781   0.356   3.317   5.564 -0.3971 -0.7170 -0.1353
 1383SOL    HW115782   0.308   3.234   5.574 -1.9736 -0.2093 -3.2158
 1383SOL    HW215783   0.290   3.370   5.519 -0.0776 -0.0004  0.2439
 1384SOL     OW15784   2.006   0.652   9.013 -0.6263  0.2418 -0.0636
 1384SOL    HW115785   2.031   0.681   8.925 -2.5632  1.4099 -0.2201
 1384SOL    HW215786   2.084   0.687   9.057 -0.6918  1.7465 -1.1542
 1385SOL     OW15787   3.190   2.754   3.319  0.2634  0.1934  0.0882
 1385SOL    HW115788   3.222   2.816   3.254 -1.2792  2.1855  1.2278
 1385SOL    HW215789   3.238   2.673   3.301  1.0058  0.7785 -0.5273
 1386SOL     OW15790   0.318   3.388  11.813  0.2384  0.4059  0.0199
 1386SOL    HW115791   0.235   3.363  11.855  0.0898 -0.0803 -0.5553
 1386SOL    HW215792   0.375   3.315  11.836 -0.7301  0.2716  1.9839
 1387SOL     OW15793   4.371   0.019   1.621 -0.2894 -0.0512  0.1176
 1387SOL    HW115794   4.391   4.663   1.590  2.0661  1.1153 -1.6492
 1387SOL    HW215795   4.370   0.074   1.543 -1.0715  2.8891  2.1811
 1388SOL     OW15796   0.181   3.189  16.899 -0.3142 -0.6459  0.3934
 1388SOL    HW115797   0.161   3.098  16.878 -0.3638 -0.1579 -1.6587
 1388SOL    HW215798   0.110   3.207  16.961  0.9268  2.7138  0.8369
 1389SOL     OW15799   2.007   1.413   1.849 -0.0024 -0.3586  0.2420
 1389SOL    HW115800   2.074   1.344   1.853  0.6473  0.2897  0.5010
 1389SOL    HW215801   2.070   1.484   1.856 -0.6817  0.0403  2.0105
 1390SOL     OW15802   1.212   0.096   6.661 -0.3524 -0.6990  0.0454
 1390SOL    HW115803   1.129   0.087   6.709 -1.6351 -0.8886 -2.2471
 1390SOL    HW215804   1.182   0.064   6.577  0.0623  0.2253 -0.4549
 1391SOL     OW15805   1.616   3.977  16.622 -0.3680 -0.2892  0.4109
 1391SOL    HW115806   1.707   3.999  16.600 -1.0412  1.3938 -0.6650
 1391SOL    HW215807   1.603   4.022  16.705  0.9397  2.2087 -0.7523
 1392SOL     OW15808   3.333   2.536  11.115  0.3492  0.6255 -0.2167
 1392SOL    HW115809   3.367   2.528  11.204 -0.4441 -0.7539 -0.0420
 1392SOL    HW215810   3.346   2.445  11.090  3.2804  1.4925 -1.7572
 1393SOL     OW15811   2.370   4.024   4.683 -0.2137 -0.0118 -0.2384
 1393SOL    HW115812   2.314   4.042   4.608 -0.4999 -1.0760 -0.2813
 1393SOL    HW215813   2.361   4.095   4.745 -0.2589  0.6023 -0.9494
 1394SOL     OW15814   1.115   4.134   2.141 -0.4655  0.2969 -1.0510
 1394SOL    HW115815   1.152   4.104   2.058  0.9479  2.6869 -1.2872
 1394SOL    HW215816   1.036   4.176   2.108 -1.5362  0.4931  1.7371
 1395SOL     OW15817   4.562   2.005  16.046 -0.3553 -0.3691  0.1401
 1395SOL    HW115818   4.509   1.970  15.975  0.7447  1.0947 -1.4246
 1395SOL    HW215819   4.508   1.971  16.117 -1.0310  1.1206  0.3579
 1396SOL     OW15820   0.558   0.944   6.544 -0.3375  0.2479  0.2547
 1396SOL    HW115821   0.649   0.967   6.561  0.4937 -0.8746 -2.7680
 1396SOL    HW215822   0.532   1.018   6.490  1.2554 -0.3497 -1.3346
 1397SOL     OW15823   1.792   0.322  12.137  0.2430 -0.1960 -0.5910
 1397SOL    HW115824   1.727   0.259  12.107  2.4487 -1.7758 -2.0554
 1397SOL    HW215825   1.799   0.289  12.227 -0.3096 -0.5709 -0.6882
 1398SOL     OW15826   3.646   3.761   8.383  0.2958 -0.0631  0.0211
 1398SOL    HW115827   3.607   3.843   8.354 -1.5832 -0.2996  1.9089
 1398SOL    HW215828   3.733   3.790   8.411  0.9893 -2.6882  0.6209
 1399SOL     OW15829   1.254   2.945   7.991 -0.0448 -0.2601 -0.3317
 1399SOL    HW115830   1.265   3.020   7.933  1.0520  1.3620  1.9942
 1399SOL    HW215831   1.163   2.928   7.967 -0.6039  0.1265  1.5325
 1400SOL     OW15832   0.953   2.405   6.761 -0.0112  0.0298  0.3693
 1400SOL    HW115833   0.958   2.448   6.846  0.6218 -0.3645  0.5282
 1400SOL    HW215834   0.985   2.315   6.772 -2.1368 -0.8872 -1.0061
 1401SOL     OW15835   1.427   0.985   6.787 -0.0476  0.0094  0.4518
 1401SOL    HW115836   1.422   1.011   6.879 -0.7003  2.8191 -0.3719
 1401SOL    HW215837   1.406   0.892   6.791  0.4147 -0.0098  2.5299
 1402SOL     OW15838   0.721   3.756   5.382 -0.4074 -0.1880  0.1946
 1402SOL    HW115839   0.779   3.806   5.439  0.0516  0.8010 -1.1423
 1402SOL    HW215840   0.631   3.778   5.406 -0.1216 -0.7956  1.8079
 1403SOL     OW15841   2.208   2.014  10.953  0.2717  0.1222 -0.5647
 1403SOL    HW115842   2.144   1.999  11.022  0.0685  0.9930 -0.5631
 1403SOL    HW215843   2.284   2.027  11.011  0.1377  0.2784 -0.4222
 1404SOL     OW15844   0.503   2.542   3.387 -0.5985  0.1055  0.1741
 1404SOL    HW115845   0.510   2.544   3.291 -1.2404 -1.9222  0.0848
 1404SOL    HW215846   0.545   2.465   3.425  0.9985  1.0744  0.3911
 1405SOL     OW15847   2.215   2.518   9.111  0.0178  0.6634 -0.1686
 1405SOL    HW115848   2.225   2.534   9.017  4.2002  0.4724  0.2545
 1405SOL    HW215849   2.194   2.425   9.116  1.4273  0.4924  2.1773
 1406SOL     OW15850   4.099   2.190  12.768  0.3479 -0.5898  0.2737
 1406SOL    HW115851   4.045   2.267  12.753  0.5080 -0.5983 -0.3372
 1406SOL    HW215852   4.071   2.159  12.855  2.3260  1.8978  1.8079
 1407SOL     OW15853   4.659   1.742  15.449 -0.1431  0.0194  0.1156
 1407SOL    HW115854   4.668   1.790  15.367 -1.5723  0.9730  0.5295
 1407SOL    HW215855   0.014   1.704  15.465 -0.0080  0.1023 -0.4409
 1408SOL     OW15856   3.316   2.263   0.789 -0.3740  0.6735 -0.0013
 1408SOL    HW115857   3.390   2.202   0.784 -1.1485 -0.2092 -0.7643
 1408SOL    HW215858   3.311   2.284   0.696  1.0269 -0.5148 -0.3538
 1409SOL     OW15859   2.209   0.934  15.974  0.2900  0.2250  0.0748
 1409SOL    HW115860   2.185   1.014  15.927  1.5753 -0.4311 -1.6981
 1409SOL    HW215861   2.214   0.970  16.063 -1.2684  1.0007 -0.1472
 1410SOL     OW15862   1.091   2.628   9.677 -0.6499  0.3008  0.3087
 1410SOL    HW115863   1.086   2.692   9.748  1.4850  0.4366  0.3305
 1410SOL    HW215864   1.007   2.650   9.638 -0.7906  0.9817  0.9920
 1411SOL     OW15865   0.957   2.200  11.399  0.9307  0.3571 -0.1659
 1411SOL    HW115866   0.998   2.115  11.418 -1.0885 -0.3130  1.2074
 1411SOL    HW215867   0.869   2.193  11.436  0.3488  0.7430 -1.4961
 1412SOL     OW15868   2.036   3.284   2.140 -0.0271 -0.0675  0.2288
 1412SOL    HW115869   2.091   3.317   2.211  0.6306  1.7967 -1.1633
 1412SOL    HW215870   2.000   3.210   2.190  0.8356 -1.0994 -0.6793
 1413SOL     OW15871   0.360   4.699  14.655  0.4453  0.2032  0.0369
 1413SOL    HW115872   0.306   0.017  14.717  0.5348 -1.2715  1.3019
 1413SOL    HW215873   0.393   0.023  14.585 -0.8935  1.1109  0.1285
 1414SOL     OW15874   3.073   4.442   2.553  0.2760 -0.1748 -0.4069
 1414SOL    HW115875   3.056   4.369   2.493  0.4307 -0.4459 -0.1206
 1414SOL    HW215876   3.154   4.475   2.513  1.0515 -3.1807 -1.3019
 1415SOL     OW15877   3.093   0.593   0.177  0.2731 -0.5450  0.7686
 1415SOL    HW115878   3.037   0.669   0.163  0.7705 -0.4936 -0.8985
 1415SOL    HW215879   3.177   0.633   0.200  1.1138 -0.6314 -2.1289
 1416SOL     OW15880   3.146   4.324   0.825  0.1332 -0.0116 -0.1566
 1416SOL    HW115881   3.085   4.266   0.780  0.6023 -0.7187  0.1181
 1416SOL    HW215882   3.116   4.310   0.915 -2.1827 -2.3573 -1.2661
 1417SOL     OW15883   4.206   0.690   6.229 -0.1650 -0.1696  0.2525
 1417SOL    HW115884   4.189   0.727   6.315  0.9560  2.9207 -0.8492
 1417SOL    HW215885   4.281   0.632   6.243 -1.2051 -1.2327  1.3781
 1418SOL     OW15886   3.423   4.298   8.984  0.2075 -0.0119 -0.2172
 1418SOL    HW115887   3.455   4.209   8.998  1.4758  0.0325 -2.6844
 1418SOL    HW215888   3.386   4.319   9.069 -1.1421 -0.7886 -0.6176
 1419SOL     OW15889   0.967   1.189  17.595  0.7200 -0.4924  0.3361
 1419SOL    HW115890   0.951   1.120  17.659 -0.9384  1.1381  1.6473
 1419SOL    HW215891   1.063   1.188  17.590  0.7650  1.4252  0.9021
 1420SOL     OW15892   1.224   3.461   7.502 -0.2451 -0.1545  0.1902
 1420SOL    HW115893   1.275   3.524   7.553 -0.9018  0.5215  0.0096
 1420SOL    HW215894   1.205   3.391   7.565 -0.8946  0.4653  0.6742
 1421SOL     OW15895   1.843   0.341   9.026  0.0855  0.7679  0.3578
 1421SOL    HW115896   1.839   0.408   9.094 -1.4250 -0.1937  1.2329
 1421SOL    HW215897   1.789   0.384   8.959 -0.9180 -0.7719  0.1727
 1422SOL     OW15898   3.978   2.047   7.962  0.5027  0.0609 -0.0814
 1422SOL    HW115899   3.958   1.999   7.881  1.8363 -1.1901  0.3122
 1422SOL    HW215900   3.948   2.135   7.940  1.4207  0.1079 -1.1211
 1423SOL     OW15901   2.281   3.009   8.087 -0.3810 -0.2386  0.3618
 1423SOL    HW115902   2.376   3.014   8.089 -0.4281 -0.2494  2.6985
 1423SOL    HW215903   2.271   2.945   8.157 -0.9804 -2.2861 -1.5947
 1424SOL     OW15904   1.578   2.669   0.460  0.1087  0.1212 -0.2369
 1424SOL    HW115905   1.560   2.762   0.478  1.1728  0.1998  0.4437
 1424SOL    HW215906   1.499   2.638   0.503  1.4525 -1.6395  0.9713
 1425SOL     OW15907   4.299   2.858   3.533 -0.4955 -1.0723 -0.0724
 1425SOL    HW115908   4.389   2.873   3.561 -1.2343 -0.7870  2.1684
 1425SOL    HW215909   4.307   2.874   3.439  0.7408  2.4583  0.6526
 1426SOL     OW15910   4.341   2.081   3.532 -0.4557  0.3012  0.5248
 1426SOL    HW115911   4.373   2.137   3.460 -0.6359  1.7558  1.5815
 1426SOL    HW215912   4.264   2.128   3.563 -0.8405  0.4190 -0.5902
 1427SOL     OW15913   4.125   4.213   7.232 -0.2436 -0.2063 -0.4744
 1427SOL    HW115914   4.106   4.137   7.287  1.5263 -1.3627 -1.4615
 1427SOL    HW215915   4.059   4.189   7.167  0.2167  0.0163 -1.0232
 1428SOL     OW15916   1.499   2.732   9.431 -0.7523  0.3154 -0.2311
 1428SOL    HW115917   1.476   2.651   9.385 -1.5904 -1.5789  3.4096
 1428SOL    HW215918   1.581   2.764   9.394  0.1564 -0.1818  1.3317
 1429SOL     OW15919   0.837   0.608   2.105  0.4363 -0.4014 -0.0792
 1429SOL    HW115920   0.800   0.545   2.168 -2.1316  0.2713 -0.9018
 1429SOL    HW215921   0.826   0.575   2.015 -3.4252 -0.6299  0.4873
 1430SOL     OW15922   2.073   2.630  12.217  0.3630 -0.0330 -0.6214
 1430SOL    HW115923   2.109   2.691  12.153  1.0077  0.8836  0.6196
 1430SOL    HW215924   2.140   2.632  12.287  0.2551  0.9470 -0.5445
 1431SOL     OW15925   2.402   0.764   8.511  0.1456  0.1481  0.3703
 1431SOL    HW115926   2.485   0.788   8.470 -1.1499  0.1160 -2.2711
 1431SOL    HW215927   2.387   0.834   8.574 -0.7063  2.1394 -2.0696
 1432SOL     OW15928   3.792   1.669   4.600 -0.4917  0.4207  0.5222
 1432SOL    HW115929   3.747   1.613   4.537  0.4480 -1.1796  1.2744
 1432SOL    HW215930   3.819   1.591   4.648  0.3346 -0.5166 -1.4866
 1433SOL     OW15931   2.720   3.004   9.626 -0.3559 -0.0646  0.4359
 1433SOL    HW115932   2.638   3.048   9.649 -0.8197 -0.6283 -0.1598
 1433SOL    HW215933   2.746   3.044   9.543  0.1405  0.0506  0.6484
 1434SOL     OW15934   2.951   0.595  13.488 -0.1880  0.0034  0.1327
 1434SOL    HW115935   3.042   0.569  13.501 -0.9949 -1.0911  3.4132
 1434SOL    HW215936   2.931   0.669  13.544 -0.7041 -0.0234 -0.0141
 1435SOL     OW15937   2.964   3.459  13.649  0.0069 -0.1224  0.0934
 1435SOL    HW115938   2.896   3.394  13.632  0.3844 -0.6390  0.5623
 1435SOL    HW215939   2.916   3.541  13.637  0.9860  0.6361  1.3883
 1436SOL     OW15940   4.483   0.289   4.819  0.4339 -0.0167 -0.0481
 1436SOL    HW115941   4.520   0.210   4.859 -1.8358 -0.6912  0.6948
 1436SOL    HW215942   4.389   0.275   4.834 -0.0444  2.1483 -1.0670
 1437SOL     OW15943   4.393   1.059   5.249  0.4020  0.1994 -0.2014
 1437SOL    HW115944   4.461   0.991   5.251 -0.7893 -1.0765 -1.9751
 1437SOL    HW215945   4.375   1.069   5.155  0.7525 -0.8388 -0.3839
 1438SOL     OW15946   4.621   1.552  17.117 -0.4551  0.0996  0.8308
 1438SOL    HW115947   4.598   1.462  17.091  0.5859  0.5713 -1.7798
 1438SOL    HW215948   4.687   1.536  17.185 -1.8206  0.2718  2.1945
 1439SOL     OW15949   4.008   1.323   3.119 -0.2725 -0.9745  0.4331
 1439SOL    HW115950   4.066   1.362   3.054 -3.4627  1.1855 -1.0914
 1439SOL    HW215951   3.921   1.357   3.101  0.7850  1.0282 -0.9311
 1440SOL     OW15952   1.100   1.015  11.330  0.1366  0.2026 -0.5087
 1440SOL    HW115953   1.120   0.947  11.395  0.3182  0.8204  0.0817
 1440SOL    HW215954   1.186   1.027  11.290  0.5087 -0.8116 -0.0224
 1441SOL     OW15955   3.832   0.282   5.416  0.7245  0.7530  0.6564
 1441SOL    HW115956   3.807   0.362   5.462  1.0027  0.6373  1.0105
 1441SOL    HW215957   3.802   0.305   5.328 -0.9432  2.0948  1.5806
 1442SOL     OW15958   0.844   1.049   7.956 -0.3656  0.6947 -1.0857
 1442SOL    HW115959   0.819   1.009   8.039  1.8076  1.6692  0.0676
 1442SOL    HW215960   0.872   0.969   7.911  0.8572  1.2231 -1.2796
 1443SOL     OW15961   3.776   1.637  13.377 -0.4840 -0.0850  0.1986
 1443SOL    HW115962   3.689   1.598  13.368 -1.4578  2.7802 -2.6228
 1443SOL    HW215963   3.834   1.604  13.308  1.7006  1.1965  1.4250
 1444SOL     OW15964   4.004   2.546   7.667 -0.0116  0.0485 -0.0547
 1444SOL    HW115965   4.063   2.566   7.594  2.4623  2.0739  2.4753
 1444SOL    HW215966   4.055   2.477   7.709 -1.2288 -0.6307  0.2939
 1445SOL     OW15967   3.290   2.340   6.723  0.3667  0.4064  0.4744
 1445SOL    HW115968   3.202   2.331   6.687  0.8357 -1.1935 -0.2657
 1445SOL    HW215969   3.344   2.308   6.651  0.2328  2.2826 -0.4443
 1446SOL     OW15970   1.382   4.009   8.139  0.4391  0.0403  0.5486
 1446SOL    HW115971   1.362   3.966   8.056  1.6555  0.8336 -0.1604
 1446SOL    HW215972   1.460   3.965   8.173  0.5725  0.0968  0.3152
 1447SOL     OW15973   0.880   0.155   3.327 -0.3134 -0.3726  0.0952
 1447SOL    HW115974   0.901   0.219   3.395  0.5390 -1.8811  1.2530
 1447SOL    HW215975   0.964   0.114   3.309  0.3442  0.8253  0.4047
 1448SOL     OW15976   1.293   0.252  11.906 -0.4265  0.2937 -1.0353
 1448SOL    HW115977   1.289   0.344  11.933 -0.1860 -0.5012  1.7207
 1448SOL    HW215978   1.198   0.243  11.910 -0.2549 -1.7645 -1.6054
 1449SOL     OW15979   2.689   4.478   5.829 -0.0196  0.0561 -0.1829
 1449SOL    HW115980   2.649   4.399   5.865 -1.5218  0.9157  0.0577
 1449SOL    HW215981   2.734   4.505   5.909 -0.9996 -1.4281  0.8751
 1450SOL     OW15982   2.235   1.733   2.499 -0.3198  0.3993 -0.6051
 1450SOL    HW115983   2.145   1.699   2.495 -1.2997  2.9277 -0.3727
 1450SOL    HW215984   2.237   1.769   2.410  2.7276  1.6087 -0.0421
 1451SOL     OW15985   2.395   2.269   8.347  0.7148 -0.3095  0.0282
 1451SOL    HW115986   2.478   2.224   8.364  0.6526  0.1069  1.4021
 1451SOL    HW215987   2.340   2.222   8.410  0.7870  1.1888  1.2081
 1452SOL     OW15988   3.354   1.747   4.622 -0.5359  0.0134 -0.0147
 1452SOL    HW115989   3.368   1.836   4.655  0.8655 -0.2136  0.0058
 1452SOL    HW215990   3.359   1.692   4.701  1.7871 -0.9676 -0.8404
 1453SOL     OW15991   0.766   0.455  16.274 -0.0258  0.1360  0.3102
 1453SOL    HW115992   0.784   0.401  16.197  1.2927  0.4237  0.4239
 1453SOL    HW215993   0.731   0.535  16.234  0.7441  0.3241  0.0199
 1454SOL     OW15994   0.831   1.919   5.131  0.3399  0.2698  0.3185
 1454SOL    HW115995   0.772   1.993   5.137 -0.1855 -0.2605  1.7465
 1454SOL    HW215996   0.770   1.846   5.119  1.0747 -0.0126 -1.6887
 1455SOL     OW15997   1.624   0.978   0.824 -0.2495  0.6117  0.0559
 1455SOL    HW115998   1.661   1.065   0.836  0.2196  0.4220 -0.0251
 1455SOL    HW215999   1.659   0.950   0.739 -2.7529  1.1323 -1.1650
 1456SOL     OW16000   1.343   0.837   3.815  0.4242 -0.8373  0.1392
 1456SOL    HW116001   1.288   0.895   3.867  2.5588  1.7837 -0.5276
 1456SOL    HW216002   1.352   0.888   3.734 -1.2122 -0.4582  0.1915
 1457SOL     OW16003   2.153   0.814   9.680 -0.3069 -0.2571 -0.3622
 1457SOL    HW116004   2.232   0.855   9.644  0.4402  0.9450  2.5899
 1457SOL    HW216005   2.169   0.826   9.774  0.5224  2.8770 -0.8966
 1458SOL     OW16006   0.969   2.272   9.509  0.0551 -0.2050  0.0419
 1458SOL    HW116007   0.896   2.215   9.531 -0.6740  1.2196  1.2492
 1458SOL    HW216008   0.990   2.311   9.594 -0.2107  0.4071 -0.1705
 1459SOL     OW16009   2.357   1.159  12.389 -0.0706  0.2961 -0.2028
 1459SOL    HW116010   2.307   1.088  12.348  0.5760  1.2865 -2.6973
 1459SOL    HW216011   2.399   1.204  12.316 -1.9280  2.4018  0.0200
 1460SOL     OW16012   0.384   0.363  12.532  0.0556 -0.4171 -0.7506
 1460SOL    HW116013   0.400   0.445  12.579 -1.4260 -0.8337  0.4815
 1460SOL    HW216014   0.402   0.391  12.443  0.3676 -0.9151 -0.8456
 1461SOL     OW16015   0.081   3.771   4.632 -0.3434 -0.0367 -0.2933
 1461SOL    HW116016   0.075   3.862   4.661 -0.0414  0.6766 -2.5137
 1461SOL    HW216017   0.161   3.753   4.682 -1.5227 -0.1223  1.5467
 1462SOL     OW16018   4.479   2.960   4.815  0.0392 -0.5032 -0.7897
 1462SOL    HW116019   4.525   2.920   4.741  2.2472  0.9465 -0.2144
 1462SOL    HW216020   4.462   2.881   4.866 -0.5223  0.1635  0.0541
 1463SOL     OW16021   3.641   2.355  15.791  0.2396  0.0736  0.1702
 1463SOL    HW116022   3.689   2.432  15.759 -0.8265 -0.0823 -1.8367
 1463SOL    HW216023   3.615   2.386  15.878 -1.2644  0.6550 -0.4726
 1464SOL     OW16024   1.544   4.200   6.738 -0.3671  0.2624 -0.0401
 1464SOL    HW116025   1.547   4.273   6.800  0.9075  0.7816 -0.7037
 1464SOL    HW216026   1.563   4.122   6.789  0.0248 -1.3760 -2.6550
 1465SOL     OW16027   2.143   3.451   4.550 -0.8211 -0.6044  0.7380
 1465SOL    HW116028   2.078   3.457   4.480 -2.1144  0.1248  2.0036
 1465SOL    HW216029   2.211   3.513   4.524 -0.5871 -1.4139 -0.5707
 1466SOL     OW16030   2.805   2.129   3.525  0.6032  0.2602 -0.2169
 1466SOL    HW116031   2.741   2.131   3.454 -1.5543  1.7267  1.8022
 1466SOL    HW216032   2.752   2.175   3.589  2.2185 -0.9008  1.9659
 1467SOL     OW16033   0.084   1.128   0.883  0.8508  0.6233  0.4339
 1467SOL    HW116034   0.108   1.067   0.952  2.3851 -0.6606 -1.2203
 1467SOL    HW216035   0.109   1.213   0.920  0.1872 -0.5218  3.4396
 1468SOL     OW16036   2.745   2.611   3.952  0.1598 -0.3382 -0.5659
 1468SOL    HW116037   2.677   2.645   3.894  1.1113  1.7012 -0.4696
 1468SOL    HW216038   2.739   2.675   4.023 -0.0151 -1.0893  0.0986
 1469SOL     OW16039   3.859   0.450   0.967 -0.5145 -0.0661 -0.1551
 1469SOL    HW116040   3.789   0.514   0.978  0.2884  1.0999 -1.8421
 1469SOL    HW216041   3.854   0.394   1.044  2.0677  1.8599  1.4166
 1470SOL     OW16042   0.128   0.522  11.943 -0.3111  0.3999 -0.2314
 1470SOL    HW116043   0.184   0.449  11.917  0.3580  0.3093  1.4603
 1470SOL    HW216044   0.155   0.537  12.033 -0.6726 -0.6502  0.0571
 1471SOL     OW16045   0.536   1.750   0.382 -0.6272  0.1337  0.4934
 1471SOL    HW116046   0.569   1.777   0.467  3.8834  1.6256 -1.7511
 1471SOL    HW216047   0.537   1.655   0.397 -4.6585 -0.1076 -0.5579
 1472SOL     OW16048   0.631   3.302   8.311 -0.3008 -0.1804  0.2826
 1472SOL    HW116049   0.712   3.269   8.349  1.0506  3.2847  0.4248
 1472SOL    HW216050   0.640   3.397   8.325  3.1080 -0.3455 -0.9592
 1473SOL     OW16051   2.909   1.323   4.786  0.0905  0.1255 -0.2739
 1473SOL    HW116052   2.832   1.365   4.749 -0.0172  1.8081  1.8078
 1473SOL    HW216053   2.911   1.241   4.738 -1.4077  0.0060 -0.1161
 1474SOL     OW16054   4.669   2.225  17.234 -0.0938  0.3748  0.3481
 1474SOL    HW116055   0.025   2.209  17.268 -0.2305  1.2092  1.1205
 1474SOL    HW216056   4.645   2.314  17.261 -1.0029  0.9295 -2.2740
 1475SOL     OW16057   4.403   2.522   5.998 -0.2045  0.6286  0.2462
 1475SOL    HW116058   4.468   2.546   5.932 -1.2354  4.4408  0.6148
 1475SOL    HW216059   4.347   2.456   5.957  3.0007 -2.1855  0.4126
 1476SOL     OW16060   3.216   3.124  13.828 -0.5490 -0.0485 -0.1031
 1476SOL    HW116061   3.218   3.220  13.838  2.1296 -0.2742  1.5796
 1476SOL    HW216062   3.183   3.091  13.912 -1.4866  1.0118 -0.0413
 1477SOL     OW16063   0.140   4.145   1.766  0.0310 -0.8005  0.2637
 1477SOL    HW116064   0.140   4.052   1.788  1.9801 -1.1765 -1.3925
 1477SOL    HW216065   0.059   4.135   1.717  1.0052  1.7635 -1.8629
 1478SOL     OW16066   0.824   4.075   8.928  0.3870 -0.0328 -0.0816
 1478SOL    HW116067   0.781   4.122   8.856 -0.3828  0.2342  0.5444
 1478SOL    HW216068   0.895   4.135   8.949  1.3897 -0.0979 -3.2760
 1479SOL     OW16069   4.694   0.733   4.945  0.5129  0.4016 -0.3615
 1479SOL    HW116070   4.726   0.810   4.993  0.9458  0.8295 -1.3238
 1479SOL    HW216071   4.712   0.657   4.999 -1.1538 -0.9902 -1.7646
 1480SOL     OW16072   3.105   2.771  16.147 -0.1634 -0.3999 -0.0763
 1480SOL    HW116073   3.107   2.677  16.167  1.6399 -0.1720  0.8148
 1480SOL    HW216074   3.032   2.777  16.086  1.7733  1.4050 -2.1870
 1481SOL     OW16075   4.123   2.606   8.490 -0.1738  0.1277  0.2850
 1481SOL    HW116076   4.114   2.513   8.509 -1.3531  0.4689  1.3880
 1481SOL    HW216077   4.081   2.645   8.567 -0.3620  0.3749  0.0601
 1482SOL     OW16078   0.793   1.332  14.385 -0.0310  0.7104  0.1374
 1482SOL    HW116079   0.753   1.418  14.397 -1.2408  0.2960 -0.9736
 1482SOL    HW216080   0.879   1.347  14.423 -0.6403  2.7616  0.7212
 1483SOL     OW16081   2.888   1.724  15.663 -0.2172  0.2080  0.2249
 1483SOL    HW116082   2.838   1.778  15.601  0.5666  1.0912  0.3523
 1483SOL    HW216083   2.892   1.773  15.745  3.7832 -2.3012  1.5028
 1484SOL     OW16084   3.246   0.524   3.756 -0.1702 -0.4062 -0.5038
 1484SOL    HW116085   3.228   0.523   3.850  1.8200 -0.8751 -0.1321
 1484SOL    HW216086   3.319   0.584   3.739 -0.5106 -0.0515 -0.7250
 1485SOL     OW16087   4.141   0.438   8.483 -0.0087 -0.3047  0.2348
 1485SOL    HW116088   4.167   0.427   8.575  1.1093  1.3299  0.1111
 1485SOL    HW216089   4.208   0.498   8.450  1.3070 -1.5202  0.7134
 1486SOL     OW16090   0.617   0.459   4.060  0.2170  0.0093  0.5310
 1486SOL    HW116091   0.710   0.443   4.073  0.2742  0.3649  0.5387
 1486SOL    HW216092   0.608   0.467   3.965  2.1146 -0.5631  0.2939
 1487SOL     OW16093   0.929   0.033  14.475  0.2594  0.5059 -0.3211
 1487SOL    HW116094   0.970   0.094  14.413  1.0133  1.3265  0.9885
 1487SOL    HW216095   0.983   0.039  14.554  3.3267 -1.6977 -2.2381
 1488SOL     OW16096   2.926   1.198  17.283  0.1339 -0.6372 -0.1416
 1488SOL    HW116097   2.996   1.168  17.340  0.5345  2.1799  0.8665
 1488SOL    HW216098   2.868   1.228  17.353  1.1747  0.9991  0.0246
 1489SOL     OW16099   1.145   3.612   6.633 -0.3890 -0.2656  0.3191
 1489SOL    HW116100   1.209   3.546   6.660  1.5249  0.6661 -1.9486
 1489SOL    HW216101   1.087   3.622   6.708  0.6445 -1.0046  1.2190
 1490SOL     OW16102   2.461   1.386   5.189 -0.0753  0.3850  0.3712
 1490SOL    HW116103   2.384   1.354   5.142  0.0274  0.8786 -0.1301
 1490SOL    HW216104   2.526   1.317   5.185 -1.9256 -1.4106  1.3109
 1491SOL     OW16105   1.086   1.807   8.179  0.0066 -0.2264 -0.0564
 1491SOL    HW116106   1.064   1.804   8.272  0.0634  1.8617  0.0279
 1491SOL    HW216107   1.051   1.892   8.152  3.2831  1.0634 -0.1719
 1492SOL     OW16108   2.785   1.136  13.704 -0.1465 -0.2546 -0.4436
 1492SOL    HW116109   2.765   1.044  13.684  1.6388 -0.2994 -1.9299
 1492SOL    HW216110   2.700   1.174  13.684  0.2338  0.1976 -1.1627
 1493SOL     OW16111   1.040   1.871   9.328  0.0834 -0.4956  0.2608
 1493SOL    HW116112   0.950   1.901   9.342  0.2053  0.7695 -1.6821
 1493SOL    HW216113   1.064   1.871   9.235 -1.9103 -2.5662 -0.2712
 1494SOL     OW16114   0.655   4.661   5.449 -0.0876 -0.3300 -0.1684
 1494SOL    HW116115   0.643   0.012   5.404  0.1638  0.5734  1.4533
 1494SOL    HW216116   0.633   4.605   5.373 -0.3106  0.2385 -0.5214
 1495SOL     OW16117   2.290   1.543   4.383 -0.2542 -0.2202 -0.0428
 1495SOL    HW116118   2.205   1.568   4.347 -0.0430 -1.2529 -1.2787
 1495SOL    HW216119   2.318   1.619   4.434  0.8227 -0.5167 -0.1867
 1496SOL     OW16120   4.388   1.808  13.192 -1.0398 -0.4111 -0.4554
 1496SOL    HW116121   4.468   1.796  13.243  1.3520 -3.4901 -4.9918
 1496SOL    HW216122   4.319   1.825  13.256 -0.4775  0.2760 -0.0341
 1497SOL     OW16123   1.690   0.151   5.764  0.0032 -0.1889  0.2580
 1497SOL    HW116124   1.604   0.111   5.772 -1.0751  2.0433 -0.4480
 1497SOL    HW216125   1.722   0.131   5.852  0.4025  2.0544  0.6174
 1498SOL     OW16126   0.403   2.498   6.242 -0.5592  0.3688  0.5415
 1498SOL    HW116127   0.397   2.422   6.183  0.5166 -0.2537  1.2356
 1498SOL    HW216128   0.344   2.554   6.191 -0.1685 -0.7798 -1.1747
 1499SOL     OW16129   1.612   3.227   0.693 -0.5999  0.5989 -0.2917
 1499SOL    HW116130   1.589   3.319   0.678 -0.1057  0.7096 -0.3928
 1499SOL    HW216131   1.607   3.224   0.789  1.8165 -1.1807 -0.2045
 1500SOL     OW16132   1.188   4.234   1.200 -0.0436 -0.4582 -0.1934
 1500SOL    HW116133   1.139   4.157   1.172 -1.0398  0.6811 -1.5733
 1500SOL    HW216134   1.174   4.238   1.295 -0.0855  2.5270 -0.3184
 1501SOL     OW16135   4.717   3.152   9.485 -0.0304  0.2484  0.2262
 1501SOL    HW116136   0.053   3.195   9.434  1.0691  1.1232  2.4169
 1501SOL    HW216137   0.021   3.063   9.481 -2.1339 -0.5988 -0.1241
 1502SOL     OW16138   3.517   3.579  12.732 -0.9732 -0.5375 -0.3394
 1502SOL    HW116139   3.538   3.671  12.749 -0.8309 -0.6784  0.2594
 1502SOL    HW216140   3.497   3.581  12.638 -1.4130  1.7004 -0.1917
 1503SOL     OW16141   1.442   3.111   1.883  0.0056 -0.2765 -0.0298
 1503SOL    HW116142   1.418   3.019   1.878 -0.6251 -0.0184 -1.8336
 1503SOL    HW216143   1.404   3.140   1.966 -0.3647 -1.1882  0.1206
 1504SOL     OW16144   3.652   4.446   8.151  0.5163 -0.4189  0.9751
 1504SOL    HW116145   3.651   4.369   8.208 -0.0841 -1.0027  0.1667
 1504SOL    HW216146   3.733   4.491   8.172  0.0795  0.0983  1.5572
 1505SOL     OW16147   0.974   0.047  13.259  0.5681  0.0261 -0.2343
 1505SOL    HW116148   1.010   0.133  13.281  0.4618  0.2840 -1.0579
 1505SOL    HW216149   0.933   0.060  13.173  0.5242 -2.3605 -0.5655
 1506SOL     OW16150   3.174   3.958   4.129 -0.5964 -0.1814  0.3403
 1506SOL    HW116151   3.112   3.918   4.069 -0.3337 -0.7466  0.4383
 1506SOL    HW216152   3.153   3.911   4.210  0.1952  0.2732  0.8212
 1507SOL     OW16153   3.280   4.363   6.225  0.4903 -0.2654  0.1362
 1507SOL    HW116154   3.196   4.328   6.194  0.7489 -0.4997 -0.3027
 1507SOL    HW216155   3.275   4.338   6.317 -0.3923 -2.7623 -0.5848
 1508SOL     OW16156   3.988   0.800  17.640  0.1935  0.6135 -0.0400
 1508SOL    HW116157   4.014   0.730  17.581  2.0668  1.1924  0.1010
 1508SOL    HW216158   4.065   0.857  17.635  0.4212  0.1511 -1.9103
 1509SOL     OW16159   3.806   2.000  15.892  0.5815  0.3481  0.0453
 1509SOL    HW116160   3.816   1.905  15.887  1.0337  0.3762  0.4174
 1509SOL    HW216161   3.830   2.018  15.983  0.7245 -1.3104  0.3288
 1510SOL     OW16162   4.530   1.736   5.806  0.3946  0.3196  0.0742
 1510SOL    HW116163   4.557   1.772   5.721 -1.7179  0.5175 -0.4996
 1510SOL    HW216164   4.592   1.778   5.865  1.0433  0.3505 -0.6185
 1511SOL     OW16165   0.353   3.110  12.706  0.4185  0.0452 -0.1073
 1511SOL    HW116166   0.417   3.058  12.754  0.6158 -0.2184 -0.6601
 1511SOL    HW216167   0.278   3.094  12.764 -1.0345 -1.6687 -2.4945
 1512SOL     OW16168   2.264   1.580  11.474 -0.4448 -0.1167 -0.0121
 1512SOL    HW116169   2.193   1.597  11.412  1.0543  2.4311 -1.0159
 1512SOL    HW216170   2.313   1.513  11.426  1.2998  0.4284  1.0371
 1513SOL     OW16171   1.404   0.918   7.423  0.1063 -0.3357 -0.0173
 1513SOL    HW116172   1.421   1.010   7.443 -0.8697 -0.1529 -0.0075
 1513SOL    HW216173   1.378   0.931   7.331 -0.2488 -0.2976  0.0864
 1514SOL     OW16174   2.292   2.018   7.296 -1.3132 -0.1195 -0.4204
 1514SOL    HW116175   2.225   1.981   7.354 -0.8612 -0.0256  0.1627
 1514SOL    HW216176   2.292   2.109   7.325  1.2292 -0.0788 -0.5790
 1515SOL     OW16177   4.352   2.240   6.217 -0.4764 -0.3213  0.3011
 1515SOL    HW116178   4.419   2.301   6.250  0.0949 -0.8432  0.1105
 1515SOL    HW216179   4.406   2.162   6.233 -0.6167  0.3108  3.8606
 1516SOL     OW16180   2.506   1.264  12.176  0.4935 -0.2696  0.4121
 1516SOL    HW116181   2.525   1.357  12.190 -0.7940  0.1269 -0.4727
 1516SOL    HW216182   2.531   1.254  12.084  1.1787  0.2597  0.5361
 1517SOL     OW16183   0.941   2.227  11.735 -0.5216  0.0702  0.0063
 1517SOL    HW116184   1.011   2.274  11.690 -1.0434  0.4731 -0.3840
 1517SOL    HW216185   0.883   2.297  11.765 -1.0141 -0.4789  0.3450
 1518SOL     OW16186   3.366   0.141   6.734 -0.2083  0.2209 -0.1052
 1518SOL    HW116187   3.386   0.154   6.641  0.4956  0.4577  0.0856
 1518SOL    HW216188   3.353   0.047   6.727 -3.5855  0.6668  0.0918
 1519SOL     OW16189   1.680   3.561   3.413  0.3528  0.1474  0.3553
 1519SOL    HW116190   1.678   3.543   3.507  0.9624 -0.9823  0.1574
 1519SOL    HW216191   1.748   3.497   3.389  2.2774  1.4183  2.4692
 1520SOL     OW16192   1.459   3.690   8.627 -0.4123 -0.5557 -0.5911
 1520SOL    HW116193   1.496   3.620   8.574  0.6877 -0.1594 -0.3309
 1520SOL    HW216194   1.543   3.735   8.638 -0.1868  0.1633 -4.9431
 1521SOL     OW16195   0.202   4.513  14.565  0.2210 -0.1049 -0.0467
 1521SOL    HW116196   0.131   4.547  14.618  0.5705  1.4401 -0.5674
 1521SOL    HW216197   0.278   4.541  14.616  0.9783  0.7024 -1.5941
 1522SOL     OW16198   0.036   0.482   7.293 -0.9839 -0.4039 -0.8580
 1522SOL    HW116199   0.037   0.545   7.221  1.1406 -0.4316 -0.8302
 1522SOL    HW216200   0.122   0.502   7.329 -2.1877  1.7955  0.7549
 1523SOL     OW16201   1.630   3.679   2.601 -0.0870  0.0348  0.6844
 1523SOL    HW116202   1.688   3.670   2.525 -1.7040 -1.9746 -0.3013
 1523SOL    HW216203   1.617   3.774   2.602  1.5107  0.2576  0.6316
 1524SOL     OW16204   4.312   0.821   3.276 -0.3170 -0.3951 -0.4220
 1524SOL    HW116205   4.268   0.792   3.356  0.9345 -2.1531 -0.3795
 1524SOL    HW216206   4.245   0.831   3.209 -0.9337  0.4549  0.3131
 1525SOL     OW16207   2.877   2.562   0.456  0.0548  0.0052  0.5926
 1525SOL    HW116208   2.784   2.550   0.471  0.4572 -2.8891  0.6200
 1525SOL    HW216209   2.888   2.657   0.451  0.4608 -0.0730 -0.0174
 1526SOL     OW16210   1.806   2.542   7.366 -0.2316  0.1256  0.1801
 1526SOL    HW116211   1.832   2.515   7.454  0.2153  0.5100  0.1663
 1526SOL    HW216212   1.718   2.505   7.355 -0.2494 -0.5434  2.5202
 1527SOL     OW16213   3.514   2.410   8.179 -0.0697  0.9402 -0.1715
 1527SOL    HW116214   3.591   2.373   8.221  0.4169  1.0792 -0.9281
 1527SOL    HW216215   3.547   2.451   8.099  1.3156 -0.5811 -0.3517
 1528SOL     OW16216   0.065   4.618   4.732 -0.7501  0.0934 -0.0138
 1528SOL    HW116217   0.089   4.556   4.663  0.9613  1.1281 -0.3513
 1528SOL    HW216218   0.004   4.684   4.697 -1.0697 -0.5149 -0.5872
 1529SOL     OW16219   4.693   3.786   2.827 -0.4973 -0.1769 -0.5291
 1529SOL    HW116220   0.051   3.754   2.832 -0.7331 -0.8095 -0.3083
 1529SOL    HW216221   4.664   3.747   2.744 -0.5287  0.5286 -0.8441
 1530SOL     OW16222   0.669   3.160   6.946  0.4543  0.1138 -0.4295
 1530SOL    HW116223   0.592   3.200   6.904 -0.2059 -0.2528  0.4520
 1530SOL    HW216224   0.645   3.068   6.954  1.9427 -0.2501 -0.3212
 1531SOL     OW16225   1.350   2.495  11.494 -1.1917 -0.8751 -0.2441
 1531SOL    HW116226   1.353   2.580  11.450 -1.2637  0.6293  2.6769
 1531SOL    HW216227   1.437   2.481  11.529 -0.9273  1.8123  0.1561
 1532SOL     OW16228   3.850   1.452   4.739  0.0038 -0.0202 -0.3628
 1532SOL    HW116229   3.780   1.393   4.767  0.2681 -0.9553 -1.6533
 1532SOL    HW216230   3.861   1.492   4.825 -1.6175 -0.3550 -0.0056
 1533SOL     OW16231   1.493   0.864   2.828  0.2608  0.2129  0.3970
 1533SOL    HW116232   1.508   0.915   2.908  0.3095 -0.4432  0.8051
 1533SOL    HW216233   1.470   0.775   2.855  1.4841 -0.6931 -1.5853
 1534SOL     OW16234   2.840   2.430   3.078  0.4011  0.1354 -0.3713
 1534SOL    HW116235   2.818   2.403   3.167 -1.4241 -0.3417 -0.9779
 1534SOL    HW216236   2.886   2.512   3.099  0.6447 -0.5750  1.7856
 1535SOL     OW16237   3.849   2.825  17.533  0.0472  0.1385  0.3710
 1535SOL    HW116238   3.861   2.840  17.626  2.0385 -2.9920  0.6478
 1535SOL    HW216239   3.943   2.815  17.515  0.0349 -0.6644  0.7430
 1536SOL     OW16240   3.575   0.042  10.222 -0.1337 -0.3105  0.3193
 1536SOL    HW116241   3.572   4.678  10.222  0.8280 -0.3446 -0.7223
 1536SOL    HW216242   3.530   0.058  10.305 -2.0329 -0.6813 -0.6200
 1537SOL     OW16243   0.396   3.768   3.672  0.1067  0.2982 -0.1707
 1537SOL    HW116244   0.420   3.777   3.765  0.1875  0.6051 -0.2229
 1537SOL    HW216245   0.308   3.730   3.670  0.6335 -1.0166  1.2936
 1538SOL     OW16246   4.023   3.929   0.388 -0.0489  0.4347  0.2794
 1538SOL    HW116247   3.954   3.996   0.380 -1.6790 -1.3575 -0.7625
 1538SOL    HW216248   4.010   3.880   0.307 -0.4002  0.6503  0.2003
 1539SOL     OW16249   2.760   4.581   7.017  0.3163  0.2498 -0.8201
 1539SOL    HW116250   2.713   4.547   7.094 -1.6901  1.0652 -1.6863
 1539SOL    HW216251   2.791   4.662   7.057  0.3602 -0.0695 -0.2025
 1540SOL     OW16252   0.356   0.863   3.114  0.0824  0.2415  0.5969
 1540SOL    HW116253   0.325   0.820   3.034 -0.4995 -0.2349  1.0792
 1540SOL    HW216254   0.355   0.953   3.083  0.2813 -0.1973 -0.7071
 1541SOL     OW16255   0.872   2.486   4.926 -0.0294 -0.6451 -0.3350
 1541SOL    HW116256   0.808   2.545   4.966  1.3066  1.7128 -1.6521
 1541SOL    HW216257   0.819   2.430   4.869 -1.9798  0.4417  0.4205
 1542SOL     OW16258   0.646   3.908  14.675 -0.0928 -0.1120  0.2519
 1542SOL    HW116259   0.617   3.864  14.595  0.4927  0.3677 -0.2174
 1542SOL    HW216260   0.567   3.901  14.730  0.6601  2.4842  1.6297
 1543SOL     OW16261   3.065   0.408   4.564 -0.7699 -0.4260 -0.0199
 1543SOL    HW116262   3.062   0.388   4.657  0.4291 -0.8426 -0.0793
 1543SOL    HW216263   3.118   0.337   4.529  0.5097  1.2577 -1.4934
 1544SOL     OW16264   0.557   0.824   2.906  0.3863 -0.0006 -0.0092
 1544SOL    HW116265   0.561   0.824   3.002 -0.7074 -0.4520  0.0393
 1544SOL    HW216266   0.482   0.880   2.884  0.6756  0.4135  0.0507
 1545SOL     OW16267   0.410   3.225   4.096 -1.0887 -0.2336  0.6410
 1545SOL    HW116268   0.419   3.215   4.191 -2.0529  0.9558  0.8542
 1545SOL    HW216269   0.348   3.153   4.080  0.8144 -1.0891 -2.8053
 1546SOL     OW16270   0.389   0.875  10.445  0.5494  0.3071  0.4393
 1546SOL    HW116271   0.405   0.943  10.510  0.1964  0.4253  0.4038
 1546SOL    HW216272   0.445   0.811  10.488  3.5578  0.3314 -3.4627
 1547SOL     OW16273   2.763   1.046   6.871  0.0654  0.0003  0.5637
 1547SOL    HW116274   2.784   1.140   6.862  1.6728 -0.4454 -0.4178
 1547SOL    HW216275   2.844   1.026   6.917 -0.3770  0.1283  1.3812
 1548SOL     OW16276   3.060   1.467   4.109 -0.5668  0.3442 -0.9132
 1548SOL    HW116277   3.112   1.488   4.031  0.2637  0.3624 -0.3432
 1548SOL    HW216278   3.003   1.543   4.122  1.4280  2.0089 -2.0406
 1549SOL     OW16279   2.902   1.575   4.446  0.5161 -0.5220  0.4828
 1549SOL    HW116280   2.996   1.562   4.449  0.6734  0.2921 -0.8743
 1549SOL    HW216281   2.892   1.574   4.350 -0.0542  3.0918  0.4984
 1550SOL     OW16282   2.567   4.584   1.103  0.4972  0.1637 -0.0864
 1550SOL    HW116283   2.603   4.531   1.032  0.1358  0.0947 -0.2150
 1550SOL    HW216284   2.647   4.630   1.131  0.0678  1.5345 -1.0868
 1551SOL     OW16285   1.834   4.329  16.809  0.2480 -0.4450 -0.3838
 1551SOL    HW116286   1.801   4.367  16.727 -0.2282  2.3577  1.1057
 1551SOL    HW216287   1.759   4.344  16.867  2.4245  1.3856  1.9682
 1552SOL     OW16288   4.209   2.417   7.784 -0.3388 -0.5949 -0.1972
 1552SOL    HW116289   4.242   2.343   7.733  3.2362  0.8535 -0.0225
 1552SOL    HW216290   4.289   2.438   7.833 -0.3833 -0.2783 -0.2587
 1553SOL     OW16291   1.843   2.577  16.361 -0.2172 -0.6978 -0.1241
 1553SOL    HW116292   1.846   2.486  16.331  2.1816 -0.3487 -0.9671
 1553SOL    HW216293   1.918   2.619  16.318 -0.2424 -0.2289  0.2882
 1554SOL     OW16294   0.952   3.496  13.361 -0.1953  0.0080  0.7897
 1554SOL    HW116295   0.970   3.588  13.341 -1.8510  0.1706  0.0114
 1554SOL    HW216296   1.035   3.458  13.331 -1.2952 -0.9242 -1.0888
 1555SOL     OW16297   3.035   1.084  11.542 -0.3608  0.4112 -0.4849
 1555SOL    HW116298   3.101   1.040  11.596 -1.3886 -1.0450 -0.4123
 1555SOL    HW216299   2.958   1.039  11.577  1.1056 -0.2773  1.8771
 1556SOL     OW16300   1.058   1.492   8.674  0.3544 -0.4763  0.4080
 1556SOL    HW116301   0.996   1.553   8.715 -2.0005 -2.2543 -0.5146
 1556SOL    HW216302   0.993   1.432   8.637  0.3139  0.8633 -1.6721
 1557SOL     OW16303   4.665   1.277   0.020  0.6953 -0.2292  0.1540
 1557SOL    HW116304   4.630   1.197  17.710  0.0101 -1.1866  2.7954
 1557SOL    HW216305   4.690   1.328  17.671 -0.9794 -0.8226 -0.7863
 1558SOL     OW16306   2.213   4.460   7.507 -0.4004 -0.4038  0.1213
 1558SOL    HW116307   2.248   4.382   7.550 -0.5311  0.8412  2.4575
 1558SOL    HW216308   2.277   4.512   7.554 -1.2425  0.0020  0.7951
 1559SOL     OW16309   4.554   4.461   5.399  0.1046 -0.1746 -0.4508
 1559SOL    HW116310   4.470   4.484   5.439 -1.1289 -0.5233 -2.8124
 1559SOL    HW216311   4.577   4.387   5.454  1.7613  1.7504  1.4398
 1560SOL     OW16312   0.740   3.886  15.098 -0.4305 -0.4065 -0.0352
 1560SOL    HW116313   0.764   3.948  15.029  0.1341 -0.4867  0.0878
 1560SOL    HW216314   0.811   3.822  15.097 -2.4978 -2.7351  1.8056
 1561SOL     OW16315   2.337   0.646  11.478 -0.3180 -0.0074  0.2668
 1561SOL    HW116316   2.318   0.722  11.423 -0.9338 -0.2741  0.1124
 1561SOL    HW216317   2.248   0.644  11.514  0.3253 -3.6176  1.6938
 1562SOL     OW16318   0.243   1.419   6.067 -0.1883 -0.4035  0.4356
 1562SOL    HW116319   0.253   1.508   6.034 -3.9606 -0.1134  0.1601
 1562SOL    HW216320   0.149   1.406   6.058  0.0194 -1.9769  0.4357
 1563SOL     OW16321   3.622   2.429   2.485 -0.0809 -0.2125 -0.4356
 1563SOL    HW116322   3.589   2.442   2.396 -3.5158  0.8218  0.9802
 1563SOL    HW216323   3.542   2.429   2.538  1.0130  1.1894  1.2176
 1564SOL     OW16324   3.293   3.280   4.088 -0.6606  0.0004  0.0951
 1564SOL    HW116325   3.348   3.349   4.126 -0.6105  0.2391 -0.4064
 1564SOL    HW216326   3.222   3.275   4.152 -0.8919 -0.3799 -0.1857
 1565SOL     OW16327   4.398   2.112  17.450  0.4309 -0.0870 -0.2150
 1565SOL    HW116328   4.329   2.095  17.514 -0.2968 -0.3920 -1.0739
 1565SOL    HW216329   4.370   2.201  17.432  0.3050 -0.1521 -0.3443
 1566SOL     OW16330   1.070   3.368   3.873  0.0523 -0.1728 -0.6224
 1566SOL    HW116331   0.999   3.408   3.823 -0.9924 -0.5960  0.5370
 1566SOL    HW216332   1.071   3.285   3.825  1.4012  1.4239 -3.3636
 1567SOL     OW16333   1.006   0.028  10.638 -0.0511 -0.1614 -0.1217
 1567SOL    HW116334   1.022   4.674  10.600 -0.2982 -1.0858  1.8771
 1567SOL    HW216335   0.919   0.012  10.677 -0.1460 -2.7892 -1.4098
 1568SOL     OW16336   3.142   2.818   8.124  0.3442  0.1025  0.8468
 1568SOL    HW116337   3.139   2.833   8.029  0.3120 -1.5177  0.5783
 1568SOL    HW216338   3.177   2.729   8.131 -1.6074 -0.9971 -2.7799
 1569SOL     OW16339   3.902   2.497   5.387  0.2716  0.1187 -0.0968
 1569SOL    HW116340   3.837   2.431   5.413  0.0593  0.1361 -0.5736
 1569SOL    HW216341   3.884   2.573   5.441 -1.2999  0.4194 -1.0603
 1570SOL     OW16342   2.105   0.866   3.498 -0.2495 -0.5045  0.2421
 1570SOL    HW116343   2.107   0.947   3.548 -0.3402  0.8665 -1.9858
 1570SOL    HW216344   2.068   0.895   3.415  0.6596  0.3275  0.1271
 1571SOL     OW16345   2.993   3.650   7.843  0.4063 -0.1314  0.0512
 1571SOL    HW116346   2.935   3.623   7.772 -2.1449 -0.2459  2.1951
 1571SOL    HW216347   2.951   3.603   7.915  1.7613  1.4626  1.8908
 1572SOL     OW16348   2.088   1.007  11.412  0.6833  0.1801  0.6555
 1572SOL    HW116349   2.126   0.929  11.370  0.4245  0.8376 -0.7973
 1572SOL    HW216350   2.014   1.025  11.356  3.6441  2.2307 -2.5996
 1573SOL     OW16351   4.726   0.551  17.165 -0.1488  0.1136  0.3807
 1573SOL    HW116352   0.058   0.489  17.131  1.5091  0.5237  2.8457
 1573SOL    HW216353   4.679   0.480  17.210 -1.4598 -0.7174 -2.2791
 1574SOL     OW16354   0.428   2.644   9.228  0.6854 -0.2266  0.2879
 1574SOL    HW116355   0.447   2.703   9.300 -1.7941  0.8828  0.0251
 1574SOL    HW216356   0.478   2.680   9.155  1.0402 -1.1031  0.0937
 1575SOL     OW16357   0.603   4.388   3.379  0.0467 -0.4333  0.5558
 1575SOL    HW116358   0.546   4.312   3.387  1.1596 -1.0423  2.5959
 1575SOL    HW216359   0.688   4.344   3.376  0.5118  0.3744  1.6507
 1576SOL     OW16360   0.614   2.235   8.025  0.0913  0.1149 -0.5783
 1576SOL    HW116361   0.615   2.271   8.113  0.9075 -2.0816  0.2957
 1576SOL    HW216362   0.529   2.192   8.019  0.4707 -0.6967 -0.0841
 1577SOL     OW16363   0.268   3.270   6.460 -0.2804  0.7610  0.2568
 1577SOL    HW116364   0.307   3.183   6.458 -1.5921  0.1703  0.1035
 1577SOL    HW216365   0.174   3.252   6.463  0.1247 -0.9405  2.8592
 1578SOL     OW16366   4.696   4.700   1.568 -0.6062 -0.4618 -0.3005
 1578SOL    HW116367   4.618   4.645   1.554 -1.9949  1.7624 -1.3634
 1578SOL    HW216368   4.705   0.015   1.485  0.2543  0.8964  0.5743
 1579SOL     OW16369   4.562   3.435  14.940  0.3334 -0.2023  0.1988
 1579SOL    HW116370   4.636   3.441  14.880 -0.7434  1.1937 -0.9767
 1579SOL    HW216371   4.514   3.367  14.892 -2.0414  0.7762  1.1814
 1580SOL     OW16372   0.889   3.920  11.751  0.5484  0.0594  0.1367
 1580SOL    HW116373   0.984   3.915  11.750  0.5646  0.7428 -2.2484
 1580SOL    HW216374   0.881   3.981  11.824  0.5936  0.7260 -0.4135
 1581SOL     OW16375   0.329   0.576   1.611 -0.2619 -0.2622  0.1040
 1581SOL    HW116376   0.287   0.626   1.681  3.5581 -0.0647  2.2417
 1581SOL    HW216377   0.262   0.565   1.544 -0.4111  3.1258 -0.3043
 1582SOL     OW16378   2.984   3.658  10.090  0.1787 -0.2690  0.1367
 1582SOL    HW116379   2.958   3.737  10.042 -1.5041 -0.1391  1.2662
 1582SOL    HW216380   3.018   3.702  10.168 -1.7555  1.5303 -0.0337
 1583SOL     OW16381   4.610   1.570  13.494 -0.3920 -0.1944  0.1750
 1583SOL    HW116382   4.576   1.656  13.471  0.6713  0.1312 -0.2010
 1583SOL    HW216383   4.607   1.527  13.409  0.7473  2.3126 -1.1433
 1584SOL     OW16384   3.843   3.858   6.931 -0.5910  0.0860  0.2801
 1584SOL    HW116385   3.784   3.783   6.941 -1.1821  0.5751  0.4430
 1584SOL    HW216386   3.784   3.908   6.874 -0.0914 -1.1655 -1.3367
 1585SOL     OW16387   1.661   3.949   3.865 -0.1782 -0.5997  0.3217
 1585SOL    HW116388   1.668   3.870   3.812  1.1440 -0.5959  0.4820
 1585SOL    HW216389   1.576   3.932   3.906  0.1803  2.4709  2.3978
 1586SOL     OW16390   0.269   0.726   9.553 -0.1385 -0.4793  0.3740
 1586SOL    HW116391   0.311   0.659   9.607 -0.6239 -1.2180 -0.1578
 1586SOL    HW216392   0.232   0.680   9.478  0.4245 -1.8060  0.9162
 1587SOL     OW16393   3.181   1.178  17.433  0.7861 -0.0825 -0.1794
 1587SOL    HW116394   3.228   1.142  17.358 -0.0855 -1.2358 -0.1820
 1587SOL    HW216395   3.258   1.217  17.475  0.3836 -0.9131  1.3206
 1588SOL     OW16396   1.199   2.068   6.590  0.6479 -0.1026 -0.0953
 1588SOL    HW116397   1.153   2.037   6.669 -1.4424 -0.2231 -1.3502
 1588SOL    HW216398   1.136   2.139   6.577  0.0624 -0.5170  0.4534
 1589SOL     OW16399   2.252   0.718   9.114 -0.4681  0.0804  0.3051
 1589SOL    HW116400   2.323   0.661   9.085 -0.5588  0.1398 -0.0393
 1589SOL    HW216401   2.297   0.737   9.196 -0.5797 -0.5742  0.5165
 1590SOL     OW16402   2.345   0.978   2.782  0.3160  0.0942  0.1885
 1590SOL    HW116403   2.272   1.040   2.790 -0.1332 -0.7857  2.7402
 1590SOL    HW216404   2.420   1.033   2.806  0.0596  0.9873 -1.0216
 1591SOL     OW16405   1.313   1.279   7.206 -0.1055  0.0868 -0.2270
 1591SOL    HW116406   1.365   1.286   7.286  1.7561  1.2930 -1.5315
 1591SOL    HW216407   1.240   1.230   7.244 -0.6825  2.1264  1.3002
 1592SOL     OW16408   1.862   4.393  16.548 -0.3608 -0.3548 -0.5391
 1592SOL    HW116409   1.916   4.448  16.605 -1.2165 -0.7577  0.6546
 1592SOL    HW216410   1.911   4.404  16.466  0.9584  0.9602  0.4195
 1593SOL     OW16411   1.896   1.151   5.690  0.1104  0.0088  0.0992
 1593SOL    HW116412   1.842   1.150   5.611 -1.0228  2.6259  0.8506
 1593SOL    HW216413   1.879   1.231   5.740 -0.7990 -0.9594  1.3282
 1594SOL     OW16414   0.017   2.922   7.136  0.0933 -0.3095  0.4126
 1594SOL    HW116415   4.679   2.899   7.076 -0.5534 -0.4748  1.2316
 1594SOL    HW216416   0.093   2.921   7.078  0.1485  0.7604  0.4521
 1595SOL     OW16417   2.001   1.001  15.535 -0.4493 -0.0450  0.1157
 1595SOL    HW116418   2.084   0.955  15.548  0.1944  0.4113 -2.3885
 1595SOL    HW216419   1.934   0.933  15.534  1.0039 -1.4898  0.5331
 1596SOL     OW16420   0.058   2.988   7.385 -0.4376  0.1068 -0.1293
 1596SOL    HW116421   0.148   3.020   7.376 -1.0488  2.2050  1.2491
 1596SOL    HW216422   0.043   2.985   7.291  2.5141 -1.4644 -0.5686
 1597SOL     OW16423   4.707   3.945   3.207 -0.0465  0.5587 -0.3085
 1597SOL    HW116424   0.040   3.898   3.258  0.7992  1.1560 -0.8446
 1597SOL    HW216425   4.674   3.867   3.162  0.6082  0.0645  0.0620
 1598SOL     OW16426   2.249   0.034  13.310 -0.2034  0.3481 -0.0626
 1598SOL    HW116427   2.304   4.695  13.279  1.2030 -0.4517  4.2414
 1598SOL    HW216428   2.166   0.009  13.269 -0.6476  3.0163 -0.8294
 1599SOL     OW16429   4.705   3.236  12.638  0.0367  0.0381 -0.4097
 1599SOL    HW116430   0.005   3.295  12.706 -0.2813 -0.0245 -0.2024
 1599SOL    HW216431   4.690   3.150  12.678 -2.2648  1.2959  1.4716
 1600SOL     OW16432   1.287   2.923  10.389  0.2159 -0.6547  0.7356
 1600SOL    HW116433   1.194   2.931  10.414 -0.0572  1.1754 -0.8351
 1600SOL    HW216434   1.330   2.909  10.473 -0.0713  1.4467  1.2284
 1601SOL     OW16435   0.992   1.507   4.273  0.2621  0.4074 -0.5460
 1601SOL    HW116436   0.924   1.459   4.226 -0.3527  0.9802 -0.2440
 1601SOL    HW216437   0.972   1.598   4.251 -2.1240 -0.7873 -3.3745
 1602SOL     OW16438   4.725   0.611  11.725  0.1815  0.1932  0.5724
 1602SOL    HW116439   0.047   0.669  11.672 -0.4746 -0.2114 -0.5446
 1602SOL    HW216440   0.031   0.599  11.811  1.7925  1.4831  0.0450
 1603SOL     OW16441   1.340   4.525   9.169  0.2786 -0.3284  0.3252
 1603SOL    HW116442   1.407   4.591   9.154  1.3131 -1.8524 -1.5885
 1603SOL    HW216443   1.348   4.513   9.264 -0.8161 -0.2203  0.4382
 1604SOL     OW16444   2.823   1.412  10.437 -0.0192  0.1645 -0.2127
 1604SOL    HW116445   2.867   1.493  10.410  0.6513  0.3594  1.4725
 1604SOL    HW216446   2.734   1.441  10.417  0.6523  2.4568  0.1539
 1605SOL     OW16447   2.813   3.435   4.523 -0.2855 -0.3711  0.4971
 1605SOL    HW116448   2.874   3.361   4.520 -1.1230 -1.1158  2.0476
 1605SOL    HW216449   2.749   3.401   4.585  0.4477 -0.7955  1.0161
 1606SOL     OW16450   0.827   0.571  15.532  0.1274 -0.3434 -0.2535
 1606SOL    HW116451   0.789   0.508  15.471 -1.1711  0.7565 -0.5754
 1606SOL    HW216452   0.759   0.638  15.532 -0.9796 -1.4712 -0.7768
 1607SOL     OW16453   1.383   2.559  12.352 -0.0317  0.2828  0.3335
 1607SOL    HW116454   1.341   2.581  12.435 -0.8227  1.2124 -0.3116
 1607SOL    HW216455   1.317   2.593  12.292  1.3468  0.3747 -1.1311
 1608SOL     OW16456   2.222   3.911   1.687  0.1763  0.3873 -0.2993
 1608SOL    HW116457   2.215   3.983   1.625  0.7713  1.3438  0.7202
 1608SOL    HW216458   2.277   3.957   1.752  1.0168  0.9409 -1.4078
 1609SOL     OW16459   3.198   4.221   8.172 -0.0305  0.4772  0.7014
 1609SOL    HW116460   3.158   4.297   8.213 -0.2428  1.3953 -1.2158
 1609SOL    HW216461   3.154   4.148   8.216 -1.2248  0.7106 -0.1029
 1610SOL     OW16462   4.436   4.132   2.808 -0.3244 -0.2338 -0.5197
 1610SOL    HW116463   4.527   4.131   2.778 -0.4781 -2.4633 -0.8677
 1610SOL    HW216464   4.456   4.153   2.899 -0.6849  0.0678 -0.5090
 1611SOL     OW16465   1.687   3.535   7.998  0.4550  0.1966 -0.7817
 1611SOL    HW116466   1.678   3.461   8.058  2.5999 -0.3457 -1.1414
 1611SOL    HW216467   1.605   3.583   8.009  1.7731  1.7722  2.1947
 1612SOL     OW16468   2.589   1.889  15.793 -0.2119 -0.8155 -0.4092
 1612SOL    HW116469   2.570   1.797  15.808  2.5313 -1.1193  1.2391
 1612SOL    HW216470   2.566   1.899  15.701 -2.3108  0.2003  0.2359
 1613SOL     OW16471   0.473   4.119   4.236 -0.3494 -0.5656  0.5189
 1613SOL    HW116472   0.521   4.036   4.227 -0.0667 -0.1152 -2.0626
 1613SOL    HW216473   0.417   4.103   4.312  0.1991  0.7422  1.2086
 1614SOL     OW16474   2.891   4.202   8.773 -0.3387  0.3692 -0.4410
 1614SOL    HW116475   2.835   4.151   8.714 -2.4653  0.3442  1.6184
 1614SOL    HW216476   2.966   4.143   8.776 -0.8093 -0.0629  2.3260
 1615SOL     OW16477   3.635   0.395   2.478 -0.0467  0.0346  0.5264
 1615SOL    HW116478   3.698   0.466   2.464 -2.1847  2.1698  1.6495
 1615SOL    HW216479   3.653   0.332   2.408 -0.1882 -0.6148  1.0856
 1616SOL     OW16480   2.244   0.463   1.901  0.5850 -0.1245  0.0763
 1616SOL    HW116481   2.173   0.412   1.863  1.8351  0.6906 -3.3124
 1616SOL    HW216482   2.192   0.539   1.927 -1.4169 -1.4018 -0.1814
 1617SOL     OW16483   3.760   3.235   3.543  0.1800 -0.1331  0.1975
 1617SOL    HW116484   3.669   3.234   3.574 -0.0662  0.3700 -0.5192
 1617SOL    HW216485   3.795   3.280   3.620  0.9312  0.3215 -0.4189
 1618SOL     OW16486   3.899   0.290  17.143  0.1043  0.3255 -0.1220
 1618SOL    HW116487   3.867   0.340  17.068 -0.2912 -1.3029 -1.0501
 1618SOL    HW216488   3.824   0.233  17.159  1.7357 -1.1041  2.5198
 1619SOL     OW16489   2.601   4.544   6.203 -0.1358  0.3148 -0.5583
 1619SOL    HW116490   2.535   4.564   6.268 -0.4728 -0.8123 -0.5604
 1619SOL    HW216491   2.546   4.560   6.127 -0.9919 -1.9265 -0.4075
 1620SOL     OW16492   0.307   1.356  15.194  0.4239 -0.1937  0.1425
 1620SOL    HW116493   0.265   1.366  15.108 -1.3811 -1.8921  0.8226
 1620SOL    HW216494   0.302   1.443  15.235 -2.5495 -0.6427  0.7552
 1621SOL     OW16495   1.204   3.154  12.658 -0.1200  0.4018  0.4850
 1621SOL    HW116496   1.298   3.166  12.647  0.0138  1.3048  2.6789
 1621SOL    HW216497   1.180   3.231  12.709  0.6605  1.6323 -0.9851
 1622SOL     OW16498   0.000   4.029  15.965  0.2453 -0.5206 -0.1540
 1622SOL    HW116499   0.045   3.952  16.001  1.4182  0.0737 -0.3605
 1622SOL    HW216500   4.649   4.007  16.006 -1.1545 -0.3247 -2.8887
 1623SOL     OW16501   4.346   3.752   6.847  0.2222 -0.6456 -0.0302
 1623SOL    HW116502   4.348   3.847   6.854 -0.4183 -0.7204  1.2838
 1623SOL    HW216503   4.261   3.749   6.804 -0.6378  1.0355  1.5770
 1624SOL     OW16504   3.378   4.428   4.324  0.1657  0.4142 -0.2785
 1624SOL    HW116505   3.306   4.367   4.307 -0.2578 -0.0002  2.8955
 1624SOL    HW216506   3.370   4.440   4.419  0.8008 -1.9017  0.0688
 1625SOL     OW16507   2.513   4.094   9.651 -0.5436 -0.0506 -0.1082
 1625SOL    HW116508   2.418   4.108   9.654 -0.5375 -0.0515  0.1113
 1625SOL    HW216509   2.521   4.058   9.739 -0.5885 -1.4574 -0.6816
 1626SOL     OW16510   2.677   0.441  15.798 -0.3517  0.0054 -1.0611
 1626SOL    HW116511   2.602   0.416  15.744 -0.7171 -3.0973  0.9096
 1626SOL    HW216512   2.747   0.381  15.773  0.4184 -0.7329  2.9038
 1627SOL     OW16513   2.462   1.849  11.006  0.4869 -0.3089  0.0120
 1627SOL    HW116514   2.384   1.844  11.061  0.3087  2.2925 -0.0098
 1627SOL    HW216515   2.427   1.787  10.942  1.4666 -0.3159 -0.5158
 1628SOL     OW16516   1.037   0.305  13.608  0.1131 -0.1254  0.1520
 1628SOL    HW116517   0.984   0.365  13.661  0.5307  0.7206 -0.3875
 1628SOL    HW216518   1.124   0.325  13.643  0.9979 -2.9618 -0.4871
 1629SOL     OW16519   2.337   0.429   3.892  0.2344  0.6796 -0.0079
 1629SOL    HW116520   2.262   0.386   3.932  1.2353 -1.7453 -0.7319
 1629SOL    HW216521   2.402   0.362   3.916  0.2738  0.3783 -0.9783
 1630SOL     OW16522   4.153   4.703   2.203 -0.1991 -0.1433 -0.2665
 1630SOL    HW116523   4.141   4.701   2.108 -0.0140  2.2774 -0.3463
 1630SOL    HW216524   4.111   4.627   2.242 -0.6903 -0.9021 -2.2798
 1631SOL     OW16525   1.624   3.494   8.820 -0.3407  0.0751  0.6474
 1631SOL    HW116526   1.661   3.511   8.733  2.7188  0.8924  2.0990
 1631SOL    HW216527   1.594   3.407   8.796 -1.9936  0.6429  0.6575
 1632SOL     OW16528   1.690   1.654   3.934  0.1870 -0.6528 -0.2286
 1632SOL    HW116529   1.696   1.749   3.924 -1.6839 -0.3978  1.0954
 1632SOL    HW216530   1.622   1.634   3.869 -0.2257 -0.9833  0.3057
 1633SOL     OW16531   0.047   3.342   6.722 -0.0309 -0.7490  0.0543
 1633SOL    HW116532   0.028   3.300   6.638  3.4471 -0.3642 -0.9321
 1633SOL    HW216533   0.099   3.418   6.696  0.6109 -0.6334  1.7126
 1634SOL     OW16534   2.439   4.386   4.566  0.1407 -0.2918  0.2808
 1634SOL    HW116535   2.422   4.314   4.627  0.8106 -1.0846 -0.4723
 1634SOL    HW216536   2.472   4.337   4.490 -0.5556 -0.7219  0.2554
 1635SOL     OW16537   2.792   1.073   0.557  0.0451  0.3542 -0.0646
 1635SOL    HW116538   2.840   1.133   0.614  1.3934 -1.7106  0.9622
 1635SOL    HW216539   2.848   1.069   0.479  2.1191 -2.1742  1.5621
 1636SOL     OW16540   2.530   4.230   2.283 -0.2774  0.3917 -0.4147
 1636SOL    HW116541   2.535   4.176   2.204  0.9297  1.0949 -0.8156
 1636SOL    HW216542   2.437   4.236   2.302  0.1625  2.9921  0.9175
 1637SOL     OW16543   1.686   1.163   3.266  0.1494  0.2767 -0.1369
 1637SOL    HW116544   1.641   1.103   3.325 -0.7670  0.0759 -1.0360
 1637SOL    HW216545   1.766   1.163   3.318 -0.1366 -1.7280  0.3201
 1638SOL     OW16546   2.652   3.352   2.760  0.0810  0.2323 -0.0605
 1638SOL    HW116547   2.688   3.267   2.736 -1.0156 -0.0361 -0.7075
 1638SOL    HW216548   2.674   3.353   2.853 -1.1063 -0.0570  0.2226
 1639SOL     OW16549   0.271   2.963   2.372 -0.2891  0.3785 -0.0061
 1639SOL    HW116550   0.316   2.884   2.341  0.5077  0.5984  0.6121
 1639SOL    HW216551   0.189   2.919   2.394  0.0042 -0.4410 -0.5457
 1640SOL     OW16552   4.392   2.469   8.834  0.1113  0.0984  0.1811
 1640SOL    HW116553   4.467   2.524   8.811 -1.3968  1.5842 -1.1546
 1640SOL    HW216554   4.420   2.453   8.924  0.7049  0.9118  0.1441
 1641SOL     OW16555   1.215   1.213   7.709  0.1040  0.3017 -0.7145
 1641SOL    HW116556   1.247   1.299   7.733 -0.8337  0.0962  1.2820
 1641SOL    HW216557   1.270   1.156   7.763  0.8555  0.7948 -0.9619
 1642SOL     OW16558   3.765   3.829  13.861 -0.5380  0.0629 -0.0930
 1642SOL    HW116559   3.781   3.923  13.853  1.8835 -0.4557 -1.1999
 1642SOL    HW216560   3.757   3.824  13.956  0.7395  2.0964  0.1188
 1643SOL     OW16561   3.242   0.062   8.286 -0.3104 -0.1071 -0.0187
 1643SOL    HW116562   3.165   0.020   8.324  1.6368 -1.7392  2.0857
 1643SOL    HW216563   3.216   0.091   8.198 -0.3922  0.7421  0.2882
 1644SOL     OW16564   4.536   3.569   9.979  0.6071 -0.0005  0.3820
 1644SOL    HW116565   4.495   3.633  10.038 -0.3862 -0.9885  0.7710
 1644SOL    HW216566   4.618   3.557  10.027  1.0607 -2.5322 -1.0280
 1645SOL     OW16567   4.334   4.175   0.909 -0.0475  0.6779 -0.2880
 1645SOL    HW116568   4.330   4.132   0.995 -3.8376 -0.5039 -1.0768
 1645SOL    HW216569   4.250   4.142   0.879  0.0115 -0.1862  0.4683
 1646SOL     OW16570   0.743   0.537  13.531 -0.5071 -0.0273  0.4506
 1646SOL    HW116571   0.796   0.561  13.606 -0.9074  0.9483  0.4221
 1646SOL    HW216572   0.700   0.622  13.518 -0.5793 -0.3622 -1.4949
 1647SOL     OW16573   3.092   3.068  13.583 -0.4114  0.1258 -0.5805
 1647SOL    HW116574   3.132   3.089  13.667 -0.3308  3.6534 -1.5246
 1647SOL    HW216575   3.161   3.060  13.517  1.2288  0.0964  1.1622
 1648SOL     OW16576   2.536   2.304   5.280 -0.0298  0.2286 -0.3103
 1648SOL    HW116577   2.565   2.261   5.361 -0.9558 -1.1042 -0.6803
 1648SOL    HW216578   2.602   2.265   5.222 -0.2479 -1.8590  0.8340
 1649SOL     OW16579   0.774   0.806   8.667  0.3719 -0.2912  0.2410
 1649SOL    HW116580   0.838   0.748   8.625  0.1812 -0.3295  0.0020
 1649SOL    HW216581   0.818   0.816   8.751  1.4119 -0.1935 -0.3121
 1650SOL     OW16582   0.273   2.472   9.591 -0.6270  0.0823 -0.2612
 1650SOL    HW116583   0.243   2.516   9.511  0.7221 -2.1786 -2.0300
 1650SOL    HW216584   0.189   2.439   9.624  0.5723  0.4858  3.1127
 1651SOL     OW16585   3.720   0.914  16.064  0.5043 -0.0447  0.7615
 1651SOL    HW116586   3.797   0.857  16.066 -1.2256 -2.3670  1.6958
 1651SOL    HW216587   3.699   0.908  15.970  1.6234 -0.9883  0.5772
 1652SOL     OW16588   3.494   3.712   7.181 -0.1655 -0.0115  0.3078
 1652SOL    HW116589   3.560   3.655   7.142 -2.7843 -3.8023  1.3299
 1652SOL    HW216590   3.419   3.710   7.121 -1.1856  2.7204  1.4678
 1653SOL     OW16591   4.392   0.802   2.198  0.1179  0.1966  0.9647
 1653SOL    HW116592   4.407   0.772   2.288 -2.6519 -2.6096  0.4412
 1653SOL    HW216593   4.350   0.726   2.158  1.7712 -0.0163 -0.3522
 1654SOL     OW16594   0.254   4.304   4.748  0.5442  0.3737 -0.4106
 1654SOL    HW116595   0.296   4.279   4.830 -0.3779 -1.9262 -0.6539
 1654SOL    HW216596   0.198   4.370   4.789  1.0087  0.1558  0.5779
 1655SOL     OW16597   1.326   0.417   9.870 -0.3995  0.6082 -0.9578
 1655SOL    HW116598   1.267   0.359   9.918 -1.7448  1.0313 -2.0957
 1655SOL    HW216599   1.409   0.411   9.917 -0.1851 -1.3352 -1.6340
 1656SOL     OW16600   4.619   4.668  10.124 -0.2092 -0.0427 -0.2426
 1656SOL    HW116601   4.579   4.706  10.045 -1.1329  1.9797  1.2165
 1656SOL    HW216602   4.554   4.602  10.144  0.1824 -1.5738 -4.0014
 1657SOL     OW16603   4.005   3.210   3.788 -0.1561 -0.1919 -0.1807
 1657SOL    HW116604   4.074   3.273   3.766  1.6872 -1.5000  1.9539
 1657SOL    HW216605   4.030   3.134   3.735  0.4090  0.2782 -0.5843
 1658SOL     OW16606   0.974   1.478   7.661  0.2167  0.3542  0.4129
 1658SOL    HW116607   0.961   1.418   7.735  1.0856  0.7654  0.9033
 1658SOL    HW216608   1.009   1.557   7.702 -1.6154  0.6695  1.3251
 1659SOL     OW16609   0.970   4.574  15.822 -0.2125  0.0536  0.1090
 1659SOL    HW116610   0.996   4.578  15.913  1.4120  3.0291 -0.4998
 1659SOL    HW216611   1.052   4.557  15.776 -1.4766 -0.9175 -1.7844
 1660SOL     OW16612   3.215   2.077   3.551 -0.0792 -0.3612 -0.5176
 1660SOL    HW116613   3.290   2.025   3.579 -1.5102 -2.7670 -1.1840
 1660SOL    HW216614   3.232   2.163   3.590  1.7746  0.7518 -3.7545
 1661SOL     OW16615   4.270   3.727   1.969 -0.0462  0.1918 -0.4648
 1661SOL    HW116616   4.219   3.649   1.991  1.2989 -0.9773 -1.4816
 1661SOL    HW216617   4.230   3.788   2.031  0.8971 -0.2635  0.5811
 1662SOL     OW16618   2.787   2.380  17.119 -0.0974 -0.3565 -0.0437
 1662SOL    HW116619   2.769   2.301  17.169  0.8729 -0.5345  0.0225
 1662SOL    HW216620   2.697   2.413  17.112  0.0775  0.7095  2.9974
 1663SOL     OW16621   1.816   3.222   5.740  0.3355 -0.3482  0.0765
 1663SOL    HW116622   1.728   3.193   5.715 -0.9497  1.0298  2.9353
 1663SOL    HW216623   1.833   3.291   5.676 -0.1508  0.3452  0.7052
 1664SOL     OW16624   0.278   1.025   8.364  0.0151 -0.1503 -0.5880
 1664SOL    HW116625   0.193   1.042   8.403  0.3438 -2.3817  1.1083
 1664SOL    HW216626   0.256   0.982   8.281 -0.7509 -1.5728  0.3396
 1665SOL     OW16627   3.561   2.417   3.641  0.1953  0.1842 -0.1025
 1665SOL    HW116628   3.475   2.408   3.600  0.5525  2.1040 -1.2849
 1665SOL    HW216629   3.569   2.509   3.667 -0.4962  0.2890 -0.2722
 1666SOL     OW16630   1.222   3.093   8.693 -0.7232  0.4613 -0.1623
 1666SOL    HW116631   1.234   3.181   8.728  2.6115  0.4820 -1.4020
 1666SOL    HW216632   1.130   3.074   8.712 -0.8335  1.3012  0.1444
 1667SOL     OW16633   2.337   1.736   4.561 -0.0601 -0.0382 -0.2214
 1667SOL    HW116634   2.257   1.783   4.586  0.4765  1.6837 -1.7771
 1667SOL    HW216635   2.391   1.806   4.525  1.9999 -0.4901  2.0132
 1668SOL     OW16636   2.374   3.322   8.789  0.3904 -0.4305 -0.5694
 1668SOL    HW116637   2.364   3.237   8.746  1.0352 -1.2755  0.9288
 1668SOL    HW216638   2.320   3.382   8.738  2.0635  0.6682 -1.0650
 1669SOL     OW16639   4.669   1.154   3.821 -0.6760  0.0122  0.2367
 1669SOL    HW116640   4.687   1.100   3.899  1.1185 -0.3959 -0.4584
 1669SOL    HW216641   4.685   1.240   3.860  0.4499 -1.1159  2.2591
 1670SOL     OW16642   4.404   2.634   2.250 -0.2143 -0.6004 -1.0501
 1670SOL    HW116643   4.492   2.672   2.246 -0.6659  0.7369  1.3806
 1670SOL    HW216644   4.353   2.714   2.237 -1.3579 -0.9461  1.2394
 1671SOL     OW16645   1.549   3.220   3.272 -0.0206  0.1777 -0.8067
 1671SOL    HW116646   1.585   3.309   3.265 -1.7443  0.9304  0.0408
 1671SOL    HW216647   1.467   3.221   3.223 -0.4022  0.2653 -0.1648
 1672SOL     OW16648   1.181   0.950   2.442 -0.2947 -0.2427 -0.3320
 1672SOL    HW116649   1.222   0.900   2.512  1.7623  0.3018 -1.1308
 1672SOL    HW216650   1.088   0.932   2.459 -0.6735  0.8588 -1.2535
 1673SOL     OW16651   4.433   4.630   8.310  0.6193  0.0313 -0.2598
 1673SOL    HW116652   4.409   4.559   8.249  1.1411 -0.5167  0.1804
 1673SOL    HW216653   4.359   4.623   8.370 -0.0106  0.6042 -0.9721
 1674SOL     OW16654   0.195   3.567   2.711  0.0884 -0.7112 -0.3008
 1674SOL    HW116655   0.223   3.642   2.763  1.8187 -2.0752  0.7488
 1674SOL    HW216656   0.278   3.540   2.670  0.3203 -0.0937 -0.2508
 1675SOL     OW16657   3.282   3.330   2.722 -0.1220  0.1773 -0.0505
 1675SOL    HW116658   3.323   3.386   2.789 -0.6955 -1.5180  1.7200
 1675SOL    HW216659   3.349   3.317   2.656  0.2736  3.0703 -0.2463
 1676SOL     OW16660   2.571   1.759  15.518 -0.0462  0.0011  0.0207
 1676SOL    HW116661   2.587   1.685  15.460 -1.7629  0.6355 -1.2495
 1676SOL    HW216662   2.648   1.803  15.481 -0.8393  1.7474  0.4511
 1677SOL     OW16663   1.569   2.709   4.316 -0.1555  0.1183  0.0513
 1677SOL    HW116664   1.623   2.769   4.367  0.2297 -0.8749  0.8180
 1677SOL    HW216665   1.631   2.639   4.296 -1.6301 -0.3496 -2.9305
 1678SOL     OW16666   1.261   2.781   5.282 -0.1771 -0.3461 -0.1900
 1678SOL    HW116667   1.343   2.738   5.307  0.3383  1.0881  0.5576
 1678SOL    HW216668   1.239   2.808   5.371 -1.0055  0.5458 -0.6751
 1679SOL     OW16669   3.955   2.547   2.384  0.3161  0.1082  0.3486
 1679SOL    HW116670   3.891   2.604   2.427 -0.3674 -1.8790  1.9596
 1679SOL    HW216671   3.913   2.555   2.299 -2.5961 -0.7370  1.7080
 1680SOL     OW16672   1.177   2.969   7.687 -0.0700  0.1114 -0.4370
 1680SOL    HW116673   1.089   3.002   7.701  0.2982  2.0026 -2.4167
 1680SOL    HW216674   1.158   2.892   7.634 -0.9577  0.8039 -1.1229
 1681SOL     OW16675   3.576   1.246   3.072  0.2160 -0.2712  0.5848
 1681SOL    HW116676   3.533   1.289   3.146 -1.8747 -0.4262 -0.5324
 1681SOL    HW216677   3.575   1.152   3.088 -0.6882 -0.3748 -0.0890
 1682SOL     OW16678   2.617   4.593   4.275  0.3827 -0.1163 -0.1329
 1682SOL    HW116679   2.710   4.571   4.281  0.3311 -0.4976 -0.7388
 1682SOL    HW216680   2.593   4.517   4.222 -0.8663  0.6706 -0.7012
 1683SOL     OW16681   3.042   0.398   4.867 -0.1202  0.0173  0.0253
 1683SOL    HW116682   3.077   0.309   4.879 -0.8209 -0.0519  1.5263
 1683SOL    HW216683   3.103   0.447   4.922  0.6736  0.3360 -1.1284
 1684SOL     OW16684   2.189   2.600   8.533 -0.3994 -0.0165  0.3381
 1684SOL    HW116685   2.279   2.630   8.523 -1.1941  2.2107 -0.1592
 1684SOL    HW216686   2.190   2.505   8.543 -1.4707  0.0000  0.6428
 1685SOL     OW16687   1.359   0.511   2.586  0.6941  0.2817  0.1350
 1685SOL    HW116688   1.375   0.560   2.506  0.0043  1.1709  0.5350
 1685SOL    HW216689   1.322   0.433   2.544 -0.9728  0.8432  0.5324
 1686SOL     OW16690   0.464   4.158   3.419 -0.3900  0.5499  0.0662
 1686SOL    HW116691   0.394   4.110   3.463  1.0212 -2.3708 -0.8768
 1686SOL    HW216692   0.444   4.143   3.327 -0.3128  0.9367 -0.0127
 1687SOL     OW16693   1.599   2.008   7.806 -0.1239  0.1278 -0.3411
 1687SOL    HW116694   1.634   2.005   7.717 -1.2792 -0.5108 -0.7631
 1687SOL    HW216695   1.661   2.075   7.837  0.1412 -0.0488 -0.4867
 1688SOL     OW16696   1.788   3.133  11.254  0.0159  0.1683 -0.0628
 1688SOL    HW116697   1.737   3.214  11.252  0.3419  0.3373 -1.8924
 1688SOL    HW216698   1.820   3.117  11.165  0.4839  1.0679 -0.0553
 1689SOL     OW16699   0.184   1.441   1.724 -0.1603  0.3587  0.1367
 1689SOL    HW116700   0.154   1.429   1.814 -1.4240  0.8077 -0.2227
 1689SOL    HW216701   0.119   1.392   1.674 -0.5923 -0.4120  1.4749
 1690SOL     OW16702   1.154   3.902  16.777 -0.2260 -0.9453 -0.3384
 1690SOL    HW116703   1.199   3.987  16.778  1.6863 -1.9762 -0.5366
 1690SOL    HW216704   1.066   3.934  16.755  0.6682 -0.8570 -3.7927
 1691SOL     OW16705   1.617   4.681   5.142 -0.3062  0.5573  0.3487
 1691SOL    HW116706   1.712   4.671   5.136 -0.1972  2.0923 -0.2373
 1691SOL    HW216707   1.607   0.035   5.183 -0.3352  1.2716 -1.1695
 1692SOL     OW16708   0.834   2.548   8.386 -0.2030 -0.1061 -0.2912
 1692SOL    HW116709   0.838   2.615   8.317 -2.9056 -1.2484 -1.5749
 1692SOL    HW216710   0.739   2.537   8.398  0.1190 -1.6819  0.7708
 1693SOL     OW16711   3.909   3.901   3.197  0.1030  0.2116  0.0490
 1693SOL    HW116712   3.897   3.982   3.148  0.6185 -0.2556 -0.8407
 1693SOL    HW216713   3.821   3.889   3.233  0.1586 -1.7732 -0.5038
 1694SOL     OW16714   0.798   2.388   9.874  0.2488 -0.7751  0.1629
 1694SOL    HW116715   0.717   2.355   9.913 -0.2183 -0.1512 -0.2867
 1694SOL    HW216716   0.781   2.481   9.859  0.7819 -0.7658 -0.3484
 1695SOL     OW16717   1.727   4.352  15.376  0.3782 -0.5557  0.8690
 1695SOL    HW116718   1.726   4.387  15.287 -0.6525 -0.8267  0.7687
 1695SOL    HW216719   1.787   4.415  15.416 -2.2558  2.3892  0.2676
 1696SOL     OW16720   3.121   2.591   0.815  0.8348 -0.2914  1.2197
 1696SOL    HW116721   3.130   2.555   0.726  0.9981  0.3632  0.9743
 1696SOL    HW216722   3.084   2.516   0.862 -0.5259 -0.9560 -0.9179
 1697SOL     OW16723   1.918   0.964   8.217 -0.2992 -0.1475 -0.1352
 1697SOL    HW116724   1.900   1.015   8.137  0.0893  0.3019  0.0656
 1697SOL    HW216725   1.839   0.913   8.234 -1.5124  1.3162 -1.3451
 1698SOL     OW16726   2.131   3.838   4.572  0.4534  0.3113 -0.2151
 1698SOL    HW116727   2.135   3.760   4.628  1.3796  1.4649  1.3406
 1698SOL    HW216728   2.083   3.814   4.493  1.1524 -3.1190  0.4067
 1699SOL     OW16729   1.926   3.973  12.672  0.2547  0.0561  0.2813
 1699SOL    HW116730   1.869   3.970  12.595  2.3543 -0.7396 -1.2275
 1699SOL    HW216731   1.859   3.958  12.738 -2.1493 -1.6954 -2.5774
 1700SOL     OW16732   3.815   4.152   3.676 -0.8443  0.0002  0.2176
 1700SOL    HW116733   3.870   4.078   3.652  0.0191  0.1813  1.6256
 1700SOL    HW216734   3.823   4.206   3.598  0.8972 -0.1456  0.2983
 1701SOL     OW16735   0.446   3.210   2.429  0.4194 -0.5264  0.2821
 1701SOL    HW116736   0.502   3.248   2.362  1.5126 -2.4427  0.1180
 1701SOL    HW216737   0.414   3.132   2.383 -0.4047  0.4143 -0.7410
 1702SOL     OW16738   3.215   1.933   7.716 -0.0239  0.3165 -0.4362
 1702SOL    HW116739   3.222   1.840   7.737  3.5918  0.6929  0.1015
 1702SOL    HW216740   3.289   1.944   7.656  0.1272 -0.6050 -0.4223
 1703SOL     OW16741   0.857   0.408   7.938  0.2072 -0.1175 -0.3211
 1703SOL    HW116742   0.898   0.487   7.972 -2.5489  0.0755  2.6187
 1703SOL    HW216743   0.775   0.420   7.988  0.5751  0.1636  0.2156
 1704SOL     OW16744   4.253   3.471   5.936 -0.1287  0.0802 -0.0812
 1704SOL    HW116745   4.281   3.412   5.866  0.4204 -0.8585  0.9272
 1704SOL    HW216746   4.263   3.554   5.890  0.4889 -0.7483 -1.4247
 1705SOL     OW16747   4.633   2.690   5.034 -0.1587  0.4946  0.4011
 1705SOL    HW116748   4.672   2.765   4.989 -0.9924  0.5489 -0.2150
 1705SOL    HW216749   4.709   2.661   5.085  1.6447  2.2717 -1.2878
 1706SOL     OW16750   2.393   4.219   0.094 -0.0142  0.3372 -0.0943
 1706SOL    HW116751   2.309   4.231   0.138 -0.6839 -1.8264 -0.7916
 1706SOL    HW216752   2.442   4.298   0.116 -1.3589  1.0132  0.4960
 1707SOL     OW16753   1.548   3.397   4.891  0.6906  0.4165  0.4325
 1707SOL    HW116754   1.525   3.307   4.913  0.7702  0.8374  2.2241
 1707SOL    HW216755   1.644   3.400   4.894  0.6277  0.6265  2.1615
 1708SOL     OW16756   2.322   0.747   1.923  0.3054  0.3920 -0.2131
 1708SOL    HW116757   2.325   0.757   1.827  0.2965 -0.9120 -0.3524
 1708SOL    HW216758   2.322   0.651   1.927  0.5683  0.4139  0.2632
 1709SOL     OW16759   1.919   3.678   2.884 -0.4959  0.1709  0.5270
 1709SOL    HW116760   1.838   3.664   2.835 -0.2267 -0.7583  0.3425
 1709SOL    HW216761   1.899   3.624   2.960  1.7509  0.6308  1.4556
 1710SOL     OW16762   3.462   0.389   1.904  0.6936  0.1797  0.3040
 1710SOL    HW116763   3.545   0.431   1.927 -0.2265  1.4199  1.3086
 1710SOL    HW216764   3.447   0.332   1.979  0.2724  2.0475  1.6416
 1711SOL     OW16765   0.159   3.351   9.306  0.4107  0.5715  0.5247
 1711SOL    HW116766   0.088   3.413   9.293  1.7101  1.6993 -1.2101
 1711SOL    HW216767   0.229   3.413   9.325  2.2008 -1.1748 -0.2760
 1712SOL     OW16768   3.854   1.731  15.915  0.5012  0.2836  0.2964
 1712SOL    HW116769   3.927   1.669  15.908  0.9493  0.8725 -0.2816
 1712SOL    HW216770   3.803   1.693  15.844 -0.2969  0.6235  0.6863
 1713SOL     OW16771   0.110   3.050  14.612 -0.1259 -0.1072 -0.3100
 1713SOL    HW116772   0.068   2.965  14.627  1.2500 -0.3539  2.0628
 1713SOL    HW216773   0.133   3.050  14.519  1.5440 -1.7456  0.1044
 1714SOL     OW16774   2.446   3.044   6.353 -0.1341 -0.3250 -0.1383
 1714SOL    HW116775   2.433   3.118   6.413  1.5896  0.8126 -1.1994
 1714SOL    HW216776   2.357   3.009   6.354 -1.0213  1.8701 -1.8149
 1715SOL     OW16777   1.897   1.711   7.177 -0.2121  0.5469 -0.3981
 1715SOL    HW116778   1.895   1.788   7.120 -0.2525  0.4313 -0.5539
 1715SOL    HW216779   1.834   1.736   7.244 -0.0805  0.1435 -0.1208
 1716SOL     OW16780   0.937   4.462   1.650  0.3338  0.4775  0.7699
 1716SOL    HW116781   0.976   4.374   1.651 -3.4274 -1.2006  0.2950
 1716SOL    HW216782   0.886   4.448   1.570  0.1857 -2.2255  1.3482
 1717SOL     OW16783   3.113   4.630   9.398  0.3688 -0.1969 -0.2372
 1717SOL    HW116784   3.179   4.639   9.330  0.6136  1.6250  0.2397
 1717SOL    HW216785   3.083   4.721   9.402 -0.6507 -0.5510  0.3337
 1718SOL     OW16786   3.525   3.543   8.803  0.4296  0.0599  0.3536
 1718SOL    HW116787   3.541   3.546   8.898  0.2147 -0.1586  0.3972
 1718SOL    HW216788   3.586   3.611   8.773  0.1641 -0.1453 -0.6307
 1719SOL     OW16789   3.994   3.538   6.782 -0.2707  0.5674  0.4157
 1719SOL    HW116790   4.050   3.510   6.854  0.4558  0.3279 -0.2395
 1719SOL    HW216791   4.012   3.479   6.708  0.4844  0.7149  0.4839
 1720SOL     OW16792   3.658   2.029   4.559 -0.0198  0.1040 -0.1113
 1720SOL    HW116793   3.730   1.967   4.567 -0.4347 -0.5073 -1.0591
 1720SOL    HW216794   3.642   2.051   4.651 -3.5865 -3.3012  0.0661
 1721SOL     OW16795   0.262   0.245   7.303  0.1797 -0.4878 -0.1105
 1721SOL    HW116796   0.353   0.222   7.286  0.6167  0.0468  1.4386
 1721SOL    HW216797   0.246   0.295   7.222  2.2286 -0.7610 -0.6615
 1722SOL     OW16798   4.029   0.859   5.137 -0.0670 -0.0789  0.1945
 1722SOL    HW116799   4.111   0.834   5.094 -0.9311  0.6589 -1.8472
 1722SOL    HW216800   3.973   0.797   5.090 -0.5869 -1.0781  2.1252
 1723SOL     OW16801   3.900   3.546   8.604  0.0552  0.4217 -0.0866
 1723SOL    HW116802   3.871   3.550   8.513 -0.4926  0.2684  0.0798
 1723SOL    HW216803   3.835   3.606   8.643 -2.2002 -1.4322 -0.9661
 1724SOL     OW16804   2.162   2.771   7.264 -0.0915  0.4905  0.0073
 1724SOL    HW116805   2.100   2.836   7.232  1.3641  1.2191 -1.3513
 1724SOL    HW216806   2.243   2.821   7.280  0.1427  0.5384 -1.3289
 1725SOL     OW16807   2.622   4.214   0.337  0.2797  0.2036 -0.0560
 1725SOL    HW116808   2.609   4.287   0.276  2.4414  2.2648  1.9864
 1725SOL    HW216809   2.534   4.176   0.346  1.4373 -1.9580  2.0564
 1726SOL     OW16810   3.043   2.343  16.026 -0.5263 -0.8107 -0.1417
 1726SOL    HW116811   3.094   2.414  15.988  2.8692 -3.7916 -1.1688
 1726SOL    HW216812   3.079   2.343  16.115 -0.7550 -0.1067 -0.0537
 1727SOL     OW16813   1.517   1.353   7.995 -0.5208  0.4562 -0.6202
 1727SOL    HW116814   1.534   1.441   8.029 -0.3571 -0.1942  1.0104
 1727SOL    HW216815   1.497   1.307   8.077  0.8325 -0.1797 -0.6545
 1728SOL     OW16816   2.181   3.766   8.918  0.2497  0.1396 -0.3711
 1728SOL    HW116817   2.266   3.786   8.956 -0.6068 -0.2204  1.7178
 1728SOL    HW216818   2.134   3.849   8.931  1.6686  0.6836  1.2852
 1729SOL     OW16819   0.161   4.676   5.980  0.3572 -0.5039 -0.1197
 1729SOL    HW116820   0.180   4.585   6.001  0.7254 -0.6207 -0.9420
 1729SOL    HW216821   0.136   4.657   5.890 -0.4555  1.5000 -0.3160
 1730SOL     OW16822   2.083   0.557   7.769 -0.7695 -0.4212 -0.2019
 1730SOL    HW116823   2.077   0.624   7.701 -0.7014 -1.4905 -1.2533
 1730SOL    HW216824   2.000   0.515   7.747 -2.0973  0.9711  2.2711
 1731SOL     OW16825   1.875   0.849  10.279 -0.2369 -0.0220 -0.0534
 1731SOL    HW116826   1.893   0.942  10.278 -1.8547  0.2866 -0.4517
 1731SOL    HW216827   1.782   0.840  10.301 -0.1871 -0.0280  0.1560
 1732SOL     OW16828   4.284   3.010  16.436  0.5982 -0.3664 -0.3335
 1732SOL    HW116829   4.299   3.103  16.420  3.1881 -0.5100  1.3563
 1732SOL    HW216830   4.350   2.969  16.381  0.6704 -2.3772  1.2503
 1733SOL     OW16831   1.469   0.186   6.554  0.3301  0.1197 -0.4127
 1733SOL    HW116832   1.428   0.149   6.632  0.6024 -0.2501 -0.4495
 1733SOL    HW216833   1.410   0.138   6.495  0.7387  1.4253 -1.8947
 1734SOL     OW16834   2.847   1.475  10.946  0.4677  0.3083  1.1269
 1734SOL    HW116835   2.929   1.426  10.941  1.7818  2.7235 -1.0849
 1734SOL    HW216836   2.785   1.404  10.930 -1.0304  1.7569  0.4406
 1735SOL     OW16837   1.160   0.362   7.982 -0.1094  0.5849  0.7546
 1735SOL    HW116838   1.113   0.439   8.013 -0.6678 -0.6076  2.8684
 1735SOL    HW216839   1.186   0.326   8.067  1.8364  0.8349  0.2781
 1736SOL     OW16840   0.314   4.700   8.917 -0.2941 -0.1066 -0.5099
 1736SOL    HW116841   0.392   4.731   8.872 -1.1918  1.6314 -0.8512
 1736SOL    HW216842   0.254   4.666   8.851  0.2416 -1.1874 -0.4434
 1737SOL     OW16843   2.680   3.588   0.942 -0.4190 -0.1841 -0.3401
 1737SOL    HW116844   2.713   3.613   0.856  1.3034  0.2076  0.4288
 1737SOL    HW216845   2.640   3.506   0.913 -3.9177  0.7189  1.8705
 1738SOL     OW16846   2.897   2.784   4.736 -0.2181 -0.5495  0.2249
 1738SOL    HW116847   2.833   2.831   4.790  0.2603  0.5878 -0.1889
 1738SOL    HW216848   2.954   2.855   4.706  0.2852 -0.0161  2.4003
 1739SOL     OW16849   1.207   3.375   5.828 -0.6551  0.1920  0.3058
 1739SOL    HW116850   1.263   3.308   5.868  1.9577  3.0010  1.3356
 1739SOL    HW216851   1.175   3.326   5.752 -0.9034 -0.7343  1.0009
 1740SOL     OW16852   4.511   1.162  11.263 -0.1687 -0.0859 -0.1248
 1740SOL    HW116853   4.423   1.149  11.229  0.6987 -0.7746 -2.0956
 1740SOL    HW216854   4.498   1.246  11.308  0.3744 -1.7655  3.1337
 1741SOL     OW16855   3.226   4.384   3.981 -0.2656  0.0878  0.0663
 1741SOL    HW116856   3.255   4.317   3.919  1.3408 -1.1840  2.1814
 1741SOL    HW216857   3.201   4.456   3.922 -1.9687  0.1545  0.8806
 1742SOL     OW16858   3.667   2.382   0.202 -0.7522 -0.3532 -0.1401
 1742SOL    HW116859   3.694   2.299   0.241  0.6739  0.7792  1.2836
 1742SOL    HW216860   3.738   2.445   0.216 -2.1158  1.0049  0.7103
 1743SOL     OW16861   0.811   3.776   3.823 -0.9982 -0.1188  0.1871
 1743SOL    HW116862   0.870   3.731   3.884 -1.1313  0.1981  0.5524
 1743SOL    HW216863   0.844   3.764   3.734  1.0710 -0.6662  1.0393
 1744SOL     OW16864   0.764   1.336   6.647  0.3284 -0.2989 -0.3977
 1744SOL    HW116865   0.801   1.346   6.735  0.8061  0.9460 -0.7300
 1744SOL    HW216866   0.812   1.403   6.598 -1.0851  1.5278  0.7246
 1745SOL     OW16867   4.250   3.019   5.025  0.2684  0.4902 -0.2977
 1745SOL    HW116868   4.291   3.036   4.940 -1.3150 -3.1052 -1.7846
 1745SOL    HW216869   4.253   2.925   5.006  0.9779  0.2802  0.8395
 1746SOL     OW16870   1.342   2.259   4.738 -0.0703  0.9465 -0.1067
 1746SOL    HW116871   1.280   2.288   4.805 -3.2305  1.3628 -3.2151
 1746SOL    HW216872   1.306   2.173   4.717  0.1481  0.7164  0.4808
 1747SOL     OW16873   3.203   3.719   6.725 -0.2758 -0.5278  0.3427
 1747SOL    HW116874   3.222   3.651   6.661  1.6074 -2.8049  3.3249
 1747SOL    HW216875   3.113   3.740   6.700  0.6232  1.8433 -0.8845
 1748SOL     OW16876   1.235   1.234  17.550  0.2303 -0.0205  0.5558
 1748SOL    HW116877   1.310   1.222  17.609  1.3528 -1.9627 -1.2666
 1748SOL    HW216878   1.265   1.203  17.465 -1.3001 -1.1968  0.4258
 1749SOL     OW16879   4.603   0.891   5.240  0.0652  0.4846 -0.1797
 1749SOL    HW116880   4.687   0.893   5.194 -0.3492  3.6417 -0.7790
 1749SOL    HW216881   4.622   0.853   5.326 -1.9357 -1.6064 -0.6515
 1750SOL     OW16882   0.530   1.818  10.517  0.6771  0.0049  0.0612
 1750SOL    HW116883   0.487   1.772  10.445  1.1495  2.0787 -1.5430
 1750SOL    HW216884   0.558   1.904  10.486  0.5694 -0.1646 -0.4958
 1751SOL     OW16885   2.085   4.283   6.467 -0.4785  0.0601  0.2184
 1751SOL    HW116886   2.007   4.272   6.522  1.3161  1.3570  3.0302
 1751SOL    HW216887   2.139   4.206   6.485 -0.8406 -0.0035  1.0353
 1752SOL     OW16888   2.570   4.543   3.351 -0.0206  0.2110  0.1016
 1752SOL    HW116889   2.510   4.508   3.417  0.2479 -0.3987  0.0262
 1752SOL    HW216890   2.541   4.491   3.276 -0.3755  1.2622 -0.4920
 1753SOL     OW16891   3.894   1.018   8.641  0.3317  0.1319 -0.2259
 1753SOL    HW116892   3.927   1.083   8.579  2.0084 -1.0386 -0.5582
 1753SOL    HW216893   3.804   1.047   8.657  0.1079  0.0895 -1.3977
 1754SOL     OW16894   4.424   1.441   9.397  0.0118  0.9205 -0.2245
 1754SOL    HW116895   4.469   1.405   9.320 -0.9456 -0.0768 -0.3184
 1754SOL    HW216896   4.362   1.501   9.354 -0.9610  0.0987  0.0345
 1755SOL     OW16897   0.243   3.465  14.995  0.5271 -0.8411  0.3078
 1755SOL    HW116898   0.316   3.410  14.967 -0.2572 -0.8873 -1.6376
 1755SOL    HW216899   0.273   3.536  15.052 -1.5617  1.6243 -1.6518
 1756SOL     OW16900   0.319   0.328  16.859 -0.3445  0.4863 -0.2309
 1756SOL    HW116901   0.321   0.290  16.771 -0.2166  0.1219 -0.0684
 1756SOL    HW216902   0.361   0.257  16.907 -2.2007  0.2235  0.9806
 1757SOL     OW16903   2.556   2.757  15.299  0.1172  0.1817 -0.3511
 1757SOL    HW116904   2.540   2.850  15.286 -2.8318 -0.2123  0.4459
 1757SOL    HW216905   2.634   2.748  15.245  0.8945 -2.5365  1.2076
 1758SOL     OW16906   3.831   1.320  17.333  0.2374 -0.2799  0.0883
 1758SOL    HW116907   3.875   1.258  17.275  0.8526 -1.9726  2.3605
 1758SOL    HW216908   3.779   1.366  17.267 -0.8989  2.0531  2.6064
 1759SOL     OW16909   4.001   3.524  12.242 -0.5777  0.0439 -0.0624
 1759SOL    HW116910   3.952   3.604  12.259  0.9295  0.9197  0.2219
 1759SOL    HW216911   4.083   3.537  12.290 -2.0496  0.8399  2.2721
 1760SOL     OW16912   3.394   0.916   7.635  0.1434  0.0114  0.2964
 1760SOL    HW116913   3.307   0.954   7.627  0.0793 -0.5457 -1.7990
 1760SOL    HW216914   3.420   0.885   7.548 -0.3441  0.9460 -0.1838
 1761SOL     OW16915   2.798   2.839  17.378  0.4576  0.0862  0.0388
 1761SOL    HW116916   2.788   2.832  17.284 -0.3187 -0.0744  0.1355
 1761SOL    HW216917   2.890   2.863  17.375  1.2661 -3.0673 -0.3831
 1762SOL     OW16918   2.969   3.829  11.678 -0.6596 -0.1656 -0.0859
 1762SOL    HW116919   2.991   3.795  11.591 -0.3928 -0.3952  0.0711
 1762SOL    HW216920   2.879   3.795  11.680 -0.5172 -0.4567  1.4354
 1763SOL     OW16921   0.510   0.540   9.289  0.6736  0.5777 -0.3331
 1763SOL    HW116922   0.492   0.452   9.321  1.0506  0.4092 -0.5873
 1763SOL    HW216923   0.427   0.587   9.300 -0.7494 -2.3666  1.3361
 1764SOL     OW16924   1.948   3.431   1.914 -0.4341 -0.0762 -0.4678
 1764SOL    HW116925   2.042   3.453   1.914 -0.8739  1.8020 -0.0700
 1764SOL    HW216926   1.946   3.388   2.000  1.9419 -0.3317 -0.5276
 1765SOL     OW16927   1.801   0.417   5.672 -0.9662 -0.1313 -0.1896
 1765SOL    HW116928   1.745   0.344   5.700 -0.5661  0.1926  1.4541
 1765SOL    HW216929   1.758   0.496   5.705  0.7047  1.3927 -1.6827
 1766SOL     OW16930   2.097   2.919  16.908  0.3127  0.4070  0.1114
 1766SOL    HW116931   2.061   2.865  16.837  0.1844  0.7196 -0.0637
 1766SOL    HW216932   2.018   2.947  16.954 -1.2578  0.4444 -2.5661
 1767SOL     OW16933   3.954   3.345   7.968  0.5517 -0.9059 -0.0444
 1767SOL    HW116934   4.012   3.305   7.903 -1.3041 -2.0725 -0.9950
 1767SOL    HW216935   4.024   3.390   8.015  0.0461 -2.6243  2.2950
 1768SOL     OW16936   3.424   2.667   6.381 -0.2370  0.2080 -0.2005
 1768SOL    HW116937   3.399   2.624   6.299  0.5199  0.7825 -0.7271
 1768SOL    HW216938   3.518   2.651   6.384 -0.3473 -0.3390  0.3531
 1769SOL     OW16939   1.428   2.966   2.723  0.2386  0.3050  0.1988
 1769SOL    HW116940   1.341   2.933   2.700  1.0536 -1.2750 -0.6106
 1769SOL    HW216941   1.479   2.891   2.694  2.4760  2.3284 -1.0471
 1770SOL     OW16942   1.974   3.612   4.706  0.0291  0.2322  0.5172
 1770SOL    HW116943   2.028   3.599   4.784 -0.6033 -0.6007  0.8088
 1770SOL    HW216944   2.020   3.551   4.648 -0.6981 -0.4578  0.6684
 1771SOL     OW16945   2.962   3.085   7.546  0.3522 -0.1615 -0.1461
 1771SOL    HW116946   2.909   3.104   7.623  1.7531  1.7820  0.3201
 1771SOL    HW216947   3.008   3.007   7.576  2.3784  0.0260 -2.7372
 1772SOL     OW16948   0.850   2.639   9.551  0.7225 -0.3458 -0.0892
 1772SOL    HW116949   0.788   2.679   9.490  0.7678 -0.5321 -0.2568
 1772SOL    HW216950   0.810   2.552   9.552 -1.7049  0.7858  0.9783
 1773SOL     OW16951   0.425   4.301   4.527 -0.1918  0.1300  0.0298
 1773SOL    HW116952   0.364   4.313   4.600  0.0569  0.3001  0.2079
 1773SOL    HW216953   0.492   4.251   4.573  1.4228  1.1241 -1.2604
 1774SOL     OW16954   3.248   2.508  15.490  0.3367  0.4908 -0.5179
 1774SOL    HW116955   3.177   2.569  15.469 -0.0156 -1.0476 -3.7788
 1774SOL    HW216956   3.225   2.470  15.575  0.1307 -0.2704 -0.9145
 1775SOL     OW16957   2.608   4.690   1.625 -0.2427  0.3754 -0.4787
 1775SOL    HW116958   2.698   4.674   1.652 -0.0836  0.8594 -0.7424
 1775SOL    HW216959   2.624   0.043   1.586  0.2984  1.1350  1.3920
 1776SOL     OW16960   2.220   1.266   4.442 -0.6053 -0.1779 -0.3068
 1776SOL    HW116961   2.131   1.282   4.411 -0.2995  2.7884  0.4260
 1776SOL    HW216962   2.244   1.358   4.436 -0.8274 -0.2489 -2.2621
 1777SOL     OW16963   3.477   3.754   0.609 -0.6052  0.1076 -0.2637
 1777SOL    HW116964   3.429   3.692   0.665 -0.3451  0.1015 -0.0494
 1777SOL    HW216965   3.560   3.760   0.656 -1.5853  3.9246  0.9449
 1778SOL     OW16966   2.376   1.483   0.081  0.2120  0.1915  0.6315
 1778SOL    HW116967   2.431   1.455   0.155 -2.3591 -1.3098  1.9567
 1778SOL    HW216968   2.436   1.467   0.008  2.2459  0.6472  2.2125
 1779SOL     OW16969   4.690   2.131   3.747 -0.0291 -0.3045  0.0052
 1779SOL    HW116970   4.680   2.038   3.731  1.1233 -0.3216 -0.6017
 1779SOL    HW216971   0.047   2.142   3.781 -0.8666  1.5534  1.6419
 1780SOL     OW16972   0.102   1.533  15.534 -0.5875 -0.3671 -0.3853
 1780SOL    HW116973   0.094   1.445  15.570  0.5926 -0.4806 -0.3917
 1780SOL    HW216974   0.111   1.591  15.610 -0.4086 -0.5607 -0.2582
 1781SOL     OW16975   2.398   2.861  16.781 -0.1480 -0.2609  0.1832
 1781SOL    HW116976   2.372   2.925  16.847 -3.0248  0.1033 -1.2733
 1781SOL    HW216977   2.324   2.865  16.719  0.1546  0.3156 -0.1447
 1782SOL     OW16978   0.052   1.559   0.877 -0.1187  0.3220  0.0011
 1782SOL    HW116979   4.690   1.568   0.858 -0.4843 -0.1626  1.5967
 1782SOL    HW216980   0.071   1.466   0.864  1.4902  0.8595 -1.6011
 1783SOL     OW16981   0.656   0.464   7.473  0.8055  0.1362  0.2499
 1783SOL    HW116982   0.683   0.443   7.384  0.4831  0.2978  0.1156
 1783SOL    HW216983   0.695   0.383   7.508  1.7181  0.8583  0.9075
 1784SOL     OW16984   1.855   0.804  14.131  0.4913 -0.1598 -0.5502
 1784SOL    HW116985   1.925   0.867  14.116 -0.5886  1.0697 -0.3649
 1784SOL    HW216986   1.862   0.793  14.226 -1.2668 -1.0852 -0.5267
 1785SOL     OW16987   4.250   1.285   7.257  0.0058 -0.0652  0.1474
 1785SOL    HW116988   4.330   1.270   7.308  0.2186 -0.1956 -0.2231
 1785SOL    HW216989   4.223   1.193   7.257 -0.6385  0.1277 -0.0527
 1786SOL     OW16990   2.193   3.567   7.768  0.4406  0.4700 -0.5745
 1786SOL    HW116991   2.151   3.501   7.822 -0.2097  0.3740 -1.2023
 1786SOL    HW216992   2.274   3.598   7.810  1.3466 -2.4347 -0.1908
 1787SOL     OW16993   4.658   4.703   8.410 -0.2590 -0.1414  0.1264
 1787SOL    HW116994   4.584   4.689   8.351  0.8551 -1.4671 -0.9405
 1787SOL    HW216995   4.646   0.065   8.425  1.4323  0.1899 -0.6273
 1788SOL     OW16996   4.560   2.345   4.790 -0.2674 -0.3033 -0.1950
 1788SOL    HW116997   4.577   2.349   4.884 -3.3287 -1.5065  0.4025
 1788SOL    HW216998   4.470   2.313   4.778 -1.1493  1.5859  1.3882
 1789SOL     OW16999   1.115   1.603  13.537  0.3906 -0.0904 -0.3606
 1789SOL    HW117000   1.200   1.560  13.532 -0.6132 -1.9372 -1.2087
 1789SOL    HW217001   1.062   1.531  13.570  0.6347 -0.9114 -1.8051
 1790SOL     OW17002   1.031   2.537   8.652  0.3596 -0.3153  0.0509
 1790SOL    HW117003   0.985   2.556   8.570 -1.7087  0.8208  1.4859
 1790SOL    HW217004   1.100   2.482   8.615  0.6029  1.0217 -1.4957
 1791SOL     OW17005   0.728   1.011   3.876  0.1348  0.0960  0.6290
 1791SOL    HW117006   0.642   0.971   3.891  0.1351  0.7855  2.4470
 1791SOL    HW217007   0.710   1.095   3.919  0.4107  0.2723  0.3972
 1792SOL     OW17008   0.882   1.779   7.599 -0.0013 -0.0046  0.5978
 1792SOL    HW117009   0.832   1.853   7.566 -0.9651 -1.4443 -1.1360
 1792SOL    HW217010   0.944   1.752   7.531 -1.0555 -2.3849  0.6006
 1793SOL     OW17011   0.871   3.049  15.990 -0.4452 -0.3541  0.4348
 1793SOL    HW117012   0.792   3.029  15.940 -0.3284 -1.8059  0.8262
 1793SOL    HW217013   0.932   3.030  15.919 -1.4610  0.0704 -0.5641
 1794SOL     OW17014   0.176   1.565  11.665 -0.3030  0.2039 -0.3777
 1794SOL    HW117015   0.118   1.640  11.676 -2.3596 -1.5291  0.5270
 1794SOL    HW217016   0.250   1.588  11.721  0.6499 -0.5797 -1.2830
 1795SOL     OW17017   0.818   1.888  10.005 -0.0221  0.5611 -0.0518
 1795SOL    HW117018   0.874   1.883   9.928  1.6951  0.2247  1.2053
 1795SOL    HW217019   0.741   1.847   9.966  0.4127 -0.1676 -0.1426
 1796SOL     OW17020   4.655   2.924   8.442  0.2441 -0.6986 -0.1062
 1796SOL    HW117021   4.725   2.989   8.438  0.7819 -1.1287  1.8661
 1796SOL    HW217022   4.689   2.851   8.390  0.3060  0.0591 -1.1271
 1797SOL     OW17023   2.087   0.719   2.976 -0.2192 -0.4502  0.0270
 1797SOL    HW117024   2.008   0.699   2.926 -0.2024  1.4358 -0.7584
 1797SOL    HW217025   2.083   0.815   2.974 -1.4463 -0.4850  0.6662
 1798SOL     OW17026   2.124   1.818   7.732 -0.5917 -0.4786  0.4200
 1798SOL    HW117027   2.152   1.776   7.813 -1.7766  0.0832  1.1225
 1798SOL    HW217028   2.136   1.910   7.757 -1.3154  0.0214 -1.0889
 1799SOL     OW17029   2.807   3.118   3.626  0.5317 -0.3096  0.1252
 1799SOL    HW117030   2.813   3.095   3.719  0.0145 -0.5359  0.0988
 1799SOL    HW217031   2.714   3.100   3.616  0.4850  0.9694 -1.8737
 1800SOL     OW17032   0.086   3.802  15.043 -0.2141 -0.1614 -0.2995
 1800SOL    HW117033   0.169   3.835  15.077 -0.2099 -1.8476  1.3482
 1800SOL    HW217034   0.084   3.713  15.078  1.6148  0.7673  2.1563
 1801SOL     OW17035   3.977   4.604   8.628  0.2073  0.5069  0.1517
 1801SOL    HW117036   4.014   4.533   8.681 -1.0434  0.1631  0.5741
 1801SOL    HW217037   3.967   4.674   8.691  0.1562 -0.2594  0.9931
 1802SOL     OW17038   2.052   3.407   7.049 -0.4365  0.4800 -0.0990
 1802SOL    HW117039   2.038   3.497   7.020  1.1503  1.4917  2.2508
 1802SOL    HW217040   2.122   3.412   7.115 -0.9782  1.6476  0.3955
 1803SOL     OW17041   3.363   0.026  16.651 -0.2997 -0.3755 -0.7977
 1803SOL    HW117042   3.339   4.667  16.664 -0.5484 -0.1226  0.5107
 1803SOL    HW217043   3.349   0.062  16.739 -1.7522 -1.1374 -0.7168
 1804SOL     OW17044   0.015   3.609  12.239  0.0057 -0.0799  0.2912
 1804SOL    HW117045   4.726   3.539  12.301 -0.5601 -0.6526 -0.5394
 1804SOL    HW217046   4.677   3.600  12.173 -0.1991  2.4137  0.1686
 1805SOL     OW17047   1.022   1.181   3.927  0.1511 -0.3704 -0.2343
 1805SOL    HW117048   1.076   1.223   3.994 -0.2561  1.5537 -1.1022
 1805SOL    HW217049   0.933   1.211   3.946  0.4625  0.2827  0.2011
 1806SOL     OW17050   1.427   3.574   5.106 -0.5402  0.5224  0.6500
 1806SOL    HW117051   1.456   3.553   5.017 -0.9162 -1.0355  0.8962
 1806SOL    HW217052   1.504   3.542   5.152  0.0412  2.2731  0.9061
 1807SOL     OW17053   0.722   1.983   3.873 -0.5934 -0.2593 -0.4406
 1807SOL    HW117054   0.791   1.976   3.939 -0.0150  0.3586 -0.9729
 1807SOL    HW217055   0.646   2.008   3.925 -0.2674  1.4253 -0.7554
 1808SOL     OW17056   1.270   3.499   3.628 -0.3657  0.0825 -0.0678
 1808SOL    HW117057   1.237   3.426   3.680 -0.5032  0.1010 -0.1304
 1808SOL    HW217058   1.236   3.473   3.543  0.3531  0.1491 -0.3760
 1809SOL     OW17059   2.169   4.489   9.163  0.6340  0.5054 -0.0295
 1809SOL    HW117060   2.205   4.478   9.075 -1.6600  1.6517 -1.1170
 1809SOL    HW217061   2.197   4.578   9.183 -1.5051  0.7310  1.9393
 1810SOL     OW17062   1.791   0.858   3.585  1.0180  0.2601 -0.2843
 1810SOL    HW117063   1.821   0.791   3.647  0.5393  0.4815  0.1940
 1810SOL    HW217064   1.816   0.825   3.499  1.0531 -0.0885 -0.1388
 1811SOL     OW17065   3.156   4.242   5.644  0.0071 -0.2707  0.0960
 1811SOL    HW117066   3.158   4.329   5.684  1.3761 -1.4830  2.6563
 1811SOL    HW217067   3.064   4.249   5.618 -0.5230 -1.0001  1.7567
 1812SOL     OW17068   3.902   0.859   5.447 -0.3350  0.5898  0.0959
 1812SOL    HW117069   3.936   0.904   5.370 -1.2122  0.4999 -0.3478
 1812SOL    HW217070   3.951   0.915   5.507 -0.5208 -1.8559  2.5946
 1813SOL     OW17071   0.081   0.313   4.831  0.3996 -0.6942 -0.2921
 1813SOL    HW117072   4.731   0.298   4.784  0.0906  2.0027 -0.5957
 1813SOL    HW217073   0.106   0.223   4.854 -0.6845 -1.1530 -0.8815
 1814SOL     OW17074   2.818   2.748   2.783 -0.1432 -0.4889 -0.4696
 1814SOL    HW117075   2.753   2.693   2.826 -1.1360 -1.0157 -2.6551
 1814SOL    HW217076   2.788   2.721   2.696  2.1181 -2.5389 -0.5821
 1815SOL     OW17077   2.629   0.723  10.665  0.3512  0.8411 -0.5629
 1815SOL    HW117078   2.711   0.755  10.627  0.8701  1.5081  1.1176
 1815SOL    HW217079   2.554   0.759  10.617 -0.5414  0.0595  0.2444
 1816SOL     OW17080   0.158   4.561   9.275 -0.5009  0.0043 -0.2159
 1816SOL    HW117081   0.205   4.478   9.262  0.3533  0.5674 -0.7240
 1816SOL    HW217082   0.203   4.592   9.353 -2.6249  1.8844  0.2669
 1817SOL     OW17083   2.850   1.627   4.153  0.2168 -0.4514  0.0767
 1817SOL    HW117084   2.756   1.627   4.172 -0.2947 -1.5630 -2.4716
 1817SOL    HW217085   2.845   1.711   4.107  0.4943  0.6699  2.0824
 1818SOL     OW17086   1.261   1.323   8.711  0.0601  0.0862 -0.0571
 1818SOL    HW117087   1.269   1.364   8.797 -0.0533  0.9004 -0.4308
 1818SOL    HW217088   1.171   1.345   8.688 -0.4745  0.8172  2.7705
 1819SOL     OW17089   1.561   0.065  17.205 -0.3294 -0.4674 -0.0341
 1819SOL    HW117090   1.532   0.025  17.123  0.2173  0.1258 -0.5166
 1819SOL    HW217091   1.651   0.091  17.183 -0.0968 -1.9784 -0.8590
 1820SOL     OW17092   2.576   1.866   6.329 -0.7218  0.4765 -0.1089
 1820SOL    HW117093   2.499   1.887   6.276  0.7839  3.5588 -1.0732
 1820SOL    HW217094   2.537   1.809   6.395  0.3547  0.4540  0.5015
 1821SOL     OW17095   4.348   1.852   6.780 -0.0981  0.4399  0.3406
 1821SOL    HW117096   4.267   1.883   6.821 -0.8031 -0.3094 -0.4805
 1821SOL    HW217097   4.404   1.841   6.857 -1.4722  0.0345  1.2831
 1822SOL     OW17098   3.241   1.200   2.043 -0.7791 -0.0726 -0.1770
 1822SOL    HW117099   3.290   1.283   2.041 -1.3155  0.1545 -2.6832
 1822SOL    HW217100   3.181   1.225   2.113 -0.8660 -2.6346  0.6771
 1823SOL     OW17101   0.948   0.480   5.395  0.1956 -0.1781 -0.3929
 1823SOL    HW117102   0.933   0.570   5.424  0.7300 -0.2765  0.1882
 1823SOL    HW217103   0.920   0.480   5.303  1.2601 -1.4032 -0.7222
 1824SOL     OW17104   3.285   0.426   1.590  0.0200 -0.4342 -0.2515
 1824SOL    HW117105   3.311   0.506   1.635 -0.7170  0.6105 -1.6990
 1824SOL    HW217106   3.191   0.440   1.585  0.4023  1.4169 -2.3209
 1825SOL     OW17107   2.936   1.429  14.113 -0.1972 -0.2087 -0.6653
 1825SOL    HW117108   2.844   1.443  14.133  0.6989  3.6109  0.7643
 1825SOL    HW217109   2.931   1.418  14.018 -1.4667  0.8798 -0.7233
 1826SOL     OW17110   4.154   2.756   2.421 -0.0892 -0.0272 -0.1089
 1826SOL    HW117111   4.107   2.675   2.401  0.1079 -0.3049  0.5635
 1826SOL    HW217112   4.179   2.790   2.335 -0.2106  0.7424  0.1649
 1827SOL     OW17113   2.714   0.164   1.494 -0.6846  0.2346  0.4463
 1827SOL    HW117114   2.756   0.225   1.556 -1.3148  2.0645 -0.9414
 1827SOL    HW217115   2.749   0.188   1.409 -1.0346  2.2906  0.8746
 1828SOL     OW17116   1.302   3.083  16.973  0.5529 -0.2413 -0.9161
 1828SOL    HW117117   1.354   3.043  16.903  1.5518  1.9854 -1.4341
 1828SOL    HW217118   1.215   3.071  16.936  0.3422 -2.0607  0.1582
 1829SOL     OW17119   4.647   0.647   4.404  0.3725 -0.2040  0.0645
 1829SOL    HW117120   4.621   0.599   4.326 -1.5227  2.1653 -0.7654
 1829SOL    HW217121   4.697   0.589   4.461 -0.5521 -0.8316  0.2374
 1830SOL     OW17122   1.456   2.164   6.782 -0.5441 -0.7978 -0.6941
 1830SOL    HW117123   1.375   2.215   6.780 -1.7652 -2.6439  1.8929
 1830SOL    HW217124   1.472   2.190   6.691 -2.3381  0.2556 -0.7077
 1831SOL     OW17125   1.454   0.014  17.449  0.1637  0.1080 -0.2792
 1831SOL    HW117126   1.467   4.652  17.450 -2.2609 -0.2338  0.2080
 1831SOL    HW217127   1.508   0.049  17.378  0.6433  1.9904  0.9965
 1832SOL     OW17128   2.105   1.833   4.080 -0.1424  0.3905 -0.4104
 1832SOL    HW117129   2.176   1.780   4.044  1.1290  0.0716  2.5035
 1832SOL    HW217130   2.029   1.818   4.025 -0.9596 -1.9083  1.3706
 1833SOL     OW17131   2.391   1.408  11.304  0.1673  0.0015  0.0731
 1833SOL    HW117132   2.407   1.458  11.225 -0.2987 -0.3589 -0.2476
 1833SOL    HW217133   2.477   1.403  11.346 -0.3712 -0.8162  1.0843
 1834SOL     OW17134   3.792   2.148  17.078  0.3157  0.3328 -0.2240
 1834SOL    HW117135   3.874   2.101  17.095 -0.1431 -1.5956 -3.3523
 1834SOL    HW217136   3.739   2.081  17.035 -0.7214 -0.3289  2.0691
 1835SOL     OW17137   2.509   1.983   3.900 -0.2428  0.5569 -0.2457
 1835SOL    HW117138   2.446   1.925   3.857 -0.0842  1.3462 -1.5401
 1835SOL    HW217139   2.458   2.043   3.955  2.0421 -0.1264  2.5954
 1836SOL     OW17140   3.096   4.278   7.369  0.0447  0.3083 -0.1306
 1836SOL    HW117141   3.020   4.225   7.345  0.1646 -0.3104  0.8873
 1836SOL    HW217142   3.134   4.236   7.446  2.2284 -0.9414 -1.8952
 1837SOL     OW17143   0.011   4.311   8.694  0.6577 -0.1658  0.1751
 1837SOL    HW117144   4.702   4.331   8.778  3.0410  2.1504  0.7996
 1837SOL    HW217145   0.052   4.395   8.676 -0.1348  0.1727 -0.0572
 1838SOL     OW17146   2.256   1.252   6.068 -0.3745  0.6002 -0.4269
 1838SOL    HW117147   2.311   1.247   6.146 -1.0785 -1.3709 -0.0434
 1838SOL    HW217148   2.229   1.343   6.079  2.5552  0.9792  3.2864
 1839SOL     OW17149   4.552   2.043   7.976 -0.3442  0.1693 -0.3335
 1839SOL    HW117150   4.473   2.009   7.935 -1.6563  1.7046  0.9523
 1839SOL    HW217151   4.592   1.962   8.007 -1.3902  0.7846  2.5325
 1840SOL     OW17152   4.538   2.587   8.068  0.5929  0.5723 -0.3541
 1840SOL    HW117153   4.453   2.622   8.097  0.8797  1.5145 -0.6539
 1840SOL    HW217154   4.526   2.495   8.046 -1.4598  0.5256  0.9315
 1841SOL     OW17155   0.799   0.117  13.518  0.5569 -0.4897  0.3341
 1841SOL    HW117156   0.759   0.108  13.604  0.9155 -2.8918  0.2406
 1841SOL    HW217157   0.872   0.176  13.535 -0.6997  1.6469 -1.6732
 1842SOL     OW17158   3.521   0.388   7.602 -0.0828 -0.2704  0.3890
 1842SOL    HW117159   3.614   0.401   7.617 -0.0561 -0.1154  0.0898
 1842SOL    HW217160   3.527   0.321   7.535  0.7566  2.5955 -2.3855
 1843SOL     OW17161   2.784   0.095   6.642 -0.1650 -0.0633  0.3070
 1843SOL    HW117162   2.745   0.007   6.651  0.1295 -0.2756 -0.4898
 1843SOL    HW217163   2.778   0.093   6.547 -0.9170 -0.8473  0.3682
 1844SOL     OW17164   3.904   3.554   8.326  0.3939 -0.1388  0.5102
 1844SOL    HW117165   3.881   3.467   8.292 -1.3112  0.6229 -0.3092
 1844SOL    HW217166   3.998   3.545   8.340  0.3106  0.0097  1.1615
 1845SOL     OW17167   0.675   1.238  16.250 -0.1159  0.3488 -0.3141
 1845SOL    HW117168   0.611   1.271  16.313  1.8646  2.1774  0.7534
 1845SOL    HW217169   0.627   1.171  16.202  0.5221 -1.2655  1.3132
 1846SOL     OW17170   2.954   1.570  17.550  0.6648 -0.5424  0.2386
 1846SOL    HW117171   2.940   1.658  17.585  0.5680 -0.9564  1.2253
 1846SOL    HW217172   3.006   1.595  17.473 -1.8542  0.4379 -1.1506
 1847SOL     OW17173   1.511   2.711  11.357  0.3771 -0.3848  0.1178
 1847SOL    HW117174   1.506   2.806  11.355  0.8271 -0.3682 -0.1563
 1847SOL    HW217175   1.587   2.696  11.412  0.8727  1.4867 -0.0535
 1848SOL     OW17176   1.064   1.534  16.463 -0.1760  0.3520 -0.9355
 1848SOL    HW117177   1.076   1.577  16.378 -1.0838  0.1190 -1.1892
 1848SOL    HW217178   1.046   1.607  16.522 -1.3155 -0.2481 -0.5350
 1849SOL     OW17179   1.711   2.548   3.413 -0.5093  0.2141  0.0796
 1849SOL    HW117180   1.711   2.644   3.412  2.2765  0.1865 -1.2351
 1849SOL    HW217181   1.683   2.537   3.504  1.6077 -1.0402  0.5882
 1850SOL     OW17182   1.040   4.536   4.440 -0.1925  0.0512  0.5411
 1850SOL    HW117183   1.102   4.541   4.512  0.6022  1.4713 -0.2531
 1850SOL    HW217184   1.049   4.622   4.400 -3.4383 -0.0787 -0.5264
 1851SOL     OW17185   2.146   0.627  15.634 -0.1261  0.6191 -0.3105
 1851SOL    HW117186   2.056   0.624  15.601  0.1667  0.8614 -1.1388
 1851SOL    HW217187   2.133   0.585  15.719  1.8673 -3.1297 -1.8743
 1852SOL     OW17188   2.290   0.400   2.868 -0.0083 -0.2682  0.1427
 1852SOL    HW117189   2.339   0.480   2.846  0.7653 -0.7182  0.2295
 1852SOL    HW217190   2.341   0.346   2.807  1.4534 -0.7825  1.8207
 1853SOL     OW17191   2.355   2.382   5.830  0.3421 -0.7799  0.0398
 1853SOL    HW117192   2.395   2.412   5.748 -0.7176  2.3254  0.6430
 1853SOL    HW217193   2.286   2.448   5.838  0.7440 -0.1387 -1.8608
 1854SOL     OW17194   3.146   1.911  14.633 -0.3819 -0.0645 -0.2065
 1854SOL    HW117195   3.123   2.002  14.651  0.3528  0.1757 -0.5096
 1854SOL    HW217196   3.143   1.907  14.538  2.5397 -0.0144 -0.2998
 1855SOL     OW17197   1.184   2.373   6.373  0.3011 -0.4074  0.1399
 1855SOL    HW117198   1.144   2.435   6.435 -0.2041  0.8212 -1.4177
 1855SOL    HW217199   1.195   2.429   6.296 -0.7624  0.0279  0.2944
 1856SOL     OW17200   4.497   3.302  12.380 -0.1147  0.2599 -0.1644
 1856SOL    HW117201   4.569   3.338  12.432  0.5673  1.8564 -2.2449
 1856SOL    HW217202   4.531   3.218  12.349 -1.1911  0.4175 -1.7449
 1857SOL     OW17203   1.324   4.445   6.442 -0.5934 -0.5433  0.3932
 1857SOL    HW117204   1.386   4.498   6.491  1.1025 -1.1330 -1.1061
 1857SOL    HW217205   1.374   4.420   6.364 -2.9474 -2.1544 -0.6007
 1858SOL     OW17206   2.764   1.572   3.831 -0.1379 -0.0616 -0.4796
 1858SOL    HW117207   2.678   1.529   3.839 -0.1105  0.3880  2.3775
 1858SOL    HW217208   2.739   1.635   3.763 -1.5384 -1.7085 -1.4975
 1859SOL     OW17209   0.360   0.791  10.001  0.2444  0.1083  0.1282
 1859SOL    HW117210   0.385   0.854   9.933 -0.8491 -1.1052 -1.3995
 1859SOL    HW217211   0.447   0.785  10.041  0.1765  0.3543  0.3091
 1860SOL     OW17212   0.205   2.704  10.659  0.1182  0.0685 -0.0157
 1860SOL    HW117213   0.117   2.721  10.627  0.1861 -1.2024 -0.9069
 1860SOL    HW217214   0.252   2.784  10.680 -0.6840  0.4343  0.3641
 1861SOL     OW17215   4.425   3.111   6.027 -0.1004  0.0110 -0.2227
 1861SOL    HW117216   4.425   3.034   6.084  1.5034  1.0369  1.1627
 1861SOL    HW217217   4.359   3.168   6.066 -1.3260 -0.9981 -0.8424
 1862SOL     OW17218   4.674   0.154   6.559  0.4038  0.0043 -0.0266
 1862SOL    HW117219   4.625   0.119   6.485 -0.7612  1.7246 -0.0797
 1862SOL    HW217220   4.721   0.074   6.581 -1.4716 -0.7270  1.3681
 1863SOL     OW17221   0.925   0.526   2.753 -0.5140 -0.5832  0.9800
 1863SOL    HW117222   0.956   0.479   2.830  0.0900 -1.6274  0.0984
 1863SOL    HW217223   0.831   0.510   2.759 -0.8269  0.5783 -0.9373
 1864SOL     OW17224   3.046   1.021   5.800 -0.0238 -0.0055  0.2501
 1864SOL    HW117225   3.121   1.039   5.857  0.6582  0.4012 -0.7900
 1864SOL    HW217226   3.082   0.979   5.722  0.2810 -1.6925  1.2914
 1865SOL     OW17227   3.439   3.528   0.403 -0.3765 -0.7228 -0.1794
 1865SOL    HW117228   3.424   3.563   0.491 -1.9590 -0.2621 -0.6295
 1865SOL    HW217229   3.426   3.436   0.422  0.9425 -0.4060  2.2260
 1866SOL     OW17230   4.292   1.154   0.570  0.2644  0.3882 -0.2899
 1866SOL    HW117231   4.307   1.199   0.487 -1.1012  0.1867 -0.6385
 1866SOL    HW217232   4.382   1.151   0.601 -0.3653  0.0384  1.5037
 1867SOL     OW17233   3.376   1.689   4.088 -0.2058  0.4026 -0.4436
 1867SOL    HW117234   3.306   1.639   4.045 -0.9583  0.0736  1.1890
 1867SOL    HW217235   3.412   1.746   4.020 -0.3875  0.9038 -0.1120
 1868SOL     OW17236   4.591   0.103   9.723 -0.5341 -0.0075 -0.1044
 1868SOL    HW117237   4.636   0.097   9.639 -0.5058  1.6975 -0.2210
 1868SOL    HW217238   4.534   0.180   9.715  0.5807  0.8868  0.6100
 1869SOL     OW17239   1.245   1.532   4.032 -0.2834  0.0834  0.5303
 1869SOL    HW117240   1.264   1.558   4.122 -0.8137  0.9092  0.4044
 1869SOL    HW217241   1.212   1.443   4.045  0.6541 -0.2469  0.6363
 1870SOL     OW17242   3.930   0.644   2.884 -0.3438  0.0484 -0.1532
 1870SOL    HW117243   3.939   0.552   2.858 -1.2466 -0.0713 -0.0525
 1870SOL    HW217244   3.969   0.642   2.972  1.1414  0.5299 -0.8097
 1871SOL     OW17245   3.943   0.116   8.250  0.1440  0.1059 -0.1953
 1871SOL    HW117246   3.913   0.139   8.338  0.9105 -1.8333  0.5803
 1871SOL    HW217247   3.866   0.151   8.205 -0.1676  1.9669  1.8386
 1872SOL     OW17248   3.289   0.631  14.833 -0.2802  0.4908 -0.0043
 1872SOL    HW117249   3.286   0.665  14.922 -0.6702  2.6560 -0.8291
 1872SOL    HW217250   3.213   0.677  14.797 -0.0427  0.5743 -0.4044
 1873SOL     OW17251   2.435   1.538  14.106 -0.2727 -0.1875 -0.0148
 1873SOL    HW117252   2.415   1.603  14.172  1.7350  0.0906  0.3193
 1873SOL    HW217253   2.359   1.536  14.048 -0.5506  1.2733  0.2996
 1874SOL     OW17254   0.679   0.354  15.411 -0.6817 -0.2259 -0.3485
 1874SOL    HW117255   0.755   0.299  15.395  0.9292  1.5947  0.9515
 1874SOL    HW217256   0.621   0.302  15.468 -2.5590  2.1245 -0.0971
 1875SOL     OW17257   1.157   3.930  12.001 -0.5561 -0.3865 -0.4406
 1875SOL    HW117258   1.176   3.984  11.924  0.7805 -0.3706 -0.0920
 1875SOL    HW217259   1.062   3.935  11.992 -0.5018 -0.9839 -1.3701
 1876SOL     OW17260   2.020   3.014   4.711  0.4423 -0.0474  0.2290
 1876SOL    HW117261   1.943   3.009   4.768  1.1849  0.6929  1.3063
 1876SOL    HW217262   1.979   3.007   4.625 -3.0659 -0.3320  1.9494
 1877SOL     OW17263   1.169   3.248   5.552  0.2672 -0.2771  0.0754
 1877SOL    HW117264   1.181   3.326   5.498 -1.0878 -0.3532 -0.3556
 1877SOL    HW217265   1.081   3.214   5.532 -0.0419 -0.4530  1.7827
 1878SOL     OW17266   4.561   2.682  11.293  0.1199  0.0318 -0.2420
 1878SOL    HW117267   4.550   2.705  11.200 -0.0690 -1.0986 -0.5011
 1878SOL    HW217268   4.592   2.593  11.279  0.0117 -0.2779  1.4810
 1879SOL     OW17269   4.148   2.925   5.766 -0.6351 -0.0543  0.1068
 1879SOL    HW117270   4.196   2.859   5.816  0.2338 -1.1002 -2.0907
 1879SOL    HW217271   4.060   2.893   5.784 -0.0188  0.5143  4.1848
 1880SOL     OW17272   2.204   0.353   6.991  0.2350 -0.6172 -0.5884
 1880SOL    HW117273   2.256   0.293   7.045  1.2897 -0.5086 -1.4985
 1880SOL    HW217274   2.159   0.298   6.927 -0.6737  0.5067 -0.9180
 1881SOL     OW17275   2.893   4.024   3.295 -1.0399  0.7989  0.2581
 1881SOL    HW117276   2.859   4.029   3.384  1.0140  2.1449  0.9784
 1881SOL    HW217277   2.877   4.110   3.256 -2.3998  1.2365  1.7830
 1882SOL     OW17278   0.667   2.709  11.035 -0.5496  0.1629  0.3554
 1882SOL    HW117279   0.724   2.654  10.981  0.1790 -0.4464  1.7430
 1882SOL    HW217280   0.589   2.654  11.027 -0.2990 -0.2534  0.8150
 1883SOL     OW17281   2.776   3.634  13.313 -0.0819 -0.0237  0.3067
 1883SOL    HW117282   2.689   3.648  13.350 -0.2666 -1.8487  0.5571
 1883SOL    HW217283   2.825   3.709  13.347 -3.1499  1.5464  1.1524
 1884SOL     OW17284   1.257   1.695   6.968 -0.1629 -1.0990  0.7806
 1884SOL    HW117285   1.232   1.603   6.963 -0.7845 -0.9507  1.1437
 1884SOL    HW217286   1.349   1.674   6.949  0.3175 -0.5773  2.5329
 1885SOL     OW17287   0.217   3.164   9.864  0.3096  0.0129 -0.1225
 1885SOL    HW117288   0.274   3.216   9.808  1.7048 -1.6064 -0.2230
 1885SOL    HW217289   0.257   3.181   9.949  0.4617  0.9978 -0.3936
 1886SOL     OW17290   2.633   2.112  13.974  0.3091  0.0566 -0.5031
 1886SOL    HW117291   2.705   2.175  13.964  1.1210 -0.9836 -1.3289
 1886SOL    HW217292   2.559   2.169  13.990  0.4902  0.0687  0.2734
 1887SOL     OW17293   1.094   0.514   0.303 -0.0674  0.2358  0.2665
 1887SOL    HW117294   1.182   0.477   0.307 -0.6645 -1.2056  0.0635
 1887SOL    HW217295   1.088   0.540   0.395 -0.1961  0.0802  0.3013
 1888SOL     OW17296   2.681   4.615  17.696  0.1298  0.1634 -0.0989
 1888SOL    HW117297   2.761   4.666  17.702 -1.0989  1.9159  1.5321
 1888SOL    HW217298   2.679   4.597  17.602 -1.3678 -0.7645  0.1027
 1889SOL     OW17299   1.253   3.599   0.991 -0.2559  0.1297  0.8970
 1889SOL    HW117300   1.231   3.692   0.987 -1.5421 -0.2895 -2.6127
 1889SOL    HW217301   1.308   3.596   0.913 -0.4620 -2.8936  0.8517
 1890SOL     OW17302   1.785   2.750  11.841 -0.0440  0.0417 -0.1687
 1890SOL    HW117303   1.873   2.762  11.806  0.1933 -1.1812  0.0029
 1890SOL    HW217304   1.800   2.705  11.924 -1.3149  1.1666  0.6695
 1891SOL     OW17305   3.362   2.205   6.952  0.0752 -0.1243  0.4961
 1891SOL    HW117306   3.452   2.212   6.920 -0.3768 -0.1516 -0.7984
 1891SOL    HW217307   3.315   2.248   6.881 -0.1094  0.5433  1.0211
 1892SOL     OW17308   1.115   1.248   4.983  0.2446 -0.0462  0.0893
 1892SOL    HW117309   1.147   1.209   4.902 -1.4778 -1.2436 -0.0137
 1892SOL    HW217310   1.025   1.263   4.956 -0.4414  1.0185  2.9401
 1893SOL     OW17311   3.971   1.152   1.718 -0.0621 -0.4137 -0.4220
 1893SOL    HW117312   3.936   1.135   1.805 -1.7094 -2.3758 -1.4755
 1893SOL    HW217313   3.925   1.095   1.657  0.0223 -1.7317  0.7617
 1894SOL     OW17314   0.159   1.397  17.159 -0.7447  0.8774 -0.4710
 1894SOL    HW117315   0.090   1.363  17.216 -0.7396 -0.1983 -1.1044
 1894SOL    HW217316   0.233   1.413  17.217  0.2576  0.2405 -1.5760
 1895SOL     OW17317   0.528   3.509   7.400 -0.3782 -0.0038  0.2965
 1895SOL    HW117318   0.581   3.570   7.348  0.0394  0.4544  1.2725
 1895SOL    HW217319   0.467   3.475   7.334 -0.4463  0.6673  0.0068
 1896SOL     OW17320   4.599   2.044   5.244  0.2647 -0.3814 -0.3179
 1896SOL    HW117321   4.514   2.059   5.201 -0.0037 -0.7536  0.0774
 1896SOL    HW217322   4.653   2.101   5.189  1.2883 -1.0431  0.0083
 1897SOL     OW17323   1.273   3.246   4.761  0.1285  0.4557 -0.2129
 1897SOL    HW117324   1.256   3.193   4.683  2.2743 -0.3207 -0.1529
 1897SOL    HW217325   1.297   3.167   4.810  0.7902 -0.5105 -2.1151
 1898SOL     OW17326   0.815   0.315   3.750 -0.2981  0.2666  0.1600
 1898SOL    HW117327   0.906   0.338   3.768  0.7177 -2.8120 -0.9827
 1898SOL    HW217328   0.821   0.219   3.742 -0.0045  0.4879 -2.2774
 1899SOL     OW17329   1.666   0.805   1.996 -0.3365 -0.2095  0.2610
 1899SOL    HW117330   1.693   0.732   2.053  2.9194  0.5156 -0.3636
 1899SOL    HW217331   1.659   0.879   2.056 -0.7698 -0.6904  0.8087
 1900SOL     OW17332   0.319   1.993   4.477  0.0267 -0.5150  0.1261
 1900SOL    HW117333   0.328   2.048   4.555  0.8868 -1.0936  0.4332
 1900SOL    HW217334   0.266   2.050   4.422  2.0070 -0.1661 -1.4071
 1901SOL     OW17335   4.414   0.627   5.380  0.3057  0.7497 -0.1913
 1901SOL    HW117336   4.326   0.663   5.372  0.3516  1.0814  0.8771
 1901SOL    HW217337   4.428   0.647   5.472 -3.1598  1.8570  0.0827
 1902SOL     OW17338   3.312   1.762   7.287 -0.0239 -0.4456 -0.0403
 1902SOL    HW117339   3.263   1.703   7.344 -0.3116  1.2903  1.5055
 1902SOL    HW217340   3.313   1.716   7.204 -0.0190 -2.0209  0.8415
 1903SOL     OW17341   2.297   2.422  14.327  0.2086 -0.0119  0.4379
 1903SOL    HW117342   2.350   2.346  14.353 -0.3402 -0.4342  0.3286
 1903SOL    HW217343   2.232   2.379  14.271  0.9249 -0.4874 -0.0360
 1904SOL     OW17344   1.883   0.861  16.219 -0.1230  0.2167  0.1181
 1904SOL    HW117345   1.868   0.767  16.218 -0.5097  0.2794  0.1542
 1904SOL    HW217346   1.889   0.880  16.125 -3.3738 -0.6920 -0.2706
 1905SOL     OW17347   4.223   2.714   5.911  0.0095 -0.3115 -0.0664
 1905SOL    HW117348   4.162   2.641   5.919 -1.3759  0.6594 -2.1303
 1905SOL    HW217349   4.303   2.686   5.956 -0.4003 -0.9985  0.2417
 1906SOL     OW17350   0.398   4.225   6.382  0.4846  0.2053 -0.4352
 1906SOL    HW117351   0.470   4.261   6.331  0.1999  1.2522 -0.0915
 1906SOL    HW217352   0.409   4.246   6.475  1.3659 -0.4726 -0.3867
 1907SOL     OW17353   0.806   3.780   2.862 -0.2457 -0.5560 -0.5800
 1907SOL    HW117354   0.852   3.708   2.819  0.2424 -1.2889  1.1908
 1907SOL    HW217355   0.723   3.768   2.816 -0.5736 -0.8594  0.0952
 1908SOL     OW17356   4.285   3.512   9.033 -0.1553  0.1486  0.3333
 1908SOL    HW117357   4.361   3.484   8.982 -0.6139  1.6672 -1.1729
 1908SOL    HW217358   4.297   3.473   9.120  0.5186  0.9363  0.5977
 1909SOL     OW17359   0.622   1.378   8.269 -0.6691  0.7572  0.2266
 1909SOL    HW117360   0.554   1.314   8.249 -0.0249  0.1045  0.1099
 1909SOL    HW217361   0.646   1.416   8.185 -0.7620 -2.0228 -1.0505
 1910SOL     OW17362   2.373   3.122   3.431  0.4225  0.5980  0.2444
 1910SOL    HW117363   2.452   3.101   3.380  0.0751 -1.7409  0.6889
 1910SOL    HW217364   2.407   3.182   3.497  0.7744  2.7843 -1.9248
 1911SOL     OW17365   1.347   2.628  10.374  0.5137 -0.0189  0.3036
 1911SOL    HW117366   1.261   2.611  10.413 -0.0518  0.6324 -0.6670
 1911SOL    HW217367   1.340   2.723  10.379  1.2297  0.0491 -0.0701
 1912SOL     OW17368   2.379   2.837  13.034  0.1815 -0.1289  0.0603
 1912SOL    HW117369   2.417   2.750  13.020  2.0347  0.7634 -0.4316
 1912SOL    HW217370   2.366   2.859  12.941  1.9467  1.3260  0.1656
 1913SOL     OW17371   4.721   0.568   8.708 -0.1927  0.1444 -0.2669
 1913SOL    HW117372   0.008   0.476   8.728 -1.8224  0.1090  1.1239
 1913SOL    HW217373   4.663   0.554   8.634 -1.3010  3.3870 -0.0050
 1914SOL     OW17374   2.220   4.576   2.756 -0.0256 -0.2289 -0.2485
 1914SOL    HW117375   2.293   4.597   2.698  0.4005  0.4359  0.5275
 1914SOL    HW217376   2.269   4.554   2.835 -1.1843 -0.1558  0.4892
 1915SOL     OW17377   2.639   2.504   5.580  0.0576  0.0940  0.3523
 1915SOL    HW117378   2.649   2.504   5.676 -0.0985  0.1874  0.3697
 1915SOL    HW217379   2.635   2.410   5.566 -0.9688 -0.2527  2.8332
 1916SOL     OW17380   1.033   2.837  12.607 -0.3096 -0.1759 -0.3983
 1916SOL    HW117381   0.971   2.897  12.649 -0.1035 -0.3258  0.1254
 1916SOL    HW217382   0.998   2.818  12.520 -0.9732  0.7424 -0.3336
 1917SOL     OW17383   2.423   0.474   1.564  0.1140 -0.0679  0.2365
 1917SOL    HW117384   2.478   0.552   1.569  0.7816 -0.3286 -2.8638
 1917SOL    HW217385   2.477   0.426   1.627 -0.7318  2.0462  2.5616
 1918SOL     OW17386   4.726   1.922   4.757 -0.0330 -0.1147 -0.1277
 1918SOL    HW117387   4.654   1.870   4.793  1.0562 -0.6835  1.1939
 1918SOL    HW217388   4.731   1.875   4.673  0.4462 -1.2548  0.5423
 1919SOL     OW17389   1.946   4.671   5.511 -0.1849 -0.4919 -0.1719
 1919SOL    HW117390   2.020   4.613   5.494  1.1909  1.6990 -1.6804
 1919SOL    HW217391   1.974   4.698   5.599 -0.5610  1.5746 -0.6703
 1920SOL     OW17392   3.552   1.517   1.615 -0.1612  0.1908  0.3160
 1920SOL    HW117393   3.636   1.480   1.642 -0.2778  0.2568  0.7663
 1920SOL    HW217394   3.566   1.514   1.520 -1.8564  2.4411  0.0013
 1921SOL     OW17395   3.565   2.544   2.234 -0.0846  0.7183 -0.5934
 1921SOL    HW117396   3.495   2.577   2.291 -1.1046 -1.9497 -0.3055
 1921SOL    HW217397   3.517   2.553   2.152 -1.9734  1.8996  0.6317
 1922SOL     OW17398   4.347   3.950   7.425 -0.1283  0.4536  0.0800
 1922SOL    HW117399   4.394   4.027   7.392 -1.0302  0.3290 -1.4998
 1922SOL    HW217400   4.260   3.966   7.388  0.9952  1.0651 -2.2973
 1923SOL     OW17401   4.448   2.678  16.434  0.1523 -0.3482  0.2701
 1923SOL    HW117402   4.388   2.663  16.361 -0.3849  0.7344  0.4834
 1923SOL    HW217403   4.525   2.625  16.412  0.6669 -0.1363  1.5650
 1924SOL     OW17404   0.190   3.947   2.235  0.0095  0.1890  0.2725
 1924SOL    HW117405   0.277   3.960   2.198 -0.9437  0.2318 -1.9207
 1924SOL    HW217406   0.142   3.962   2.154 -0.4467  1.4357  0.7851
 1925SOL     OW17407   0.199   3.121   6.154 -0.4666  0.3847  0.1028
 1925SOL    HW117408   0.276   3.166   6.120 -0.4601 -0.3476 -0.8464
 1925SOL    HW217409   0.138   3.196   6.162 -1.5275 -0.2807 -1.7698
 1926SOL     OW17410   3.671   2.927   6.368 -0.4126  0.3098  0.1653
 1926SOL    HW117411   3.663   2.848   6.315  0.8501 -0.4253  1.0652
 1926SOL    HW217412   3.675   3.002   6.309  0.5465  0.8509  0.9143
 1927SOL     OW17413   1.421   2.639  14.522  0.1021  0.0646 -0.1281
 1927SOL    HW117414   1.477   2.712  14.494 -0.2888  0.1408 -0.7165
 1927SOL    HW217415   1.472   2.572  14.476 -0.3558  0.1663 -0.7768
 1928SOL     OW17416   3.786   4.069   3.938  0.2957 -0.6792  0.1948
 1928SOL    HW117417   3.880   4.053   3.932  0.4734 -0.7443  3.2034
 1928SOL    HW217418   3.783   4.126   3.860 -0.1741 -0.5243  0.3292
 1929SOL     OW17419   1.014   3.649   3.963  0.1063  0.0662  0.0560
 1929SOL    HW117420   1.077   3.703   3.916  0.0554  0.4626  0.4538
 1929SOL    HW217421   1.075   3.599   4.016  0.6609  0.8628  0.1694
 1930SOL     OW17422   3.317   2.987  17.599 -0.3762 -0.1502  0.1699
 1930SOL    HW117423   3.411   2.971  17.590 -0.5047  0.4375 -2.1457
 1930SOL    HW217424   3.310   3.057  17.534 -0.7564 -1.5993 -1.3323
 1931SOL     OW17425   0.583   0.822   2.012  0.1597  0.6428  0.0510
 1931SOL    HW117426   0.647   0.790   2.076 -1.3174  0.3628  1.3787
 1931SOL    HW217427   0.627   0.903   1.986  2.2576 -0.3927  0.4036
 1932SOL     OW17428   4.704   1.260   2.536 -0.1774 -0.1944 -0.4758
 1932SOL    HW117429   4.705   1.346   2.578  0.6240 -1.1758  1.5197
 1932SOL    HW217430   4.644   1.204   2.584 -0.8026 -0.6623 -1.8169
 1933SOL     OW17431   3.923   2.549   6.985 -0.1438  0.1839  0.0499
 1933SOL    HW117432   3.861   2.547   6.912  3.3514 -0.0349 -2.9287
 1933SOL    HW217433   3.945   2.642   6.984  0.5088  0.0165 -1.0481
 1934SOL     OW17434   0.423   3.660   8.769  0.0109  0.3049 -0.2482
 1934SOL    HW117435   0.369   3.725   8.814 -0.2237  0.7550 -1.1956
 1934SOL    HW217436   0.419   3.675   8.675  1.1173 -0.0094 -0.3539
 1935SOL     OW17437   3.197   3.619   2.241  0.9401  1.1878 -0.2118
 1935SOL    HW117438   3.271   3.668   2.277  2.1304 -0.5567 -0.3071
 1935SOL    HW217439   3.165   3.679   2.173  1.8989  2.5611  0.5453
 1936SOL     OW17440   2.125   2.683   7.750  0.0021 -0.0331 -0.3533
 1936SOL    HW117441   2.068   2.667   7.826 -1.5722 -0.4687 -1.6186
 1936SOL    HW217442   2.131   2.779   7.748  0.0417 -0.0119  0.8946
 1937SOL     OW17443   3.014   3.839   3.103 -0.1391  0.5710  0.5672
 1937SOL    HW117444   3.055   3.920   3.135  0.0967  0.6592  0.0464
 1937SOL    HW217445   3.051   3.829   3.016 -0.8799  1.7136  0.1153
 1938SOL     OW17446   2.510   4.302   9.252  0.6798 -0.0950  1.0425
 1938SOL    HW117447   2.483   4.341   9.335  0.1797  2.4815 -0.3212
 1938SOL    HW217448   2.562   4.376   9.221 -0.2505  0.6213  1.1945
 1939SOL     OW17449   1.012   0.033   2.421 -0.1844  0.5775  0.3541
 1939SOL    HW117450   1.070   4.689   2.430 -3.7301 -2.4321 -2.1527
 1939SOL    HW217451   1.011   0.079   2.505  0.9279 -0.3717  0.9017
 1940SOL     OW17452   1.517   1.075  15.041 -0.0142 -0.6360 -0.5419
 1940SOL    HW117453   1.569   1.094  14.963  2.0917  0.8936  1.2291
 1940SOL    HW217454   1.583   1.076  15.111  0.3414 -0.4099 -0.8786
 1941SOL     OW17455   3.999   3.990   8.745 -0.0677  0.0736 -0.1621
 1941SOL    HW117456   4.002   3.939   8.826 -1.9040  0.9465  0.4668
 1941SOL    HW217457   3.939   4.060   8.770  2.4513  1.5942  1.6608
 1942SOL     OW17458   0.829   0.687   0.377  0.0737 -0.2326 -0.4756
 1942SOL    HW117459   0.852   0.665   0.287  2.9053  1.0920 -0.0832
 1942SOL    HW217460   0.882   0.765   0.398  0.3530 -0.4374 -0.4116
 1943SOL     OW17461   3.700   4.487  13.398 -0.4355  0.7254  0.4444
 1943SOL    HW117462   3.632   4.479  13.466 -0.5391  1.1097  0.3873
 1943SOL    HW217463   3.656   4.439  13.328  0.3063  0.3532  0.2395
 1944SOL     OW17464   0.075   4.096   3.692  0.3240  0.0763 -0.3004
 1944SOL    HW117465   0.090   4.163   3.758  0.9494 -1.1425  0.7918
 1944SOL    HW217466   0.161   4.079   3.654  0.5793  0.6619  0.0180
 1945SOL     OW17467   0.963   3.761  13.288  0.1093 -0.2469  0.1008
 1945SOL    HW117468   0.914   3.765  13.207 -0.7568  0.0744  0.6428
 1945SOL    HW217469   0.953   3.853  13.311  0.3865  0.0767 -1.0779
 1946SOL     OW17470   2.457   0.610   3.741  0.0313 -0.1321 -0.4240
 1946SOL    HW117471   2.528   0.649   3.791  0.0015 -2.9629  1.8718
 1946SOL    HW217472   2.435   0.544   3.808  1.8817 -0.2121  0.0964
 1947SOL     OW17473   4.382   4.017   1.151 -0.2511  0.0560  0.6268
 1947SOL    HW117474   4.311   3.952   1.153 -1.2279  1.1062 -0.2772
 1947SOL    HW217475   4.448   3.958   1.187  0.1996  1.6299  2.3555
 1948SOL     OW17476   4.504   1.620  17.461 -0.4368 -0.0071  0.2301
 1948SOL    HW117477   4.503   1.676  17.538 -2.9373  0.4194 -0.1138
 1948SOL    HW217478   4.520   1.682  17.390  0.3322 -0.8471 -0.3438
 1949SOL     OW17479   3.366   3.670   8.412  0.0949 -0.9353  0.4872
 1949SOL    HW117480   3.358   3.601   8.345  1.6249 -0.1474 -0.5278
 1949SOL    HW217481   3.458   3.695   8.399  0.3990 -2.0754  0.3829
 1950SOL     OW17482   4.138   0.307   9.337  0.3276 -0.1027 -0.2930
 1950SOL    HW117483   4.053   0.282   9.373  0.4118  1.2091  0.8377
 1950SOL    HW217484   4.155   0.248   9.263  1.7624 -0.0857  0.0305
 1951SOL     OW17485   4.126   3.617   8.747  0.4649 -0.4800 -0.0370
 1951SOL    HW117486   4.177   3.555   8.695  0.8420  0.5655 -0.9099
 1951SOL    HW217487   4.034   3.606   8.723  0.1717 -0.9171  1.2905
 1952SOL     OW17488   3.688   2.279   9.390  1.0478 -0.1202  0.1615
 1952SOL    HW117489   3.756   2.237   9.442  1.0863  1.5048  1.4189
 1952SOL    HW217490   3.696   2.240   9.304 -0.5057 -2.5059  1.0800
 1953SOL     OW17491   1.774   3.891   6.162  0.5467 -0.8077  0.0292
 1953SOL    HW117492   1.763   3.801   6.130 -1.0404 -0.1533 -1.2772
 1953SOL    HW217493   1.781   3.896   6.257  0.0388 -1.8043  0.1224
 1954SOL     OW17494   2.654   2.486  12.332  0.2149 -0.0685  0.2896
 1954SOL    HW117495   2.604   2.552  12.283  0.2450 -0.6193 -0.4734
 1954SOL    HW217496   2.686   2.541  12.404  1.1661 -0.9841  0.5462
 1955SOL     OW17497   0.970   3.767   7.053  0.3571 -0.4338  0.6039
 1955SOL    HW117498   0.929   3.853   7.051 -2.5302 -1.7779  0.8877
 1955SOL    HW217499   1.061   3.790   7.073  0.2742 -0.5707  1.1552
 1956SOL     OW17500   1.964   4.596   6.722 -0.0693  0.1934 -0.2026
 1956SOL    HW117501   1.946   4.502   6.713  1.1962  0.1347 -2.2920
 1956SOL    HW217502   1.878   4.634   6.738 -1.6175 -2.8535 -1.1402
 1957SOL     OW17503   0.302   3.823  14.860  0.1318 -0.3710  0.6840
 1957SOL    HW117504   0.226   3.798  14.913 -0.7296  3.1261  1.0912
 1957SOL    HW217505   0.362   3.829  14.935 -0.0929  0.8258  0.7685
 1958SOL     OW17506   4.302   1.754   7.101 -0.0072 -0.0148  0.0972
 1958SOL    HW117507   4.284   1.674   7.151  0.5744  0.1838  0.6266
 1958SOL    HW217508   4.341   1.723   7.020  0.3590 -1.0658  0.6800
 1959SOL     OW17509   2.275   2.399   4.363  0.2253  0.1168 -0.0937
 1959SOL    HW117510   2.285   2.464   4.433  0.0840  0.3175 -0.2587
 1959SOL    HW217511   2.361   2.360   4.374  0.1545 -0.6004 -2.0416
 1960SOL     OW17512   0.192   4.435   7.801 -0.3120 -0.6120 -0.4535
 1960SOL    HW117513   0.236   4.381   7.867 -2.3605  0.2038  1.5960
 1960SOL    HW217514   0.274   4.476   7.774 -0.0697 -1.2543 -0.6854
 1961SOL     OW17515   0.238   1.602   7.313  0.4391 -0.0563 -0.4085
 1961SOL    HW117516   0.303   1.641   7.255  0.6864  1.1987  0.6981
 1961SOL    HW217517   0.276   1.626   7.398  1.3945 -1.5603 -0.4193
 1962SOL     OW17518   0.868   2.477  10.561  0.7051 -0.0954  0.3192
 1962SOL    HW117519   0.901   2.425  10.634 -1.2389 -0.5722  0.8677
 1962SOL    HW217520   0.874   2.415  10.489 -2.0768  1.0509 -0.9251
 1963SOL     OW17521   3.067   1.068   8.365 -0.0273  0.3079 -0.2216
 1963SOL    HW117522   3.026   0.989   8.399  0.0822  1.0965  1.7388
 1963SOL    HW217523   3.159   1.054   8.388  0.2963  0.1029 -1.5905
 1964SOL     OW17524   0.042   1.028   2.304 -0.0845 -0.6850 -0.4613
 1964SOL    HW117525   0.035   1.117   2.270 -3.2967 -0.6940  0.2082
 1964SOL    HW217526   0.110   0.991   2.248 -0.1708 -1.0174 -0.3485
 1965SOL     OW17527   3.119   1.306   8.709 -0.8005 -0.4791  0.6071
 1965SOL    HW117528   3.121   1.357   8.628 -1.4390 -1.7833 -0.2210
 1965SOL    HW217529   3.134   1.369   8.780  1.1763 -0.0039 -0.2324
 1966SOL     OW17530   0.451   1.096   9.674 -0.1977 -0.4758  0.0700
 1966SOL    HW117531   0.406   1.058   9.598 -1.7175  1.0473  0.2015
 1966SOL    HW217532   0.457   1.023   9.735 -1.4293 -0.1716  0.5500
 1967SOL     OW17533   0.702   0.220   5.618  0.3540  0.1612 -0.2469
 1967SOL    HW117534   0.628   0.184   5.666  2.3299 -0.4128  2.3557
 1967SOL    HW217535   0.774   0.159   5.631  0.0202  0.1990  1.7834
 1968SOL     OW17536   1.801   0.957  15.836  0.8383  0.2376  0.1006
 1968SOL    HW117537   1.706   0.961  15.851  0.6233  2.0268 -1.7945
 1968SOL    HW217538   1.829   0.875  15.878 -0.5852 -0.5752 -0.5263
 1969SOL     OW17539   4.015   0.572   3.154 -0.3569 -0.3638  0.1109
 1969SOL    HW117540   4.050   0.662   3.157  0.2640 -0.5890 -0.3778
 1969SOL    HW217541   4.029   0.554   3.247  1.5165  0.6565  0.0388
 1970SOL     OW17542   0.320   0.278   8.774  0.0393 -0.3151  0.5353
 1970SOL    HW117543   0.226   0.284   8.756  0.4847  2.2191 -0.9163
 1970SOL    HW217544   0.342   0.185   8.781 -0.2793 -0.3762  0.7810
 1971SOL     OW17545   1.510   2.286   8.723  0.2564 -0.0480  0.2478
 1971SOL    HW117546   1.531   2.195   8.746  0.2645  0.0429  0.6086
 1971SOL    HW217547   1.586   2.324   8.768  0.6421 -1.3275  0.6922
 1972SOL     OW17548   3.762   0.764   5.719 -0.0315  0.3165  0.7998
 1972SOL    HW117549   3.788   0.840   5.667  0.8596 -0.8365 -0.4210
 1972SOL    HW217550   3.829   0.759   5.787  1.6091 -0.8895 -0.9281
 1973SOL     OW17551   2.158   3.584   4.921  0.2741  0.2876  0.0694
 1973SOL    HW117552   2.157   3.539   5.006 -1.3910 -1.6579 -0.9853
 1973SOL    HW217553   2.148   3.675   4.947  0.6581 -0.5556  3.1681
 1974SOL     OW17554   0.679   2.563   6.026  0.0140  0.4620 -0.7091
 1974SOL    HW117555   0.670   2.475   5.991  0.5072  1.0065 -2.2101
 1974SOL    HW217556   0.604   2.605   5.984 -2.0670 -1.2436  1.3747
 1975SOL     OW17557   1.971   2.211   3.297  0.1203 -0.1107  0.7171
 1975SOL    HW117558   2.043   2.167   3.253 -0.1092  1.0708 -0.8153
 1975SOL    HW217559   1.935   2.136   3.346  0.4393 -0.2679  0.7095
 1976SOL     OW17560   1.752   4.076  15.355 -0.1136 -0.7796  0.1869
 1976SOL    HW117561   1.838   4.054  15.391 -0.0751 -1.0971 -0.1068
 1976SOL    HW217562   1.764   4.171  15.355  0.2594 -0.8142 -1.9603
 1977SOL     OW17563   2.177   0.807   5.778 -0.5512 -0.1926  0.0939
 1977SOL    HW117564   2.117   0.773   5.844 -0.2040  1.4908  1.2686
 1977SOL    HW217565   2.247   0.832   5.839  0.1702  2.3267 -1.7900
 1978SOL     OW17566   3.556   1.815   3.876 -0.1266  0.5192  0.9451
 1978SOL    HW117567   3.602   1.768   3.946  0.0876 -0.1853  0.3354
 1978SOL    HW217568   3.592   1.899   3.905 -1.4879  1.6720 -0.7819
 1979SOL     OW17569   4.162   2.009   6.280  0.6107  0.2211  0.0606
 1979SOL    HW117570   4.188   2.037   6.368  1.7355 -1.0907  0.1530
 1979SOL    HW217571   4.246   2.019   6.235  0.7470 -0.0450  0.2501
 1980SOL     OW17572   4.692   4.447   6.644  0.3347 -0.4623 -0.4932
 1980SOL    HW117573   0.005   4.389   6.582  0.7095 -1.9773  1.1980
 1980SOL    HW217574   0.012   4.526   6.628  0.4202  0.1119  2.6400
 1981SOL     OW17575   1.599   4.213   2.383  0.6480 -0.6673  0.2561
 1981SOL    HW117576   1.578   4.245   2.470  2.9784  2.7251 -0.3882
 1981SOL    HW217577   1.680   4.263   2.368  1.5567 -1.4124  2.7604
 1982SOL     OW17578   2.674   2.666  14.454 -0.3313  0.5706 -0.1540
 1982SOL    HW117579   2.738   2.710  14.509  1.1104 -0.8342 -0.7025
 1982SOL    HW217580   2.627   2.741  14.417  3.3387  2.3684 -1.1420
 1983SOL     OW17581   4.230   0.159   9.135  0.5591  0.2839  0.1936
 1983SOL    HW117582   4.188   0.073   9.130  2.2231 -0.5693  0.5901
 1983SOL    HW217583   4.246   0.166   9.041  0.9555  1.8758  0.3745
 1984SOL     OW17584   3.831   3.064   6.033  0.6123  0.3111  0.1922
 1984SOL    HW117585   3.858   3.155   6.047 -2.0054  1.4787 -2.3496
 1984SOL    HW217586   3.765   3.060   6.102  0.0716 -0.6940 -0.3841
 1985SOL     OW17587   0.098   0.554   6.453  0.4665 -0.0092 -0.2188
 1985SOL    HW117588   0.155   0.486   6.488  1.6986  1.1320 -0.0576
 1985SOL    HW217589   0.164   0.621   6.436  0.8499 -0.5036 -0.6981
 1986SOL     OW17590   3.866   2.851   5.813 -0.1341 -1.0061 -0.6002
 1986SOL    HW117591   3.829   2.799   5.885  0.8107 -0.7033  0.0932
 1986SOL    HW217592   3.811   2.929   5.821  2.9717  0.9443  1.7303
 1987SOL     OW17593   1.841   0.327   4.669 -0.6863 -0.1917 -0.0324
 1987SOL    HW117594   1.787   0.313   4.746 -0.3647 -0.2118  0.1910
 1987SOL    HW217595   1.920   0.363   4.709 -0.3275  0.6739 -1.5255
 1988SOL     OW17596   1.983   2.192   8.242  0.1863 -0.0360  0.6319
 1988SOL    HW117597   1.904   2.229   8.283 -0.2014 -0.0292 -0.1140
 1988SOL    HW217598   1.950   2.161   8.157 -0.7950  0.7446  0.7193
 1989SOL     OW17599   1.206   2.007  17.629  0.2614 -0.1575 -0.2773
 1989SOL    HW117600   1.197   2.016  17.534 -0.1844  0.6884 -0.1577
 1989SOL    HW217601   1.284   1.951  17.629 -0.4130 -1.0851 -2.2100
 1990SOL     OW17602   3.542   3.990   2.412 -0.1739  0.1005 -0.6185
 1990SOL    HW117603   3.630   4.020   2.391  0.1428 -1.1182 -1.0576
 1990SOL    HW217604   3.499   4.071   2.438 -0.2530  0.2780 -1.3252
 1991SOL     OW17605   1.478   2.440   9.861 -0.0501  0.0247  0.4591
 1991SOL    HW117606   1.548   2.490   9.821  0.1756 -1.6446 -1.2459
 1991SOL    HW217607   1.476   2.483   9.946  0.8186  1.7546 -0.4075
 1992SOL     OW17608   2.126   4.021   9.000  0.1354 -0.2380  0.3663
 1992SOL    HW117609   2.088   3.981   9.078 -0.6017  1.0637  0.6882
 1992SOL    HW217610   2.180   4.087   9.044  0.9153 -0.2670 -0.5529
 1993SOL     OW17611   0.407   0.219   3.078  0.2238  0.2626 -0.1483
 1993SOL    HW117612   0.390   0.312   3.061 -1.4785 -0.0664 -0.1989
 1993SOL    HW217613   0.439   0.230   3.168  0.8210 -2.4794 -0.0326
 1994SOL     OW17614   3.828   2.558   2.156  0.1972 -0.3348  0.2345
 1994SOL    HW117615   3.849   2.474   2.116  0.6664 -0.8171  1.4922
 1994SOL    HW217616   3.745   2.538   2.199  0.6972 -0.0226  1.3623
 1995SOL     OW17617   4.463   1.999   6.194  0.0421  0.1857 -0.0512
 1995SOL    HW117618   4.437   1.919   6.148  0.6060 -1.3399  2.2755
 1995SOL    HW217619   4.526   2.045   6.139 -0.0698  0.5829  0.1558
 1996SOL     OW17620   1.874   0.724   5.346  0.0556  0.3487  0.6712
 1996SOL    HW117621   1.917   0.654   5.297 -2.2667  0.2525 -1.2156
 1996SOL    HW217622   1.909   0.703   5.432 -0.1033 -1.9940  0.1714
 1997SOL     OW17623   4.022   4.644   5.496  0.2850  0.8397  0.0257
 1997SOL    HW117624   3.983   4.699   5.428  0.5438 -0.2371 -1.0057
 1997SOL    HW217625   4.024   4.700   5.572  0.2103  0.5970  0.2077
 1998SOL     OW17626   1.955   1.874   6.562  0.2796 -0.5840  0.5240
 1998SOL    HW117627   1.871   1.841   6.531  0.1122 -1.0856  1.5021
 1998SOL    HW217628   1.927   1.942   6.624 -0.4083 -0.7708  0.4147
 1999SOL     OW17629   4.605   3.880   1.221 -0.2679  0.3306 -0.3644
 1999SOL    HW117630   4.675   3.945   1.223  0.5197 -0.5655  1.0167
 1999SOL    HW217631   4.644   3.818   1.159 -1.3592 -1.4419  0.7260
 2000SOL     OW17632   1.224   0.351   8.965 -0.3118 -0.4376  0.1384
 2000SOL    HW117633   1.198   0.260   8.980 -0.2149 -0.3719  0.6919
 2000SOL    HW217634   1.286   0.339   8.893 -0.9530 -1.0273 -0.3188
 2001SOL     OW17635   3.952   0.975   7.373 -0.5336  0.6690 -0.1330
 2001SOL    HW117636   3.887   1.017   7.317 -0.4748 -0.4240 -1.0036
 2001SOL    HW217637   3.898   0.913   7.421  0.7555  0.2563  0.7798
 2002SOL     OW17638   3.000   2.234   6.904  0.6592  0.3748 -0.2117
 2002SOL    HW117639   2.931   2.276   6.957  0.2157 -2.7736  1.6794
 2002SOL    HW217640   3.051   2.183   6.967  0.0127 -0.1288 -0.0935
 2003SOL     OW17641   3.933   2.200  10.767  0.1591 -0.1590  0.3231
 2003SOL    HW117642   3.873   2.272  10.789  0.0108  0.4454 -2.0361
 2003SOL    HW217643   3.988   2.204  10.845 -0.5493  1.0018  0.7725
 2004SOL     OW17644   0.370   2.980   6.467  0.3093  0.0792 -0.0790
 2004SOL    HW117645   0.422   2.986   6.387 -1.6251  1.6597 -1.2346
 2004SOL    HW217646   0.286   2.957   6.427  0.1204 -2.3339  1.7118
 2005SOL     OW17647   3.692   0.325   4.786 -0.0671  0.4162  0.0014
 2005SOL    HW117648   3.603   0.318   4.753  0.2222  1.1005 -0.9282
 2005SOL    HW217649   3.747   0.337   4.709 -1.4672  0.1617 -1.0402
 2006SOL     OW17650   2.451   0.856  16.561  0.4226  0.0518 -0.3130
 2006SOL    HW117651   2.355   0.860  16.562  0.4523  0.5302  0.3786
 2006SOL    HW217652   2.464   0.880  16.652  0.7623 -0.6167 -0.1811
 2007SOL     OW17653   0.553   0.311   6.121  0.9574 -0.2350  0.1438
 2007SOL    HW117654   0.486   0.243   6.121  0.8652 -0.1555 -1.4656
 2007SOL    HW217655   0.511   0.368   6.055  1.4725  0.3665  0.3317
 2008SOL     OW17656   2.790   1.796   5.846  0.1237  0.4580 -0.5315
 2008SOL    HW117657   2.849   1.835   5.782  2.5836  0.9413  2.0286
 2008SOL    HW217658   2.708   1.791   5.796 -0.1651  3.2191 -0.3459
 2009SOL     OW17659   1.144   3.987   6.724  0.6256  0.0673 -0.6344
 2009SOL    HW117660   1.170   4.079   6.720 -0.8004  0.5606  1.2600
 2009SOL    HW217661   1.054   3.988   6.755 -0.2330 -1.1821 -3.0845
 2010SOL     OW17662   1.698   1.991   3.352 -0.0489 -0.0185  0.6031
 2010SOL    HW117663   1.782   1.964   3.390  1.0223  1.8346 -0.4657
 2010SOL    HW217664   1.648   1.910   3.365 -0.6698  0.2025 -0.4842
 2011SOL     OW17665   2.855   4.259   3.395  0.0871  0.2915 -0.4735
 2011SOL    HW117666   2.811   4.278   3.312 -1.5699  0.9184  0.5610
 2011SOL    HW217667   2.945   4.275   3.367  0.2936  0.3504  0.2210
 2012SOL     OW17668   2.395   3.213  13.307 -0.1327  0.5833  0.1438
 2012SOL    HW117669   2.304   3.242  13.318  0.2872  1.1265  2.1523
 2012SOL    HW217670   2.402   3.182  13.397  0.3184 -2.0573 -0.8174
 2013SOL     OW17671   1.674   1.986   1.546 -0.6856 -0.0149  0.5915
 2013SOL    HW117672   1.668   1.917   1.612 -0.8747 -0.6693 -0.1029
 2013SOL    HW217673   1.660   2.062   1.602 -0.7941  1.0461 -0.8602
 2014SOL     OW17674   4.444   3.292   3.972  0.1012 -0.2097 -0.2606
 2014SOL    HW117675   4.397   3.209   3.965  1.1706 -0.6705 -2.0295
 2014SOL    HW217676   4.369   3.352   3.976 -0.0052 -0.2308 -2.1292
 2015SOL     OW17677   2.409   1.520   7.289  0.2348  0.2362 -0.2124
 2015SOL    HW117678   2.404   1.430   7.256 -0.4548 -0.5161  1.9864
 2015SOL    HW217679   2.347   1.571   7.237  0.2900  0.2633 -0.2515
 2016SOL     OW17680   4.545   2.609   0.842  0.8014  0.9085 -0.1214
 2016SOL    HW117681   4.601   2.598   0.765  0.3150  0.7084 -0.4452
 2016SOL    HW217682   4.609   2.563   0.896 -0.4187  2.3020  2.5217
 2017SOL     OW17683   0.459   1.460  10.544 -0.0461 -0.0211 -0.3696
 2017SOL    HW117684   0.530   1.417  10.496  0.4219 -0.0956  0.3964
 2017SOL    HW217685   0.430   1.533  10.489  0.0914  0.7348  0.5545
 2018SOL     OW17686   1.383   3.329  17.043 -0.1524 -0.2777 -0.1480
 2018SOL    HW117687   1.370   3.235  17.039  0.5140 -0.3252 -1.2182
 2018SOL    HW217688   1.296   3.355  17.013  0.8011  0.0147 -2.6735
 2019SOL     OW17689   3.691   1.077   5.587  0.2191 -0.2011 -0.2489
 2019SOL    HW117690   3.745   1.150   5.617  1.0362 -1.0273  0.3039
 2019SOL    HW217691   3.614   1.080   5.644  1.9845 -3.4903  2.3238
 2020SOL     OW17692   4.647   4.696  11.710 -0.4449  0.8917  0.1460
 2020SOL    HW117693   4.614   4.646  11.785 -3.3347 -0.7568 -2.2506
 2020SOL    HW217694   4.590   4.659  11.643 -1.0173  0.5487  0.8141
 2021SOL     OW17695   1.217   2.159  12.590 -0.1005 -0.6307  0.0826
 2021SOL    HW117696   1.157   2.178  12.518 -0.2729 -0.6197  0.2306
 2021SOL    HW217697   1.281   2.226  12.563 -1.1634  0.5568  0.5110
 2022SOL     OW17698   3.326   0.186   0.936 -0.2282  0.3244 -0.2537
 2022SOL    HW117699   3.336   0.278   0.912 -1.5765  0.4200 -0.4344
 2022SOL    HW217700   3.346   0.158   0.846  0.6960 -1.2256  0.4236
 2023SOL     OW17701   1.126   3.037  12.090  0.0186 -0.0012  0.2808
 2023SOL    HW117702   1.110   2.948  12.123 -1.4076 -0.1615 -0.8639
 2023SOL    HW217703   1.073   3.091  12.148 -0.5973 -2.5229  2.1121
 2024SOL     OW17704   0.143   0.707  11.524  0.2728  0.1138  0.0956
 2024SOL    HW117705   0.227   0.736  11.559  1.0658 -3.1547  0.8668
 2024SOL    HW217706   0.139   0.752  11.440 -0.7188 -1.1678 -0.5440
 2025SOL     OW17707   3.570   2.287   1.951 -0.3590 -0.3567  0.1168
 2025SOL    HW117708   3.507   2.254   1.887  1.1582 -2.7244 -0.1840
 2025SOL    HW217709   3.530   2.366   1.986  2.1638  1.0010 -0.1009
 2026SOL     OW17710   0.708   1.803   2.527 -0.1504 -0.0783  0.9208
 2026SOL    HW117711   0.703   1.825   2.434 -0.4934 -2.2262  0.4145
 2026SOL    HW217712   0.652   1.725   2.534 -0.0571 -0.3099 -0.9243
 2027SOL     OW17713   3.810   4.126   8.867 -0.0704  0.1385 -0.2410
 2027SOL    HW117714   3.734   4.074   8.892  0.8999 -1.5257 -0.7370
 2027SOL    HW217715   3.771   4.167   8.790  2.4259 -1.6099 -2.4338
 2028SOL     OW17716   0.741   1.305   3.979 -0.6819 -0.1653 -0.1460
 2028SOL    HW117717   0.768   1.376   3.922 -0.2703  0.0877  0.3674
 2028SOL    HW217718   0.721   1.348   4.062 -1.9121 -0.2859 -0.3690
 2029SOL     OW17719   1.799   2.717  16.582 -0.0917  0.3645  0.1341
 2029SOL    HW117720   1.804   2.810  16.559  0.6906  0.2601 -0.1063
 2029SOL    HW217721   1.823   2.671  16.501 -0.8209 -0.0920  0.1679
 2030SOL     OW17722   4.100   0.038   4.025  0.4056  0.1703 -0.1876
 2030SOL    HW117723   4.111   4.681   4.058  1.4492  0.5890  0.5881
 2030SOL    HW217724   4.188   0.072   4.043  2.6189 -5.5401 -0.0885
 2031SOL     OW17725   1.244   4.595   8.342  0.0128  0.2246  0.1712
 2031SOL    HW117726   1.293   4.541   8.404 -3.2233 -1.8409  0.9533
 2031SOL    HW217727   1.305   4.598   8.269  1.2500 -0.9972  1.1549
 2032SOL     OW17728   3.955   3.208   4.313  0.3749 -0.3829 -0.0956
 2032SOL    HW117729   4.014   3.247   4.249 -0.3954  2.0757  0.6941
 2032SOL    HW217730   3.871   3.248   4.290  2.0846  2.0221 -2.0796
 2033SOL     OW17731   0.851   3.288   4.209  0.2579 -0.1609 -0.4509
 2033SOL    HW117732   0.809   3.242   4.137 -0.9161 -0.1116  0.2035
 2033SOL    HW217733   0.882   3.223   4.273 -1.0954 -1.2954 -0.9651
 2034SOL     OW17734   2.889   2.699   7.513 -0.1653  0.1628 -0.4199
 2034SOL    HW117735   2.963   2.751   7.547  1.2222 -0.9753 -1.6871
 2034SOL    HW217736   2.907   2.702   7.419  2.1517 -0.1004  0.0118
 2035SOL     OW17737   3.230   1.782   6.565  0.3953  0.0531 -0.2511
 2035SOL    HW117738   3.183   1.807   6.486  1.1869 -0.1900 -0.7974
 2035SOL    HW217739   3.184   1.699   6.578  2.1419 -0.8179  0.5002
 2036SOL     OW17740   1.310   2.846   1.876  0.0552  0.3377  0.2458
 2036SOL    HW117741   1.293   2.885   1.962 -0.4622 -0.9650  0.7318
 2036SOL    HW217742   1.288   2.753   1.879  0.9797  0.1247  0.4907
 2037SOL     OW17743   0.622   0.168   4.299  0.6316  0.3338 -0.6335
 2037SOL    HW117744   0.663   0.118   4.369 -2.4546  1.1328  1.7676
 2037SOL    HW217745   0.673   0.129   4.228  1.0424  1.0659 -0.7428
 2038SOL     OW17746   1.013   4.459  16.816  0.2702 -0.5927 -0.1088
 2038SOL    HW117747   0.935   4.490  16.862  2.2484 -0.4303  3.1192
 2038SOL    HW217748   1.050   4.543  16.787  0.5462 -1.1599 -1.4159
 2039SOL     OW17749   0.798   2.161   5.462 -0.3748  0.0021  0.0520
 2039SOL    HW117750   0.795   2.117   5.377  2.7827  0.6363 -0.3694
 2039SOL    HW217751   0.746   2.099   5.514 -3.8691  3.4448  0.6997
 2040SOL     OW17752   0.050   3.450  14.803 -0.4745  0.5413  0.0741
 2040SOL    HW117753   0.113   3.436  14.874  0.9168 -0.1062 -1.2909
 2040SOL    HW217754   0.109   3.485  14.736 -0.7295  1.1436  0.1568
 2041SOL     OW17755   4.346   2.732  17.386  0.3564 -1.0464  0.3731
 2041SOL    HW117756   4.343   2.693  17.299 -0.4244  1.0900 -0.5799
 2041SOL    HW217757   4.425   2.689  17.416  4.0830  3.2528 -3.2757
 2042SOL     OW17758   3.629   2.190   5.840  0.6984  0.0509 -0.2903
 2042SOL    HW117759   3.668   2.137   5.771  2.4691  0.6002  0.3094
 2042SOL    HW217760   3.628   2.129   5.914 -2.7259 -0.0413 -0.4055
 2043SOL     OW17761   0.484   2.217   8.283 -0.0545  0.0128 -0.2513
 2043SOL    HW117762   0.462   2.157   8.212 -1.4385  1.1602 -0.7989
 2043SOL    HW217763   0.402   2.236   8.329 -0.1537 -3.3089  0.9558
 2044SOL     OW17764   4.000   1.900   3.418 -0.4401  0.0794  0.1914
 2044SOL    HW117765   3.906   1.915   3.428 -0.7751 -2.6436  1.0714
 2044SOL    HW217766   4.004   1.919   3.324 -1.2936  0.1862  0.1711
 2045SOL     OW17767   1.886   0.656   9.850 -0.0784 -0.2065 -0.3833
 2045SOL    HW117768   1.919   0.615   9.770  1.1976  1.5635 -0.7659
 2045SOL    HW217769   1.921   0.598   9.918  1.9815  1.7477  0.1915
 2046SOL     OW17770   1.386   2.089  16.840 -1.0071 -0.3042  0.2123
 2046SOL    HW117771   1.427   2.175  16.839 -0.6863 -0.4360  2.1328
 2046SOL    HW217772   1.457   2.034  16.873 -0.1934 -0.0678 -1.1705
 2047SOL     OW17773   0.609   3.665   3.386  0.1263 -0.3668  0.7338
 2047SOL    HW117774   0.642   3.754   3.388 -4.1334  1.2770 -0.6761
 2047SOL    HW217775   0.666   3.624   3.321 -1.4319 -0.4634 -0.6003
 2048SOL     OW17776   3.275   0.357  17.423 -0.1498 -0.2072  0.6475
 2048SOL    HW117777   3.232   0.400  17.497 -1.1015  1.6268 -0.9637
 2048SOL    HW217778   3.235   0.271  17.434  0.1407 -0.7800 -2.6512
 2049SOL     OW17779   4.632   0.674  14.524  0.4356  0.0787  0.1071
 2049SOL    HW117780   4.585   0.592  14.512  1.8015 -0.8591  1.1637
 2049SOL    HW217781   4.598   0.731  14.455 -1.4907  1.1133  1.9052
 2050SOL     OW17782   3.581   0.491   6.514  0.1238 -0.1620 -0.1810
 2050SOL    HW117783   3.489   0.498   6.490  0.7815  1.4038 -2.2660
 2050SOL    HW217784   3.575   0.512   6.607 -0.9606  0.8902 -0.4870
 2051SOL     OW17785   4.595   3.720   3.088 -0.3130 -0.2946  0.0114
 2051SOL    HW117786   4.661   3.651   3.099 -0.3899 -0.4361 -0.4259
 2051SOL    HW217787   4.612   3.757   3.001 -0.8828  1.0092  0.4648
 2052SOL     OW17788   0.038   4.273  16.749  0.2379 -0.3481 -0.4012
 2052SOL    HW117789   4.720   4.275  16.830 -0.3588  0.7351 -0.8112
 2052SOL    HW217790   4.703   4.287  16.683 -1.0316 -0.0710  0.9466
 2053SOL     OW17791   3.534   0.938   1.929 -0.3112 -0.3156 -0.1894
 2053SOL    HW117792   3.618   0.980   1.912 -0.0668  0.2462  2.4788
 2053SOL    HW217793   3.532   0.949   2.024  5.3724  1.3154 -0.2474
 2054SOL     OW17794   0.660   3.999  13.366  0.2365  0.3437 -0.0618
 2054SOL    HW117795   0.698   4.077  13.407 -0.4442 -0.7338  2.5608
 2054SOL    HW217796   0.655   3.938  13.439  0.0955  0.7244  0.2443
 2055SOL     OW17797   0.582   0.902   9.864 -0.1100 -0.1042 -0.1023
 2055SOL    HW117798   0.652   0.868   9.809 -0.1653  2.3590 -1.6813
 2055SOL    HW217799   0.630   0.911   9.947  0.9325  0.1826 -0.7394
 2056SOL     OW17800   2.185   3.278   2.664 -0.0290 -0.4040  0.2886
 2056SOL    HW117801   2.108   3.301   2.715  0.8235 -1.1888  1.9056
 2056SOL    HW217802   2.172   3.185   2.645  0.9662 -0.3892 -0.5172
 2057SOL     OW17803   0.144   3.849   8.036  0.3143 -0.7665 -0.0689
 2057SOL    HW117804   0.143   3.794   8.114  0.0112 -0.7420 -0.0563
 2057SOL    HW217805   0.097   3.924   8.073  0.1387 -0.9094 -0.0052
 2058SOL     OW17806   0.969   0.293   4.480  0.1171 -0.0107  0.1042
 2058SOL    HW117807   1.043   0.274   4.538 -1.2802 -1.0737  1.5678
 2058SOL    HW217808   0.942   0.378   4.514 -0.3716 -0.4663  0.8716
 2059SOL     OW17809   3.042   0.446  13.833  0.2076 -0.3033 -0.8241
 2059SOL    HW117810   3.081   0.373  13.881 -1.2260 -0.8524 -0.4999
 2059SOL    HW217811   3.120   0.464  13.780  0.8480  0.2655  0.3167
 2060SOL     OW17812   4.262   4.404   7.881  0.3327  0.0122 -0.2449
 2060SOL    HW117813   4.219   4.319   7.893  1.0404  0.0715  2.7112
 2060SOL    HW217814   4.327   4.372   7.819 -0.1779 -0.4626 -0.5364
 2061SOL     OW17815   0.824   4.495   7.613 -0.6088  0.4075 -0.0729
 2061SOL    HW117816   0.910   4.458   7.595 -1.7183 -1.6023 -1.2704
 2061SOL    HW217817   0.785   4.410   7.633 -1.1598  1.0126  1.4212
 2062SOL     OW17818   1.566   2.142   5.323  0.2981  0.2876 -0.2903
 2062SOL    HW117819   1.542   2.127   5.232  2.3153  1.3984 -1.0108
 2062SOL    HW217820   1.481   2.150   5.367  0.3394  1.1307 -0.3668
 2063SOL     OW17821   0.715   1.163   5.027  0.6040 -0.7502 -0.3052
 2063SOL    HW117822   0.629   1.153   4.986  0.2785  1.0558 -0.0811
 2063SOL    HW217823   0.777   1.102   4.989  0.3913 -0.6747 -0.7667
 2064SOL     OW17824   2.011   3.715  15.751 -0.5723 -0.0811 -0.2479
 2064SOL    HW117825   2.009   3.721  15.846  1.4797  2.1346 -0.3388
 2064SOL    HW217826   1.964   3.633  15.738  2.1959 -1.5872 -0.5820
 2065SOL     OW17827   3.010   1.902   4.127 -0.1336 -0.4796  0.4630
 2065SOL    HW117828   2.931   1.885   4.076 -1.3885 -3.3369  3.3264
 2065SOL    HW217829   3.063   1.951   4.065 -1.2370 -1.5029 -1.2995
 2066SOL     OW17830   0.600   1.609   6.694 -0.4099 -0.0443 -0.1223
 2066SOL    HW117831   0.556   1.616   6.609  0.9197  3.2944 -0.5294
 2066SOL    HW217832   0.548   1.547   6.744  0.3744 -0.6684 -0.0952
 2067SOL     OW17833   3.503   4.345   5.403  0.0474  0.5838 -0.3537
 2067SOL    HW117834   3.588   4.359   5.362 -0.9390  1.7898 -1.9646
 2067SOL    HW217835   3.504   4.409   5.474  1.7417  1.1746 -0.9280
 2068SOL     OW17836   3.861   4.245  11.254  0.2846 -0.2436  0.7438
 2068SOL    HW117837   3.874   4.234  11.348 -2.4543  3.1158  1.5295
 2068SOL    HW217838   3.793   4.181  11.232  1.5355 -1.6591  1.0681
 2069SOL     OW17839   0.320   1.832   6.312  0.6949  0.1029 -0.1942
 2069SOL    HW117840   0.293   1.877   6.232 -0.9703  2.0614  1.4600
 2069SOL    HW217841   0.323   1.911   6.366 -1.2016  1.0044 -1.3772
 2070SOL     OW17842   1.543   0.490   7.833 -0.3185  0.1071  0.5522
 2070SOL    HW117843   1.533   0.401   7.798 -0.4019  0.0982  0.5994
 2070SOL    HW217844   1.567   0.474   7.925  1.1565  0.6456  0.2625
 2071SOL     OW17845   1.303   1.922  17.325  0.3352 -0.0500  0.2558
 2071SOL    HW117846   1.326   2.015  17.320  0.1549  0.0044  0.4176
 2071SOL    HW217847   1.323   1.886  17.239 -0.0105  1.3714 -0.4276
 2072SOL     OW17848   3.899   2.062  13.190 -0.7102 -0.8501 -0.5538
 2072SOL    HW117849   3.918   2.138  13.134 -1.5653  1.1913  1.9413
 2072SOL    HW217850   3.804   2.053  13.201 -0.8222  0.4977 -0.4228
 2073SOL     OW17851   3.277   4.628   3.858 -0.6369  0.6103 -0.4549
 2073SOL    HW117852   3.218   4.698   3.831  0.4775  2.1335  1.0120
 2073SOL    HW217853   3.318   4.606   3.775  0.7773 -1.5082  0.8116
 2074SOL     OW17854   1.574   0.930   8.174 -0.1824  0.3497  0.8060
 2074SOL    HW117855   1.562   1.019   8.209 -2.1345  0.0940  0.7746
 2074SOL    HW217856   1.594   0.957   8.085  2.0692 -1.2857  0.8292
 2075SOL     OW17857   0.781   4.609  16.457 -0.2214 -0.1763 -0.5880
 2075SOL    HW117858   0.830   4.689  16.439  2.4187 -1.9310 -1.2272
 2075SOL    HW217859   0.751   4.588  16.368  0.0421 -1.4798 -0.3638
 2076SOL     OW17860   1.594   4.123   8.438  0.3667  0.1682 -0.4979
 2076SOL    HW117861   1.508   4.126   8.479 -0.6580  2.5446 -2.8135
 2076SOL    HW217862   1.639   4.203   8.465  2.3271 -1.1619  0.1494
 2077SOL     OW17863   3.909   1.531  11.400 -0.3862  0.6782  0.0619
 2077SOL    HW117864   3.981   1.534  11.336 -0.8291  0.4145 -0.4484
 2077SOL    HW217865   3.886   1.624  11.402 -1.7230  0.4141 -2.4855
 2078SOL     OW17866   0.947   4.592   7.295 -0.2123  0.2870  0.2790
 2078SOL    HW117867   1.024   4.581   7.351  1.0988 -1.0828 -1.7460
 2078SOL    HW217868   0.907   4.507   7.312  1.4054 -0.3410  0.9778
 2079SOL     OW17869   2.951   1.502  14.930  0.0946  0.2718 -0.7436
 2079SOL    HW117870   3.015   1.573  14.929  0.5353 -0.0495  4.1888
 2079SOL    HW217871   2.872   1.534  14.886 -1.5864 -1.0070  1.3407
 2080SOL     OW17872   0.644   0.671   9.110  0.4297  0.0056  0.6375
 2080SOL    HW117873   0.734   0.643   9.127  0.5062 -0.8885 -1.2661
 2080SOL    HW217874   0.595   0.600   9.153  0.5531  0.0811  0.9067
 2081SOL     OW17875   1.442   4.374   5.609 -0.6488 -0.5733  0.3880
 2081SOL    HW117876   1.386   4.447   5.633 -0.4504 -0.3052  0.0481
 2081SOL    HW217877   1.428   4.376   5.514 -0.3526  1.9521  0.3919
 2082SOL     OW17878   4.346   3.538  11.362 -0.1062  0.3176 -0.0055
 2082SOL    HW117879   4.386   3.623  11.381 -4.0067  2.3946 -1.1130
 2082SOL    HW217880   4.317   3.522  11.451  3.2799 -1.4342  0.7863
 2083SOL     OW17881   2.700   1.353   7.184 -0.5746 -0.3361  0.4022
 2083SOL    HW117882   2.615   1.311   7.174 -0.7445  0.0434  0.2507
 2083SOL    HW217883   2.685   1.406   7.105  0.5720 -1.2103 -0.4103
 2084SOL     OW17884   1.631   0.181   1.607  0.4454  0.5582 -0.0793
 2084SOL    HW117885   1.723   0.176   1.583  0.1645  0.9739 -1.2816
 2084SOL    HW217886   1.628   0.124   1.684  1.9638 -0.9319 -1.1458
 2085SOL     OW17887   0.285   2.885   1.757 -0.2629  0.1855 -0.6579
 2085SOL    HW117888   0.354   2.855   1.816 -0.3029  2.2729  0.4559
 2085SOL    HW217889   0.285   2.813   1.693  0.0867 -0.5558  0.1848
 2086SOL     OW17890   2.277   2.914   3.250 -0.0257  0.1849 -0.2055
 2086SOL    HW117891   2.273   3.000   3.292 -0.3419 -0.2141  0.6022
 2086SOL    HW217892   2.194   2.878   3.281  0.5529 -0.5087  0.5547
 2087SOL     OW17893   2.339   1.102   8.977 -0.2475 -0.2923 -0.1235
 2087SOL    HW117894   2.293   1.186   8.975 -2.7624 -1.6805 -0.0913
 2087SOL    HW217895   2.414   1.122   9.032 -0.2992 -1.0532  0.2233
 2088SOL     OW17896   2.968   3.664  10.669  0.4682 -0.2869  0.5249
 2088SOL    HW117897   2.988   3.722  10.743  1.3400 -0.1987  0.2110
 2088SOL    HW217898   3.028   3.705  10.606  0.9840 -1.7164  0.0794
 2089SOL     OW17899   1.055   2.462   1.513  0.0604 -0.0995 -0.1957
 2089SOL    HW117900   1.018   2.536   1.464  1.4004  0.6411 -0.1122
 2089SOL    HW217901   1.127   2.442   1.453 -1.0267  0.7145 -1.7819
 2090SOL     OW17902   2.562   0.072   2.530 -0.2300 -0.9344 -0.3039
 2090SOL    HW117903   2.639   0.082   2.585 -0.9160 -0.8891  0.6417
 2090SOL    HW217904   2.525   4.722   2.562  0.0951 -0.1081  2.2138
 2091SOL     OW17905   1.358   2.575   6.563  0.1885 -0.2291  0.6146
 2091SOL    HW117906   1.368   2.668   6.542  0.9027 -0.6802 -1.0851
 2091SOL    HW217907   1.265   2.562   6.579 -0.2389  2.0873 -0.0146
 2092SOL     OW17908   0.943   3.319  17.363  0.4292  0.9172  0.0369
 2092SOL    HW117909   1.022   3.317  17.417  0.0970 -1.7124  0.4383
 2092SOL    HW217910   0.878   3.305  17.431  0.3619  1.9625  0.1769
 2093SOL     OW17911   4.228   1.733   2.016  0.2435  0.0764  0.2286
 2093SOL    HW117912   4.257   1.820   2.044  2.2406 -0.5694  0.1149
 2093SOL    HW217913   4.133   1.746   2.008  0.4619  2.0014  0.7261
 2094SOL     OW17914   1.117   2.123   3.855  0.2279  0.1344 -0.5319
 2094SOL    HW117915   1.033   2.086   3.885 -0.2412 -0.2636 -2.2638
 2094SOL    HW217916   1.106   2.217   3.862 -1.9554 -0.1052 -0.5639
 2095SOL     OW17917   1.228   0.687   2.997 -0.0989  0.0613 -0.0986
 2095SOL    HW117918   1.167   0.724   2.934 -3.3314 -0.9169  2.5077
 2095SOL    HW217919   1.305   0.662   2.945  0.7274  0.9835  0.6738
 2096SOL     OW17920   0.046   0.293   8.759 -0.0747  0.0194  0.2632
 2096SOL    HW117921   0.030   0.208   8.800 -0.2380 -0.0137  0.1270
 2096SOL    HW217922   0.056   0.265   8.668 -1.0258  1.2462 -0.1987
 2097SOL     OW17923   2.627   4.504   2.425 -0.0237  0.0311 -0.0627
 2097SOL    HW117924   2.718   4.526   2.405 -0.0397  0.4359  0.3246
 2097SOL    HW217925   2.606   4.460   2.343 -0.9635  0.5684 -0.1065
 2098SOL     OW17926   1.178   0.488  12.007 -0.0541  0.4751  0.9536
 2098SOL    HW117927   1.144   0.522  12.090  0.2231  1.6202  0.5969
 2098SOL    HW217928   1.110   0.423  11.986  0.1745  0.5917 -0.1016
 2099SOL     OW17929   0.851   2.724   8.144  0.5352  0.0483 -0.2184
 2099SOL    HW117930   0.852   2.810   8.103 -1.2476 -0.0163 -0.4244
 2099SOL    HW217931   0.943   2.698   8.146  0.3947 -0.5262 -1.0674
 2100SOL     OW17932   3.976   3.960  17.367  0.0592  0.3831 -0.3882
 2100SOL    HW117933   4.069   3.981  17.355 -0.5331  3.1608 -0.2900
 2100SOL    HW217934   3.962   3.913  17.285  1.0914 -1.0990  0.2915
 2101SOL     OW17935   0.385   1.708   5.578  0.1356  0.0223 -0.1667
 2101SOL    HW117936   0.356   1.793   5.546  0.7741  0.1225 -0.4894
 2101SOL    HW217937   0.337   1.715   5.660  2.9034  0.3019  1.4042
 2102SOL     OW17938   3.279   4.165  16.504  0.4198  0.2847  0.0964
 2102SOL    HW117939   3.287   4.091  16.443  1.3761  0.2470  0.2623
 2102SOL    HW217940   3.363   4.177  16.549  1.4043  0.2470 -1.7195
 2103SOL     OW17941   3.505   1.688   2.535  0.1769  0.5684  0.1258
 2103SOL    HW117942   3.507   1.736   2.618  0.4251  0.5009  0.1572
 2103SOL    HW217943   3.472   1.760   2.480  1.7101 -0.0435 -1.6251
 2104SOL     OW17944   0.406   1.631  10.347 -0.0985 -0.2925  0.7690
 2104SOL    HW117945   0.327   1.659  10.300  0.9918  0.6837 -0.4864
 2104SOL    HW217946   0.462   1.610  10.273  0.1165  2.4862  0.1433
 2105SOL     OW17947   0.639   2.078   6.845 -0.5784  0.5156  0.7705
 2105SOL    HW117948   0.655   2.172   6.846  0.7519  0.2833 -0.0633
 2105SOL    HW217949   0.601   2.070   6.757  1.6203  0.7444 -0.1962
 2106SOL     OW17950   0.370   4.427   7.160  0.3525 -0.0919  0.6078
 2106SOL    HW117951   0.379   4.523   7.159  2.0974 -0.2589 -0.2724
 2106SOL    HW217952   0.316   4.414   7.238  0.5452 -0.0248  0.7542
 2107SOL     OW17953   3.954   0.869  15.044  0.3387  0.2755 -1.1735
 2107SOL    HW117954   3.900   0.807  14.993 -2.1313  0.4499  1.2307
 2107SOL    HW217955   3.968   0.819  15.124 -0.5019 -0.2057 -1.3257
 2108SOL     OW17956   1.220   3.390   2.697 -0.3519  0.2029  0.4062
 2108SOL    HW117957   1.288   3.329   2.723  0.4431  0.8817 -0.0813
 2108SOL    HW217958   1.278   3.466   2.700  0.8985 -0.7604  0.7237
 2109SOL     OW17959   0.644   0.446   4.403 -0.0085  0.4831 -0.6859
 2109SOL    HW117960   0.558   0.478   4.375 -0.6239 -1.3395 -0.8982
 2109SOL    HW217961   0.645   0.360   4.360 -0.5015 -0.6668  1.5901
 2110SOL     OW17962   4.106   3.423  16.356 -0.6015  0.2218  0.5277
 2110SOL    HW117963   4.101   3.351  16.293  5.4199 -0.7700  1.2274
 2110SOL    HW217964   4.027   3.415  16.409  0.0932  0.9844  1.6606
 2111SOL     OW17965   1.584   0.077   8.451  0.4025 -1.0272  0.4096
 2111SOL    HW117966   1.657   0.062   8.391 -0.2002 -1.4519 -0.2194
 2111SOL    HW217967   1.573   4.722   8.488 -1.4622 -0.4521  1.2353
 2112SOL     OW17968   1.890   0.997   3.959 -0.3838 -0.0597 -0.5703
 2112SOL    HW117969   1.891   0.935   4.031 -1.2851  2.4292  1.5787
 2112SOL    HW217970   1.799   1.026   3.964 -0.5944 -0.8149 -0.0879
 2113SOL     OW17971   1.393   3.838   5.177  0.6357 -0.9621  0.2095
 2113SOL    HW117972   1.321   3.886   5.136  0.4447  0.0139  1.6851
 2113SOL    HW217973   1.384   3.758   5.126 -0.2347  0.3791 -1.7537
 2114SOL     OW17974   4.693   0.203   9.104 -0.3708  0.1845 -0.3482
 2114SOL    HW117975   4.713   0.287   9.147 -0.5330 -0.5688  1.2131
 2114SOL    HW217976   0.045   0.164   9.126  0.0621  2.2041  1.6829
 2115SOL     OW17977   0.258   2.779  16.513  0.0185 -0.3021 -0.5719
 2115SOL    HW117978   0.163   2.768  16.514 -0.0672  0.5725  1.6748
 2115SOL    HW217979   0.256   2.814  16.424 -1.7152 -2.8889 -1.5371
 2116SOL     OW17980   2.015   0.096   6.585 -0.2169  0.2589 -0.0342
 2116SOL    HW117981   1.923   0.120   6.572 -0.1136  1.6487  1.7721
 2116SOL    HW217982   2.013   0.001   6.592  0.4803  0.0484 -2.5797
 2117SOL     OW17983   2.458   2.367   3.129 -0.9208  0.0975  0.0677
 2117SOL    HW117984   2.489   2.283   3.093  0.7115 -0.0322  1.7615
 2117SOL    HW217985   2.530   2.388   3.188 -1.2814 -0.8762  0.8614
 2118SOL     OW17986   0.833   2.825   8.961  0.4196  0.0327 -0.2941
 2118SOL    HW117987   0.875   2.908   8.937 -0.4407  1.1568  1.9868
 2118SOL    HW217988   0.866   2.815   9.051 -2.4046 -1.3086  0.5886
 2119SOL     OW17989   0.377   2.115   7.979  0.8533 -0.4724 -0.0991
 2119SOL    HW117990   0.390   2.034   7.930  0.5039  0.0161 -1.0047
 2119SOL    HW217991   0.310   2.158   7.925  2.4065  3.5692  1.2126
 2120SOL     OW17992   2.364   3.091   6.861  0.0202  0.1628  0.2877
 2120SOL    HW117993   2.415   3.035   6.919  0.5303 -2.0781 -2.3480
 2120SOL    HW217994   2.288   3.095   6.920 -0.4988 -3.5874 -0.1024
 2121SOL     OW17995   4.475   4.548   1.939  0.1052 -0.1158 -0.2380
 2121SOL    HW117996   4.569   4.547   1.924 -0.3254 -0.5345 -2.9607
 2121SOL    HW217997   4.461   4.636   1.903  0.9915  0.0981 -0.0596
 2122SOL     OW17998   4.473   1.101   3.564 -0.8620  0.3854  0.2481
 2122SOL    HW117999   4.528   1.178   3.578 -0.0439 -0.3352  1.0036
 2122SOL    HW218000   4.441   1.128   3.477  0.0331 -0.8510 -0.4738
 2123SOL     OW18001   2.830   3.506   5.443  0.3808  0.2059 -0.9806
 2123SOL    HW118002   2.745   3.464   5.456  0.7654 -0.2318  0.1126
 2123SOL    HW218003   2.875   3.452   5.377  0.0692 -2.1795  0.7594
 2124SOL     OW18004   4.488   2.749   3.790 -0.4358 -0.1264  0.5935
 2124SOL    HW118005   4.536   2.703   3.721 -2.3658  1.6427 -1.8929
 2124SOL    HW218006   4.493   2.837   3.753 -2.6848 -0.0796  0.4141
 2125SOL     OW18007   1.951   4.716   7.861 -0.4388  0.3563 -0.0980
 2125SOL    HW118008   2.043   4.708   7.835 -1.3355  1.7833 -3.7603
 2125SOL    HW218009   1.929   0.069   7.823  2.2353  0.6371 -0.9955
 2126SOL     OW18010   1.775   4.616   9.110  0.2893 -0.2931 -0.4755
 2126SOL    HW118011   1.830   4.581   9.180 -0.0019 -0.9231 -0.5548
 2126SOL    HW218012   1.840   4.675   9.072  0.0166 -0.1255 -0.6784
 2127SOL     OW18013   3.856   3.260   9.395 -0.5611  0.2928  0.1042
 2127SOL    HW118014   3.892   3.269   9.306 -0.9566  0.7901 -0.0084
 2127SOL    HW218015   3.802   3.181   9.388 -0.9382  0.6023 -0.5451
 2128SOL     OW18016   2.856   0.817  10.585 -0.0252 -0.0588 -0.3556
 2128SOL    HW118017   2.855   0.912  10.572  2.4851 -0.1634 -1.2475
 2128SOL    HW218018   2.932   0.800  10.640 -0.7567  0.9359  0.9638
 2129SOL     OW18019   1.727   1.656   8.571 -0.5468  0.4926  0.1468
 2129SOL    HW118020   1.751   1.578   8.521 -3.1872  0.2476 -0.6971
 2129SOL    HW218021   1.790   1.719   8.536 -2.0557  0.5888 -2.3833
 2130SOL     OW18022   3.846   0.122   2.023  0.0534  0.0365 -0.2549
 2130SOL    HW118023   3.894   0.041   2.040  1.2029  1.0859  1.5357
 2130SOL    HW218024   3.770   0.094   1.972 -1.0059  0.5433  1.0505
 2131SOL     OW18025   0.626   0.064  10.154 -0.1409  0.1090 -0.0976
 2131SOL    HW118026   0.632   4.703  10.171  2.2176 -0.0774 -1.9387
 2131SOL    HW218027   0.715   0.093  10.134 -0.3264  0.6778 -0.1029
 2132SOL     OW18028   2.064   0.568   7.374 -0.7695  0.3946 -0.2718
 2132SOL    HW118029   2.040   0.631   7.306  2.0712  1.2446 -0.4951
 2132SOL    HW218030   2.138   0.616   7.412  0.3419 -0.0298 -1.8899
 2133SOL     OW18031   4.549   1.235   5.380 -0.2507 -0.3244 -0.3091
 2133SOL    HW118032   4.525   1.240   5.472  2.8893 -1.6738  0.5827
 2133SOL    HW218033   4.494   1.163   5.349 -1.2096  1.1545 -2.0817
 2134SOL     OW18034   4.601   2.333  16.911  0.7708  0.3210 -0.1044
 2134SOL    HW118035   4.523   2.367  16.866  0.6010  0.6758  0.4534
 2134SOL    HW218036   4.619   2.251  16.866 -1.6968 -0.8811  1.0422
 2135SOL     OW18037   1.716   0.858  12.017 -0.3399  0.2778 -0.1597
 2135SOL    HW118038   1.689   0.780  12.065 -1.3762  0.8720  0.2155
 2135SOL    HW218039   1.720   0.926  12.085  1.1450 -0.0632  0.0922
 2136SOL     OW18040   0.242   0.314   4.588 -0.0319  0.0158 -0.1916
 2136SOL    HW118041   0.316   0.342   4.643 -3.1812  1.0374  3.5082
 2136SOL    HW218042   0.261   0.220   4.579  1.0059  0.0415  1.6446
 2137SOL     OW18043   1.430   3.212   5.969 -0.3650  0.2826  0.1075
 2137SOL    HW118044   1.489   3.263   5.913  0.4682 -0.2206  0.5375
 2137SOL    HW218045   1.463   3.247   6.052  0.5910  1.8091 -0.9128
 2138SOL     OW18046   2.576   3.046  15.221 -0.3422 -0.0173 -0.6045
 2138SOL    HW118047   2.554   3.130  15.261 -0.4109 -0.2889 -0.0678
 2138SOL    HW218048   2.659   3.069  15.178  0.1200 -2.1136 -0.8525
 2139SOL     OW18049   3.257   0.273   0.101  0.2437 -0.4925  0.1784
 2139SOL    HW118050   3.269   0.351   0.047 -2.6123  0.7144  1.2898
 2139SOL    HW218051   3.315   0.209   0.061 -0.8815 -1.6239  0.3592
 2140SOL     OW18052   4.281   0.539   2.457  0.0296  0.5104 -0.0886
 2140SOL    HW118053   4.345   0.510   2.522 -2.0984  2.6034  2.9506
 2140SOL    HW218054   4.309   0.478   2.388 -1.6754  0.0982 -0.4224
 2141SOL     OW18055   0.742   2.086   2.013  0.2899  0.0896 -0.3552
 2141SOL    HW118056   0.783   2.014   1.965 -0.4985 -3.4987  4.2929
 2141SOL    HW218057   0.801   2.159   1.995  0.8959  0.2129  2.1205
 2142SOL     OW18058   1.463   1.980  12.975  0.1067 -0.1750  0.0242
 2142SOL    HW118059   1.414   1.898  12.971 -1.5457  0.8209 -0.0980
 2142SOL    HW218060   1.406   2.032  12.918 -0.0133 -1.1769 -0.7835
 2143SOL     OW18061   1.155   1.488  17.512  0.5078 -0.3603 -0.1702
 2143SOL    HW118062   1.197   1.402  17.521 -0.4953 -0.7241  1.0731
 2143SOL    HW218063   1.118   1.480  17.424  0.1796 -1.1499  0.0354
 2144SOL     OW18064   4.681   1.425  17.508  0.0558  0.2689 -0.0471
 2144SOL    HW118065   4.611   1.490  17.517  0.8218  0.9572  0.9741
 2144SOL    HW218066   0.011   1.481  17.460  0.3962 -0.4567 -0.4500
 2145SOL     OW18067   1.279   0.180   9.375  0.2232  0.5724  0.2546
 2145SOL    HW118068   1.356   0.224   9.339  0.9226 -2.8996 -2.4091
 2145SOL    HW218069   1.239   0.156   9.292 -1.9230  0.8554  1.2066
 2146SOL     OW18070   4.166   1.819   8.369  0.4403  0.1603 -0.1838
 2146SOL    HW118071   4.257   1.847   8.357 -0.2880  1.6744 -2.1350
 2146SOL    HW218072   4.119   1.900   8.348 -1.6150 -1.3197 -1.2550
 2147SOL     OW18073   2.899   1.425   2.968  0.2184  0.3345 -0.4676
 2147SOL    HW118074   2.990   1.393   2.968 -0.2128 -0.8919 -0.9837
 2147SOL    HW218075   2.870   1.400   2.880  1.3846  1.6854 -1.2458
 2148SOL     OW18076   3.454   1.525   6.600 -0.0726  0.1314  0.1209
 2148SOL    HW118077   3.547   1.536   6.581 -0.4243 -0.7937 -2.0891
 2148SOL    HW218078   3.445   1.563   6.688  0.5205 -3.8139  1.9320
 2149SOL     OW18079   0.674   0.359   6.368 -0.9389  0.6132 -0.4132
 2149SOL    HW118080   0.629   0.353   6.284  1.3698 -0.1303 -1.6025
 2149SOL    HW218081   0.753   0.410   6.349 -1.3898  1.4116 -0.1167
 2150SOL     OW18082   0.065   2.120   8.873 -0.3724  0.4867 -0.1970
 2150SOL    HW118083   0.018   2.202   8.888  0.0915  0.3527  1.9301
 2150SOL    HW218084   0.113   2.124   8.955  0.9015 -0.3842 -0.8940
 2151SOL     OW18085   4.154   2.404   4.484  1.0128  0.2219 -0.0423
 2151SOL    HW118086   4.116   2.482   4.443 -0.9913 -0.2554  0.8887
 2151SOL    HW218087   4.174   2.340   4.416  4.2342  0.1298  1.0040
 2152SOL     OW18088   0.542   0.265  13.499  0.6240  0.2618  0.0887
 2152SOL    HW118089   0.497   0.304  13.573  3.4963  1.8082  1.0309
 2152SOL    HW218090   0.633   0.287  13.521  0.0853  0.6502  1.8517
 2153SOL     OW18091   0.476   2.991   6.727  0.3648 -0.1476  0.4884
 2153SOL    HW118092   0.485   2.987   6.632  0.2850 -2.2740  0.5624
 2153SOL    HW218093   0.527   2.919   6.764  0.5051 -0.0171  0.5483
 2154SOL     OW18094   4.020   2.931  11.058  0.0607 -0.2419  0.6327
 2154SOL    HW118095   4.052   2.849  11.096  1.5790 -0.3410 -0.8721
 2154SOL    HW218096   4.102   2.964  11.022  0.5709 -0.7133  1.3673
 2155SOL     OW18097   3.923   2.482  13.192 -0.0225  0.1619  0.1295
 2155SOL    HW118098   3.904   2.576  13.195 -1.0684 -0.0250 -0.8233
 2155SOL    HW218099   3.914   2.451  13.282  3.1591  0.3310  0.5295
 2156SOL     OW18100   0.966   0.111  10.915 -0.0756  0.3781  0.0296
 2156SOL    HW118101   0.974   0.204  10.897 -0.2253  0.3810 -0.0179
 2156SOL    HW218102   0.894   0.092  10.855 -0.6151  1.3675  0.3786
 2157SOL     OW18103   0.872   1.109   6.541 -0.5536 -0.2185 -0.1045
 2157SOL    HW118104   0.813   1.171   6.584 -0.2431 -0.3373  0.4829
 2157SOL    HW218105   0.951   1.163   6.541  1.5871 -3.3304  0.6269
 2158SOL     OW18106   2.343   4.154   7.024 -0.5826 -0.3084  0.0256
 2158SOL    HW118107   2.296   4.157   6.941 -0.6811  0.8896  0.1203
 2158SOL    HW218108   2.323   4.064   7.048 -0.8049  0.6560  3.4758
 2159SOL     OW18109   3.978   4.311  17.340 -0.2503 -0.8189 -0.6137
 2159SOL    HW118110   3.979   4.311  17.436 -0.1797  1.1946 -0.6152
 2159SOL    HW218111   3.886   4.329  17.318 -0.3022 -0.7277 -0.3299
 2160SOL     OW18112   3.797   2.552   2.664 -0.0938  0.3858 -0.3418
 2160SOL    HW118113   3.748   2.491   2.610  2.0199 -0.4026 -1.3671
 2160SOL    HW218114   3.778   2.634   2.619  1.3557  1.3508  0.7918
 2161SOL     OW18115   1.671   3.428   8.256  0.4425 -0.0304 -0.3149
 2161SOL    HW118116   1.653   3.335   8.242 -2.8795  0.8619 -2.0331
 2161SOL    HW218117   1.707   3.404   8.341  0.2933  1.5203  0.1823
 2162SOL     OW18118   1.100   0.766  14.432  0.2978  0.4920  0.4481
 2162SOL    HW118119   1.058   0.851  14.444  1.6423  1.0364  1.3251
 2162SOL    HW218120   1.095   0.732  14.521  0.6268 -0.9380 -0.0787
 2163SOL     OW18121   3.761   0.394   3.259  0.7253 -0.0516 -0.0081
 2163SOL    HW118122   3.826   0.463   3.245  0.1228  1.0954  2.8903
 2163SOL    HW218123   3.738   0.419   3.348  3.5276  2.5539 -0.0110
 2164SOL     OW18124   2.242   4.641   2.311  0.3275 -0.3940  0.0741
 2164SOL    HW118125   2.247   4.730   2.276 -2.5102 -0.9292 -1.6427
 2164SOL    HW218126   2.272   4.598   2.231  0.4682 -1.8987  0.9480
 2165SOL     OW18127   0.030   3.852   1.566  0.5103 -0.2418  0.7094
 2165SOL    HW118128   0.050   3.761   1.543 -1.4318 -0.7539  1.0782
 2165SOL    HW218129   0.049   3.855   1.660  0.4262  0.1837  0.7128
 2166SOL     OW18130   0.342   0.887  13.456  0.2727 -0.9419 -0.0093
 2166SOL    HW118131   0.349   0.845  13.371 -0.4791 -1.0092 -0.0349
 2166SOL    HW218132   0.252   0.918  13.445 -0.1663 -2.1997  0.0240
 2167SOL     OW18133   2.080   1.009   3.027  0.9700 -0.6969  0.3392
 2167SOL    HW118134   2.035   0.999   2.943  1.0696  2.2419 -0.0614
 2167SOL    HW218135   2.114   1.095   3.004  0.1422 -0.7210 -0.9648
 2168SOL     OW18136   0.718   0.636   6.853  0.1351 -0.0665  0.3965
 2168SOL    HW118137   0.785   0.698   6.826 -0.0434 -0.6368 -1.3103
 2168SOL    HW218138   0.765   0.559   6.823  0.3439 -0.6450  2.1630
 2169SOL     OW18139   1.286   1.038   8.817 -0.5217 -0.1078 -0.4826
 2169SOL    HW118140   1.267   1.018   8.725  0.1373 -1.1920 -0.3834
 2169SOL    HW218141   1.202   1.076   8.842  0.1382  1.0267  0.0099
 2170SOL     OW18142   1.864   1.901   5.079  0.0251 -0.5023 -0.3196
 2170SOL    HW118143   1.911   1.833   5.029 -0.5469 -0.7379 -0.5334
 2170SOL    HW218144   1.780   1.862   5.104 -0.8684  0.8046 -1.3022
 2171SOL     OW18145   0.282   0.127  13.450 -0.0213 -0.2484 -0.3526
 2171SOL    HW118146   0.222   0.054  13.438  0.3877 -0.6392  0.0117
 2171SOL    HW218147   0.218   0.183  13.494  0.5042  0.2842 -0.2667
 2172SOL     OW18148   0.109   3.662   6.401 -0.1861  0.4135 -0.3848
 2172SOL    HW118149   0.044   3.609   6.355 -1.6081  0.9104  1.0627
 2172SOL    HW218150   0.184   3.612   6.370 -0.0362  0.3120  0.1287
 2173SOL     OW18151   3.033   4.001   7.961  0.1440 -0.0919  0.1707
 2173SOL    HW118152   2.968   4.068   7.941  0.8589  1.2104  2.1808
 2173SOL    HW218153   2.985   3.919   7.954  2.2519 -1.4327  1.3230
 2174SOL     OW18154   2.250   3.526  16.645 -0.7746 -0.0135  0.4455
 2174SOL    HW118155   2.286   3.490  16.726  0.4573 -0.6597 -0.3918
 2174SOL    HW218156   2.326   3.524  16.586  0.7137  0.1253  2.3517
 2175SOL     OW18157   2.632   3.606   8.001  0.0768  0.1019  0.6489
 2175SOL    HW118158   2.599   3.518   7.986 -0.4042  0.2920  0.5824
 2175SOL    HW218159   2.574   3.640   8.069  1.8737  0.6798  1.8979
 2176SOL     OW18160   0.036   0.311   0.378  0.0830  0.2570 -0.4994
 2176SOL    HW118161   0.069   0.320   0.289  1.1699  1.8251  0.0593
 2176SOL    HW218162   0.054   0.399   0.413 -0.7979 -0.1589  1.0140
 2177SOL     OW18163   1.242   0.135   7.672 -0.5758  0.6309  0.0293
 2177SOL    HW118164   1.181   0.140   7.746 -0.1687 -0.7282  0.4566
 2177SOL    HW218165   1.321   0.178   7.705 -0.6266  0.2851  0.6150
 2178SOL     OW18166   1.492   4.609  12.501 -0.4931 -0.1783 -0.3635
 2178SOL    HW118167   1.537   4.669  12.442 -1.2461  1.0687  0.3411
 2178SOL    HW218168   1.408   4.651  12.518 -0.9449 -0.5983 -1.5201
 2179SOL     OW18169   0.958   0.262   2.606 -0.4045 -0.2806 -0.4477
 2179SOL    HW118170   0.985   0.339   2.555 -5.6506  0.9602 -1.3265
 2179SOL    HW218171   0.984   0.295   2.692 -2.5592 -1.5686  0.6765
 2180SOL     OW18172   3.050   2.914   5.261  0.2222  0.2506  0.1337
 2180SOL    HW118173   2.977   2.942   5.206 -0.6698 -1.0645  0.6437
 2180SOL    HW218174   3.123   2.958   5.217 -0.6575  1.2372 -0.3279
 2181SOL     OW18175   3.445   0.026   5.776 -0.0214  0.2534 -0.2351
 2181SOL    HW118176   3.539   0.009   5.782  0.4092  1.4855 -3.6073
 2181SOL    HW218177   3.425   0.036   5.869 -0.0512  0.7900 -0.3031
 2182SOL     OW18178   4.624   2.762   2.245 -0.4411  0.0750  0.1886
 2182SOL    HW118179   4.672   2.830   2.199  0.7061 -1.7609 -1.3079
 2182SOL    HW218180   4.681   2.692   2.276 -0.6364 -0.2485 -0.1842
 2183SOL     OW18181   3.721   2.610   8.332 -0.0686  0.0071  0.4000
 2183SOL    HW118182   3.727   2.646   8.421  0.5809  0.4647  0.1675
 2183SOL    HW218183   3.626   2.605   8.322 -0.0498  0.4616 -0.0067
 2184SOL     OW18184   3.796   1.167   0.082 -1.0687 -0.1866 -0.1940
 2184SOL    HW118185   3.813   1.186   0.175 -1.1272  0.4295 -0.3046
 2184SOL    HW218186   3.867   1.218   0.043 -1.8642  2.7034  2.1261
 2185SOL     OW18187   1.837   4.209   8.649  0.4656  0.1821 -0.4836
 2185SOL    HW118188   1.772   4.253   8.594  1.1300  2.2651  0.3926
 2185SOL    HW218189   1.903   4.185   8.584  0.7811 -1.5241  0.4742
 2186SOL     OW18190   3.067   0.688  17.205 -0.5249 -0.7842 -0.6717
 2186SOL    HW118191   3.121   0.681  17.127 -1.1268  0.2165 -1.1864
 2186SOL    HW218192   3.038   0.779  17.191 -2.1938 -0.8898  1.9091
 2187SOL     OW18193   4.453   3.886   6.395 -0.3266 -0.2875 -0.2337
 2187SOL    HW118194   4.391   3.958   6.401  0.3785  0.1515  1.9325
 2187SOL    HW218195   4.536   3.934   6.398 -1.1003  0.9700  1.2041
 2188SOL     OW18196   1.277   0.280   2.436  0.7982  0.0365  0.8205
 2188SOL    HW118197   1.218   0.325   2.376  1.7088  1.1411  0.7425
 2188SOL    HW218198   1.359   0.269   2.389  0.2231 -0.8615  0.0365
 2189SOL     OW18199   0.300   4.540   2.350 -0.1278  0.0482 -0.1229
 2189SOL    HW118200   0.385   4.550   2.306  0.8692 -1.6735  1.4136
 2189SOL    HW218201   0.272   4.631   2.347  0.5271  0.2220 -1.2354
 2190SOL     OW18202   2.416   3.363   4.577  0.4630 -0.6265  0.4368
 2190SOL    HW118203   2.324   3.344   4.556  1.0090 -2.1977 -0.5203
 2190SOL    HW218204   2.444   3.271   4.586 -0.1158 -0.7815  0.6627
 2191SOL     OW18205   0.858   1.149  10.437 -0.3801 -0.4492  0.0072
 2191SOL    HW118206   0.837   1.157  10.344 -0.6826  2.1860  0.2852
 2191SOL    HW218207   0.944   1.108  10.433 -0.2291 -0.2898  1.9037
 2192SOL     OW18208   1.378   0.708   0.123 -0.0440  0.8237  0.2219
 2192SOL    HW118209   1.306   0.764   0.152 -1.4167 -1.4687  1.2222
 2192SOL    HW218210   1.389   0.739   0.033  0.3515 -3.1143 -1.1232
 2193SOL     OW18211   4.159   1.965  13.239 -0.0342  0.5307  0.0220
 2193SOL    HW118212   4.072   2.002  13.224  0.5675  2.4823  1.4362
 2193SOL    HW218213   4.145   1.914  13.319  0.1379 -1.8606 -1.4484
 2194SOL     OW18214   2.513   3.338  15.412  0.1466  0.0019 -0.1451
 2194SOL    HW118215   2.448   3.350  15.343 -3.9514 -2.4172  3.2668
 2194SOL    HW218216   2.466   3.359  15.493  1.4248 -0.7400  0.7723
 2195SOL     OW18217   1.827   2.221   5.411 -0.3537  0.0674  0.2238
 2195SOL    HW118218   1.862   2.132   5.418  1.1488  0.5885 -0.5969
 2195SOL    HW218219   1.739   2.209   5.376 -0.2219  2.8673 -1.0781
 2196SOL     OW18220   1.541   1.528   3.217  0.9165 -0.0864 -0.4975
 2196SOL    HW118221   1.536   1.466   3.290 -0.7032  0.1838 -0.3718
 2196SOL    HW218222   1.609   1.490   3.162  1.6623 -1.3823  1.3425
 2197SOL     OW18223   3.545   3.451  13.731 -0.4293 -0.1717  0.5041
 2197SOL    HW118224   3.503   3.379  13.684  0.5217 -1.4688  1.6693
 2197SOL    HW218225   3.521   3.428  13.821 -0.6256  0.5105  0.6325
 2198SOL     OW18226   4.250   4.553   4.264 -0.3372 -0.0631 -0.2875
 2198SOL    HW118227   4.330   4.576   4.218 -0.5439  1.9282  0.3787
 2198SOL    HW218228   4.274   4.468   4.301 -1.9050 -1.0343 -1.4792
 2199SOL     OW18229   2.201   4.327   1.702 -0.4216  0.0227 -0.4532
 2199SOL    HW118230   2.215   4.386   1.629  0.9956  1.5121  1.0150
 2199SOL    HW218231   2.187   4.386   1.776 -0.0373  0.1002 -0.4396
 2200SOL     OW18232   2.198   0.577   8.068 -0.3217 -0.7863  0.3337
 2200SOL    HW118233   2.194   0.557   7.975 -0.8800  1.2171 -0.0666
 2200SOL    HW218234   2.106   0.577   8.093 -0.7956  2.9966 -1.3920
 2201SOL     OW18235   1.453   2.480   1.562  0.9005 -0.0195  0.3845
 2201SOL    HW118236   1.544   2.496   1.587  1.6157 -2.0232 -0.8925
 2201SOL    HW218237   1.421   2.411   1.620  1.4403 -0.5821  0.0260
 2202SOL     OW18238   3.202   2.801   2.522  0.0823  0.3488 -0.2200
 2202SOL    HW118239   3.122   2.808   2.471 -0.3097 -0.7006  0.2489
 2202SOL    HW218240   3.174   2.801   2.614  1.2408 -0.8605  0.1462
 2203SOL     OW18241   3.199   2.330   8.625 -0.4964 -0.1921 -0.7898
 2203SOL    HW118242   3.282   2.328   8.672 -0.3125 -0.5680 -1.1372
 2203SOL    HW218243   3.208   2.417   8.587 -2.3975  1.4238  2.3992
 2204SOL     OW18244   0.238   3.961  11.737 -0.1922 -0.3070 -0.1608
 2204SOL    HW118245   0.321   3.932  11.776 -0.6350 -2.4197 -0.8208
 2204SOL    HW218246   0.219   3.898  11.668 -0.6202 -1.5920  1.1561
 2205SOL     OW18247   1.336   0.755   4.955  0.3414  0.1895 -0.2513
 2205SOL    HW118248   1.344   0.671   5.000 -0.6668 -0.5311 -1.4243
 2205SOL    HW218249   1.374   0.731   4.871  1.7514  0.8221  0.2021
 2206SOL     OW18250   0.836   3.193  12.594 -0.1759 -0.7258 -0.0272
 2206SOL    HW118251   0.749   3.207  12.555  0.1821  3.0389  0.4640
 2206SOL    HW218252   0.882   3.277  12.588 -0.8258 -0.2754  1.2108
 2207SOL     OW18253   4.655   2.816   4.164 -0.1388 -0.0060 -0.2399
 2207SOL    HW118254   0.006   2.863   4.160  1.1741 -2.2482  0.5349
 2207SOL    HW218255   4.621   2.848   4.247  0.1695  1.9852 -0.8776
 2208SOL     OW18256   3.814   0.583  17.723 -0.0970  0.2694  0.1010
 2208SOL    HW118257   3.757   0.634  17.666  2.7419  2.2601 -0.9416
 2208SOL    HW218258   3.883   0.646   0.013  1.5643 -1.0833 -1.6092
 2209SOL     OW18259   1.819   4.174   0.824  0.0538 -0.2885  0.3118
 2209SOL    HW118260   1.913   4.188   0.835 -0.2773 -1.1773  4.4742
 2209SOL    HW218261   1.783   4.234   0.889  0.4020  0.5006 -0.2272
 2210SOL     OW18262   2.673   1.252   3.096 -0.0705 -0.1452  0.0658
 2210SOL    HW118263   2.735   1.258   3.023 -0.0607 -1.8533 -0.0609
 2210SOL    HW218264   2.663   1.343   3.125 -1.1189  0.1134 -1.1044
 2211SOL     OW18265   4.272   2.061  13.906 -0.0130 -0.3844  0.1161
 2211SOL    HW118266   4.235   2.097  13.987  0.9415 -2.3585  1.4278
 2211SOL    HW218267   4.361   2.042  13.933  0.5691 -0.6372 -2.0057
 2212SOL     OW18268   4.069   1.059   2.000 -0.3707  0.2830  0.0853
 2212SOL    HW118269   4.155   1.099   1.992  1.5409 -3.4533  1.7928
 2212SOL    HW218270   4.040   1.103   2.080  2.9713  0.3878  1.2393
 2213SOL     OW18271   1.021   1.066  17.314 -0.3646  0.0678  0.0478
 2213SOL    HW118272   1.037   1.160  17.321 -0.4313  0.0704  0.1728
 2213SOL    HW218273   0.947   1.056  17.374  0.1157  1.5944  0.9073
 2214SOL     OW18274   3.560   0.800   4.768 -0.1999 -0.3543  0.2602
 2214SOL    HW118275   3.484   0.851   4.794 -0.5023  0.5520 -2.4557
 2214SOL    HW218276   3.529   0.782   4.679  1.0695 -1.4409  0.0315
 2215SOL     OW18277   3.236   4.670   5.158 -0.1067 -0.1187  0.1807
 2215SOL    HW118278   3.222   4.584   5.198 -1.7854  0.6942  1.3361
 2215SOL    HW218279   3.175   4.720   5.212  0.8275  1.5719 -0.3309
 2216SOL     OW18280   2.619   1.358  17.192  0.1712 -0.1118 -0.5338
 2216SOL    HW118281   2.561   1.410  17.137  0.3953 -1.3403 -1.9418
 2216SOL    HW218282   2.660   1.419  17.253 -0.3246 -1.1769  0.8530
 2217SOL     OW18283   1.584   3.950   2.926  0.5010 -0.3668 -0.1208
 2217SOL    HW118284   1.607   4.034   2.885  0.4112 -0.2478  0.0756
 2217SOL    HW218285   1.489   3.953   2.937  0.6789  0.2829  1.2433
 2218SOL     OW18286   2.974   2.092   3.198  0.3635 -0.1629  0.0739
 2218SOL    HW118287   2.989   2.140   3.279 -1.5252 -0.6748  0.7005
 2218SOL    HW218288   2.879   2.084   3.202  0.4436 -0.6559  0.8835
 2219SOL     OW18289   0.269   3.974   3.537 -0.4509  0.6195  0.5672
 2219SOL    HW118290   0.233   3.914   3.472  2.8659  0.2165 -0.9016
 2219SOL    HW218291   0.312   3.916   3.600 -2.4665 -1.8995 -0.3748
 2220SOL     OW18292   3.027   0.098   6.817 -0.2436 -0.6007 -0.5070
 2220SOL    HW118293   2.938   0.103   6.782  0.3733  1.4009 -1.8326
 2220SOL    HW218294   3.060   0.017   6.776 -0.6749 -0.4021 -1.2489
 2221SOL     OW18295   0.328   3.042   3.769 -0.3366  0.4263  0.4439
 2221SOL    HW118296   0.276   3.073   3.695 -0.0645 -2.8313 -1.1376
 2221SOL    HW218297   0.264   2.987   3.814 -1.7565 -1.4913 -3.9222
 2222SOL     OW18298   1.908   1.331   4.616 -0.3864 -0.5737  0.1473
 2222SOL    HW118299   2.000   1.331   4.641 -0.3653 -1.0844  0.0665
 2222SOL    HW218300   1.920   1.285   4.533  0.3123  0.7586 -0.5044
 2223SOL     OW18301   1.237   2.310   7.158 -0.8435  0.2238 -0.3182
 2223SOL    HW118302   1.243   2.229   7.108  0.3258  1.3061 -1.9184
 2223SOL    HW218303   1.313   2.354   7.120 -0.4764 -0.7846 -0.7370
 2224SOL     OW18304   3.805   4.307   7.821 -0.9879  0.2703 -0.5732
 2224SOL    HW118305   3.827   4.377   7.759 -1.5938  0.0096 -1.0786
 2224SOL    HW218306   3.710   4.316   7.827 -0.7587  3.3345 -1.2301
 2225SOL     OW18307   1.477   4.013   1.040 -0.0218  0.1239  0.7013
 2225SOL    HW118308   1.458   4.107   1.030 -2.3054 -0.1442  2.4290
 2225SOL    HW218309   1.539   4.026   1.112 -0.1243 -0.4002  0.8846
 2226SOL     OW18310   2.583   0.137   7.329 -0.3670  0.5038 -0.1141
 2226SOL    HW118311   2.670   0.100   7.348 -0.6019 -0.0039 -0.0222
 2226SOL    HW218312   2.559   0.181   7.410  0.9947  3.2385 -1.2129
 2227SOL     OW18313   2.502   0.582   5.792 -0.4019 -0.3884 -0.4852
 2227SOL    HW118314   2.477   0.662   5.839 -0.3169 -0.3892 -0.4398
 2227SOL    HW218315   2.548   0.624   5.720 -0.3428  1.6194  0.7069
 2228SOL     OW18316   3.810   2.919   0.822  0.0616 -0.2830  0.0185
 2228SOL    HW118317   3.752   2.853   0.860 -0.2700 -0.5246 -0.8906
 2228SOL    HW218318   3.785   2.988   0.883  1.2658  0.5297 -0.4057
 2229SOL     OW18319   2.631   4.561   3.987  0.0332 -0.1119  0.0810
 2229SOL    HW118320   2.703   4.620   4.008  0.0827  0.3583 -1.4303
 2229SOL    HW218321   2.667   4.472   3.986 -0.2135 -0.1927 -1.2057
 2230SOL     OW18322   2.483   1.232   0.685  0.4042 -0.5648 -0.2109
 2230SOL    HW118323   2.430   1.153   0.672 -0.6059  0.4675 -2.4448
 2230SOL    HW218324   2.438   1.297   0.631 -1.2974 -1.0948  0.5366
 2231SOL     OW18325   4.253   3.793   3.781 -0.2729  0.4349 -0.3503
 2231SOL    HW118326   4.246   3.882   3.747  0.0612  0.2937 -0.7918
 2231SOL    HW218327   4.220   3.731   3.715  3.0020 -0.9995 -0.6966
 2232SOL     OW18328   3.803   4.188  13.438  0.6227 -0.0846  0.7018
 2232SOL    HW118329   3.773   4.164  13.351  1.5096 -0.7745  0.5878
 2232SOL    HW218330   3.837   4.273  13.414 -0.5884  0.2560  0.1990
 2233SOL     OW18331   1.293   2.518  16.138 -0.9415  0.1509 -0.6841
 2233SOL    HW118332   1.328   2.460  16.070 -0.7665  1.1699 -1.4657
 2233SOL    HW218333   1.232   2.577  16.096 -0.6855 -0.7539 -2.3408
 2234SOL     OW18334   1.656   1.035   2.991 -0.0219 -0.2774 -0.3493
 2234SOL    HW118335   1.681   1.078   3.073 -1.7184  0.8099 -0.4000
 2234SOL    HW218336   1.717   1.080   2.932  1.1112  0.3583  1.2899
 2235SOL     OW18337   1.888   0.974   8.901  0.1896  0.2001  0.2981
 2235SOL    HW118338   1.863   1.053   8.949 -0.3926  1.2734 -1.7867
 2235SOL    HW218339   1.975   0.953   8.935  0.3441 -0.4996 -0.5075
 2236SOL     OW18340   4.036   0.330   7.480 -0.1039 -0.2463  0.1174
 2236SOL    HW118341   4.111   0.301   7.428 -0.6112  0.5850 -1.1067
 2236SOL    HW218342   4.065   0.303   7.566  1.1736 -0.9542 -0.5419
 2237SOL     OW18343   0.903   3.127   8.247  0.3628  0.0140  0.3413
 2237SOL    HW118344   0.949   3.066   8.305 -1.7775 -3.8882 -2.0086
 2237SOL    HW218345   0.958   3.204   8.262 -1.3529  1.1273  0.9389
 2238SOL     OW18346   2.159   1.093   2.000  0.0468  0.3994 -0.2679
 2238SOL    HW118347   2.237   1.043   2.025 -0.8400 -1.4598 -1.1491
 2238SOL    HW218348   2.188   1.183   2.009 -1.3026  1.0049 -1.9881
 2239SOL     OW18349   4.409   2.581   4.525 -0.3438 -0.4307 -0.0109
 2239SOL    HW118350   4.317   2.555   4.516 -0.6941 -0.2471  3.1439
 2239SOL    HW218351   4.435   2.518   4.457  1.2263  0.4768 -0.2540
 2240SOL     OW18352   4.660   2.018  12.569 -0.2960  0.2755  0.2695
 2240SOL    HW118353   0.006   1.974  12.536  0.9369  1.5423  1.4859
 2240SOL    HW218354   4.695   2.030  12.658 -0.5093  2.3967  0.0585
 2241SOL     OW18355   2.275   2.042   4.909  0.0965 -0.2573  0.3680
 2241SOL    HW118356   2.301   1.952   4.931  0.7931  0.3932  2.1750
 2241SOL    HW218357   2.324   2.098   4.969 -1.1217  0.6707  0.4951
 2242SOL     OW18358   4.526   3.049   2.125 -0.5918  0.6322  0.0502
 2242SOL    HW118359   4.602   2.992   2.115 -1.0982 -0.2654  1.4273
 2242SOL    HW218360   4.565   3.130   2.090  0.5916 -0.2481 -0.6619
 2243SOL     OW18361   1.198   2.408  17.233  1.1710 -0.4682  0.6590
 2243SOL    HW118362   1.167   2.330  17.279 -0.9709 -0.3868 -0.6490
 2243SOL    HW218363   1.270   2.367  17.185  2.2046  2.9202 -0.7148
 2244SOL     OW18364   0.779   0.474   9.473 -0.7077 -0.3136  0.0539
 2244SOL    HW118365   0.724   0.552   9.468 -1.4768 -0.8758 -0.3003
 2244SOL    HW218366   0.848   0.510   9.529  1.6023 -0.7658 -2.5062
 2245SOL     OW18367   3.822   2.295   6.856  0.2254 -0.4461  0.2060
 2245SOL    HW118368   3.783   2.300   6.769  2.2538 -0.4407 -0.7082
 2245SOL    HW218369   3.830   2.202   6.874  1.5963 -0.3107  0.3365
 2246SOL     OW18370   0.682   1.152   7.687  0.2997  0.0192 -0.1495
 2246SOL    HW118371   0.628   1.126   7.612  1.3632 -1.4495 -0.4038
 2246SOL    HW218372   0.640   1.094   7.751 -1.2664 -0.2015 -1.3550
 2247SOL     OW18373   4.049   1.618  13.540 -0.2422  0.8507 -0.2918
 2247SOL    HW118374   4.093   1.692  13.498 -0.1884  0.4583 -0.9202
 2247SOL    HW218375   3.956   1.631  13.519 -0.6802 -0.2023  1.0085
 2248SOL     OW18376   3.031   2.422   8.219 -0.4703 -0.1491  0.1871
 2248SOL    HW118377   3.038   2.344   8.164  2.4417 -0.2791  0.7538
 2248SOL    HW218378   3.060   2.489   8.158 -0.2988 -2.9602 -2.8444
 2249SOL     OW18379   3.437   3.903   0.395 -0.0106 -0.0693 -0.2978
 2249SOL    HW118380   3.440   3.842   0.469 -2.0713 -4.0478 -3.4848
 2249SOL    HW218381   3.425   3.838   0.326 -0.2013  0.8933 -1.1796
 2250SOL     OW18382   1.748   3.555   5.601  0.2881  0.3918  0.5650
 2250SOL    HW118383   1.753   3.639   5.647  0.4994  0.1062  1.0485
 2250SOL    HW218384   1.673   3.519   5.648 -0.4391  1.1556  0.0107
 2251SOL     OW18385   3.000   0.749   6.166  0.7074 -0.4601 -0.3694
 2251SOL    HW118386   3.050   0.831   6.159 -0.0664  0.0604  0.0939
 2251SOL    HW218387   2.920   0.788   6.202  1.0763  1.2339 -1.3999
 2252SOL     OW18388   0.198   4.156  17.287 -0.2574 -0.0260 -0.2938
 2252SOL    HW118389   0.150   4.123  17.363 -2.4973  0.4529 -1.5172
 2252SOL    HW218390   0.250   4.080  17.260 -0.1848 -0.2502  0.4797
 2253SOL     OW18391   3.165   1.664   1.954  0.2726 -0.5956  0.8241
 2253SOL    HW118392   3.099   1.710   2.006  0.1283  0.0634  0.0619
 2253SOL    HW218393   3.253   1.682   1.986  1.1072  1.2026 -2.4516
 2254SOL     OW18394   4.328   2.865   6.121  0.8992  0.5994  0.4825
 2254SOL    HW118395   4.251   2.911   6.156 -1.1520 -1.0791 -1.8152
 2254SOL    HW218396   4.296   2.826   6.040 -0.2758 -1.1376  1.7700
 2255SOL     OW18397   0.043   4.236  12.928  0.0456 -0.3669  0.0821
 2255SOL    HW118398   0.036   4.310  12.989  0.8429  0.2887 -0.6210
 2255SOL    HW218399   0.071   4.162  12.981  1.8910 -0.1593 -0.6110
 2256SOL     OW18400   2.991   4.499   7.257 -0.6914  0.2591  0.4594
 2256SOL    HW118401   3.045   4.428   7.292  0.2704  1.0413  0.5348
 2256SOL    HW218402   2.934   4.444   7.202 -1.2897  1.0204  0.3154
 2257SOL     OW18403   2.634   0.450   3.293  0.3879  0.1041 -0.0726
 2257SOL    HW118404   2.582   0.450   3.373  3.0211 -1.8629  1.6288
 2257SOL    HW218405   2.582   0.516   3.246  0.2518 -0.2479 -0.4194
 2258SOL     OW18406   4.692   2.352   9.042 -0.0379  0.1744 -0.6988
 2258SOL    HW118407   4.669   2.281   9.101 -1.1377  0.2610 -1.0190
 2258SOL    HW218408   4.669   2.433   9.088 -0.1214 -1.4922  2.1946
 2259SOL     OW18409   2.043   3.598   2.587 -0.0367 -0.6617  0.4218
 2259SOL    HW118410   2.013   3.536   2.653  0.9852 -0.9828  0.5766
 2259SOL    HW218411   2.002   3.681   2.611  1.1841 -0.0621  0.4246
 2260SOL     OW18412   3.000   2.486   5.263  0.0675 -0.1673 -0.1621
 2260SOL    HW118413   3.082   2.535   5.268  0.0961 -0.5833  3.5307
 2260SOL    HW218414   2.933   2.519   5.323 -2.6590 -1.4592 -2.4716
 2261SOL     OW18415   2.120   4.292   4.317 -0.4953 -0.0466  0.5471
 2261SOL    HW118416   2.133   4.234   4.392  1.6516 -2.4190 -1.6528
 2261SOL    HW218417   2.098   4.224   4.254  0.7233  0.0526 -0.0002
 2262SOL     OW18418   2.960   2.401   4.610  0.0290 -0.3777 -0.4221
 2262SOL    HW118419   2.943   2.327   4.669  0.4695  2.5526  3.3381
 2262SOL    HW218420   3.052   2.418   4.629  0.1100 -0.7906 -0.4435
 2263SOL     OW18421   2.419   1.184   4.704 -0.3323  0.0897  0.5254
 2263SOL    HW118422   2.399   1.183   4.611 -1.8621  2.3762  0.8359
 2263SOL    HW218423   2.490   1.120   4.710 -0.2849 -0.2639 -3.9155
 2264SOL     OW18424   4.244   4.040   3.675  0.1950  0.1396 -0.1712
 2264SOL    HW118425   4.328   4.069   3.641  0.7911 -0.2597  0.9951
 2264SOL    HW218426   4.191   4.026   3.596 -1.8671 -0.6819  1.3600
 2265SOL     OW18427   1.519   1.897   6.794 -0.1588  0.4670  0.3303
 2265SOL    HW118428   1.530   1.991   6.810  2.2706  0.2561  0.0055
 2265SOL    HW218429   1.526   1.869   6.885 -1.3237 -0.5208  0.1101
 2266SOL     OW18430   3.267   2.431   7.308 -0.4402  0.0469 -0.0083
 2266SOL    HW118431   3.290   2.516   7.270 -0.5928  0.4909  0.8874
 2266SOL    HW218432   3.346   2.378   7.300 -0.7567 -0.6064  1.1832
 2267SOL     OW18433   2.879   1.701   7.484 -0.4020 -0.1488  0.1223
 2267SOL    HW118434   2.845   1.645   7.554 -1.4560 -1.4236 -1.3931
 2267SOL    HW218435   2.841   1.652   7.411 -1.5750 -0.1401  0.7247
 2268SOL     OW18436   2.826   2.004  14.878 -0.1125  0.0868 -0.1395
 2268SOL    HW118437   2.840   1.925  14.827  1.0155  0.9841 -1.2239
 2268SOL    HW218438   2.845   2.070  14.812  0.1962 -1.0658 -1.1888
 2269SOL     OW18439   2.333   2.366  17.453 -0.3992  0.3491  0.2795
 2269SOL    HW118440   2.373   2.433  17.398  0.0727  0.3979  0.6730
 2269SOL    HW218441   2.295   2.408  17.531  0.6805  0.1189  0.9295
 2270SOL     OW18442   1.824   2.872  17.605  0.1168  0.1319  0.2760
 2270SOL    HW118443   1.750   2.846  17.661  0.1678 -1.6198 -0.4798
 2270SOL    HW218444   1.793   2.960  17.582 -0.9752 -0.2061  0.4225
 2271SOL     OW18445   2.995   0.228  14.181 -0.2836  0.1765 -0.2298
 2271SOL    HW118446   3.043   0.237  14.099 -0.9143  1.1807 -0.4846
 2271SOL    HW218447   2.994   0.132  14.188  1.5514  0.0469 -1.7701
 2272SOL     OW18448   4.061   4.105  12.634 -0.5552 -0.0621 -0.0546
 2272SOL    HW118449   4.140   4.074  12.591 -0.2723  0.0862  0.3612
 2272SOL    HW218450   3.994   4.070  12.575 -0.5709 -0.6777  0.3306
 2273SOL     OW18451   0.033   2.360   6.069 -0.0167 -0.4016 -0.1711
 2273SOL    HW118452   4.685   2.325   6.032 -0.6772  2.4002 -1.3763
 2273SOL    HW218453   0.098   2.327   6.006  1.3473  0.5827  0.7207
 2274SOL     OW18454   1.540   0.463  11.928 -0.0549 -0.3499  0.1431
 2274SOL    HW118455   1.616   0.419  11.966  0.0644 -1.2418 -1.1120
 2274SOL    HW218456   1.569   0.469  11.837 -0.4685  0.9516  0.0918
 2275SOL     OW18457   1.759   0.165   6.562 -0.1031  0.4296  0.1781
 2275SOL    HW118458   1.734   0.253   6.588 -0.3309  0.7414 -1.1079
 2275SOL    HW218459   1.671   0.126   6.555  0.1438 -0.3115  1.1661
 2276SOL     OW18460   4.413   2.468   4.267 -0.1791  0.4338 -0.7197
 2276SOL    HW118461   4.481   2.492   4.203  0.8578 -2.1254 -0.5766
 2276SOL    HW218462   4.332   2.486   4.218 -1.4662 -0.2506  1.1841
 2277SOL     OW18463   2.583   2.911   5.651 -0.3602  0.4108  0.4637
 2277SOL    HW118464   2.595   2.857   5.729 -0.9111  0.7132  0.7587
 2277SOL    HW218465   2.523   2.867   5.592 -0.3804  2.1526 -0.8264
 2278SOL     OW18466   3.719   4.386  17.339  0.5609  0.1767  0.2239
 2278SOL    HW118467   3.673   4.405  17.421  2.7903 -1.2559  1.8026
 2278SOL    HW218468   3.688   4.456  17.281 -0.6990  0.0231  0.7279
 2279SOL     OW18469   1.669   3.939   4.248  0.6178 -0.7233 -0.4017
 2279SOL    HW118470   1.628   3.914   4.330 -1.3839  0.4551 -1.0502
 2279SOL    HW218471   1.666   4.035   4.246 -0.7425 -0.7530  0.3236
 2280SOL     OW18472   3.195   0.799   8.902  0.5160  0.5820  0.3917
 2280SOL    HW118473   3.144   0.862   8.850  0.0133  0.2437  0.4800
 2280SOL    HW218474   3.121   0.745   8.928 -0.5339  0.7098 -2.2371
 2281SOL     OW18475   3.066   4.429   8.738  0.4940  0.0232  0.1272
 2281SOL    HW118476   3.130   4.368   8.701 -1.8355 -0.9372 -2.2862
 2281SOL    HW218477   2.991   4.373   8.759  0.6600 -0.0547  0.5056
 2282SOL     OW18478   2.841   2.132   5.876 -0.9056  0.1979  0.2448
 2282SOL    HW118479   2.871   2.050   5.836 -1.8533 -0.4626  0.8992
 2282SOL    HW218480   2.849   2.196   5.805  1.0067  1.4869  1.6194
 2283SOL     OW18481   0.430   1.801  10.075 -0.2756  0.0682 -0.4363
 2283SOL    HW118482   0.493   1.731  10.092  0.5356  1.6028  2.7445
 2283SOL    HW218483   0.344   1.770  10.101  0.3161 -1.5943 -0.4805
 2284SOL     OW18484   4.067   3.691   9.425  0.5995  0.5097  0.1487
 2284SOL    HW118485   4.069   3.713   9.518  2.5058  1.5303 -0.1333
 2284SOL    HW218486   4.089   3.599   9.438 -0.1180  0.4391  0.9268
 2285SOL     OW18487   2.631   1.908  14.412  0.1589 -0.2992  0.1076
 2285SOL    HW118488   2.715   1.870  14.438  0.0263 -0.7421 -0.1166
 2285SOL    HW218489   2.657   1.942  14.327 -0.3995 -1.7684 -0.6460
 2286SOL     OW18490   3.967   0.933  12.278  0.0309  0.7051  0.0381
 2286SOL    HW118491   3.890   0.885  12.248 -1.3224  2.3154  0.9428
 2286SOL    HW218492   3.989   0.874  12.350  1.7098  1.1581 -0.1006
 2287SOL     OW18493   1.508   0.219   7.687  0.4202 -0.5594 -0.3285
 2287SOL    HW118494   1.567   0.179   7.752 -0.7450 -1.7132  0.0203
 2287SOL    HW218495   1.522   0.165   7.609  1.0948 -0.7403 -0.0844
 2288SOL     OW18496   1.034   4.393   8.602 -0.3693  0.1275 -0.4634
 2288SOL    HW118497   1.019   4.485   8.581 -0.4201 -0.5348 -3.4468
 2288SOL    HW218498   1.129   4.390   8.609 -0.5415  0.8450  1.8251
 2289SOL     OW18499   4.534   0.155   2.594  0.0588  0.3370  0.3696
 2289SOL    HW118500   4.491   0.083   2.642  0.1275 -0.0374 -0.1405
 2289SOL    HW218501   4.615   0.113   2.567 -1.1703 -0.4539 -2.0639
 2290SOL     OW18502   0.553   2.809   6.263 -0.0339 -0.1049 -0.1276
 2290SOL    HW118503   0.535   2.768   6.179  0.9029 -2.4043  0.7987
 2290SOL    HW218504   0.515   2.896   6.248 -2.5084 -0.9185  1.3652
 2291SOL     OW18505   0.845   1.345  15.792  0.4336  0.1060 -0.0852
 2291SOL    HW118506   0.861   1.310  15.879 -2.1903  2.6120  1.4252
 2291SOL    HW218507   0.750   1.332  15.789  0.3394  0.7921 -0.1966
 2292SOL     OW18508   2.431   2.453   6.104  0.0491 -0.0527 -0.1792
 2292SOL    HW118509   2.479   2.370   6.108  2.6993  1.5035 -0.0608
 2292SOL    HW218510   2.409   2.453   6.011  1.8056  1.1535 -0.5983
 2293SOL     OW18511   4.127   1.895   6.929 -0.0594  0.0770  0.0830
 2293SOL    HW118512   4.169   1.877   7.014 -0.0294 -3.1884 -0.6301
 2293SOL    HW218513   4.095   1.983   6.950  1.9852  1.1368 -1.2548
 2294SOL     OW18514   3.787   1.147   7.200  0.0085  0.2094 -0.3297
 2294SOL    HW118515   3.733   1.144   7.121 -0.4097 -1.8815  0.0406
 2294SOL    HW218516   3.722   1.192   7.254 -0.3542  0.0893 -0.6718
 2295SOL     OW18517   1.460   4.632  15.750 -0.1963 -0.6816 -0.1840
 2295SOL    HW118518   1.485   4.724  15.756 -0.4801 -0.5452 -1.0691
 2295SOL    HW218519   1.440   4.614  15.842  0.3777  0.3321  0.1260
 2296SOL     OW18520   0.156   4.181  12.105 -0.8188 -0.5383 -0.3454
 2296SOL    HW118521   0.165   4.273  12.129  0.3431 -0.2612 -1.8470
 2296SOL    HW218522   0.063   4.177  12.085 -0.3667  0.8865 -2.7102
 2297SOL     OW18523   1.574   1.195   8.239  0.4703 -0.1856 -0.2166
 2297SOL    HW118524   1.627   1.242   8.303 -1.3821 -0.8293  1.7855
 2297SOL    HW218525   1.487   1.219   8.272  0.4850  0.4021 -0.6078
 2298SOL     OW18526   1.007   2.172  12.977  0.2502 -0.5838 -0.4287
 2298SOL    HW118527   1.102   2.162  12.986 -0.0822 -2.3187  1.2307
 2298SOL    HW218528   0.988   2.175  12.883 -1.2760  1.1118 -0.0589
 2299SOL     OW18529   1.753   0.519   7.453  0.6872 -0.2342  0.0147
 2299SOL    HW118530   1.832   0.555   7.413 -1.3728 -0.1459 -3.9093
 2299SOL    HW218531   1.690   0.591   7.441 -0.0354 -0.5556  1.9032
 2300SOL     OW18532   1.322   3.116   6.859 -0.2247 -0.3332 -0.0680
 2300SOL    HW118533   1.334   3.166   6.778 -0.1487 -2.4657 -1.3540
 2300SOL    HW218534   1.332   3.171   6.937 -0.0551 -1.0618  0.4243
 2301SOL     OW18535   0.755   1.722   1.583  0.5315  0.8042 -0.0930
 2301SOL    HW118536   0.823   1.763   1.529  1.2726 -0.5798 -0.2166
 2301SOL    HW218537   0.728   1.649   1.527 -2.1867 -0.4571  2.8684
 2302SOL     OW18538   3.362   0.085   1.174 -1.0355 -0.3454 -0.3122
 2302SOL    HW118539   3.305   0.150   1.215  0.0350 -0.6003  1.5915
 2302SOL    HW218540   3.363   0.118   1.084 -3.2871  1.3101  0.2718
 2303SOL     OW18541   3.397   1.175  16.718 -0.5465  0.2712 -0.0880
 2303SOL    HW118542   3.420   1.096  16.669 -2.1755  0.3837 -1.0332
 2303SOL    HW218543   3.302   1.167  16.727 -0.6979 -0.0128 -1.9825
 2304SOL     OW18544   3.821   0.172   5.696  0.2859 -0.1050  0.4453
 2304SOL    HW118545   3.901   0.206   5.735  0.6996 -1.0273  0.4014
 2304SOL    HW218546   3.824   0.201   5.605  1.3328 -0.8883  0.2418
 2305SOL     OW18547   1.803   3.431   2.456  0.2379 -0.2259 -0.0870
 2305SOL    HW118548   1.789   3.525   2.453 -0.8538 -0.3542  0.9212
 2305SOL    HW218549   1.756   3.401   2.378 -0.4213  2.1019 -0.5622
 2306SOL     OW18550   2.212   2.638   4.212  0.0521  0.0566  0.5111
 2306SOL    HW118551   2.222   2.553   4.254 -2.1109 -0.2389  0.4107
 2306SOL    HW218552   2.259   2.627   4.129  1.1909 -0.3414  1.2010
 2307SOL     OW18553   0.686   2.607   6.759  0.0897  0.4952  0.2616
 2307SOL    HW118554   0.744   2.680   6.780  0.3475  0.3697 -0.0169
 2307SOL    HW218555   0.670   2.630   6.668  1.4783  0.7490  0.0826
 2308SOL     OW18556   3.919   0.316   0.296 -0.4021  0.2788 -0.2323
 2308SOL    HW118557   3.914   0.242   0.357 -0.3943  0.3675 -0.1247
 2308SOL    HW218558   4.014   0.304   0.291 -0.5204 -0.1527 -1.3535
 2309SOL     OW18559   1.321   3.826   6.818  0.0025  0.1172 -0.3741
 2309SOL    HW118560   1.325   3.778   6.735  0.7645  1.0244 -0.8546
 2309SOL    HW218561   1.252   3.888   6.795  2.1520  1.0391 -4.3437
 2310SOL     OW18562   1.563   2.916   2.075  0.2331 -0.3536 -0.0792
 2310SOL    HW118563   1.467   2.918   2.085  0.2762 -0.6020  0.3984
 2310SOL    HW218564   1.593   2.956   2.156 -1.0824  0.0460  0.2167
 2311SOL     OW18565   2.726   0.165   3.329 -0.5826 -0.0429 -0.3356
 2311SOL    HW118566   2.798   0.156   3.267 -0.6081  1.5928 -0.6105
 2311SOL    HW218567   2.714   0.260   3.336  1.0859  0.3104 -2.3568
 2312SOL     OW18568   2.924   0.804   0.094  0.2503  0.2531  0.1418
 2312SOL    HW118569   2.854   0.798   0.158  1.3062  2.5457  1.5270
 2312SOL    HW218570   2.871   0.820   0.016  1.1316 -0.5464 -0.6228
 2313SOL     OW18571   2.574   3.610   3.161  0.1614  0.6608  0.2264
 2313SOL    HW118572   2.569   3.619   3.065  1.3508 -1.2388 -0.0195
 2313SOL    HW218573   2.644   3.672   3.183  0.8317  0.0830 -0.2467
 2314SOL     OW18574   0.683   2.849   3.656  0.4731 -0.1614  0.3759
 2314SOL    HW118575   0.639   2.847   3.572  1.4077 -3.8261 -0.0170
 2314SOL    HW218576   0.614   2.820   3.716  0.7982 -1.0175  0.3366
 2315SOL     OW18577   0.747   3.134   3.665  0.4643 -0.3068  0.0214
 2315SOL    HW118578   0.705   3.048   3.667  1.6768 -1.0139 -4.1580
 2315SOL    HW218579   0.694   3.181   3.601  1.1974 -0.6234 -0.8183
 2316SOL     OW18580   1.893   3.210   7.738  0.3769  0.2291 -0.2531
 2316SOL    HW118581   1.869   3.127   7.779  0.3842  0.7948  0.9051
 2316SOL    HW218582   1.852   3.210   7.652  2.5477 -0.1962 -1.2723
 2317SOL     OW18583   1.241   0.743  10.690 -0.0731 -0.0987  0.2145
 2317SOL    HW118584   1.296   0.819  10.710 -0.1296  0.6127 -2.3668
 2317SOL    HW218585   1.290   0.700  10.620  2.0752  1.3874  0.8167
 2318SOL     OW18586   1.000   3.407   3.461  0.1696  0.4580 -0.1103
 2318SOL    HW118587   0.990   3.482   3.402 -0.6584  0.2333 -0.2584
 2318SOL    HW218588   1.049   3.351   3.401 -1.1342 -1.3262  0.5057
 2319SOL     OW18589   0.488   2.934  12.863 -0.6668 -0.7193  0.2015
 2319SOL    HW118590   0.575   2.895  12.862 -0.9048 -1.2475  0.4972
 2319SOL    HW218591   0.452   2.883  12.935  0.9507 -0.5973  1.0966
 2320SOL     OW18592   3.033   3.583  17.113  0.4053 -0.5032 -0.2340
 2320SOL    HW118593   2.968   3.647  17.142  1.1468 -0.3974  1.1988
 2320SOL    HW218594   2.983   3.502  17.115  1.7418 -1.3168  0.8481
 2321SOL     OW18595   3.001   2.019   6.790 -0.4782 -0.2165 -0.2063
 2321SOL    HW118596   3.017   2.031   6.697  1.3151 -0.1264  0.1170
 2321SOL    HW218597   2.992   2.109   6.820  1.5143 -0.4298  1.0138
 2322SOL     OW18598   1.390   1.932   9.427 -0.4139  0.2298  0.3011
 2322SOL    HW118599   1.313   1.973   9.465 -0.9910 -0.7282  0.1523
 2322SOL    HW218600   1.424   1.874   9.495 -1.2712  1.7255  1.9818
 2323SOL     OW18601   1.282   4.171   5.730  0.5082  0.1424 -0.3546
 2323SOL    HW118602   1.200   4.219   5.722  0.9360  0.9167 -0.1069
 2323SOL    HW218603   1.343   4.234   5.691  0.3276 -0.4911 -1.6581
 2324SOL     OW18604   3.737   0.698   4.467  0.4249  0.1600  0.0142
 2324SOL    HW118605   3.703   0.634   4.530  1.7736 -1.5933 -1.0598
 2324SOL    HW218606   3.739   0.637   4.394  3.1704  0.2124  0.0603
 2325SOL     OW18607   0.718   4.706   2.567 -0.1071  0.1523  0.5893
 2325SOL    HW118608   0.782   4.717   2.496  0.4523 -1.6090  0.8337
 2325SOL    HW218609   0.701   0.068   2.579 -0.6711 -0.1371  2.0265
 2326SOL     OW18610   3.460   2.484   4.968 -0.1152 -0.2163 -0.1497
 2326SOL    HW118611   3.538   2.451   4.923  1.0219  1.2040  0.8072
 2326SOL    HW218612   3.389   2.426   4.939  0.9075 -1.6426  0.2077
 2327SOL     OW18613   1.626   0.407   6.606 -0.7114 -0.3393 -0.0051
 2327SOL    HW118614   1.631   0.497   6.573  0.8225 -0.4609 -0.1320
 2327SOL    HW218615   1.535   0.389   6.583 -0.6548 -1.5735  0.7331
 2328SOL     OW18616   3.499   0.204  17.381  0.0112 -0.3125 -0.1501
 2328SOL    HW118617   3.556   0.251  17.441 -0.2385 -1.8284  1.2842
 2328SOL    HW218618   3.415   0.247  17.399 -0.4647 -1.5736  0.6652
 2329SOL     OW18619   2.575   2.216  12.747  0.0472  0.0003  0.4053
 2329SOL    HW118620   2.619   2.134  12.724 -1.3961 -0.7620  0.3577
 2329SOL    HW218621   2.525   2.216  12.665  2.7189  1.3921 -1.1990
 2330SOL     OW18622   1.315   1.851   5.994 -0.1927 -0.2370 -0.1072
 2330SOL    HW118623   1.308   1.823   5.902  1.3700  2.0492 -0.8951
 2330SOL    HW218624   1.294   1.767   6.036  0.8798 -1.2858 -1.6632
 2331SOL     OW18625   3.457   0.331  10.825  0.0496  0.2946 -0.1274
 2331SOL    HW118626   3.369   0.301  10.848 -0.1379  1.3473  0.5341
 2331SOL    HW218627   3.460   0.281  10.744 -1.7770  1.0788 -0.6784
 2332SOL     OW18628   4.300   4.570   5.431 -0.4608  0.1626  0.1145
 2332SOL    HW118629   4.213   4.599   5.402  0.6390  0.9911 -2.4192
 2332SOL    HW218630   4.286   4.604   5.519 -2.9974  3.5369 -1.5467
 2333SOL     OW18631   4.588   4.385   8.890 -0.3558 -0.6301  0.1365
 2333SOL    HW118632   4.515   4.422   8.841  0.4552 -0.1426 -0.7147
 2333SOL    HW218633   4.614   4.466   8.935  0.2870 -0.1790 -1.0491
 2334SOL     OW18634   2.714   2.011   3.222 -0.1619  0.0698 -0.2572
 2334SOL    HW118635   2.692   1.956   3.147 -0.9782  0.8443 -0.5870
 2334SOL    HW218636   2.627   2.024   3.260 -1.2133 -1.1137 -2.2490
 2335SOL     OW18637   2.358   3.797   3.621 -0.2798 -0.3185  0.0840
 2335SOL    HW118638   2.315   3.853   3.686  0.1303 -0.4074  0.4303
 2335SOL    HW218639   2.285   3.743   3.590  1.6794 -1.4865 -2.4754
 2336SOL     OW18640   1.061   0.844   2.827 -0.3100  0.3870 -0.3352
 2336SOL    HW118641   0.976   0.807   2.802  0.7782 -2.4329  0.0986
 2336SOL    HW218642   1.051   0.935   2.798 -1.4302  0.3333 -0.1186
 2337SOL     OW18643   2.557   4.615   5.380 -0.1334 -0.2243  0.1574
 2337SOL    HW118644   2.625   4.677   5.355  0.8712 -1.3831  0.0028
 2337SOL    HW218645   2.500   4.626   5.304  0.1245  0.0942  0.0095
 2338SOL     OW18646   2.372   0.346  14.518 -0.1969  0.6226  0.4109
 2338SOL    HW118647   2.401   0.265  14.475  2.0159  1.4121  0.4226
 2338SOL    HW218648   2.299   0.323  14.577 -0.2092 -0.6198 -0.0726
 2339SOL     OW18649   1.507   1.082   2.029 -0.7559 -0.6118  0.7655
 2339SOL    HW118650   1.561   1.086   2.108  1.0248 -0.5523 -0.4620
 2339SOL    HW218651   1.422   1.116   2.057 -0.1145  0.3148  1.5957
 2340SOL     OW18652   4.514   4.520   2.743  0.3170 -0.0597 -0.1617
 2340SOL    HW118653   4.445   4.565   2.693 -0.2724 -2.3652 -1.4303
 2340SOL    HW218654   4.555   4.461   2.680  1.1130  1.1871 -0.8292
 2341SOL     OW18655   0.124   1.088   9.948 -0.0874 -0.2945  0.7520
 2341SOL    HW118656   0.199   1.147   9.957  1.1092 -1.3955 -1.8418
 2341SOL    HW218657   0.058   1.145   9.909 -0.9832 -1.2551  0.8900
 2342SOL     OW18658   3.482   1.577   8.157 -0.1757  0.2327  0.3555
 2342SOL    HW118659   3.465   1.611   8.245 -1.9376  0.2872 -0.0031
 2342SOL    HW218660   3.576   1.575   8.141 -0.2791  0.6142 -0.2596
 2343SOL     OW18661   1.732   1.514   2.771  0.7514 -0.3152 -0.1068
 2343SOL    HW118662   1.818   1.486   2.739  0.5643 -1.3982  0.3648
 2343SOL    HW218663   1.764   1.603   2.789  0.5369  0.0858 -1.6735
 2344SOL     OW18664   1.267   3.304   7.282 -0.6786 -0.3948 -0.1529
 2344SOL    HW118665   1.354   3.270   7.304 -0.5620 -0.4443 -0.6912
 2344SOL    HW218666   1.249   3.353   7.362  1.5450  1.4030 -0.7506
 2345SOL     OW18667   3.864   3.559   9.718 -0.3674  0.1949  0.7357
 2345SOL    HW118668   3.821   3.473   9.715 -0.6177  0.4484 -2.8814
 2345SOL    HW218669   3.785   3.612   9.707  0.1133  0.4654 -1.3820
 2346SOL     OW18670   0.688   3.790  16.620  0.0277  0.4555  0.3937
 2346SOL    HW118671   0.733   3.746  16.548 -0.8945 -2.1839  1.4209
 2346SOL    HW218672   0.677   3.877  16.580  0.3824  1.0095  1.5019
 2347SOL     OW18673   1.236   0.096   8.577  0.0959 -0.1926 -0.6116
 2347SOL    HW118674   1.227   0.055   8.663  2.1563 -1.1936 -0.8689
 2347SOL    HW218675   1.285   0.025   8.535  1.4566  0.4508 -0.1128
 2348SOL     OW18676   0.754   2.958  14.340  0.2175 -0.1410 -0.6435
 2348SOL    HW118677   0.782   3.018  14.410  3.5809 -0.4359 -1.7510
 2348SOL    HW218678   0.817   2.980  14.271 -0.6371 -0.5646 -1.5502
 2349SOL     OW18679   0.709   3.714  15.508  0.3388 -0.1318  0.2054
 2349SOL    HW118680   0.712   3.621  15.486  0.1496  0.7187 -3.3527
 2349SOL    HW218681   0.787   3.748  15.464  1.6176 -2.5179  0.6394
 2350SOL     OW18682   4.135   2.641  13.061  0.2066 -0.8166 -0.0523
 2350SOL    HW118683   4.159   2.716  13.116  3.2967 -0.8621 -1.2921
 2350SOL    HW218684   4.087   2.578  13.114 -1.3723  0.1667 -0.3344
 2351SOL     OW18685   0.909   0.823   3.936 -0.3238  0.1560  0.0118
 2351SOL    HW118686   0.923   0.781   3.851  2.8645  1.5434 -0.1533
 2351SOL    HW218687   0.844   0.889   3.912 -0.5939 -0.0438  0.1964
 2352SOL     OW18688   0.906   4.671   7.811  0.2018  0.3744  0.0788
 2352SOL    HW118689   0.878   4.640   7.726 -0.9579 -0.1891  0.6772
 2352SOL    HW218690   0.953   0.021   7.795  0.2900 -0.2729 -2.8627
 2353SOL     OW18691   0.598   0.436   8.300  0.2722 -1.0347 -0.3754
 2353SOL    HW118692   0.558   0.503   8.356  0.1874 -2.3352  1.1184
 2353SOL    HW218693   0.661   0.395   8.359  3.0667  2.5951 -0.8902
 2354SOL     OW18694   3.163   1.119  10.409  0.0118 -0.0196  0.2465
 2354SOL    HW118695   3.212   1.038  10.392  1.5385  1.2036 -1.0844
 2354SOL    HW218696   3.072   1.102  10.381  0.1448 -1.4291  0.6821
 2355SOL     OW18697   4.273   1.233   1.436  0.4394  0.0020 -0.8403
 2355SOL    HW118698   4.236   1.148   1.461  1.5270 -0.7071 -1.6345
 2355SOL    HW218699   4.240   1.241   1.347 -1.1475 -0.1256 -0.2719
 2356SOL     OW18700   4.352   2.923   3.223  0.0355  0.4543  0.4874
 2356SOL    HW118701   4.404   2.976   3.163 -0.4501  0.3309 -0.0401
 2356SOL    HW218702   4.418   2.860   3.253 -1.3074 -1.0745  0.2571
 2357SOL     OW18703   1.178   3.913  12.996 -0.2529  0.0437 -0.2031
 2357SOL    HW118704   1.255   3.957  12.960  1.7754 -2.9362  0.4875
 2357SOL    HW218705   1.115   3.978  13.029 -0.7724 -0.8056  0.4612
 2358SOL     OW18706   1.887   0.830   7.843 -0.3459 -0.3205 -0.3058
 2358SOL    HW118707   1.833   0.760   7.808  0.3503 -1.5159  0.9903
 2358SOL    HW218708   1.964   0.827   7.787  0.8836 -1.2654  1.4396
 2359SOL     OW18709   3.305   3.424   7.019 -0.9370  0.2123 -0.5302
 2359SOL    HW118710   3.227   3.408   6.966 -0.1603 -1.4379 -1.1774
 2359SOL    HW218711   3.275   3.502   7.064 -0.6784 -1.0118  1.7358
 2360SOL     OW18712   3.079   2.488   6.126  0.2786  0.0938  0.1263
 2360SOL    HW118713   3.128   2.423   6.075 -0.4488 -1.1623  1.0160
 2360SOL    HW218714   3.147   2.538   6.171  1.1255  0.0072 -1.0642
 2361SOL     OW18715   2.008   3.894  11.246  0.6116  0.1883  0.9384
 2361SOL    HW118716   1.948   3.820  11.253 -1.1137  1.5316  0.5847
 2361SOL    HW218717   1.997   3.907  11.151  2.4477 -0.8348  0.5911
 2362SOL     OW18718   1.086   0.331   9.569 -0.7075  0.4318  0.2042
 2362SOL    HW118719   1.145   0.329   9.493 -1.6008 -3.1049 -0.3717
 2362SOL    HW218720   1.040   0.415   9.577 -1.1007  0.3734 -1.4311
 2363SOL     OW18721   0.132   3.625   7.805  0.0528  0.1238 -0.1450
 2363SOL    HW118722   0.113   3.536   7.832  3.2208 -0.1986  0.9908
 2363SOL    HW218723   0.086   3.687   7.862 -0.3208 -0.2928  0.0054
 2364SOL     OW18724   1.628   4.278   9.021  0.6006  0.0348  0.0934
 2364SOL    HW118725   1.654   4.187   9.007  1.4303  0.7874 -3.1747
 2364SOL    HW218726   1.616   4.275   9.116  3.0969  3.9224  0.5287
 2365SOL     OW18727   2.790   2.003   7.935  0.0053  0.1778 -0.2887
 2365SOL    HW118728   2.760   1.912   7.937  0.5084 -0.0348 -1.8929
 2365SOL    HW218729   2.882   1.984   7.915 -0.1329  0.5223 -1.2524
 2366SOL     OW18730   2.948   3.182   4.582 -0.5202 -0.3666 -0.6756
 2366SOL    HW118731   2.914   3.152   4.666  4.6027 -3.0803  0.4717
 2366SOL    HW218732   3.037   3.148   4.595 -0.7018  0.2408  2.1163
 2367SOL     OW18733   3.858   1.667   1.223  0.0264  0.2670 -0.3457
 2367SOL    HW118734   3.950   1.689   1.239 -0.6343  1.0998  2.3680
 2367SOL    HW218735   3.807   1.741   1.256 -0.0206  0.9921 -2.0219
 2368SOL     OW18736   1.893   4.450   6.171  0.3463  0.1817 -0.1012
 2368SOL    HW118737   1.946   4.516   6.215  1.5212 -1.1081  0.4019
 2368SOL    HW218738   1.949   4.421   6.099 -0.6999  0.4971 -1.0462
 2369SOL     OW18739   0.003   3.522   4.216 -0.2158 -0.3699 -0.7106
 2369SOL    HW118740   4.703   3.575   4.143 -1.1827  0.7509  0.5587
 2369SOL    HW218741   0.000   3.580   4.292  0.4783 -1.5797  0.2389
 2370SOL     OW18742   0.970   0.987  14.455 -0.5011 -0.2034  0.5180
 2370SOL    HW118743   0.906   0.928  14.413 -0.1630 -0.0116 -0.2539
 2370SOL    HW218744   0.929   1.020  14.535 -1.3018  0.6348 -0.2437
 2371SOL     OW18745   3.324   2.486  13.580 -0.3178 -0.2490 -0.0856
 2371SOL    HW118746   3.312   2.545  13.655 -0.7653 -1.5976  0.8998
 2371SOL    HW218747   3.378   2.418  13.620  1.4990  1.1092 -0.1644
 2372SOL     OW18748   2.191   0.697   3.885 -0.1180  0.1282 -0.3367
 2372SOL    HW118749   2.200   0.675   3.977 -3.3714  0.0723 -0.0374
 2372SOL    HW218750   2.240   0.628   3.840  0.8099 -0.4495  1.5646
 2373SOL     OW18751   3.471   2.902   2.101 -0.8027  0.3843  0.8112
 2373SOL    HW118752   3.460   2.997   2.093 -1.5098  0.2671  0.3623
 2373SOL    HW218753   3.551   2.892   2.049 -1.5539 -1.2603 -0.0042
 2374SOL     OW18754   0.392   0.508   9.713  0.1453 -0.0988 -0.2397
 2374SOL    HW118755   0.308   0.468   9.691 -0.8226  0.6221  2.2040
 2374SOL    HW218756   0.454   0.440   9.688  0.5295 -0.1025  0.7363
 2375SOL     OW18757   1.920   2.200   5.960 -0.7671 -0.7694 -0.0613
 2375SOL    HW118758   1.935   2.109   5.936  0.4142 -0.9413  1.3706
 2375SOL    HW218759   1.834   2.179   5.998 -0.4780 -0.9279  0.5002
 2376SOL     OW18760   2.007   4.723  16.230  0.4298 -0.1281 -0.1346
 2376SOL    HW118761   2.021   0.062  16.293  1.8119 -1.3355  0.9109
 2376SOL    HW218762   2.096   4.688  16.221  0.3824 -0.0453 -0.9095
 2377SOL     OW18763   4.515   4.069   4.963  0.3950 -0.3433 -0.0380
 2377SOL    HW118764   4.477   4.157   4.962  2.1321  0.4027 -1.5983
 2377SOL    HW218765   4.438   4.013   4.957 -0.7214  0.9877  1.9463
 2378SOL     OW18766   4.247   1.249  14.128  0.5539  0.5574  0.1847
 2378SOL    HW118767   4.230   1.333  14.084  1.1797 -0.3148 -1.7119
 2378SOL    HW218768   4.199   1.257  14.211  0.6443  1.6595  0.1353
 2379SOL     OW18769   4.004   2.620   8.247 -0.5024 -0.2474 -0.0023
 2379SOL    HW118770   4.059   2.617   8.326  2.8459 -1.0445 -2.4061
 2379SOL    HW218771   3.916   2.609   8.285  0.1989 -1.3381  1.3148
 2380SOL     OW18772   1.952   3.402   3.975 -0.5198  0.0625 -0.0745
 2380SOL    HW118773   1.892   3.392   3.902  0.9375  2.1680 -1.5420
 2380SOL    HW218774   1.944   3.318   4.021 -0.4085  0.5384  0.8107
 2381SOL     OW18775   0.944   1.400  12.352  0.7523  0.4720  0.0958
 2381SOL    HW118776   0.909   1.443  12.274 -0.5553 -0.1848  0.3129
 2381SOL    HW218777   0.865   1.355  12.382  1.9670 -0.6510  1.5565
 2382SOL     OW18778   1.324   1.702   4.546 -0.2611 -0.5013  0.0591
 2382SOL    HW118779   1.368   1.659   4.619 -0.9379 -0.8230  0.2771
 2382SOL    HW218780   1.301   1.787   4.583  0.1725 -0.4516  0.2143
 2383SOL     OW18781   4.060   0.457  13.550 -0.3031 -0.0149  0.4199
 2383SOL    HW118782   4.018   0.438  13.634  2.1061 -2.1939  1.1397
 2383SOL    HW218783   4.141   0.495  13.585  0.3973 -1.1548  0.0574
 2384SOL     OW18784   3.096   3.811   2.065 -0.3278  0.1680 -0.1455
 2384SOL    HW118785   3.087   3.868   2.141  0.4678 -0.0222  0.0917
 2384SOL    HW218786   3.091   3.881   2.000 -1.0433  1.7525  1.6250
 2385SOL     OW18787   0.158   2.178   4.374  0.2233 -0.7463  0.4938
 2385SOL    HW118788   0.175   2.160   4.282 -0.9561 -0.6393  0.2548
 2385SOL    HW218789   0.070   2.217   4.373  0.2173 -0.8682 -2.0550
 2386SOL     OW18790   2.426   3.399   7.582  0.2494 -0.1719  0.4306
 2386SOL    HW118791   2.517   3.410   7.552  0.7296  0.4646  2.1196
 2386SOL    HW218792   2.410   3.309   7.554 -0.1958 -0.7331  2.4436
 2387SOL     OW18793   3.267   3.257   8.086  0.3638 -0.0037 -0.0143
 2387SOL    HW118794   3.314   3.175   8.073 -0.2277 -0.6961  2.2672
 2387SOL    HW218795   3.215   3.272   8.007 -0.4277  3.3806  1.1476
 2388SOL     OW18796   2.360   1.746   0.214  0.0315 -0.2522 -0.6151
 2388SOL    HW118797   2.452   1.772   0.227 -0.0358 -0.7739  0.8232
 2388SOL    HW218798   2.373   1.678   0.148  1.3675 -0.7741  0.1834
 2389SOL     OW18799   2.871   4.322  11.842  0.1110  0.0234  0.7309
 2389SOL    HW118800   2.899   4.243  11.797 -2.1911 -1.6094  2.1719
 2389SOL    HW218801   2.796   4.338  11.784 -0.0079 -0.3201  0.7910
 2390SOL     OW18802   3.543   0.301   8.932  0.4284 -0.5108  0.5198
 2390SOL    HW118803   3.525   0.353   8.854 -1.6274  0.1020  1.4128
 2390SOL    HW218804   3.529   0.212   8.899  0.9424 -0.4124  0.0240
 2391SOL     OW18805   4.642   0.883   0.619  0.4927 -0.1596 -0.0674
 2391SOL    HW118806   4.701   0.820   0.660 -0.5165  0.5652  2.5027
 2391SOL    HW218807   4.581   0.823   0.576 -0.2060 -0.4177  1.2690
 2392SOL     OW18808   3.156   2.730  11.066  0.2745 -0.3518 -0.5354
 2392SOL    HW118809   3.220   2.664  11.093  0.8088  0.8273  1.0915
 2392SOL    HW218810   3.134   2.690  10.982 -4.0113 -1.1143  0.9906
 2393SOL     OW18811   4.593   2.919  16.606  0.2146  0.1053 -0.0073
 2393SOL    HW118812   4.505   2.897  16.575  0.7248 -1.5304 -0.3072
 2393SOL    HW218813   4.650   2.889  16.535  0.7096 -1.8779  1.2238
 2394SOL     OW18814   1.589   4.402   3.505  0.4411  0.1920 -1.2394
 2394SOL    HW118815   1.635   4.358   3.576 -1.5766 -1.6489 -1.0712
 2394SOL    HW218816   1.506   4.356   3.489  0.2340  0.4977 -1.0514
 2395SOL     OW18817   1.293   1.657   4.842  0.2027  0.4188 -0.3266
 2395SOL    HW118818   1.349   1.596   4.794  1.4712  0.8555  0.5957
 2395SOL    HW218819   1.344   1.660   4.923 -0.3022 -0.2952  0.0203
 2396SOL     OW18820   3.376   1.681   3.089 -0.2469 -0.3220 -0.0324
 2396SOL    HW118821   3.316   1.750   3.061 -1.2569 -0.2045  2.5109
 2396SOL    HW218822   3.317   1.617   3.127 -0.1348 -1.0869 -1.1352
 2397SOL     OW18823   2.861   3.162   3.164  0.1205  0.0146 -0.3773
 2397SOL    HW118824   2.859   3.084   3.109  0.3096  0.4334 -0.9833
 2397SOL    HW218825   2.792   3.141   3.227  0.6915  0.3678  0.3645
 2398SOL     OW18826   1.208   2.532   5.866  0.1761 -0.1124  0.5484
 2398SOL    HW118827   1.282   2.592   5.857 -2.0894  2.2961 -2.1463
 2398SOL    HW218828   1.187   2.557   5.956 -0.3361  0.5552  0.2518
 2399SOL     OW18829   3.666   0.349  17.554  0.0992  0.0621  0.1999
 2399SOL    HW118830   3.704   0.337  17.640  2.8949  2.6202 -0.6757
 2399SOL    HW218831   3.740   0.346  17.493 -0.8103 -3.3276 -0.7676
 2400SOL     OW18832   4.685   2.546   7.460 -0.0295  0.3630  0.0675
 2400SOL    HW118833   4.642   2.584   7.383  0.1163 -3.0217 -1.7159
 2400SOL    HW218834   4.678   2.458   7.423  1.0497 -0.2387  1.3020
 2401SOL     OW18835   2.906   2.000   5.334 -0.0144  0.1779 -0.0124
 2401SOL    HW118836   2.973   1.954   5.284 -1.4514 -1.7557 -0.1551
 2401SOL    HW218837   2.952   2.084   5.341 -0.9563  0.7144 -0.2138
 2402SOL     OW18838   0.207   4.719   2.809 -0.2559 -0.0378  0.9997
 2402SOL    HW118839   0.281   4.674   2.849  0.2583  0.6583  0.8403
 2402SOL    HW218840   0.129   4.670   2.834 -0.3193  0.0166  0.9097
 2403SOL     OW18841   3.364   1.024  17.285  0.5474  0.7681 -0.3885
 2403SOL    HW118842   3.401   0.946  17.326 -0.5194  0.4976  0.0695
 2403SOL    HW218843   3.442   1.079  17.285  1.1572 -0.0852 -1.1235
 2404SOL     OW18844   0.459   3.331  16.823 -0.0317  0.1655  0.1100
 2404SOL    HW118845   0.387   3.271  16.808  0.3249 -0.8514  2.4858
 2404SOL    HW218846   0.530   3.270  16.844 -0.4665 -0.0862  0.8317
 2405SOL     OW18847   1.752   0.054   3.053  0.2614  0.3156 -0.4280
 2405SOL    HW118848   1.806   0.120   3.009 -0.7638  1.3146 -0.1836
 2405SOL    HW218849   1.805   0.044   3.132 -0.6087 -1.8763 -0.1264
 2406SOL     OW18850   3.999   3.517   7.645  0.4555 -0.2197  0.6867
 2406SOL    HW118851   4.014   3.427   7.614  1.6246  1.0919 -2.5832
 2406SOL    HW218852   3.914   3.502   7.686  0.8651 -1.5600  1.0743
 2407SOL     OW18853   0.004   0.370  12.795  0.4025 -0.0142  0.3774
 2407SOL    HW118854   4.690   0.435  12.848  1.4504  0.7834  0.3196
 2407SOL    HW218855   0.047   0.428  12.732  0.1712  0.1875  0.4029
 2408SOL     OW18856   0.958   0.927   6.166  0.2346  0.4190  0.6643
 2408SOL    HW118857   0.926   0.895   6.251  0.3791 -0.8814  0.2286
 2408SOL    HW218858   1.051   0.941   6.181  0.0797  0.6845  1.3791
 2409SOL     OW18859   0.658   4.230   5.736 -0.1918 -0.3693  0.0618
 2409SOL    HW118860   0.591   4.260   5.798 -0.9356 -0.1382 -0.8465
 2409SOL    HW218861   0.648   4.300   5.672 -1.3089  0.6329  1.3324
 2410SOL     OW18862   4.709   4.221   7.774 -0.0374  0.2209  0.2129
 2410SOL    HW118863   4.665   4.285   7.718 -0.7761 -0.4294  0.0399
 2410SOL    HW218864   0.025   4.280   7.831 -0.5500 -0.3558  1.2434
 2411SOL     OW18865   3.420   3.741   2.902  0.7590  0.3053  0.9246
 2411SOL    HW118866   3.400   3.805   2.971 -0.3349  0.9598  0.0104
 2411SOL    HW218867   3.329   3.732   2.872  1.2060  0.5454 -0.5076
 2412SOL     OW18868   1.917   4.669   3.565  0.4718  0.2276 -0.4906
 2412SOL    HW118869   1.988   4.723   3.598  0.6373 -0.9396  1.0821
 2412SOL    HW218870   1.889   4.620   3.643  2.5000 -0.6643 -0.3254
 2413SOL     OW18871   3.704   4.113  16.822  0.1117 -0.3512 -0.0454
 2413SOL    HW118872   3.740   4.201  16.819  0.6090 -0.5375  0.3577
 2413SOL    HW218873   3.749   4.085  16.743 -0.0235  1.9217 -0.9144
 2414SOL     OW18874   2.697   4.479   8.577  0.4857 -0.0219  0.1011
 2414SOL    HW118875   2.770   4.417   8.569 -1.1790 -1.9404 -0.3568
 2414SOL    HW218876   2.657   4.444   8.657  0.1790  0.5480  0.1949
 2415SOL     OW18877   4.443   4.220  10.738  0.1644 -0.3934 -0.3171
 2415SOL    HW118878   4.417   4.313  10.737 -1.9144 -0.9970 -2.7502
 2415SOL    HW218879   4.536   4.221  10.717  0.4500 -1.1121  0.9695
 2416SOL     OW18880   2.708   2.629   2.560 -0.1751 -0.1104 -0.1701
 2416SOL    HW118881   2.693   2.653   2.468  1.1188  0.9598 -0.0980
 2416SOL    HW218882   2.667   2.544   2.573  2.5846 -1.5492 -0.9962
 2417SOL     OW18883   2.502   0.466   8.806 -0.2089 -0.1869  0.6455
 2417SOL    HW118884   2.444   0.494   8.735  0.3920 -0.0708  0.2009
 2417SOL    HW218885   2.527   0.382   8.768  1.0853 -0.4313  2.0143
 2418SOL     OW18886   1.296   3.350   1.085  0.1008  0.4884 -0.0968
 2418SOL    HW118887   1.268   3.439   1.068  4.3628  1.9054  0.2345
 2418SOL    HW218888   1.298   3.317   0.995  0.5309  0.4125 -0.0601
 2419SOL     OW18889   0.061   3.173  12.397  0.1254 -0.3542  0.0151
 2419SOL    HW118890   0.025   3.230  12.465  0.0539 -0.6306  0.2058
 2419SOL    HW218891   4.725   3.107  12.393  0.2158 -0.4984  0.9671
 2420SOL     OW18892   3.377   3.061   4.218 -0.3730 -0.0471  0.0782
 2420SOL    HW118893   3.358   3.130   4.154  2.6607 -0.5937 -1.3911
 2420SOL    HW218894   3.318   3.081   4.291  0.0001 -0.6363  0.5381
 2421SOL     OW18895   2.420   3.376   2.607 -0.0449 -0.4142  0.0808
 2421SOL    HW118896   2.332   3.346   2.632 -0.1860 -1.4050 -1.6435
 2421SOL    HW218897   2.471   3.380   2.688  0.7332  0.6846 -0.4608
 2422SOL     OW18898   0.022   4.556  13.853 -0.0988 -0.0238  0.2941
 2422SOL    HW118899   0.022   4.461  13.837  1.4271  0.0710 -0.2983
 2422SOL    HW218900   0.055   4.547  13.942  1.4348  0.4836 -0.2180
 2423SOL     OW18901   0.081   3.177  12.135  0.3117  0.0878  0.2261
 2423SOL    HW118902   0.090   3.082  12.122 -0.8019  0.1985 -1.3373
 2423SOL    HW218903   0.109   3.188  12.226 -0.6429  1.3877  0.3554
 2424SOL     OW18904   0.062   3.476   4.530 -0.0544 -1.0151 -0.1694
 2424SOL    HW118905   0.146   3.514   4.507 -0.8746  0.4395 -0.7472
 2424SOL    HW218906   0.047   3.508   4.619  1.6977  1.3552 -0.7267
 2425SOL     OW18907   3.313   0.367   5.535 -0.7657 -0.0156 -0.6155
 2425SOL    HW118908   3.374   0.293   5.527 -0.1158  0.7916 -3.2435
 2425SOL    HW218909   3.339   0.408   5.617  1.9523 -0.1519 -1.4119
 2426SOL     OW18910   3.743   1.389   1.787 -0.1603  0.2862  0.3849
 2426SOL    HW118911   3.763   1.338   1.865  0.3482 -0.4766 -0.2453
 2426SOL    HW218912   3.828   1.393   1.744 -0.4120  0.3010 -0.1149
 2427SOL     OW18913   1.597   0.416   8.095 -0.3944  0.5989  0.3168
 2427SOL    HW118914   1.544   0.386   8.169 -0.4411  0.8977  0.4071
 2427SOL    HW218915   1.631   0.496   8.136  1.1695  1.2299 -2.1947
 2428SOL     OW18916   3.494   1.440   5.608 -0.0778  0.0972  0.0901
 2428SOL    HW118917   3.408   1.452   5.648  1.5097 -0.7073  3.7515
 2428SOL    HW218918   3.550   1.452   5.685 -1.5836  0.2124  1.1724
 2429SOL     OW18919   1.069   2.137   2.381  0.0756  0.7870 -0.4996
 2429SOL    HW118920   1.047   2.046   2.399  2.0191  0.2185 -0.9426
 2429SOL    HW218921   1.145   2.142   2.322  1.4531  2.3541  1.3826
 2430SOL     OW18922   3.230   0.595   8.308  0.1277 -0.2890  0.7064
 2430SOL    HW118923   3.250   0.502   8.322  0.0467 -0.4711 -0.3911
 2430SOL    HW218924   3.215   0.622   8.398 -0.3032  0.3920  0.4245
 2431SOL     OW18925   1.810   1.752  13.514  0.3432 -0.0293  0.1328
 2431SOL    HW118926   1.797   1.708  13.598  0.3765 -2.3428 -1.0443
 2431SOL    HW218927   1.808   1.845  13.536 -0.4736 -0.7397  3.0435
 2432SOL     OW18928   3.618   0.042  16.547 -0.4334 -0.1647  0.1258
 2432SOL    HW118929   3.576   0.048  16.462 -0.0841 -0.9984 -0.1088
 2432SOL    HW218930   3.544   0.042  16.608 -0.1759 -2.8760  0.4692
 2433SOL     OW18931   0.236   3.162   4.470  0.0015  0.2567 -0.2181
 2433SOL    HW118932   0.270   3.171   4.559 -0.1416  2.4624 -0.3811
 2433SOL    HW218933   0.297   3.225   4.430 -0.0771  0.7465  0.4355
 2434SOL     OW18934   4.011   4.417   7.055 -0.4478 -0.2006 -0.0712
 2434SOL    HW118935   3.979   4.373   6.976  0.6788  0.4750 -0.9048
 2434SOL    HW218936   3.957   4.496   7.052  0.5622  0.4943  0.3170
 2435SOL     OW18937   3.374   0.382   8.028 -0.0566 -0.1748 -0.0604
 2435SOL    HW118938   3.441   0.448   8.012  0.2301 -1.0819 -2.5225
 2435SOL    HW218939   3.400   0.328   7.954  1.1453 -2.3383  1.9209
 2436SOL     OW18940   1.971   0.913   1.827  0.0434  0.3147  0.2761
 2436SOL    HW118941   1.895   0.971   1.825 -2.2606 -2.6880  0.9210
 2436SOL    HW218942   2.030   0.978   1.866 -0.5797  1.0989 -0.0894
 2437SOL     OW18943   1.952   1.174  10.305  0.2845  0.1528  0.4404
 2437SOL    HW118944   1.890   1.140  10.241  0.9511  1.4992 -0.9002
 2437SOL    HW218945   1.941   1.269  10.297 -1.4696 -0.2030 -1.1412
 2438SOL     OW18946   0.364   1.579   3.810  0.2332  0.3079 -0.5028
 2438SOL    HW118947   0.422   1.511   3.774  0.3645 -0.1324  0.5304
 2438SOL    HW218948   0.383   1.567   3.903 -2.2780 -2.9489 -0.3853
 2439SOL     OW18949   2.855   0.799  13.638 -0.8134 -0.4003  0.3541
 2439SOL    HW118950   2.818   0.738  13.702  1.8180  0.5454  2.7850
 2439SOL    HW218951   2.907   0.855  13.696  0.0391  2.0306 -2.7625
 2440SOL     OW18952   4.010   0.618   9.856 -0.3092 -0.0184 -0.2873
 2440SOL    HW118953   3.975   0.548   9.801 -0.0863 -0.0283 -0.4175
 2440SOL    HW218954   3.950   0.692   9.849 -1.2283 -0.6379  1.2025
 2441SOL     OW18955   3.209   0.114   3.497  0.2826 -0.1882 -0.0388
 2441SOL    HW118956   3.274   0.164   3.548  0.8080 -0.7357 -0.1662
 2441SOL    HW218957   3.263   0.074   3.429 -0.8685 -2.7868  0.5666
 2442SOL     OW18958   0.413   1.222   7.251 -0.1026 -0.0548  0.2334
 2442SOL    HW118959   0.391   1.129   7.239 -1.9444  0.0815  2.6953
 2442SOL    HW218960   0.399   1.245   7.159 -0.3329  2.0414  0.8046
 2443SOL     OW18961   3.101   4.412   7.691  0.1396  0.4213  0.9995
 2443SOL    HW118962   3.021   4.398   7.742 -0.2532  0.1687  0.3219
 2443SOL    HW218963   3.143   4.326   7.699  0.0275  0.3508  0.8367
 2444SOL     OW18964   4.732   2.539   2.072  0.2638 -0.3620  0.3046
 2444SOL    HW118965   0.054   2.614   2.049  1.2706 -1.9900 -2.5732
 2444SOL    HW218966   4.667   2.551   2.003 -0.7073 -1.9156  0.9381
 2445SOL     OW18967   4.721   3.452  11.357  0.0112  0.2699  0.2439
 2445SOL    HW118968   0.024   3.477  11.443  0.7291  1.1475 -0.3134
 2445SOL    HW218969   4.649   3.514  11.344 -0.9716 -0.4510  2.1447
 2446SOL     OW18970   3.290   0.115   4.951 -0.0730  0.3280  0.5574
 2446SOL    HW118971   3.266   0.051   5.017 -0.4722 -0.8656 -0.7649
 2446SOL    HW218972   3.318   0.194   4.998  1.7795  1.5926 -2.6513
 2447SOL     OW18973   1.095   4.546   5.160  0.4288  0.0496 -0.4757
 2447SOL    HW118974   1.116   4.635   5.131 -0.4886  0.8511  1.3837
 2447SOL    HW218975   1.021   4.558   5.219  1.1952  0.5262  0.4037
 2448SOL     OW18976   2.220   2.570  14.534 -0.4366  0.4926 -0.1894
 2448SOL    HW118977   2.254   2.532  14.453  1.5676 -1.3903  1.5544
 2448SOL    HW218978   2.300   2.588  14.584  0.1218 -0.1719 -0.8388
 2449SOL     OW18979   0.730   0.670   7.130 -0.3060  0.1319 -0.2228
 2449SOL    HW118980   0.650   0.632   7.165 -0.4036  1.8076  1.3702
 2449SOL    HW218981   0.735   0.643   7.039 -0.5421  0.3712 -0.3053
 2450SOL     OW18982   1.556   3.702   1.858 -0.0980  0.3651  0.8385
 2450SOL    HW118983   1.548   3.609   1.881  0.9221  0.1748  0.4225
 2450SOL    HW218984   1.574   3.694   1.764  0.0308  1.0376  0.8065
 2451SOL     OW18985   0.878   1.775   2.876  0.0955 -0.2611  0.9986
 2451SOL    HW118986   0.811   1.707   2.870  1.0148 -0.8432 -2.5297
 2451SOL    HW218987   0.952   1.717   2.860 -0.0602 -0.3132  0.4752
 2452SOL     OW18988   1.326   0.320   6.294 -0.4413 -0.1405 -0.2255
 2452SOL    HW118989   1.411   0.281   6.275 -0.3225 -0.5939  1.2550
 2452SOL    HW218990   1.280   0.269   6.227 -0.5636  1.2666 -1.1952
 2453SOL     OW18991   1.050   1.407   4.573  0.3676  0.3184 -0.0867
 2453SOL    HW118992   0.969   1.444   4.540 -0.7037 -3.4227 -1.6726
 2453SOL    HW218993   1.094   1.491   4.582  1.5632 -0.2219 -0.7655
 2454SOL     OW18994   0.959   0.154  15.040  0.4719 -0.3818 -0.5395
 2454SOL    HW118995   0.951   0.218  14.969 -1.3994  1.5606  1.4476
 2454SOL    HW218996   0.959   0.069  14.996 -2.6174 -1.8578  2.2785
 2455SOL     OW18997   3.487   3.772   6.543  0.4113  0.5406 -0.1377
 2455SOL    HW118998   3.437   3.811   6.615 -0.7747 -0.1673 -0.5942
 2455SOL    HW218999   3.448   3.805   6.462 -4.6086 -0.6301  1.8189
 2456SOL     OW19000   2.114   0.304  12.257 -0.3078 -0.6597  0.2687
 2456SOL    HW119001   2.181   0.251  12.214  0.1586 -0.4715  0.7704
 2456SOL    HW219002   2.096   0.251  12.335  1.6841 -0.3798  0.9200
 2457SOL     OW19003   2.011   4.579   8.472 -0.1455 -0.3380 -0.1637
 2457SOL    HW119004   2.053   4.495   8.491 -2.7780 -2.0085 -1.7183
 2457SOL    HW219005   2.087   4.633   8.448  0.5957 -0.9495  0.8016
 2458SOL     OW19006   0.677   3.575   3.096  0.4162  0.1100 -0.1186
 2458SOL    HW119007   0.640   3.663   3.102 -0.3410 -0.2219  0.0766
 2458SOL    HW219008   0.650   3.544   3.010  0.8967 -0.4635 -0.0674
 2459SOL     OW19009   3.230   1.159   5.934  0.5682  0.1285  0.1061
 2459SOL    HW119010   3.317   1.174   5.897 -0.9661 -0.5109 -3.7792
 2459SOL    HW219011   3.251   1.151   6.028  0.8477  0.0560  0.0380
 2460SOL     OW19012   1.643   3.793   3.170 -0.1595 -0.0590  0.4863
 2460SOL    HW119013   1.621   3.848   3.095 -0.2391  1.0703  1.3185
 2460SOL    HW219014   1.551   3.778   3.196 -0.2370  2.4957  1.7331
 2461SOL     OW19015   1.243   2.415   7.591 -0.2279 -0.4358  0.1699
 2461SOL    HW119016   1.171   2.378   7.643 -1.6850  1.8657 -0.1990
 2461SOL    HW219017   1.247   2.348   7.523  4.0651 -0.7077  0.6647
 2462SOL     OW19018   3.106   0.543   6.024 -0.5445 -0.6358  0.0659
 2462SOL    HW119019   3.136   0.471   6.081  1.3716  0.3765  0.3261
 2462SOL    HW219020   3.067   0.602   6.088  0.5205  1.5692 -1.3495
 2463SOL     OW19021   4.591   1.522   5.129 -0.0365 -0.0159  0.1363
 2463SOL    HW119022   4.573   1.562   5.044  1.1354  0.3547  0.0627
 2463SOL    HW219023   4.651   1.450   5.110 -1.8609 -1.4633 -0.1500
 2464SOL     OW19024   1.759   2.453  11.831  0.1568  0.1805 -0.2671
 2464SOL    HW119025   1.850   2.462  11.862  1.4525 -0.6553 -3.8081
 2464SOL    HW219026   1.732   2.541  11.857  1.7057  0.5787  0.0211
 2465SOL     OW19027   4.371   3.537   4.309 -0.5116 -0.0705  0.0218
 2465SOL    HW119028   4.388   3.522   4.217  0.7959 -0.5732  0.3524
 2465SOL    HW219029   4.303   3.475   4.335 -0.9343 -0.1297 -1.2319
 2466SOL     OW19030   2.888   1.859  15.906  0.1825 -0.5364 -0.3296
 2466SOL    HW119031   2.808   1.907  15.927  0.5020 -0.0127 -0.3083
 2466SOL    HW219032   2.953   1.928  15.890  0.3385 -0.5389  0.2907
 2467SOL     OW19033   0.039   0.913   3.420 -0.1758 -0.0582 -0.2362
 2467SOL    HW119034   4.697   0.862   3.453  0.4005 -2.4227 -2.5585
 2467SOL    HW219035   0.048   0.981   3.486  0.4934 -0.2401 -0.1442
 2468SOL     OW19036   4.000   3.192   5.498 -0.1303  0.0697  0.1323
 2468SOL    HW119037   3.948   3.223   5.423  0.9161 -1.1704 -1.0902
 2468SOL    HW219038   3.933   3.153   5.553 -0.9201 -1.3198 -1.8102
 2469SOL     OW19039   1.714   4.286   1.085 -0.0998  0.2997 -0.8097
 2469SOL    HW119040   1.728   4.204   1.133 -0.4881  0.4363 -0.4662
 2469SOL    HW219041   1.618   4.288   1.089 -0.1395  0.0553 -1.5267
 2470SOL     OW19042   3.661   3.840   6.274  0.2489 -0.2732 -0.0274
 2470SOL    HW119043   3.756   3.852   6.284  0.2951 -0.8007  0.1424
 2470SOL    HW219044   3.668   3.754   6.233 -0.5883  0.1675 -1.0773
 2471SOL     OW19045   2.815   1.328   6.815 -0.4003 -0.2282 -0.0914
 2471SOL    HW119046   2.818   1.402   6.876 -2.8753  1.4266 -2.0137
 2471SOL    HW219047   2.892   1.349   6.762  0.4122 -1.7530  0.4692
 2472SOL     OW19048   1.166   2.369  11.668  0.2792 -0.1983  0.8920
 2472SOL    HW119049   1.128   2.436  11.610 -1.6247 -1.0526  1.1614
 2472SOL    HW219050   1.249   2.362  11.621 -0.8926 -0.1953 -1.1757
 2473SOL     OW19051   3.841   2.750   7.290 -0.0447  0.6219 -0.1869
 2473SOL    HW119052   3.903   2.787   7.227  0.7283  0.4868  0.5090
 2473SOL    HW219053   3.879   2.669   7.322  1.0892  0.5891 -1.6038
 2474SOL     OW19054   2.722   4.688  11.100  0.0004 -0.4885 -0.1028
 2474SOL    HW119055   2.707   4.595  11.120 -3.3133  0.0432 -0.0785
 2474SOL    HW219056   2.817   4.690  11.107  0.1321 -0.1492 -2.1125
 2475SOL     OW19057   2.457   4.590   7.803 -0.1313 -0.2028  0.1285
 2475SOL    HW119058   2.498   4.578   7.889  1.9868  0.4259 -0.7888
 2475SOL    HW219059   2.538   4.612   7.756  0.3606 -0.2773  0.9300
 2476SOL     OW19060   3.177   3.124   2.213 -0.1302  0.6247 -0.5009
 2476SOL    HW119061   3.160   3.098   2.123 -0.1244  0.0632 -0.3396
 2476SOL    HW219062   3.229   3.205   2.213 -1.8346  1.7259  0.7695
 2477SOL     OW19063   1.711   1.960   0.688  0.2334 -0.0581  0.0890
 2477SOL    HW119064   1.764   1.924   0.759 -1.4449 -1.8484  0.4187
 2477SOL    HW219065   1.630   1.950   0.738 -1.0453  0.3756 -1.9163
 2478SOL     OW19066   1.814   4.049   4.523 -0.0337  0.3878 -0.1398
 2478SOL    HW119067   1.807   3.956   4.498  2.7743  0.2390 -0.2822
 2478SOL    HW219068   1.736   4.040   4.578 -0.2322  0.2387 -0.4450
 2479SOL     OW19069   0.136   0.431   9.670 -0.3547  0.3856 -0.0401
 2479SOL    HW119070   0.074   0.410   9.600 -0.9158  0.8537  0.3128
 2479SOL    HW219071   0.092   0.504   9.713  2.1833  0.9725  1.5238
 2480SOL     OW19072   3.387   3.778   2.329 -0.1829  0.2149  0.0671
 2480SOL    HW119073   3.407   3.863   2.367 -3.0251  1.0479 -0.2383
 2480SOL    HW219074   3.466   3.767   2.277 -2.1036  2.6619 -3.3817
 2481SOL     OW19075   3.986   1.482   5.257 -0.4589 -0.4120 -0.2081
 2481SOL    HW119076   3.927   1.408   5.274 -0.3172 -0.3855  0.3975
 2481SOL    HW219077   4.067   1.432   5.251 -0.5220 -0.0347 -4.5186
 2482SOL     OW19078   3.972   4.504   4.939 -0.0527 -0.2107  0.2160
 2482SOL    HW119079   4.025   4.580   4.915 -0.3666  0.0623  0.3708
 2482SOL    HW219080   4.032   4.431   4.927 -1.0764 -0.8743 -0.7703
 2483SOL     OW19081   1.416   1.236   8.498  0.3527  0.2770  0.4021
 2483SOL    HW119082   1.392   1.267   8.585  1.7180 -1.0540  1.2442
 2483SOL    HW219083   1.485   1.174   8.522 -0.2124 -0.4380  0.1393
 2484SOL     OW19084   3.193   4.087   5.890  0.4083 -0.1396  0.2116
 2484SOL    HW119085   3.109   4.132   5.894  0.4258 -0.0179 -0.7140
 2484SOL    HW219086   3.243   4.140   5.827  2.3238  1.1020  2.7682
 2485SOL     OW19087   0.025   2.144  12.112  0.5002  0.8321  0.1056
 2485SOL    HW119088   4.732   2.169  12.201  1.2933 -0.7972  0.7887
 2485SOL    HW219089   0.052   2.229  12.076  0.5507  1.1253  0.8368
 2486SOL     OW19090   3.357   2.578   4.687  0.5748 -0.0842  0.7024
 2486SOL    HW119091   3.295   2.508   4.662  0.7878  0.0498 -0.2098
 2486SOL    HW219092   3.391   2.613   4.604  0.1758 -1.0865  0.1118
 2487SOL     OW19093   0.680   2.843   8.573  0.1437  0.5294  0.0474
 2487SOL    HW119094   0.659   2.847   8.479  0.8070  0.5762 -0.1011
 2487SOL    HW219095   0.731   2.924   8.582  2.7770 -1.0943 -0.3680
 2488SOL     OW19096   3.425   3.521   7.935  0.3965  0.0231 -0.5566
 2488SOL    HW119097   3.500   3.464   7.916  0.0256 -0.5869 -0.1836
 2488SOL    HW219098   3.436   3.584   7.863 -0.1772 -0.1952 -0.8382
 2489SOL     OW19099   0.176   0.529   0.751 -0.3274  0.1719 -0.3352
 2489SOL    HW119100   0.157   0.572   0.667 -0.9372 -2.6844 -1.6563
 2489SOL    HW219101   0.229   0.455   0.720 -1.3127  0.4625 -2.6843
 2490SOL     OW19102   4.412   1.945   7.258  0.3636  0.4567 -0.7030
 2490SOL    HW119103   4.391   2.032   7.223 -1.1839  0.2762 -0.2228
 2490SOL    HW219104   4.366   1.883   7.202 -0.3884 -0.1694  0.6079
 2491SOL     OW19105   3.266   4.405   5.268 -0.1151 -0.0210  0.0281
 2491SOL    HW119106   3.205   4.332   5.274 -0.4304  0.2939  0.6323
 2491SOL    HW219107   3.336   4.379   5.328 -0.4908 -1.0459  0.0200
 2492SOL     OW19108   1.296   0.107   7.304 -0.3536 -0.1360  0.1230
 2492SOL    HW119109   1.233   0.157   7.356  0.5910  2.1292 -0.9165
 2492SOL    HW219110   1.268   0.135   7.217 -2.8667  1.2051  1.3703
 2493SOL     OW19111   3.727   3.604   6.990 -0.2614 -0.6867 -0.5000
 2493SOL    HW119112   3.692   3.554   6.915 -0.6297  0.0346 -0.8059
 2493SOL    HW219113   3.795   3.546   7.023  0.7901  0.5974 -0.4352
 2494SOL     OW19114   3.759   3.391  16.300 -0.1418 -0.5079 -0.2391
 2494SOL    HW119115   3.777   3.409  16.393  1.8035  2.8032 -1.2489
 2494SOL    HW219116   3.817   3.319  16.276  1.3270  1.0398 -1.4085
 2495SOL     OW19117   1.244   2.608   8.423 -0.1045 -0.2148 -0.1633
 2495SOL    HW119118   1.300   2.685   8.435 -2.1872  1.0747  1.3634
 2495SOL    HW219119   1.265   2.561   8.503 -1.0064 -0.4742 -0.0837
 2496SOL     OW19120   0.363   4.305   6.641  0.2568 -0.5772 -0.2423
 2496SOL    HW119121   0.362   4.282   6.734  1.8565  1.3005  0.2469
 2496SOL    HW219122   0.390   4.397   6.647  0.4757 -0.5259 -2.0946
 2497SOL     OW19123   2.667   4.382  16.967  0.4844 -0.8420 -0.3485
 2497SOL    HW119124   2.626   4.356  16.885  1.9269 -2.1255 -0.6544
 2497SOL    HW219125   2.681   4.296  17.006  0.2224 -0.6158  0.2466
 2498SOL     OW19126   0.269   3.709   5.666 -0.5406 -0.0241  0.1699
 2498SOL    HW119127   0.238   3.795   5.693  2.0473  1.0760 -0.3372
 2498SOL    HW219128   0.194   3.682   5.613 -0.7460  0.6549  0.1093
 2499SOL     OW19129   4.537   1.009  13.460 -0.6225 -0.0362  0.2080
 2499SOL    HW119130   4.459   0.998  13.405 -0.7188  0.3037  0.2789
 2499SOL    HW219131   4.503   0.974  13.543  0.6305  2.9642  1.9693
 2500SOL     OW19132   2.795   3.745   5.298  0.1052  0.3962  0.5517
 2500SOL    HW119133   2.846   3.702   5.230  1.9763  3.5072 -0.0272
 2500SOL    HW219134   2.807   3.673   5.360  1.6641  0.5140  0.3804
 2501SOL     OW19135   0.189   0.071   9.127  0.2707  0.2439  0.2042
 2501SOL    HW119136   0.161   4.715   9.151 -0.9171  0.0966 -1.7425
 2501SOL    HW219137   0.228   0.049   9.043 -0.6985  2.3886 -0.8137
 2502SOL     OW19138   0.515   3.510   1.112  0.1837 -0.4998  0.4291
 2502SOL    HW119139   0.509   3.541   1.022  0.7527  0.3850  0.7005
 2502SOL    HW219140   0.607   3.485   1.107  0.2014 -0.5080  0.7968
 2503SOL     OW19141   3.617   2.768   2.917 -0.5726 -0.0856  0.0113
 2503SOL    HW119142   3.701   2.808   2.894 -0.1670  0.1861  1.9576
 2503SOL    HW219143   3.556   2.841   2.900 -1.2246 -0.8074 -0.7973
 2504SOL     OW19144   2.501   3.940   2.194  0.5398 -0.4633  0.3983
 2504SOL    HW119145   2.472   3.931   2.285 -1.3246 -0.2390 -0.1763
 2504SOL    HW219146   2.590   3.906   2.200  0.5976 -0.0205  2.1294
 2505SOL     OW19147   3.748   2.802  13.388  0.4124 -0.0329 -0.6450
 2505SOL    HW119148   3.735   2.715  13.348  0.8493 -0.0698 -0.7043
 2505SOL    HW219149   3.840   2.781  13.403  0.1865  1.4460  2.6728
 2506SOL     OW19150   1.495   1.782   3.321 -0.1077  0.0426  0.2804
 2506SOL    HW119151   1.486   1.699   3.275 -1.0552 -0.2448  0.9841
 2506SOL    HW219152   1.534   1.751   3.403  2.2980  3.5156  0.4638
 2507SOL     OW19153   2.095   4.013   6.578 -0.0780  0.1670 -0.2414
 2507SOL    HW119154   2.097   3.975   6.490 -0.7137  1.0084 -0.6130
 2507SOL    HW219155   2.023   3.961   6.615 -0.0734  0.8461  0.7345
 2508SOL     OW19156   2.755   4.701   0.432  0.3310 -0.3439 -0.1894
 2508SOL    HW119157   2.811   4.623   0.444 -0.6814 -0.8365  1.2487
 2508SOL    HW219158   2.739   4.711   0.525 -0.4946 -0.8792 -0.2735
 2509SOL     OW19159   4.150   1.353   4.703  0.0795  0.1805 -0.4756
 2509SOL    HW119160   4.095   1.351   4.781  2.9284  0.1603  1.5227
 2509SOL    HW219161   4.080   1.351   4.637 -0.9309  1.5565  0.5394
 2510SOL     OW19162   2.803   3.713   9.288  0.2727 -0.0536 -1.0194
 2510SOL    HW119163   2.741   3.673   9.227 -2.0856 -0.7848  1.9154
 2510SOL    HW219164   2.865   3.741   9.220  2.4902 -1.1717  0.5642
 2511SOL     OW19165   3.649   0.397   6.217  0.2663 -0.4198 -0.6766
 2511SOL    HW119166   3.561   0.411   6.183 -0.7772 -1.7670  1.4627
 2511SOL    HW219167   3.639   0.432   6.306  0.4046 -1.4974 -0.2348
 2512SOL     OW19168   4.070   4.698  15.098 -0.2279 -0.0506 -0.6166
 2512SOL    HW119169   4.123   0.039  15.065  0.4061 -0.0624  0.4073
 2512SOL    HW219170   4.091   4.629  15.035  1.7217 -0.8100  0.8894
 2513SOL     OW19171   4.230   0.704   5.050  0.0887 -0.1395  0.2212
 2513SOL    HW119172   4.203   0.618   5.020 -0.3307  1.2785 -3.4458
 2513SOL    HW219173   4.325   0.691   5.051  0.1464  0.2469 -0.4252
 2514SOL     OW19174   0.131   1.825  17.158  0.1199 -0.4809  0.3522
 2514SOL    HW119175   0.213   1.825  17.107 -0.6338 -0.0530 -0.8697
 2514SOL    HW219176   0.109   1.917  17.148 -3.3703 -1.2346  1.2322
 2515SOL     OW19177   2.859   1.298   3.867  0.2777  0.6790  0.0090
 2515SOL    HW119178   2.809   1.378   3.850 -1.5450 -0.3444  0.5587
 2515SOL    HW219179   2.824   1.292   3.956  0.7843 -1.0892  0.0743
 2516SOL     OW19180   4.083   4.673   1.934 -0.1821 -0.3535 -0.1854
 2516SOL    HW119181   4.064   0.026   1.893  1.5253 -0.5631 -1.3806
 2516SOL    HW219182   4.129   4.628   1.863 -0.4729  0.4118 -0.8679
 2517SOL     OW19183   0.325   0.976   9.448 -0.5742 -0.8044 -0.0897
 2517SOL    HW119184   0.407   0.947   9.407 -0.3295  1.9493 -1.5652
 2517SOL    HW219185   0.301   0.885   9.465 -3.8199  0.3629  1.4161
 2518SOL     OW19186   1.014   3.064   4.098  0.0756  0.5034 -0.0427
 2518SOL    HW119187   0.933   3.105   4.069 -0.3982  0.2707  0.9372
 2518SOL    HW219188   1.005   2.987   4.041  2.0315  0.1789  0.0965
 2519SOL     OW19189   3.510   4.082   3.432 -0.9642  0.0723  0.0596
 2519SOL    HW119190   3.512   3.989   3.453 -1.8508  0.1942  0.7114
 2519SOL    HW219191   3.580   4.094   3.369  0.8841  2.3923  2.5207
 2520SOL     OW19192   3.453   2.358   8.701  0.8066 -0.0106  0.4588
 2520SOL    HW119193   3.457   2.398   8.787 -2.5404 -0.2538  0.7271
 2520SOL    HW219194   3.526   2.296   8.705 -0.1038 -1.0252  1.3815
 2521SOL     OW19195   0.721   0.897  10.091  0.1565 -0.1011  1.1016
 2521SOL    HW119196   0.792   0.931  10.145  1.4294  1.6509 -1.6439
 2521SOL    HW219197   0.662   0.856  10.154 -0.8632 -0.3080  0.0221
 2522SOL     OW19198   4.635   0.954  11.194 -0.6108 -0.3178  0.0455
 2522SOL    HW119199   4.559   0.895  11.185 -2.1532  1.3312  2.4551
 2522SOL    HW219200   4.592   1.039  11.204  0.3578  0.0030  1.3732
 2523SOL     OW19201   1.973   3.208   1.729 -0.6170 -0.2157 -0.1421
 2523SOL    HW119202   1.937   3.284   1.775 -1.5965  0.2522 -1.6679
 2523SOL    HW219203   1.991   3.150   1.803  1.5152  0.2446 -0.2946
 2524SOL     OW19204   3.161   3.012  16.231 -0.6869  0.0573  0.4241
 2524SOL    HW119205   3.174   2.939  16.170  3.0527 -1.3160  2.8781
 2524SOL    HW219206   3.184   2.973  16.315  2.4928  2.9319  0.9021
 2525SOL     OW19207   2.376   1.265   6.325 -0.3106  0.1681 -0.5358
 2525SOL    HW119208   2.451   1.319   6.353 -0.5191  0.5076 -0.6276
 2525SOL    HW219209   2.315   1.288   6.394 -0.1996  1.5067 -0.8631
 2526SOL     OW19210   2.444   0.619   4.792  0.1916  0.3118  0.1161
 2526SOL    HW119211   2.423   0.690   4.853 -0.0717  1.2440 -1.0532
 2526SOL    HW219212   2.361   0.596   4.750 -0.0033  1.7171 -0.2902
 2527SOL     OW19213   1.474   3.435   6.942 -0.1584  0.3291  0.4894
 2527SOL    HW119214   1.521   3.445   7.024  1.8258 -0.0835 -0.5939
 2527SOL    HW219215   1.549   3.403   6.891  0.5618  2.3818  0.2473
 2528SOL     OW19216   1.316   3.247   0.842 -0.3613  0.0171  0.5083
 2528SOL    HW119217   1.349   3.159   0.825 -1.7442 -0.5107  0.5637
 2528SOL    HW219218   1.298   3.280   0.754 -1.5503  0.0311  0.7565
 2529SOL     OW19219   0.584   1.379  12.804  0.1505 -0.6564  0.5424
 2529SOL    HW119220   0.493   1.359  12.784  0.1637  1.6473 -1.7957
 2529SOL    HW219221   0.575   1.399  12.897  0.0173 -1.4513  0.6980
 2530SOL     OW19222   2.452   1.601   7.892  0.0815  0.4165  0.8362
 2530SOL    HW119223   2.429   1.516   7.930 -0.6845  0.3567  0.2414
 2530SOL    HW219224   2.465   1.580   7.799  0.5310 -1.0758  1.2247
 2531SOL     OW19225   2.826   0.974   2.128  0.1549  0.3645  0.3060
 2531SOL    HW119226   2.762   1.000   2.062 -1.2432 -0.4680  1.3551
 2531SOL    HW219227   2.901   0.962   2.070  0.7467  3.0481  0.4881
 2532SOL     OW19228   3.530   0.075   8.797  0.4798  0.0779 -0.1399
 2532SOL    HW119229   3.550   0.051   8.706 -1.3083 -0.1059 -0.4857
 2532SOL    HW219230   3.615   0.043   8.829  0.7429  1.0697  0.1678
 2533SOL     OW19231   4.165   3.593   5.240 -0.5245  0.6486 -0.1063
 2533SOL    HW119232   4.083   3.546   5.254 -0.1388  0.3271  1.0859
 2533SOL    HW219233   4.144   3.680   5.274 -3.2230 -0.1212  0.1893
 2534SOL     OW19234   0.288   3.991   7.757  0.2705  0.0649 -0.3022
 2534SOL    HW119235   0.326   3.907   7.782 -0.4417 -0.6808 -1.7043
 2534SOL    HW219236   0.308   4.034   7.840  1.0284  0.9085 -0.9147
 2535SOL     OW19237   0.271   1.203   2.102  0.5511 -0.5909 -0.5260
 2535SOL    HW119238   0.254   1.109   2.092  0.9264 -0.6118 -0.9421
 2535SOL    HW219239   0.223   1.238   2.028 -1.5110 -3.6746 -0.6411
 2536SOL     OW19240   3.300   4.549  13.350  0.3258 -0.5103  0.0518
 2536SOL    HW119241   3.385   4.521  13.317  0.1132 -1.5456  0.3905
 2536SOL    HW219242   3.235   4.484  13.324 -0.3438 -0.9359  2.7326
 2537SOL     OW19243   0.698   1.076   5.602  0.0830  0.2548  0.2633
 2537SOL    HW119244   0.766   1.008   5.598 -1.4817 -1.3406  1.1339
 2537SOL    HW219245   0.623   1.035   5.559  0.2777 -1.4064  1.4786
 2538SOL     OW19246   4.509   3.317   1.893  0.2794  0.2551 -0.5627
 2538SOL    HW119247   4.511   3.408   1.862  0.2662  1.6940  3.5865
 2538SOL    HW219248   4.446   3.333   1.963 -1.1403 -0.4935 -1.6710
 2539SOL     OW19249   0.089   1.922  11.392  0.5336  0.1064 -0.3229
 2539SOL    HW119250   0.089   1.905  11.486  0.8298  1.7747 -0.0132
 2539SOL    HW219251   4.728   1.908  11.380  0.4491  1.5677 -1.4057
 2540SOL     OW19252   3.585   4.516   2.138  0.5414 -0.2783  0.1138
 2540SOL    HW119253   3.548   4.602   2.158  0.7827  0.5419 -2.9144
 2540SOL    HW219254   3.674   4.542   2.115 -0.4968  1.2963 -2.1663
 2541SOL     OW19255   1.588   1.370  10.226 -0.3833  0.4258  0.2449
 2541SOL    HW119256   1.609   1.458  10.255 -0.9658  0.2923  1.0668
 2541SOL    HW219257   1.581   1.376  10.130 -2.3940  1.0811  0.4318
 2542SOL     OW19258   0.431   0.536   4.248  0.3401 -0.5348 -0.0659
 2542SOL    HW119259   0.510   0.541   4.195  0.8563  0.3289  0.7947
 2542SOL    HW219260   0.367   0.547   4.178 -1.3435  1.8343  1.8615
 2543SOL     OW19261   3.377   1.587   4.845  0.7394  0.1701  0.2804
 2543SOL    HW119262   3.367   1.492   4.855  0.2551  0.1312 -0.5320
 2543SOL    HW219263   3.328   1.621   4.920 -0.3063 -2.5141  0.8115
 2544SOL     OW19264   1.206   1.959   2.965 -0.0601 -0.1054  0.0881
 2544SOL    HW119265   1.166   1.889   3.017  1.3826 -2.5759 -2.1145
 2544SOL    HW219266   1.279   1.976   3.024 -0.5750 -1.2153  1.0434
 2545SOL     OW19267   0.886   1.496   5.655  0.6374  0.4104 -0.1035
 2545SOL    HW119268   0.795   1.467   5.647  1.5447 -2.1110 -1.5350
 2545SOL    HW219269   0.902   1.527   5.565  1.0248 -0.8765 -0.4932
 2546SOL     OW19270   4.430   0.025   5.265 -1.0576 -0.5047  0.0519
 2546SOL    HW119271   4.340   0.051   5.244 -1.5134 -3.3691 -1.5419
 2546SOL    HW219272   4.417   4.683   5.325  0.1110 -1.7443 -1.2246
 2547SOL     OW19273   3.496   0.013   2.995  0.4626  0.5674  0.3764
 2547SOL    HW119274   3.461   4.669   3.041  0.3009 -0.5375 -1.6036
 2547SOL    HW219275   3.447   0.088   3.029 -1.7127 -1.6826  2.1811
 2548SOL     OW19276   3.741   2.334  12.919  0.3662  0.1861  0.4978
 2548SOL    HW119277   3.694   2.414  12.895  0.2663  0.1680  0.6309
 2548SOL    HW219278   3.690   2.300  12.993 -0.8762 -0.9953 -0.9255
 2549SOL     OW19279   3.693   0.333   7.156 -0.0024  0.0404  0.0431
 2549SOL    HW119280   3.758   0.263   7.166  0.6153  0.5877 -0.1967
 2549SOL    HW219281   3.657   0.314   7.069  1.2645  1.0168 -0.6847
 2550SOL     OW19282   2.332   4.713   0.588  0.2499  0.1204 -0.4990
 2550SOL    HW119283   2.254   0.025   0.555 -1.1998 -1.7045  0.5499
 2550SOL    HW219284   2.389   0.058   0.576  0.5304 -0.0919 -0.5229
 2551SOL     OW19285   3.113   4.457   3.323 -0.2374  0.2521  0.1464
 2551SOL    HW119286   3.082   4.500   3.402 -1.2445 -3.0585  1.5854
 2551SOL    HW219287   3.062   4.504   3.257  0.1392  0.0120 -0.3180
 2552SOL     OW19288   4.483   2.968   2.959 -0.0229 -0.0222 -0.1207
 2552SOL    HW119289   4.486   3.052   2.914  1.0714 -0.9623 -1.8130
 2552SOL    HW219290   4.468   2.915   2.880  0.1309  0.7321 -0.6552
 2553SOL     OW19291   0.388   4.313   5.850 -0.1114  0.5085 -0.0155
 2553SOL    HW119292   0.293   4.321   5.860  0.2073  2.1761  1.7729
 2553SOL    HW219293   0.419   4.402   5.867 -1.0247  1.0979 -1.5101
 2554SOL     OW19294   1.874   3.759   3.331 -0.1591 -0.8628 -0.0478
 2554SOL    HW119295   1.795   3.791   3.288  0.5479  0.1095 -0.6361
 2554SOL    HW219296   1.833   3.700   3.394  0.5723 -2.2021 -0.8084
 2555SOL     OW19297   3.534   2.178   0.488 -0.4513  0.0366 -0.4735
 2555SOL    HW119298   3.443   2.203   0.473 -0.4471  0.2863 -0.1007
 2555SOL    HW219299   3.587   2.258   0.490 -0.1254 -0.2127  0.8652
 2556SOL     OW19300   3.737   2.626  17.118  0.3395  0.2994 -0.5652
 2556SOL    HW119301   3.784   2.545  17.136 -0.4429  0.3382  1.6688
 2556SOL    HW219302   3.779   2.676  17.048 -3.6419  0.6551 -2.6769
 2557SOL     OW19303   0.870   2.604   5.790  0.3556  0.3977 -0.0202
 2557SOL    HW119304   0.853   2.525   5.738  2.6630  0.4096 -0.7732
 2557SOL    HW219305   0.817   2.572   5.863  0.0363  2.1661  0.5190
 2558SOL     OW19306   1.347   0.548   1.236 -0.4582 -0.2709 -0.2592
 2558SOL    HW119307   1.294   0.608   1.287  0.8383 -1.5503  2.5924
 2558SOL    HW219308   1.428   0.599   1.230  0.1966 -1.1287  1.1464
 2559SOL     OW19309   0.087   0.361   3.582 -0.0464  0.0299 -0.3228
 2559SOL    HW119310   0.033   0.378   3.505 -0.2254  2.1999  0.2603
 2559SOL    HW219311   0.153   0.300   3.550 -0.1029 -0.2987  0.1792
 2560SOL     OW19312   1.883   3.460   9.436 -0.4142  0.3441  0.2276
 2560SOL    HW119313   1.923   3.431   9.517 -1.7412 -2.8306 -0.2817
 2560SOL    HW219314   1.955   3.429   9.381 -0.0316 -0.4374  1.1812
 2561SOL     OW19315   4.324   3.592   3.019  0.4391  0.6358 -0.2086
 2561SOL    HW119316   4.321   3.563   2.928 -2.3965 -0.1073  0.1413
 2561SOL    HW219317   4.398   3.653   3.014  1.2668 -0.1606  2.0643
 2562SOL     OW19318   1.950   3.928  10.956 -0.2619 -0.1904 -0.2111
 2562SOL    HW119319   2.007   3.891  10.889 -0.5483  0.3826 -0.7749
 2562SOL    HW219320   1.880   3.971  10.906 -2.6235  0.0150  3.2324
 2563SOL     OW19321   1.490   4.715   5.808 -0.1045  0.0662 -0.6850
 2563SOL    HW119322   1.418   4.687   5.751 -1.2707  1.4831  0.1090
 2563SOL    HW219323   1.559   4.650   5.797  0.5889  0.9989 -1.8974
 2564SOL     OW19324   2.467   1.727  12.377  0.2648  0.2879 -0.7023
 2564SOL    HW119325   2.405   1.783  12.424 -0.6739 -0.6088 -0.8579
 2564SOL    HW219326   2.494   1.668  12.449 -2.7468  0.8805  0.9108
 2565SOL     OW19327   3.624   0.328   0.399 -0.7443 -0.2834 -0.2922
 2565SOL    HW119328   3.629   0.416   0.437 -1.0331 -0.3716 -0.0496
 2565SOL    HW219329   3.679   0.345   0.323  0.6730  0.0818  0.8282
 2566SOL     OW19330   2.284   1.359   3.617 -0.1945 -0.0949  0.0066
 2566SOL    HW119331   2.231   1.384   3.692 -0.7836  2.1978 -1.1758
 2566SOL    HW219332   2.272   1.264   3.617  1.1514 -0.2546  1.7174
 2567SOL     OW19333   2.424   3.946   8.111  0.0674  0.0096  0.2314
 2567SOL    HW119334   2.479   3.874   8.142 -1.2163 -0.2452  1.9338
 2567SOL    HW219335   2.487   4.005   8.069 -0.5246 -0.1127 -0.8063
 2568SOL     OW19336   4.275   3.260   7.394  0.1964  0.3451 -0.0457
 2568SOL    HW119337   4.350   3.234   7.448  0.3681  0.9529  0.0159
 2568SOL    HW219338   4.317   3.328   7.342  0.3563  0.0833 -0.2556
 2569SOL     OW19339   3.266   0.916   0.336 -0.3074  0.5431 -0.4447
 2569SOL    HW119340   3.298   0.842   0.284 -2.5213  0.3479 -1.5122
 2569SOL    HW219341   3.231   0.865   0.409  0.0507  1.8418  0.6380
 2570SOL     OW19342   3.642   2.338   6.079 -0.8988  0.3687  0.0199
 2570SOL    HW119343   3.683   2.256   6.108 -0.7984  0.7226  0.8800
 2570SOL    HW219344   3.609   2.318   5.992 -0.1265  0.6083 -0.3294
 2571SOL     OW19345   2.839   4.466   6.056 -0.6289 -0.3779 -0.3046
 2571SOL    HW119346   2.778   4.511   6.114  1.4387  2.0406  0.0074
 2571SOL    HW219347   2.789   4.388   6.034 -2.1832  0.2186  1.1157
 2572SOL     OW19348   2.777   3.147   5.105 -0.4083  0.0963 -0.1797
 2572SOL    HW119349   2.724   3.089   5.160  0.2108 -0.1210  0.1820
 2572SOL    HW219350   2.716   3.166   5.033  0.2621  1.6998 -0.3375
 2573SOL     OW19351   4.198   2.857   4.204 -0.4567 -0.3154  0.2093
 2573SOL    HW119352   4.273   2.827   4.152  0.8176 -0.9650  2.4215
 2573SOL    HW219353   4.243   2.920   4.260 -1.4834 -0.2676  0.9839
 2574SOL     OW19354   3.843   1.549  17.618  0.2216 -0.4375  0.1850
 2574SOL    HW119355   3.840   1.616  17.686 -1.7724  1.0602 -1.3768
 2574SOL    HW219356   3.895   1.599  17.555 -0.1287 -1.0135 -0.5525
 2575SOL     OW19357   2.475   2.946   1.970 -0.1275  0.4904  0.4422
 2575SOL    HW119358   2.450   2.994   1.891  2.3437  1.3325  0.1757
 2575SOL    HW219359   2.405   2.980   2.026  0.7699  0.4854  1.5692
 2576SOL     OW19360   4.095   3.683   4.427  0.1638  0.4689 -0.5815
 2576SOL    HW119361   4.156   3.753   4.449  1.5204 -0.8976  0.0765
 2576SOL    HW219362   4.145   3.612   4.468  1.4278  2.3445  1.1325
 2577SOL     OW19363   0.373   0.265   3.977 -0.6090 -0.3353  0.4426
 2577SOL    HW119364   0.354   0.345   3.927  0.8187 -0.4288 -0.2325
 2577SOL    HW219365   0.433   0.289   4.047 -0.7359  0.4504  0.2888
 2578SOL     OW19366   1.497   1.833   7.360  0.4537 -0.3647  0.4792
 2578SOL    HW119367   1.422   1.867   7.408  0.2369 -0.1748  0.0161
 2578SOL    HW219368   1.461   1.748   7.335 -0.3142  0.5720 -1.6496
 2579SOL     OW19369   2.575   1.014   5.720 -0.1003  0.5010  0.0243
 2579SOL    HW119370   2.628   1.071   5.664  0.6669 -0.1595  0.0740
 2579SOL    HW219371   2.522   1.072   5.775  0.9350  1.3129  0.1555
 2580SOL     OW19372   0.363   2.238  13.852 -0.0969  0.1951 -0.3962
 2580SOL    HW119373   0.452   2.270  13.841 -0.1267  0.4369  0.0280
 2580SOL    HW219374   0.378   2.147  13.829 -1.3881  0.4496 -2.2916
 2581SOL     OW19375   0.035   1.051  13.170 -0.9963 -0.3309  0.3675
 2581SOL    HW119376   0.025   1.143  13.195  0.7571 -0.1429  0.4130
 2581SOL    HW219377   0.117   1.049  13.120 -0.2450 -3.2886  1.7147
 2582SOL     OW19378   3.725   2.068   7.406  0.5048 -0.1584 -0.2712
 2582SOL    HW119379   3.640   2.038   7.373  0.0937  1.5035 -0.6931
 2582SOL    HW219380   3.692   2.093   7.493  1.1046  1.4405 -0.5088
 2583SOL     OW19381   4.254   4.349  14.532 -0.0875 -0.3412  0.1032
 2583SOL    HW119382   4.174   4.312  14.569 -1.0662  2.0088  0.3467
 2583SOL    HW219383   4.235   4.337  14.439  0.3284  1.6162 -0.2297
 2584SOL     OW19384   1.166   3.830   5.411 -0.6878  0.4808 -0.2046
 2584SOL    HW119385   1.162   3.819   5.316  0.8203 -1.0720 -0.0880
 2584SOL    HW219386   1.072   3.847   5.424 -1.0112 -2.3729  1.4118
 2585SOL     OW19387   4.462   1.954  12.218  0.2602  1.0098  0.0591
 2585SOL    HW119388   4.544   2.004  12.219  1.1515 -0.3905 -1.4131
 2585SOL    HW219389   4.405   2.021  12.255 -2.5892 -1.6356  0.4910
 2586SOL     OW19390   2.114   2.224   4.218  0.1400 -0.1523 -0.0346
 2586SOL    HW119391   2.157   2.309   4.222  0.6671 -0.4247  0.1254
 2586SOL    HW219392   2.179   2.171   4.264  1.6105  1.4569 -0.2950
 2587SOL     OW19393   4.149   4.338   0.229 -0.6055 -0.2715  0.6352
 2587SOL    HW119394   4.183   4.255   0.260 -1.7369 -0.0238  2.5275
 2587SOL    HW219395   4.077   4.320   0.169 -0.9950 -1.4602  1.4539
 2588SOL     OW19396   0.678   1.887   8.582 -0.0108 -0.1239  0.1348
 2588SOL    HW119397   0.678   1.843   8.497 -0.0149  0.9433 -0.4295
 2588SOL    HW219398   0.586   1.912   8.591 -0.3540 -1.0845 -0.7827
 2589SOL     OW19399   3.145   0.991   6.203  0.0020  0.4894 -0.0613
 2589SOL    HW119400   3.218   1.053   6.205 -0.7694  1.3672  0.7514
 2589SOL    HW219401   3.100   1.023   6.282 -3.4629  1.5466 -2.4565
 2590SOL     OW19402   0.272   3.803   2.798 -0.2748  0.2161 -0.3333
 2590SOL    HW119403   0.260   3.879   2.854  0.8427 -0.0246  0.2359
 2590SOL    HW219404   0.345   3.830   2.742  0.6651  0.9556  1.2457
 2591SOL     OW19405   1.673   0.920   1.109  0.3079  0.5437 -0.2241
 2591SOL    HW119406   1.644   0.945   1.021 -1.1933  2.0255  0.7170
 2591SOL    HW219407   1.659   0.826   1.100 -3.1054  0.8798  1.7750
 2592SOL     OW19408   0.941   2.811   0.450 -0.4138 -0.3275  0.0113
 2592SOL    HW119409   0.954   2.798   0.356 -0.1898 -0.2377  0.0311
 2592SOL    HW219410   0.877   2.882   0.453 -0.7955 -0.7393  1.5562
 2593SOL     OW19411   1.489   1.808   8.210 -0.0353  0.5303  0.0815
 2593SOL    HW119412   1.441   1.890   8.210  1.1846  1.2362 -2.6057
 2593SOL    HW219413   1.583   1.828   8.202 -0.3072  1.8961  0.3150
 2594SOL     OW19414   2.087   1.800  13.555 -0.3012  0.5111  0.2314
 2594SOL    HW119415   2.120   1.724  13.602 -2.3838 -1.5367 -1.6739
 2594SOL    HW219416   2.012   1.759  13.513  1.2413 -0.5875 -1.4473
 2595SOL     OW19417   0.888   1.433  13.623  0.5164  0.5967  0.5594
 2595SOL    HW119418   0.938   1.395  13.696  1.2003 -4.2655 -2.4781
 2595SOL    HW219419   0.815   1.372  13.630  2.2165 -1.1537  2.8990
 2596SOL     OW19420   1.372   0.016   3.613  0.3517  0.3927 -0.2665
 2596SOL    HW119421   1.414   4.686   3.554  0.6465  1.0804 -0.7824
 2596SOL    HW219422   1.296   0.044   3.562 -0.9493  0.2714  1.6050
 2597SOL     OW19423   2.244   0.826   8.284  0.3279  0.0288 -0.2546
 2597SOL    HW119424   2.284   0.749   8.325  3.2570  0.7713 -1.7148
 2597SOL    HW219425   2.320   0.860   8.236 -0.0682  1.0236 -0.1548
 2598SOL     OW19426   3.985   1.717   1.897  0.2379 -0.3031 -0.6226
 2598SOL    HW119427   3.891   1.700   1.895 -0.0046  1.1472 -1.4286
 2598SOL    HW219428   3.982   1.800   1.849  0.7311 -0.0835 -0.2716
 2599SOL     OW19429   4.171   2.098   2.860  0.3744  0.3282 -0.6158
 2599SOL    HW119430   4.221   2.162   2.808  0.3655  0.2061 -0.7723
 2599SOL    HW219431   4.220   2.017   2.847  0.9109  0.8661 -1.9013
 2600SOL     OW19432   0.637   1.856   0.601  0.1867  0.1575 -0.4617
 2600SOL    HW119433   0.597   1.809   0.674  0.5914 -0.8897 -0.9195
 2600SOL    HW219434   0.559   1.904   0.575 -0.1317  0.1211  0.4483
 2601SOL     OW19435   2.603   2.557   4.598  0.6376  0.0866 -0.0182
 2601SOL    HW119436   2.666   2.536   4.667 -1.5040 -2.4850  1.1148
 2601SOL    HW219437   2.592   2.476   4.549  0.1288 -0.7579  1.5104
 2602SOL     OW19438   4.431   1.218   6.059 -0.6812  0.5741 -0.0907
 2602SOL    HW119439   4.434   1.306   6.021 -3.1166  0.9785  0.6302
 2602SOL    HW219440   4.364   1.179   6.004  0.5573  0.1680 -1.2985
 2603SOL     OW19441   4.361   4.547   6.324 -0.0964  0.1506  0.0839
 2603SOL    HW119442   4.424   4.481   6.297  0.6016  0.9961 -0.3600
 2603SOL    HW219443   4.294   4.545   6.256 -1.3529 -0.3223  1.3269
 2604SOL     OW19444   4.177   0.885   6.417  0.2079 -0.2028  0.2621
 2604SOL    HW119445   4.101   0.874   6.473 -0.4984  0.6284 -0.5159
 2604SOL    HW219446   4.136   0.926   6.340  1.7641  1.2288  0.1986
 2605SOL     OW19447   3.259   0.663   3.513 -0.7086  0.2274  0.4523
 2605SOL    HW119448   3.188   0.647   3.576 -0.9345  0.0210  0.1430
 2605SOL    HW219449   3.287   0.753   3.532  0.0095  0.1939 -0.4724
 2606SOL     OW19450   3.332   0.917   3.539  0.1977 -0.4501 -0.3906
 2606SOL    HW119451   3.285   0.979   3.482  0.9412  1.0046  0.5636
 2606SOL    HW219452   3.419   0.957   3.544  0.3574 -0.9565  0.9125
 2607SOL     OW19453   3.414   0.422   0.842 -0.0974  0.0784 -0.0192
 2607SOL    HW119454   3.467   0.425   0.762 -0.4360 -0.9706 -0.2903
 2607SOL    HW219455   3.403   0.516   0.850 -0.3698  0.0939 -0.5427
 2608SOL     OW19456   2.434   4.593   9.673 -1.0721 -0.1254 -0.0159
 2608SOL    HW119457   2.348   4.616   9.637 -0.4815 -0.9719 -2.0107
 2608SOL    HW219458   2.443   4.504   9.639 -0.6148  0.4361 -1.3551
 2609SOL     OW19459   1.861   4.409   5.101 -0.8433  0.5700 -0.1572
 2609SOL    HW119460   1.845   4.344   5.170 -0.5234 -0.7982 -1.3667
 2609SOL    HW219461   1.952   4.429   5.120 -0.5434  0.0826 -1.0641
 2610SOL     OW19462   2.852   4.529   5.583  0.0187 -0.4674 -0.3553
 2610SOL    HW119463   2.946   4.520   5.568 -0.1286 -1.5861 -0.5472
 2610SOL    HW219464   2.851   4.498   5.674 -1.0759  2.5308  0.6692
 2611SOL     OW19465   1.036   1.634   1.221  0.1792  0.6936 -0.1444
 2611SOL    HW119466   0.971   1.594   1.163  0.9461  2.1252 -2.0175
 2611SOL    HW219467   1.090   1.684   1.159 -0.1243 -0.4734 -1.3601
 2612SOL     OW19468   4.138   4.485   1.696 -0.4286 -0.0089 -0.1991
 2612SOL    HW119469   4.116   4.413   1.637 -2.2567 -0.2305  0.7468
 2612SOL    HW219470   4.227   4.460   1.718 -0.2674  2.5893  2.1446
 2613SOL     OW19471   3.427   1.739   6.833 -0.0673  0.4494 -0.1770
 2613SOL    HW119472   3.345   1.740   6.783  1.1976 -0.5731 -2.2356
 2613SOL    HW219473   3.406   1.791   6.911 -1.7094  0.2354 -0.4631
 2614SOL     OW19474   3.603   1.452  17.481 -0.7107 -0.3387 -0.0703
 2614SOL    HW119475   3.666   1.487  17.544 -2.2050 -1.3700  1.9833
 2614SOL    HW219476   3.662   1.396  17.431  0.1479  0.6135 -0.1236
 2615SOL     OW19477   3.755   0.995  10.959  0.0779 -0.0076  0.4749
 2615SOL    HW119478   3.718   0.945  11.031  1.8178 -2.3333 -0.2040
 2615SOL    HW219479   3.704   0.961  10.886  1.7962  0.8075 -1.1225
 2616SOL     OW19480   2.437   0.700   7.184  0.2704 -0.4137 -0.5038
 2616SOL    HW119481   2.368   0.744   7.135  0.6563 -0.2363 -0.8904
 2616SOL    HW219482   2.503   0.738   7.126  1.0979 -0.3998  0.4562
 2617SOL     OW19483   1.281   4.519   7.612 -0.1407  0.3481 -0.0838
 2617SOL    HW119484   1.273   4.609   7.644 -0.6813  0.2949 -0.0829
 2617SOL    HW219485   1.273   4.482   7.700  0.2052 -1.9366 -1.0271
 2618SOL     OW19486   1.290   3.707   3.965  0.2189  0.1345 -0.2122
 2618SOL    HW119487   1.327   3.783   4.011  0.0779  1.4615 -2.2730
 2618SOL    HW219488   1.308   3.732   3.874  0.4004 -0.1643 -0.2570
 2619SOL     OW19489   4.216   3.211   1.961  0.2328  0.2802  0.0453
 2619SOL    HW119490   4.183   3.293   1.924 -1.0207 -0.2279  0.0229
 2619SOL    HW219491   4.142   3.151   1.957  0.5947 -0.1616  0.0115
 2620SOL     OW19492   3.118   0.752   2.998  0.4658  0.2838  0.0820
 2620SOL    HW119493   3.198   0.794   2.966  0.0963 -0.3176 -1.6319
 2620SOL    HW219494   3.140   0.703   3.077 -2.2425  0.2024  0.7848
 2621SOL     OW19495   0.368   3.677   7.002  0.1287 -0.1464  0.3868
 2621SOL    HW119496   0.378   3.725   6.920  0.4653 -1.3802 -0.2959
 2621SOL    HW219497   0.320   3.603   6.965  1.2347 -0.1328 -1.0998
 2622SOL     OW19498   0.548   1.141   8.072 -0.0002 -0.2291  0.0706
 2622SOL    HW119499   0.618   1.193   8.034 -1.2334  0.8281 -0.7496
 2622SOL    HW219500   0.527   1.078   8.003 -1.3272 -1.1285  1.2839
 2623SOL     OW19501   4.694   4.049   2.721  0.2569 -0.2778  0.2332
 2623SOL    HW119502   0.051   4.056   2.688 -0.3686  1.5785 -1.0559
 2623SOL    HW219503   4.684   3.954   2.722  0.8557 -0.3413  0.1935
 2624SOL     OW19504   0.316   4.324   3.074  0.3786 -0.6827  0.1356
 2624SOL    HW119505   0.294   4.281   2.991 -0.1986 -0.2134  0.0489
 2624SOL    HW219506   0.253   4.294   3.140  0.4282  0.5937  0.7537
 2625SOL     OW19507   4.340   1.120   4.957 -0.8115  0.6798  0.0450
 2625SOL    HW119508   4.411   1.129   4.892  0.1569 -1.4328  0.8141
 2625SOL    HW219509   4.262   1.138   4.905  0.1011  0.1933 -1.5025
 2626SOL     OW19510   0.898   4.227   2.014 -0.2661  0.1026 -0.5575
 2626SOL    HW119511   0.829   4.166   2.040  1.2218 -2.1078 -1.7545
 2626SOL    HW219512   0.884   4.222   1.919  3.5232 -3.1167 -0.9714
 2627SOL     OW19513   1.406   2.827   6.478  0.9853  0.3649  0.5886
 2627SOL    HW119514   1.494   2.860   6.461 -0.1168  2.8602 -0.1929
 2627SOL    HW219515   1.356   2.904   6.504  0.4173 -0.2642  1.3521
 2628SOL     OW19516   1.550   0.967   8.815  0.4326 -0.4166  0.3354
 2628SOL    HW119517   1.565   1.005   8.902 -2.0596  1.4672 -0.0509
 2628SOL    HW219518   1.456   0.982   8.804 -0.0845 -2.7021  1.5846
 2629SOL     OW19519   3.875   2.515   5.086 -0.0744  0.0548 -0.3786
 2629SOL    HW119520   3.845   2.435   5.129  0.7675  0.9728  1.8944
 2629SOL    HW219521   3.946   2.554   5.135  1.4819 -0.8476 -1.9039
 2630SOL     OW19522   2.580   1.467  10.335  0.1765 -0.3211 -0.4929
 2630SOL    HW119523   2.501   1.413  10.330 -0.6052  0.8071 -0.3035
 2630SOL    HW219524   2.552   1.557  10.314  0.7404 -0.5456 -2.2348
 2631SOL     OW19525   4.406   3.825   7.679 -0.6094  0.0226 -0.0242
 2631SOL    HW119526   4.372   3.909   7.648  0.5244  0.0961 -1.0217
 2631SOL    HW219527   4.496   3.853   7.696  0.0212 -0.6411 -2.2513
 2632SOL     OW19528   2.750   3.142   5.763 -0.5983  0.3477  0.8278
 2632SOL    HW119529   2.679   3.083   5.738  0.7116 -0.9489  0.1419
 2632SOL    HW219530   2.818   3.077   5.783 -0.5506  0.4567  1.0196
 2633SOL     OW19531   4.057   3.597   3.090 -0.0177 -0.0416  0.0106
 2633SOL    HW119532   4.056   3.689   3.064  0.6606 -0.1936 -0.5542
 2633SOL    HW219533   4.144   3.572   3.057  0.2089 -1.0062  1.3173
 2634SOL     OW19534   0.405   0.116   7.719  0.1987  0.7688 -0.2384
 2634SOL    HW119535   0.346   0.110   7.794  3.8000 -2.0555  2.3638
 2634SOL    HW219536   0.353   0.178   7.668 -2.2398 -0.0041  1.3173
 2635SOL     OW19537   0.170   0.873  17.645  0.1626  0.1201 -0.2306
 2635SOL    HW119538   0.237   0.835  17.589  1.3660  0.1143  1.2355
 2635SOL    HW219539   0.160   0.962  17.610  0.1191  0.3507  0.3663
 2636SOL     OW19540   3.067   1.938   7.463 -0.1911 -0.1030  0.0584
 2636SOL    HW119541   3.112   1.854   7.460 -1.1334 -0.6573  1.4654
 2636SOL    HW219542   3.051   1.949   7.556 -2.7683  1.4721 -0.5624
 2637SOL     OW19543   1.151   3.458   2.406  0.1048  0.0608 -0.5947
 2637SOL    HW119544   1.146   3.389   2.340 -1.8448 -1.4654  1.1522
 2637SOL    HW219545   1.227   3.503   2.370 -0.0337  0.8870  0.1344
 2638SOL     OW19546   0.767   1.125   2.853 -0.5269  0.3562 -0.2063
 2638SOL    HW119547   0.811   1.210   2.861  0.0791 -0.0328  0.5727
 2638SOL    HW219548   0.798   1.090   2.937 -1.3137 -1.1464 -0.5553
 2639SOL     OW19549   2.356   3.635   5.777  0.3677  0.3735  0.6624
 2639SOL    HW119550   2.284   3.593   5.824  1.2280 -0.1798  1.4979
 2639SOL    HW219551   2.414   3.563   5.752  0.2712  1.4501 -2.6379
 2640SOL     OW19552   0.388   1.299   3.169 -0.0242 -0.4327  0.4567
 2640SOL    HW119553   0.301   1.287   3.207 -0.5932  1.0799 -0.3687
 2640SOL    HW219554   0.434   1.224   3.207 -0.1478 -0.4796  0.5137
 2641SOL     OW19555   2.072   2.313   1.777  0.0453  0.2172  0.3743
 2641SOL    HW119556   2.040   2.366   1.705  0.7647 -0.7912 -0.6865
 2641SOL    HW219557   2.054   2.222   1.753 -0.0205  0.7981 -1.7439
 2642SOL     OW19558   0.966   1.787   1.420  0.9890 -0.5366  0.4690
 2642SOL    HW119559   1.051   1.820   1.447  1.1114  0.4534 -1.1642
 2642SOL    HW219560   0.995   1.725   1.354 -0.2702 -0.6517  0.0261
 2643SOL     OW19561   1.490   3.359   9.163  0.9058 -0.5028  0.0339
 2643SOL    HW119562   1.540   3.431   9.124 -0.0704  0.2084  0.0824
 2643SOL    HW219563   1.544   3.333   9.238 -0.4496 -0.6754  0.9607
 2644SOL     OW19564   1.979   1.014   4.258  0.2315  0.0219  0.3033
 2644SOL    HW119565   1.978   0.919   4.255 -0.2647 -0.0270  2.6051
 2644SOL    HW219566   1.886   1.032   4.274  0.1077  1.2549 -1.7045
 2645SOL     OW19567   1.163   3.242   7.662 -0.1264  0.4048 -0.1885
 2645SOL    HW119568   1.186   3.264   7.752 -1.8477  2.7007 -0.3036
 2645SOL    HW219569   1.198   3.155   7.643 -1.5481  0.2681 -2.1726
 2646SOL     OW19570   0.119   2.929   3.214  0.1838  0.0616 -0.0872
 2646SOL    HW119571   0.109   3.025   3.213  1.0299  0.1580  2.2909
 2646SOL    HW219572   0.110   2.904   3.306 -0.0943  1.4666  0.2661
 2647SOL     OW19573   3.118   2.812   6.210  0.1910  0.0409  0.0379
 2647SOL    HW119574   3.181   2.879   6.236 -0.8223  0.6655  0.8584
 2647SOL    HW219575   3.041   2.869   6.212 -0.3735 -0.7363  0.6991
 2648SOL     OW19576   0.864   1.912   6.967  0.2333 -0.2837  0.1150
 2648SOL    HW119577   0.850   1.839   6.906  1.5646  0.5006 -1.1436
 2648SOL    HW219578   0.809   1.979   6.927 -0.4778 -0.2828  1.1141
 2649SOL     OW19579   0.962   1.115   7.615 -0.4589 -0.0800 -0.1077
 2649SOL    HW119580   0.905   1.141   7.688  1.6026 -0.8597  1.7555
 2649SOL    HW219581   1.032   1.180   7.615 -1.0033  0.5049 -0.1274
 2650SOL     OW19582   3.019   3.173  16.858  0.4888  0.3273  0.1085
 2650SOL    HW119583   3.102   3.217  16.875 -0.9919  2.6869  1.1597
 2650SOL    HW219584   3.018   3.108  16.929 -2.2982 -0.0795 -0.3152
 2651SOL     OW19585   0.073   4.217   3.195 -0.2357 -0.3412  0.0492
 2651SOL    HW119586   0.039   4.228   3.284  2.5514  1.6935  0.8702
 2651SOL    HW219587   0.062   4.122   3.186 -1.9958 -0.0095 -1.1886
 2652SOL     OW19588   3.162   2.666  13.787 -0.3598  0.3528  0.9875
 2652SOL    HW119589   3.227   2.734  13.766 -0.1089  1.1057  4.2360
 2652SOL    HW219590   3.105   2.699  13.717 -0.6237 -2.4180 -0.0796
 2653SOL     OW19591   2.917   0.780   7.784  0.5935  0.1165 -0.2814
 2653SOL    HW119592   2.957   0.865   7.805  0.3028 -0.2873  1.8963
 2653SOL    HW219593   2.835   0.809   7.744  0.8506  0.7678 -0.3454
 2654SOL     OW19594   0.098   1.837  14.153  0.4411  0.8110  0.0377
 2654SOL    HW119595   0.156   1.844  14.076  1.7376 -1.5654  0.8024
 2654SOL    HW219596   0.028   1.895  14.124  1.7923  2.1106 -0.6522
 2655SOL     OW19597   0.301   2.327   6.922  0.0324  0.6928 -0.9171
 2655SOL    HW119598   0.337   2.410   6.891  1.2976 -0.1017 -1.6003
 2655SOL    HW219599   0.385   2.290   6.951  0.6866  1.4222 -1.8663
 2656SOL     OW19600   4.393   2.517   6.287 -0.2067 -0.1751 -0.5341
 2656SOL    HW119601   4.391   2.514   6.192 -0.1746  0.9435 -0.5752
 2656SOL    HW219602   4.301   2.519   6.311 -0.3658  0.7328 -1.2514
 2657SOL     OW19603   3.581   1.505   5.858  0.1878 -0.3829 -0.7862
 2657SOL    HW119604   3.650   1.461   5.907  1.1503 -0.0988 -1.8666
 2657SOL    HW219605   3.630   1.581   5.827 -0.0227  0.4261  0.8782
 2658SOL     OW19606   3.372   1.206   7.249 -0.0453  0.0929 -0.1161
 2658SOL    HW119607   3.336   1.120   7.269  0.5661  0.2724  1.7553
 2658SOL    HW219608   3.302   1.262   7.283 -0.5824 -0.3191 -0.5607
 2659SOL     OW19609   1.873   1.328   8.693 -0.0767  0.5485  0.0656
 2659SOL    HW119610   1.876   1.234   8.710  0.3519  0.6914  0.7923
 2659SOL    HW219611   1.779   1.337   8.708  0.0920  1.5615  0.5150
 2660SOL     OW19612   0.667   4.253   5.076 -0.1711 -0.3382  0.4882
 2660SOL    HW119613   0.719   4.174   5.093 -2.1362 -1.6194  0.5644
 2660SOL    HW219614   0.625   4.235   4.992  2.9286 -1.4472 -0.8108
 2661SOL     OW19615   4.253   2.383   8.078 -0.2867  0.1908 -0.6148
 2661SOL    HW119616   4.341   2.353   8.057 -0.7289  0.9974 -3.6512
 2661SOL    HW219617   4.263   2.465   8.126  0.8236 -0.1678 -0.2441
 2662SOL     OW19618   4.480   4.604   9.835  0.1948 -0.6475 -0.1095
 2662SOL    HW119619   4.549   4.540   9.817  0.8759  0.2130 -0.5042
 2662SOL    HW219620   4.510   4.683   9.791  1.1170 -1.4015 -0.8521
 2663SOL     OW19621   4.321   3.696   7.310 -0.4068 -0.9382  0.3200
 2663SOL    HW119622   4.305   3.769   7.370  2.2501  0.2049 -0.3529
 2663SOL    HW219623   4.308   3.619   7.365 -2.8313 -0.9229 -0.2274
 2664SOL     OW19624   0.498   0.880  11.450 -0.4388  0.4023 -0.6093
 2664SOL    HW119625   0.565   0.814  11.431 -0.6749  0.0592 -0.2589
 2664SOL    HW219626   0.484   0.925  11.366 -0.2301  0.7703 -0.4436
 2665SOL     OW19627   1.576   2.866   6.776 -0.0125 -0.1519  0.2435
 2665SOL    HW119628   1.633   2.871   6.699 -1.2898  0.5398 -0.6421
 2665SOL    HW219629   1.598   2.773   6.787  0.3115 -0.2631 -1.3804
 2666SOL     OW19630   1.573   1.877   6.332 -1.0155 -0.0551 -0.8083
 2666SOL    HW119631   1.507   1.889   6.399  0.8603 -0.8681  1.1787
 2666SOL    HW219632   1.586   1.963   6.292 -0.4784  0.3949  0.3469
 2667SOL     OW19633   0.646   0.011   7.615  0.1858 -0.8188 -0.1584
 2667SOL    HW119634   0.558   0.036   7.642  0.5867 -0.2451  0.6188
 2667SOL    HW219635   0.663   4.653   7.642  0.1083 -0.7849 -0.0019
 2668SOL     OW19636   3.911   1.277   6.934  0.5817 -0.0456  0.0751
 2668SOL    HW119637   3.956   1.212   6.881  1.0943  2.5438 -2.6759
 2668SOL    HW219638   3.920   1.234   7.019  0.2850  1.5479  0.9272
 2669SOL     OW19639   1.978   2.372   4.613 -0.3446  0.2839  0.4484
 2669SOL    HW119640   2.029   2.421   4.677 -1.1728 -0.6718  1.8295
 2669SOL    HW219641   1.996   2.292   4.661 -0.7153 -1.0623 -1.6794
 2670SOL     OW19642   3.998   2.842   5.066  0.2649 -0.3772  0.0932
 2670SOL    HW119643   3.912   2.875   5.091  0.4197 -2.6292  3.6257
 2670SOL    HW219644   4.048   2.924   5.055 -4.3267  2.7305  2.4070
 2671SOL     OW19645   3.950   1.426   1.615  0.0233  0.0554 -0.3593
 2671SOL    HW119646   3.956   1.330   1.618 -3.1837 -0.0754  2.1504
 2671SOL    HW219647   3.986   1.447   1.529 -2.7485  1.6695 -1.1040
 2672SOL     OW19648   1.982   2.656  16.049 -0.4175 -0.0808 -0.3643
 2672SOL    HW119649   1.958   2.595  15.979 -4.2109  0.6873  0.2663
 2672SOL    HW219650   2.073   2.627  16.054 -0.4607 -0.1790 -0.1500
 2673SOL     OW19651   1.432   0.595   2.840 -0.3999 -0.3938  0.1898
 2673SOL    HW119652   1.505   0.535   2.826  0.0242  0.1554  0.0354
 2673SOL    HW219653   1.393   0.587   2.753 -1.5906  2.9515  0.4158
 2674SOL     OW19654   2.571   2.443   8.005  0.4195 -0.6290  0.1525
 2674SOL    HW119655   2.549   2.360   7.962  3.0876 -1.5300  0.4799
 2674SOL    HW219656   2.644   2.464   7.946  0.1004 -0.9528 -0.3579
 2675SOL     OW19657   4.138   4.379   2.599  0.0207 -0.4158 -0.0223
 2675SOL    HW119658   4.138   4.325   2.678  0.3710  1.6746  1.4092
 2675SOL    HW219659   4.197   4.324   2.547  2.0661  0.0878  1.7665
 2676SOL     OW19660   1.293   2.040   7.003 -0.0705  0.0534 -0.1791
 2676SOL    HW119661   1.264   1.986   6.930  0.3520  0.3595 -0.5726
 2676SOL    HW219662   1.362   2.091   6.960  0.3005 -0.8114 -0.6053
 2677SOL     OW19663   4.414   0.315  14.917  0.8124  0.2213  0.5226
 2677SOL    HW119664   4.353   0.369  14.867  0.2400 -0.5758  0.3623
 2677SOL    HW219665   4.449   0.379  14.979 -1.3252 -0.4357  2.4001
 2678SOL     OW19666   1.187   4.516  16.512 -0.1872  0.2631  0.2469
 2678SOL    HW119667   1.128   4.441  16.521  0.8356 -0.3465  2.1520
 2678SOL    HW219668   1.182   4.556  16.599  0.3623 -0.1366  0.4701
 2679SOL     OW19669   1.542   0.226   5.097 -0.3467 -0.2865  0.2962
 2679SOL    HW119670   1.446   0.228   5.095 -0.3307 -1.4329 -1.3122
 2679SOL    HW219671   1.568   0.281   5.171 -0.3296  0.0313  0.0531
 2680SOL     OW19672   1.683   3.558  10.777  0.5687  0.3131 -0.1524
 2680SOL    HW119673   1.708   3.536  10.687  1.1788 -0.0886  0.1100
 2680SOL    HW219674   1.636   3.639  10.759  1.8713  0.8882 -0.9927
 2681SOL     OW19675   1.946   1.273   7.708  0.0875 -0.0399 -0.1763
 2681SOL    HW119676   1.940   1.199   7.768 -3.5889  0.1082 -0.3479
 2681SOL    HW219677   1.949   1.349   7.766 -1.2312  0.6146 -0.9580
 2682SOL     OW19678   4.263   0.878   9.157 -0.0418  0.1583 -0.9780
 2682SOL    HW119679   4.295   0.968   9.160  1.3543 -0.4304  1.6743
 2682SOL    HW219680   4.272   0.852   9.065  0.7151 -0.5859 -0.6988
 2683SOL     OW19681   0.301   3.749   0.902 -0.4997  0.8193 -0.4990
 2683SOL    HW119682   0.388   3.711   0.897 -0.8419 -0.0256 -0.0966
 2683SOL    HW219683   0.286   3.746   0.997  1.6182  0.0519 -0.1938
 2684SOL     OW19684   1.311   1.055   2.229  0.3600 -0.1078 -0.0255
 2684SOL    HW119685   1.267   1.015   2.304  1.0336 -0.5167  0.1581
 2684SOL    HW219686   1.297   0.981   2.169  1.2464 -1.0820  0.9640
 2685SOL     OW19687   4.130   4.646   9.165 -0.3244 -0.3847 -0.8423
 2685SOL    HW119688   4.102   4.657   9.256  1.9492  0.4179 -0.2320
 2685SOL    HW219689   4.132   4.551   9.159  1.9452 -0.4024  0.5635
 2686SOL     OW19690   1.113   1.536   5.804 -0.2753 -0.0197  0.3593
 2686SOL    HW119691   1.037   1.523   5.747  0.3276  1.7079 -0.8071
 2686SOL    HW219692   1.129   1.625   5.775  2.2929 -0.8109 -0.6036
 2687SOL     OW19693   0.476   1.308   2.908  0.5937  0.0957 -0.7057
 2687SOL    HW119694   0.567   1.299   2.937 -0.0414 -3.9758  0.0417
 2687SOL    HW219695   0.432   1.300   2.993  2.1797 -0.6391  0.0360
 2688SOL     OW19696   0.800   4.051   4.807  0.9712 -0.2320  0.1055
 2688SOL    HW119697   0.819   3.997   4.731  3.4981  0.9060 -0.0919
 2688SOL    HW219698   0.886   4.068   4.847  1.2784  2.4043 -1.6974
 2689SOL     OW19699   0.158   2.889   9.857 -0.1878  0.4538  0.1841
 2689SOL    HW119700   0.193   2.872   9.769 -3.8751 -1.7177 -0.8457
 2689SOL    HW219701   0.126   2.979   9.853 -0.8110  0.1194 -2.1673
 2690SOL     OW19702   1.462   1.354   4.190 -1.2139 -0.0015  0.5638
 2690SOL    HW119703   1.475   1.361   4.095 -0.3325 -0.2376  0.6670
 2690SOL    HW219704   1.434   1.444   4.202 -0.1119  0.4075  0.0771
 2691SOL     OW19705   4.634   1.689  13.246 -0.1533 -0.7461  0.0268
 2691SOL    HW119706   4.710   1.747  13.250 -1.5142  1.0462 -0.5963
 2691SOL    HW219707   4.659   1.623  13.181 -1.6320 -0.4621 -0.8365
 2692SOL     OW19708   3.118   2.506   2.701  0.2189  0.2412 -0.0822
 2692SOL    HW119709   3.211   2.528   2.709  0.3315 -0.4539  0.4274
 2692SOL    HW219710   3.115   2.423   2.748  1.0172 -0.0941 -0.6307
 2693SOL     OW19711   1.094   0.515   2.558 -0.4417 -0.6683 -0.4090
 2693SOL    HW119712   1.171   0.535   2.612 -1.0135  1.0352 -0.2117
 2693SOL    HW219713   1.018   0.533   2.614  0.4511 -1.5054  1.0801
 2694SOL     OW19714   2.355   3.668   7.520  0.4756  0.0849 -0.1077
 2694SOL    HW119715   2.334   3.669   7.614 -1.2158  0.5484 -0.4892
 2694SOL    HW219716   2.370   3.574   7.506 -1.9767 -0.5680  1.6027
 2695SOL     OW19717   1.755   0.374   6.834 -0.0634  0.5573  0.0495
 2695SOL    HW119718   1.819   0.444   6.842  0.1307  0.2392  1.3876
 2695SOL    HW219719   1.718   0.396   6.749  0.6563  0.3516 -0.3130
 2696SOL     OW19720   0.860   0.747   5.423 -0.0420 -0.1452  0.0121
 2696SOL    HW119721   0.889   0.835   5.400 -0.4187 -0.0915 -0.2600
 2696SOL    HW219722   0.774   0.749   5.380  0.4172 -0.8782 -0.9280
 2697SOL     OW19723   0.647   2.218   2.509  0.0178 -0.0952 -0.7679
 2697SOL    HW119724   0.557   2.185   2.499  0.6112 -1.8837 -0.2685
 2697SOL    HW219725   0.670   2.244   2.420  0.9115  0.7445 -0.2836
 2698SOL     OW19726   2.994   0.271   2.556 -0.0521  0.2185 -0.1992
 2698SOL    HW119727   3.010   0.179   2.534  0.8878  0.1172  0.9102
 2698SOL    HW219728   2.901   0.290   2.561 -0.0072  0.2075  0.7008
 2699SOL     OW19729   4.501   1.538  10.600 -0.1086  0.0354 -0.4134
 2699SOL    HW119730   4.408   1.522  10.613 -0.6484  0.6149 -3.5015
 2699SOL    HW219731   4.539   1.510  10.683  2.1662  2.0821 -0.7545
 2700SOL     OW19732   1.814   0.927  11.763  0.2825  0.6247  0.0267
 2700SOL    HW119733   1.763   0.878  11.698 -3.0302  2.6468  1.0821
 2700SOL    HW219734   1.764   0.892  11.837 -1.1032  0.1838 -1.1056
 2701SOL     OW19735   3.373   3.672   4.412  0.3248  0.8203 -0.3275
 2701SOL    HW119736   3.441   3.608   4.389  0.0795  0.2988  0.4187
 2701SOL    HW219737   3.407   3.749   4.366 -2.1387  2.3304  0.4290
 2702SOL     OW19738   4.088   3.949   3.466 -0.0354  0.0557 -0.1971
 2702SOL    HW119739   4.019   3.969   3.403 -0.8817  0.1409  0.7695
 2702SOL    HW219740   4.137   3.886   3.413  0.7913  0.4267  0.1241
 2703SOL     OW19741   2.638   1.442   2.229 -0.4116  0.1485 -0.5112
 2703SOL    HW119742   2.616   1.480   2.144 -1.3883 -1.2460 -0.8818
 2703SOL    HW219743   2.602   1.353   2.226 -0.5998  0.1193  2.3138
 2704SOL     OW19744   0.406   4.411   6.882  0.0017  0.3910  0.1335
 2704SOL    HW119745   0.344   4.399   6.954  0.9268 -0.3336  0.8024
 2704SOL    HW219746   0.474   4.457   6.931 -1.5556  2.6509  0.1601
 2705SOL     OW19747   3.059   2.130   8.533  0.4120 -0.0890  0.0386
 2705SOL    HW119748   3.095   2.200   8.588 -2.7694 -0.0153  2.0096
 2705SOL    HW219749   2.978   2.109   8.579 -0.9525 -0.3487 -2.4574
 2706SOL     OW19750   4.663   3.721   5.062  0.0028 -0.0361 -0.2201
 2706SOL    HW119751   4.589   3.765   5.106  0.4517 -0.3149  0.8139
 2706SOL    HW219752   4.612   3.693   4.986 -1.5175 -2.1102  1.5730
 2707SOL     OW19753   4.089   0.174   5.577 -0.2083  0.2685 -0.3885
 2707SOL    HW119754   4.118   0.209   5.493  0.0871  1.9074  0.3863
 2707SOL    HW219755   4.122   0.246   5.631  1.8739 -2.3826  1.8955
 2708SOL     OW19756   1.172   3.767   3.467  0.4894 -0.5941 -0.0025
 2708SOL    HW119757   1.208   3.723   3.544 -1.7450 -0.8774  0.8895
 2708SOL    HW219758   1.169   3.855   3.504 -0.1306 -0.6825  0.1535
 2709SOL     OW19759   3.906   4.577   8.240 -0.1080  0.5616 -0.1078
 2709SOL    HW119760   3.922   4.671   8.236 -0.6145  0.5942 -1.4169
 2709SOL    HW219761   3.956   4.548   8.164  0.9812  0.9374  0.4657
 2710SOL     OW19762   2.631   1.427   0.228 -0.3069  0.3753 -0.7596
 2710SOL    HW119763   2.705   1.382   0.187  0.0192 -0.5529  0.8777
 2710SOL    HW219764   2.649   1.392   0.315  0.1723 -1.8784 -1.7498
 2711SOL     OW19765   2.371   1.893   3.577  0.2480  0.3433  0.5576
 2711SOL    HW119766   2.286   1.865   3.610 -0.4993  1.6794 -0.2554
 2711SOL    HW219767   2.428   1.817   3.587 -1.8106 -1.5294 -2.0582
 2712SOL     OW19768   3.059   0.540   2.550 -0.5745 -0.4885  0.1041
 2712SOL    HW119769   3.063   0.554   2.455  1.6691 -3.0150 -0.1355
 2712SOL    HW219770   3.024   0.451   2.558  1.2629 -1.0435  1.7833
 2713SOL     OW19771   0.510   2.225  15.338 -0.6699  0.0481  0.0952
 2713SOL    HW119772   0.511   2.252  15.246 -0.1570 -0.8788 -0.1721
 2713SOL    HW219773   0.417   2.207  15.350 -0.7045  2.6319  3.6381
 2714SOL     OW19774   4.238   2.335   5.052 -0.1935 -0.4760  0.1941
 2714SOL    HW119775   4.246   2.379   4.968 -2.0227  1.4672  1.0483
 2714SOL    HW219776   4.290   2.387   5.114 -2.1523  2.3935 -0.6004
 2715SOL     OW19777   0.594   3.035   7.654 -0.6212  0.4890  0.2179
 2715SOL    HW119778   0.556   3.122   7.637  1.2047  0.8261 -2.1139
 2715SOL    HW219779   0.546   2.994   7.725  1.8057  0.5737  1.9294
 2716SOL     OW19780   3.691   3.780  11.112  0.0462  0.2199 -0.3106
 2716SOL    HW119781   3.754   3.766  11.183 -0.0320 -1.6561 -0.5920
 2716SOL    HW219782   3.683   3.689  11.082  0.4643 -0.5824  1.9515
 2717SOL     OW19783   2.596   1.190  10.705  0.1613 -0.0194 -0.3550
 2717SOL    HW119784   2.589   1.204  10.610 -0.4531 -0.7660 -0.4172
 2717SOL    HW219785   2.516   1.138  10.707  0.2674 -0.2690 -2.2104
 2718SOL     OW19786   4.643   2.795  13.634 -0.3471 -0.6328 -0.1770
 2718SOL    HW119787   4.610   2.724  13.579  2.2121 -2.1889  0.2703
 2718SOL    HW219788   4.568   2.814  13.690 -0.0878  0.3565 -0.1490
 2719SOL     OW19789   2.153   1.664   5.477  0.1010  0.5097  0.3705
 2719SOL    HW119790   2.226   1.604   5.487  0.1491  0.4962 -0.0524
 2719SOL    HW219791   2.146   1.668   5.381  2.1162 -0.0781  0.2116
 2720SOL     OW19792   1.457   4.277   8.078  0.5245  0.2357  0.0372
 2720SOL    HW119793   1.386   4.221   8.110 -0.9195  0.9658 -1.8713
 2720SOL    HW219794   1.516   4.210   8.042 -2.0559 -1.7416 -0.4749
 2721SOL     OW19795   2.829   1.959   4.306  0.2602  0.4032 -0.0063
 2721SOL    HW119796   2.893   1.937   4.239  0.2463  1.1365 -0.2513
 2721SOL    HW219797   2.765   1.888   4.293 -0.2279  0.8806 -0.2039
 2722SOL     OW19798   1.181   3.923   1.225  0.0424 -0.1471 -0.3162
 2722SOL    HW119799   1.113   3.941   1.160 -1.0068  1.0932  1.1234
 2722SOL    HW219800   1.166   3.984   1.297 -1.6170  1.2445 -1.8509
 2723SOL     OW19801   3.878   4.085  14.365 -0.3450  0.4544 -0.4932
 2723SOL    HW119802   3.954   4.135  14.396  2.6989 -4.6406  0.2771
 2723SOL    HW219803   3.937   4.043  14.302 -1.0798  0.1338 -0.9588
 2724SOL     OW19804   2.721   1.865  10.634  0.5396 -0.2787 -0.4467
 2724SOL    HW119805   2.749   1.773  10.638  0.7275 -0.1643  1.0090
 2724SOL    HW219806   2.783   1.891  10.565 -1.8075  1.7908 -1.7473
 2725SOL     OW19807   3.299   0.337   8.296  0.5058 -0.4106  0.2145
 2725SOL    HW119808   3.310   0.242   8.308  2.0418 -0.3221 -0.5389
 2725SOL    HW219809   3.336   0.353   8.210 -1.3548  0.9931 -0.3089
 2726SOL     OW19810   2.594   1.516   5.378  0.2907  0.1863 -0.2697
 2726SOL    HW119811   2.547   1.475   5.306  0.5244  2.9502 -1.9802
 2726SOL    HW219812   2.624   1.432   5.411 -0.8024  0.6020  1.8175
 2727SOL     OW19813   1.620   3.571  11.488 -0.5003  0.0076  0.1536
 2727SOL    HW119814   1.540   3.545  11.443 -0.8736  0.5949  0.4825
 2727SOL    HW219815   1.592   3.563  11.580  2.0367 -0.5349  0.8750
 2728SOL     OW19816   2.655   3.937   0.709 -0.0197  0.0604  0.3468
 2728SOL    HW119817   2.640   3.973   0.796 -0.1094  1.5544 -0.2976
 2728SOL    HW219818   2.688   4.018   0.671 -0.6564  0.7333  1.2444
 2729SOL     OW19819   0.360   3.495   9.435 -0.3517  0.4468 -0.1983
 2729SOL    HW119820   0.398   3.569   9.481  0.4457 -1.2736  1.9069
 2729SOL    HW219821   0.273   3.505   9.473  0.5768  2.1027  1.4887
 2730SOL     OW19822   2.946   3.374   8.259  0.0342 -0.5434 -0.0637
 2730SOL    HW119823   2.927   3.416   8.343  0.9395  0.6252 -0.4425
 2730SOL    HW219824   2.997   3.303   8.298 -1.2781 -2.3056 -1.5879
 2731SOL     OW19825   1.136   4.483   9.794  0.3766  0.6317 -0.1608
 2731SOL    HW119826   1.108   4.399   9.757 -2.0558  1.3141  0.1156
 2731SOL    HW219827   1.050   4.513   9.822 -0.4727 -2.0619  0.1220
 2732SOL     OW19828   0.251   3.643   1.162  0.0459  0.1181 -0.5119
 2732SOL    HW119829   0.257   3.690   1.245  0.5889 -1.6773  0.4831
 2732SOL    HW219830   0.327   3.588   1.181  0.2491  0.1976 -1.0791
 2733SOL     OW19831   3.254   2.756   3.565  0.1562  0.2641  0.0621
 2733SOL    HW119832   3.163   2.758   3.594 -0.0027 -0.7950 -0.3489
 2733SOL    HW219833   3.233   2.761   3.471 -0.0896  0.1314  0.1086
 2734SOL     OW19834   0.976   2.385   9.253 -0.3178  0.3413 -0.7277
 2734SOL    HW119835   0.884   2.410   9.261 -0.6789 -1.5269  0.8931
 2734SOL    HW219836   0.997   2.352   9.340 -1.2449  1.5637 -0.0335
 2735SOL     OW19837   1.691   4.399   8.478 -0.0339  0.2581  0.2278
 2735SOL    HW119838   1.622   4.450   8.434 -0.2174 -0.0092  0.2097
 2735SOL    HW219839   1.751   4.376   8.406 -2.3979 -2.8045 -0.7413
 2736SOL     OW19840   0.032   1.824  11.642  0.3889  0.6035  0.2527
 2736SOL    HW119841   4.690   1.776  11.679 -0.0497  0.6630 -0.5398
 2736SOL    HW219842   0.047   1.894  11.705 -0.9234  1.5331 -0.4770
 2737SOL     OW19843   2.908   4.408   6.637  0.2102 -1.0477  0.1038
 2737SOL    HW119844   2.834   4.468   6.624  1.1541  0.1537  0.2758
 2737SOL    HW219845   2.960   4.464   6.694  1.2212  0.0027 -1.8296
 2738SOL     OW19846   1.945   0.158   8.108 -0.2267  0.1582 -0.0772
 2738SOL    HW119847   1.984   0.104   8.040  0.5403 -0.1737  0.6274
 2738SOL    HW219848   1.898   0.228   8.063  1.9929  0.8293 -1.3726
 2739SOL     OW19849   3.543   3.175   7.819 -0.4038 -0.0367 -0.0212
 2739SOL    HW119850   3.603   3.246   7.796 -1.1196  0.1058 -1.4736
 2739SOL    HW219851   3.469   3.207   7.767  0.5836 -1.5794 -2.3948
 2740SOL     OW19852   2.474   3.888   6.542 -0.4194 -0.1230  0.5039
 2740SOL    HW119853   2.392   3.842   6.523 -0.1779  0.1639 -1.2345
 2740SOL    HW219854   2.528   3.851   6.472 -2.0389  0.0918 -0.8623
 2741SOL     OW19855   0.068   2.302   7.036 -0.2852  0.5351 -0.1033
 2741SOL    HW119856   0.145   2.314   6.981 -0.3557  1.5025  0.0176
 2741SOL    HW219857   0.077   2.376   7.096 -0.8352 -0.1763  0.8488
 2742SOL     OW19858   3.992   0.526  16.986  0.7647 -0.1534 -0.3615
 2742SOL    HW119859   4.002   0.483  17.071 -1.2922  1.2173  0.5733
 2742SOL    HW219860   3.985   0.446  16.935 -0.4071  0.9107 -1.8626
 2743SOL     OW19861   0.546   0.514   3.799  0.0528 -0.0087 -0.2160
 2743SOL    HW119862   0.462   0.494   3.758  0.0103 -0.2700  0.0051
 2743SOL    HW219863   0.584   0.572   3.733  2.2124  1.4064  2.2680
 2744SOL     OW19864   2.494   2.056   3.393  0.1899 -0.5315  0.1555
 2744SOL    HW119865   2.472   2.148   3.406  1.0462 -0.0459 -1.8271
 2744SOL    HW219866   2.435   2.004   3.447  0.9985 -1.2638  0.3404
 2745SOL     OW19867   0.336   2.689  15.285  0.0473  0.2114  0.4177
 2745SOL    HW119868   0.353   2.730  15.200  0.8162  0.3654  0.6422
 2745SOL    HW219869   0.305   2.603  15.256 -1.3232  0.9185 -0.2321
 2746SOL     OW19870   1.301   3.805   7.662 -0.4663 -0.2758 -0.0576
 2746SOL    HW119871   1.333   3.862   7.731  1.7593 -1.4270 -0.1350
 2746SOL    HW219872   1.385   3.766   7.638  0.4734  1.3684  0.6346
 2747SOL     OW19873   2.594   1.949   2.139 -0.4490  0.6279 -0.0581
 2747SOL    HW119874   2.505   1.946   2.104 -0.7119 -1.4704  0.7606
 2747SOL    HW219875   2.594   1.935   2.234 -0.2358  0.9656 -0.0089
 2748SOL     OW19876   4.121   4.518   0.455 -0.5065 -0.5690 -0.1869
 2748SOL    HW119877   4.042   4.468   0.478 -0.5736  0.4047  1.7458
 2748SOL    HW219878   4.163   4.444   0.412  0.0350 -0.4569  0.1429
 2749SOL     OW19879   4.451   0.983   1.921  0.3233 -0.2002 -0.1377
 2749SOL    HW119880   4.425   0.999   2.012  0.2228 -2.1519  0.1742
 2749SOL    HW219881   4.368   0.977   1.873  1.0076 -1.5283 -1.1400
 2750SOL     OW19882   4.049   1.808   6.604  0.2891 -0.2298 -0.7026
 2750SOL    HW119883   4.046   1.806   6.700  0.5952  0.1567 -0.6842
 2750SOL    HW219884   4.130   1.859   6.593 -0.6301  1.3618 -0.1168
 2751SOL     OW19885   0.605   0.072   8.421  0.1042 -0.6204  0.2791
 2751SOL    HW119886   0.652   0.152   8.444  1.7431 -0.1857 -4.6848
 2751SOL    HW219887   0.648   0.013   8.483  0.2257  1.5717  2.3116
 2752SOL     OW19888   1.203   0.733   5.277 -0.4283  0.2451  0.1226
 2752SOL    HW119889   1.194   0.723   5.372  2.0354 -2.8656  0.0613
 2752SOL    HW219890   1.291   0.696   5.265 -0.7676 -0.4923 -0.0941
 2753SOL     OW19891   1.674   4.447   1.899  0.5911 -0.3854  0.1688
 2753SOL    HW119892   1.584   4.465   1.875  0.5029 -0.0836  0.7308
 2753SOL    HW219893   1.666   4.352   1.903  1.0932 -0.4848 -1.3099
 2754SOL     OW19894   4.101   0.984   3.637 -0.1126 -0.3008 -0.0265
 2754SOL    HW119895   4.089   1.023   3.723  0.2762  1.6698 -0.8779
 2754SOL    HW219896   4.166   0.916   3.652 -1.3787 -1.6455 -0.5725
 2755SOL     OW19897   3.926   1.870   6.230  0.1301 -0.2288 -0.2236
 2755SOL    HW119898   3.885   1.866   6.317  1.0624  0.2821  0.2415
 2755SOL    HW219899   4.012   1.910   6.243  0.1364 -0.1790 -0.4183
 2756SOL     OW19900   2.474   1.782   8.615  0.0452 -0.0707 -0.6970
 2756SOL    HW119901   2.529   1.783   8.537  2.7878 -1.7430  1.1953
 2756SOL    HW219902   2.412   1.717   8.585 -0.4216  0.9143 -1.8477
 2757SOL     OW19903   1.370   0.817   0.819  0.4096 -1.4067 -0.2919
 2757SOL    HW119904   1.391   0.763   0.743 -1.1877  0.7488 -2.2271
 2757SOL    HW219905   1.457   0.858   0.815  1.0760 -2.8275 -0.3819
 2758SOL     OW19906   2.407   0.162   7.094  0.2853 -0.3580 -0.1147
 2758SOL    HW119907   2.436   0.147   7.184 -0.4114  0.0730  0.1821
 2758SOL    HW219908   2.491   0.170   7.050 -0.0550 -1.8275 -1.0150
 2759SOL     OW19909   1.930   1.658   4.955  0.1383 -0.0115  0.0079
 2759SOL    HW119910   2.006   1.609   4.923  0.3971  1.9558 -2.3834
 2759SOL    HW219911   1.858   1.630   4.898 -0.7616  0.5781  0.8635
 2760SOL     OW19912   2.149   1.041  16.229 -0.4095 -0.0736 -0.7204
 2760SOL    HW119913   2.070   1.093  16.218 -1.0912 -1.0113 -0.2576
 2760SOL    HW219914   2.178   1.080  16.312 -0.8835  0.5984 -0.8710
 2761SOL     OW19915   0.434   2.249   6.631 -0.4132 -0.2311 -0.0630
 2761SOL    HW119916   0.439   2.329   6.579 -2.5181  0.4762  0.8002
 2761SOL    HW219917   0.503   2.269   6.694  0.9259 -0.9414 -1.3353
 2762SOL     OW19918   1.096   4.141   7.831  0.6371  0.1104  0.2461
 2762SOL    HW119919   1.150   4.062   7.824 -0.6952 -0.8370  0.5583
 2762SOL    HW219920   1.015   4.098   7.802  0.1229  1.0693  0.2403
 2763SOL     OW19921   3.897   3.095   3.066 -0.1795  0.9125  0.1422
 2763SOL    HW119922   3.983   3.060   3.091  0.1092  1.9091  0.5594
 2763SOL    HW219923   3.905   3.187   3.092 -0.4226  0.9041  0.2481
 2764SOL     OW19924   4.605   4.240   2.197 -0.3096 -0.1310 -0.4135
 2764SOL    HW119925   4.662   4.215   2.270 -1.1005 -1.0780 -0.1244
 2764SOL    HW219926   4.625   4.186   2.121 -1.6273  0.6369 -1.3244
 2765SOL     OW19927   2.971   4.395   1.976  0.2266 -0.1028 -0.3231
 2765SOL    HW119928   3.060   4.426   1.995 -0.4800  1.1837  0.8855
 2765SOL    HW219929   2.974   4.300   1.963  2.1079  0.0635 -1.0666
 2766SOL     OW19930   2.767   2.063   6.302  0.6254 -0.7397 -0.1297
 2766SOL    HW119931   2.715   2.132   6.262  0.6229 -1.7294 -1.8349
 2766SOL    HW219932   2.705   1.991   6.319 -0.4256 -0.0878 -1.1594
 2767SOL     OW19933   2.042   2.671  17.572  0.1779 -1.0122  0.3557
 2767SOL    HW119934   2.061   2.599  17.633  0.2107 -0.3680  1.1041
 2767SOL    HW219935   1.961   2.700  17.615  0.7027 -0.4327  0.9444
 2768SOL     OW19936   3.401   3.132   9.843  0.0045 -0.1997 -0.3555
 2768SOL    HW119937   3.480   3.080   9.828 -0.8280 -1.2370 -1.1896
 2768SOL    HW219938   3.364   3.143   9.755 -1.9455  0.3853  0.5501
 2769SOL     OW19939   3.446   3.761   4.661 -0.0768  0.0375  0.5945
 2769SOL    HW119940   3.395   3.737   4.583  3.0922  0.7457 -1.6824
 2769SOL    HW219941   3.443   3.857   4.664  1.2084  0.1443 -1.4647
 2770SOL     OW19942   1.907   0.933   9.826  0.7935  0.2510 -0.2746
 2770SOL    HW119943   1.985   0.952   9.878  0.1858  0.7826  0.4573
 2770SOL    HW219944   1.922   0.844   9.794 -1.2876 -0.3846  0.4983
 2771SOL     OW19945   3.773   0.414  11.481 -0.2472 -0.0065 -0.1873
 2771SOL    HW119946   3.848   0.415  11.540 -0.8975  3.0919  0.6081
 2771SOL    HW219947   3.822   0.425  11.400 -2.5150 -3.2973 -2.0097
 2772SOL     OW19948   3.786   2.555   6.724 -0.4579 -0.7117 -0.0039
 2772SOL    HW119949   3.703   2.583   6.762 -2.4931 -2.8149 -2.9675
 2772SOL    HW219950   3.780   2.562   6.629  0.1190  0.1902  0.0195
 2773SOL     OW19951   0.335   3.247  12.449 -0.3605 -0.5743  0.0430
 2773SOL    HW119952   0.246   3.257  12.413 -0.3894  1.4112  0.6908
 2773SOL    HW219953   0.314   3.198  12.529 -1.3177 -1.1937 -0.5751
 2774SOL     OW19954   0.507   0.231   8.124 -0.0066  0.1443  0.2809
 2774SOL    HW119955   0.562   0.202   8.050 -1.8221 -0.9193 -0.6472
 2774SOL    HW219956   0.578   0.264   8.179  0.6616  0.2573 -0.6519
 2775SOL     OW19957   3.386   2.672   3.934 -0.2152  0.3940 -0.4928
 2775SOL    HW119958   3.441   2.667   3.856  0.8916 -1.1102  0.4007
 2775SOL    HW219959   3.430   2.749   3.971 -1.2336  0.5972  0.2935
 2776SOL     OW19960   3.486   0.563  17.527  0.2055 -0.7449  0.3564
 2776SOL    HW119961   3.560   0.502  17.521  1.9370  1.5884 -1.7821
 2776SOL    HW219962   3.426   0.507  17.577 -0.3442  1.2837  1.9291
 2777SOL     OW19963   2.189   3.480   5.915  0.3578  0.7876 -0.1088
 2777SOL    HW119964   2.272   3.460   5.957  1.0654 -2.5940 -3.1471
 2777SOL    HW219965   2.141   3.397   5.927  2.8589 -0.6730 -0.2837
 2778SOL     OW19966   0.044   3.328   6.182  0.1118 -0.9189 -0.4788
 2778SOL    HW119967   0.067   3.419   6.162 -1.3679 -0.2480  0.8432
 2778SOL    HW219968   4.699   3.332   6.238  0.2355  1.4923 -0.4715
 2779SOL     OW19969   0.420   3.764  16.953 -0.1864  0.0540 -0.0087
 2779SOL    HW119970   0.349   3.721  16.906 -0.6938  1.9396 -1.0013
 2779SOL    HW219971   0.492   3.729  16.901  0.3182  0.1261  0.6517
 2780SOL     OW19972   0.959   0.355  12.488 -0.2235  0.0486 -0.2988
 2780SOL    HW119973   1.045   0.316  12.475  0.7865  1.4668  2.1409
 2780SOL    HW219974   0.908   0.276  12.503 -0.8083  0.7456  1.3544
 2781SOL     OW19975   2.937   0.291   6.374  0.5988 -0.5693  0.3039
 2781SOL    HW119976   2.955   0.208   6.418  1.2926  0.2391  1.5133
 2781SOL    HW219977   2.841   0.284   6.373  0.3720  2.3737  1.9289
 2782SOL     OW19978   4.144   1.618   8.171  0.4831  0.2325  0.0917
 2782SOL    HW119979   4.114   1.623   8.081 -1.4659  1.7512  0.8212
 2782SOL    HW219980   4.140   1.710   8.195  0.7947 -0.3742  2.5032
 2783SOL     OW19981   1.685   3.911   7.729  0.1436  0.1971  0.1491
 2783SOL    HW119982   1.637   3.994   7.735 -0.9226 -0.3296 -1.2022
 2783SOL    HW219983   1.762   3.945   7.774  0.1886  0.7055 -0.3017
 2784SOL     OW19984   1.642   0.983   2.273 -0.0256 -0.2016  0.2487
 2784SOL    HW119985   1.622   0.891   2.288  2.1766 -0.5835  0.8522
 2784SOL    HW219986   1.602   1.018   2.352 -0.7759 -0.0448 -0.1928
 2785SOL     OW19987   4.692   4.080   5.639 -0.3952  0.0324 -0.0632
 2785SOL    HW119988   0.023   4.025   5.593 -1.8753 -1.4725 -0.2725
 2785SOL    HW219989   4.731   4.074   5.726 -1.9063 -1.6065  0.5003
 2786SOL     OW19990   3.933   0.143   0.509 -0.4797 -0.0981 -0.8197
 2786SOL    HW119991   4.017   0.105   0.535 -0.3828  1.9769  1.8582
 2786SOL    HW219992   3.875   0.077   0.547  1.1201 -1.6096 -0.9658
 2787SOL     OW19993   3.361   1.515  10.034  0.3441  0.5647  0.2518
 2787SOL    HW119994   3.403   1.438  10.073  0.7460  0.3556 -0.5998
 2787SOL    HW219995   3.387   1.503   9.943 -0.3141 -1.0546  0.2673
 2788SOL     OW19996   3.394   1.161   4.274 -0.2176  0.2034 -0.0733
 2788SOL    HW119997   3.477   1.206   4.255 -1.7297  2.7415 -0.7666
 2788SOL    HW219998   3.422   1.121   4.356  0.7375  0.3896 -0.3044
 2789SOL     OW19999   4.283   0.363   3.087 -0.2590 -0.1090 -0.6400
 2789SOL    HW120000   4.223   0.438   3.086  0.6081  0.5659 -1.4347
 2789SOL    HW220001   4.325   0.366   3.002  1.1532  0.6193  0.0892
 2790SOL     OW20002   0.884   2.167   5.967  0.4411  1.0359 -0.7140
 2790SOL    HW120003   0.890   2.211   6.051 -0.5520 -1.9705  0.9249
 2790SOL    HW220004   0.965   2.199   5.927  0.8938 -0.1542 -0.7521
 2791SOL     OW20005   4.213   3.006   7.358  0.6254  0.5352 -0.3738
 2791SOL    HW120006   4.223   3.099   7.378 -1.9047  0.6340  0.5162
 2791SOL    HW220007   4.253   2.956   7.429 -0.1800  0.4940  0.0528
 2792SOL     OW20008   2.476   4.443   7.449 -0.5930  0.4093  0.1812
 2792SOL    HW120009   2.435   4.433   7.363 -0.0451 -0.9344  0.0696
 2792SOL    HW220010   2.511   4.354   7.452 -0.8561  0.2871 -0.2055
 2793SOL     OW20011   1.653   0.044   4.243  0.1586  0.1179 -0.2856
 2793SOL    HW120012   1.745   0.068   4.256  1.3527 -3.7352 -1.5906
 2793SOL    HW220013   1.625   0.063   4.333 -1.9572  1.2103 -1.1710
 2794SOL     OW20014   3.026   3.755   3.922  0.5544  0.0363 -0.0240
 2794SOL    HW120015   2.938   3.779   3.951 -0.1120 -0.4452 -1.6201
 2794SOL    HW220016   3.010   3.726   3.832  0.8839 -1.6646  0.4687
 2795SOL     OW20017   3.701   0.658   3.953 -0.1411 -0.5661 -0.1222
 2795SOL    HW120018   3.779   0.682   3.904 -1.2494 -0.2573 -1.7609
 2795SOL    HW220019   3.683   0.578   3.904 -1.7575  0.4988 -1.2680
 2796SOL     OW20020   1.614   1.960   2.969  0.0621 -0.7730  0.2769
 2796SOL    HW120021   1.585   2.027   2.907  0.4134  0.1947  1.1465
 2796SOL    HW220022   1.552   1.983   3.039 -0.4297  2.2598 -1.1467
 2797SOL     OW20023   2.003   3.226   4.994  0.0047 -0.1177 -0.6063
 2797SOL    HW120024   2.059   3.159   4.955  0.1929 -0.7016  0.6998
 2797SOL    HW220025   2.064   3.300   4.986 -1.0503  0.7018 -0.9870
 2798SOL     OW20026   4.609   2.801   3.125 -0.0696  0.2952 -0.3300
 2798SOL    HW120027   4.549   2.858   3.076 -2.4785 -0.0512  2.2580
 2798SOL    HW220028   4.686   2.858   3.130  0.7817 -0.9390  0.7487
 2799SOL     OW20029   1.849   4.567   7.253  0.5956 -0.4932 -0.4171
 2799SOL    HW120030   1.815   4.644   7.298  3.4805  0.5090  0.0330
 2799SOL    HW220031   1.935   4.606   7.239  0.5688 -0.6372 -0.9661
 2800SOL     OW20032   2.388   4.028   8.449 -0.2427  0.1177 -0.6259
 2800SOL    HW120033   2.395   4.011   8.355 -1.1176 -0.9364 -0.5058
 2800SOL    HW220034   2.335   3.961   8.491  0.3521  0.4357  0.6506
 2801SOL     OW20035   1.538   2.544  13.347 -0.1418 -0.2245 -0.0609
 2801SOL    HW120036   1.599   2.516  13.415  0.9140  0.8569 -0.5655
 2801SOL    HW220037   1.520   2.461  13.303  2.4822 -0.1240 -1.3371
 2802SOL     OW20038   1.183   2.402   5.470  0.6692 -0.3369 -0.0220
 2802SOL    HW120039   1.142   2.398   5.384  0.8455 -0.6511 -0.0928
 2802SOL    HW220040   1.136   2.334   5.518  0.5648  0.2452  0.6965
 2803SOL     OW20041   2.961   2.583   6.748 -0.3063 -0.2574  0.3066
 2803SOL    HW120042   2.901   2.629   6.689 -0.3367 -2.5561 -1.4800
 2803SOL    HW220043   2.997   2.517   6.688 -2.9560 -0.3183 -1.2223
 2804SOL     OW20044   2.413   4.365   7.184 -0.0717 -0.4469  0.5454
 2804SOL    HW120045   2.348   4.413   7.133 -0.0903 -0.1861  0.8175
 2804SOL    HW220046   2.387   4.277   7.158 -1.1020 -0.0740  0.3143
 2805SOL     OW20047   4.193   2.262   5.992 -0.2899 -0.2313  0.0457
 2805SOL    HW120048   4.223   2.238   6.079 -0.3015 -0.8689 -0.1293
 2805SOL    HW220049   4.246   2.201   5.940 -0.6319  0.8189 -1.5345
 2806SOL     OW20050   1.793   1.384   3.713  0.2032 -0.1689  0.5841
 2806SOL    HW120051   1.825   1.389   3.803 -0.5136 -1.9447  0.9370
 2806SOL    HW220052   1.835   1.302   3.688  0.5967  1.2225 -3.3211
 2807SOL     OW20053   0.081   1.110  11.049 -0.2108 -0.2900  0.3465
 2807SOL    HW120054   4.721   1.086  11.037  0.0106 -0.2992 -1.2581
 2807SOL    HW220055   0.110   1.020  11.035  3.4975  1.3453 -2.3519
 2808SOL     OW20056   1.717   1.399   3.037 -0.3334  0.2660 -0.0437
 2808SOL    HW120057   1.680   1.322   2.994  2.1877 -0.3870 -1.0644
 2808SOL    HW220058   1.711   1.462   2.965 -1.8528 -0.1449 -0.2593
 2809SOL     OW20059   2.626   2.446   6.318  0.0667  0.4279  0.5263
 2809SOL    HW120060   2.547   2.496   6.293 -0.8619 -0.5790  1.4586
 2809SOL    HW220061   2.621   2.378   6.251  1.6386  1.1514 -0.3136
 2810SOL     OW20062   4.339   2.003   4.748 -0.0603  0.0085  0.2596
 2810SOL    HW120063   4.385   2.084   4.727  0.9715 -0.1044  2.1245
 2810SOL    HW220064   4.260   2.048   4.780 -0.4743 -0.1562 -0.5506
 2811SOL     OW20065   0.555   1.218  14.489  0.0175 -0.3865  0.2565
 2811SOL    HW120066   0.649   1.227  14.473 -0.3025  3.0214  0.3706
 2811SOL    HW220067   0.553   1.275  14.566 -0.7490 -0.6756  0.4534
 2812SOL     OW20068   4.225   4.696  16.807 -0.0120  0.6333 -0.0435
 2812SOL    HW120069   4.203   4.663  16.894 -1.9430  1.1576 -0.3448
 2812SOL    HW220070   4.270   4.621  16.767 -1.6459  0.5254 -1.6512
 2813SOL     OW20071   0.462   0.485   8.935  0.5874  0.3789  0.8120
 2813SOL    HW120072   0.543   0.444   8.967 -0.5124 -0.3554  2.6259
 2813SOL    HW220073   0.421   0.419   8.879 -1.1172  1.1788  1.1301
 2814SOL     OW20074   1.186   0.249   4.639  0.3914 -0.4266 -0.4572
 2814SOL    HW120075   1.271   0.294   4.639  0.2526 -0.1545  0.9846
 2814SOL    HW220076   1.217   0.160   4.622 -0.7722 -1.1703  1.2879
 2815SOL     OW20077   2.912   3.339   2.320 -0.2210  0.4347  0.2222
 2815SOL    HW120078   2.845   3.404   2.341  1.8943  1.9055  2.4031
 2815SOL    HW220079   2.874   3.277   2.259 -2.6414  1.6506  0.4985
 2816SOL     OW20080   0.983   4.614  14.923  0.0372  0.0433  0.0010
 2816SOL    HW120081   0.923   4.668  14.871  1.7837 -0.0179 -2.0294
 2816SOL    HW220082   0.925   4.597  14.998  0.3011 -2.2750 -0.3351
 2817SOL     OW20083   0.758   1.847   0.221 -0.1715 -0.3299 -0.6212
 2817SOL    HW120084   0.673   1.812   0.247  0.0039 -0.1305  0.2063
 2817SOL    HW220085   0.819   1.813   0.286 -0.1665 -0.5971 -0.7654
 2818SOL     OW20086   0.106   0.874   7.891 -0.5296  0.1300  0.0034
 2818SOL    HW120087   0.030   0.932   7.898 -0.3646  0.4682 -1.1001
 2818SOL    HW220088   0.054   0.803   7.853  0.0760  0.3562 -1.2539
 2819SOL     OW20089   3.370   0.967   1.722  0.2889 -0.5175 -0.4836
 2819SOL    HW120090   3.299   1.029   1.741  1.5979 -0.1379  3.1440
 2819SOL    HW220091   3.417   0.969   1.805 -0.8876 -0.5545  0.1909
 2820SOL     OW20092   0.119   3.887   4.006 -0.2344 -0.0796 -0.3132
 2820SOL    HW120093   0.137   3.795   4.026  0.6945 -0.1426 -1.4590
 2820SOL    HW220094   0.029   3.902   4.034 -0.0660 -0.2543  0.3374
 2821SOL     OW20095   0.327   0.022   8.417  0.5643  0.0247 -0.2688
 2821SOL    HW120096   0.419   0.047   8.416  0.7738 -0.7359  0.7864
 2821SOL    HW220097   0.339   4.659   8.413  0.1433 -0.1439  2.7395
 2822SOL     OW20098   0.425   0.744  17.500 -0.2335  0.8262  0.7716
 2822SOL    HW120099   0.392   0.759  17.411  3.1223  0.2198 -0.5908
 2822SOL    HW220100   0.451   0.652  17.506 -0.0442  0.8278  0.0261
 2823SOL     OW20101   0.149   4.344   7.352  0.0506 -0.7521 -0.4487
 2823SOL    HW120102   0.177   4.325   7.442 -1.5750 -1.4062 -0.0891
 2823SOL    HW220103   0.126   4.261   7.310  0.3358 -1.3601  0.5856
 2824SOL     OW20104   1.555   3.915   2.317  0.3250 -0.0611  0.1035
 2824SOL    HW120105   1.550   3.916   2.413 -0.5356 -1.9045  0.0714
 2824SOL    HW220106   1.598   4.000   2.314  1.1812 -0.6067 -2.6542
 2825SOL     OW20107   1.821   3.377  17.328 -0.1793 -0.2215 -0.6788
 2825SOL    HW120108   1.804   3.395  17.421 -4.4437 -0.7410 -1.3707
 2825SOL    HW220109   1.788   3.288  17.315 -0.3569 -0.0769 -1.2231
 2826SOL     OW20110   3.854   2.089   5.316  0.3835 -0.1628 -0.2240
 2826SOL    HW120111   3.853   2.146   5.239 -1.3955 -0.4621 -0.4331
 2826SOL    HW220112   3.770   2.045   5.300  0.4461  0.1221 -1.3121
 2827SOL     OW20113   3.252   4.488  16.659 -0.0588  0.3195 -0.4498
 2827SOL    HW120114   3.209   4.409  16.624  1.6893 -0.2622 -1.3184
 2827SOL    HW220115   3.219   4.491  16.749 -1.0184 -1.0779 -0.7436
 2828SOL     OW20116   1.297   2.205   4.396  0.4056 -0.5184 -0.2040
 2828SOL    HW120117   1.269   2.144   4.464  0.3828 -1.6710 -1.2369
 2828SOL    HW220118   1.253   2.160   4.323 -1.0088 -1.0218  0.9582
 2829SOL     OW20119   2.269   4.615   5.570 -0.5246 -0.0572 -0.1447
 2829SOL    HW120120   2.349   4.656   5.600 -0.9141  1.0523 -0.6024
 2829SOL    HW220121   2.213   4.638   5.644 -2.0099 -0.1733 -1.2195
 2830SOL     OW20122   2.523   4.676   9.902  0.3777 -0.5064 -0.0892
 2830SOL    HW120123   2.605   4.630   9.885  0.0281 -0.8148 -0.9607
 2830SOL    HW220124   2.482   4.686   9.816 -1.2538  2.6104  1.0770
 2831SOL     OW20125   3.629   0.610   0.470 -0.3147 -0.5110 -0.0727
 2831SOL    HW120126   3.629   0.671   0.395  1.9218  0.2704  0.5718
 2831SOL    HW220127   3.545   0.629   0.512  0.2687 -2.2948  1.8660
 2832SOL     OW20128   3.485   0.965   3.192 -0.3760  0.1239 -0.1185
 2832SOL    HW120129   3.420   0.932   3.131  0.2176  0.2148 -0.8063
 2832SOL    HW220130   3.552   0.897   3.193  0.4528  0.9595  1.0549
 2833SOL     OW20131   3.466   2.674  12.006 -0.2403  0.1534 -0.0024
 2833SOL    HW120132   3.536   2.613  11.985 -1.4814 -2.4148  3.4409
 2833SOL    HW220133   3.524   2.745  12.036  2.0379 -1.6686 -0.1275
 2834SOL     OW20134   1.093   1.480   2.538 -0.5719  0.8658  0.1385
 2834SOL    HW120135   1.031   1.408   2.526  1.9482 -1.6638  2.1713
 2834SOL    HW220136   1.091   1.527   2.455 -0.3729  1.5375  0.5184
 2835SOL     OW20137   4.177   2.589   1.888 -0.1045 -0.0881  0.1145
 2835SOL    HW120138   4.243   2.547   1.942 -0.6908 -2.2455 -0.8706
 2835SOL    HW220139   4.196   2.567   1.797  2.9193 -3.1511  1.4728
 2836SOL     OW20140   1.981   3.719  13.322 -0.0709 -0.2259  0.2153
 2836SOL    HW120141   1.935   3.802  13.315 -0.1691 -0.4297 -1.5124
 2836SOL    HW220142   1.910   3.658  13.341  0.1401 -0.5383  0.0001
 2837SOL     OW20143   2.676   1.391   2.504 -0.4782  0.0141 -0.0262
 2837SOL    HW120144   2.660   1.485   2.511 -1.1443 -0.0198 -1.0457
 2837SOL    HW220145   2.684   1.373   2.410  1.1848  2.2729 -0.2936
 2838SOL     OW20146   1.587   2.253  11.885 -1.0910  0.1671 -0.3642
 2838SOL    HW120147   1.664   2.196  11.891 -1.9955 -0.9956  0.2889
 2838SOL    HW220148   1.633   2.337  11.885 -2.2085  0.7787 -0.2935
 2839SOL     OW20149   1.870   0.540  17.569 -0.0446 -0.4026 -0.5188
 2839SOL    HW120150   1.897   0.630  17.548  3.1531 -1.2298  0.0517
 2839SOL    HW220151   1.775   0.552  17.564 -0.1357 -1.1800 -0.6134
 2840SOL     OW20152   2.259   3.202   1.043 -0.2046 -0.2201 -0.1785
 2840SOL    HW120153   2.221   3.134   1.098  1.7131 -1.2211 -0.1187
 2840SOL    HW220154   2.292   3.141   0.976 -1.0861 -0.5053 -0.3601
 2841SOL     OW20155   0.811   2.905   2.892 -0.9095  0.0028  0.4540
 2841SOL    HW120156   0.795   2.888   2.799 -0.8734 -1.2468  0.6738
 2841SOL    HW220157   0.904   2.882   2.901 -0.4111  1.0851 -1.7521
 2842SOL     OW20158   1.573   2.073  14.113 -0.8734  0.1499  0.5805
 2842SOL    HW120159   1.510   2.005  14.087  0.0438 -1.4139  2.4875
 2842SOL    HW220160   1.519   2.151  14.124 -1.1816  0.4752 -3.1330
 2843SOL     OW20161   2.715   2.993   4.759 -0.4871  0.0166  0.1148
 2843SOL    HW120162   2.662   2.967   4.683 -3.3310 -0.6618  2.3119
 2843SOL    HW220163   2.660   2.994   4.838 -0.5674 -0.5698  0.0671
 2844SOL     OW20164   0.785   2.910   4.368 -0.5653  0.0426  0.2420
 2844SOL    HW120165   0.781   2.925   4.273  0.6533  0.6840  0.3001
 2844SOL    HW220166   0.826   2.991   4.398  1.3843  0.6166 -3.9056
 2845SOL     OW20167   2.656   0.804   3.000 -0.3361  0.2750 -0.2545
 2845SOL    HW120168   2.604   0.809   3.080  1.8762 -0.2229  1.2166
 2845SOL    HW220169   2.746   0.830   3.020  0.0732 -1.5182  0.2160
 2846SOL     OW20170   1.707   4.683   6.822 -0.2030 -0.4046  0.2967
 2846SOL    HW120171   1.705   0.023   6.885 -0.0056 -0.2788  0.1565
 2846SOL    HW220172   1.723   4.610   6.882  2.3941 -0.1973 -0.1569
 2847SOL     OW20173   4.056   3.266   7.564 -0.0602 -0.4536 -0.2563
 2847SOL    HW120174   4.096   3.226   7.641 -3.4854 -1.0021  1.2220
 2847SOL    HW220175   4.119   3.249   7.494  0.2082 -2.0210  0.3589
 2848SOL     OW20176   3.097   4.407   3.630  0.0774  0.1753  0.1107
 2848SOL    HW120177   3.066   4.492   3.599  1.6245  0.8928  0.5430
 2848SOL    HW220178   3.191   4.413   3.610  0.7278  0.2226  3.1937
 2849SOL     OW20179   3.959   2.966   8.500 -0.2491  0.0650 -0.0898
 2849SOL    HW120180   3.907   2.886   8.497  0.4984 -0.4327  0.1417
 2849SOL    HW220181   3.899   3.023   8.548 -0.4782  1.0206 -1.5118
 2850SOL     OW20182   4.726   4.190   9.824  0.7396 -0.2400  0.9793
 2850SOL    HW120183   4.688   4.164   9.740  1.9587 -1.3003  0.7453
 2850SOL    HW220184   0.059   4.252   9.789  0.4495 -0.7718 -0.4919
 2851SOL     OW20185   2.377   3.112  14.686  0.2412  0.8477  0.5196
 2851SOL    HW120186   2.348   3.121  14.776 -1.3194  0.0612  0.0855
 2851SOL    HW220187   2.316   3.166  14.636 -0.6693 -0.6325  0.0308
 2852SOL     OW20188   3.747   0.205   7.809 -0.0649 -0.1165  0.0843
 2852SOL    HW120189   3.690   0.243   7.876 -2.0853 -0.8630 -1.2098
 2852SOL    HW220190   3.760   0.117   7.844 -2.5294 -0.8978 -0.9590
 2853SOL     OW20191   1.402   2.904   1.145  0.1057 -0.1890  0.2016
 2853SOL    HW120192   1.387   2.950   1.228  1.5821 -3.1575  2.1130
 2853SOL    HW220193   1.334   2.837   1.142  0.8198 -0.9584  0.9722
 2854SOL     OW20194   0.676   1.242   2.306  0.4026  0.6363 -0.0010
 2854SOL    HW120195   0.635   1.155   2.307  3.2073 -0.6973 -0.5095
 2854SOL    HW220196   0.605   1.304   2.292  0.2746  0.5943  0.4530
 2855SOL     OW20197   3.752   1.052   2.894  1.2367 -0.6834 -0.0270
 2855SOL    HW120198   3.761   1.147   2.903  2.1154 -0.7408 -0.3065
 2855SOL    HW220199   3.845   1.033   2.887  1.8199  1.3014  2.4065
 2856SOL     OW20200   0.341   3.977   6.467  0.0464  0.3751 -0.0306
 2856SOL    HW120201   0.428   3.971   6.505 -0.2576  1.7155  0.8911
 2856SOL    HW220202   0.327   4.071   6.455 -0.0569  0.3106 -0.4063
 2857SOL     OW20203   0.957   3.718   8.601  0.1767 -0.4561 -0.1280
 2857SOL    HW120204   0.974   3.783   8.532 -2.8768 -0.2581 -0.6840
 2857SOL    HW220205   0.891   3.762   8.653 -1.2490 -1.9583 -0.6467
 2858SOL     OW20206   4.657   1.155  13.744  0.0859  0.0407 -0.0732
 2858SOL    HW120207   4.637   1.075  13.792 -2.2351 -1.5128 -3.5821
 2858SOL    HW220208   4.589   1.145  13.677 -1.0709  0.3102  1.0410
 2859SOL     OW20209   0.229   3.758  14.403  0.3805 -0.1925  0.4432
 2859SOL    HW120210   0.167   3.798  14.463 -2.5950 -1.1799 -1.9959
 2859SOL    HW220211   0.318   3.787  14.426 -0.1629  1.2690  0.6735
 2860SOL     OW20212   2.426   1.563   3.522 -0.0449 -0.0254 -0.2628
 2860SOL    HW120213   2.397   1.482   3.564 -1.1922  0.3925 -0.2627
 2860SOL    HW220214   2.351   1.586   3.469  0.2635  1.8810  0.1382
 2861SOL     OW20215   2.337   2.492   9.912 -0.0603  0.0962 -0.1365
 2861SOL    HW120216   2.392   2.570   9.920  1.2886 -0.8830  0.0307
 2861SOL    HW220217   2.258   2.516   9.961 -0.5367 -0.0208 -0.8566
 2862SOL     OW20218   2.202   1.089   0.370  0.0072  0.4498 -0.5635
 2862SOL    HW120219   2.278   1.148   0.368  1.1199 -0.9965 -1.5651
 2862SOL    HW220220   2.237   1.005   0.340 -1.2661 -0.3890  0.2974
 2863SOL     OW20221   4.724   2.704   6.785 -0.0835  0.5758 -0.5236
 2863SOL    HW120222   0.077   2.744   6.769  0.9146 -1.2153  0.4557
 2863SOL    HW220223   4.679   2.755   6.717 -0.8371 -0.5013 -0.8253
 2864SOL     OW20224   0.079   4.568  15.100  0.5046 -0.0348 -0.0020
 2864SOL    HW120225   4.729   4.539  15.140  0.4204  0.4963  0.2100
 2864SOL    HW220226   0.115   4.496  15.047 -2.4791 -1.2023 -0.4500
 2865SOL     OW20227   3.920   2.558   8.708 -0.1989  0.4575  0.6201
 2865SOL    HW120228   3.858   2.617   8.750 -2.6239  0.9651 -3.7092
 2865SOL    HW220229   3.976   2.553   8.786 -0.6224 -0.2714  0.8797
 2866SOL     OW20230   1.376   4.294   3.905  0.9650  0.6953  0.1219
 2866SOL    HW120231   1.425   4.360   3.955  0.4125  1.5224 -0.4286
 2866SOL    HW220232   1.442   4.256   3.847 -0.4538 -0.4944 -0.6929
 2867SOL     OW20233   3.566   0.098   8.059 -0.4996 -0.0584 -0.3498
 2867SOL    HW120234   3.526   0.118   7.975 -2.8451  1.7225  1.2014
 2867SOL    HW220235   3.644   0.055   8.024  0.8205  0.8062  1.4862
 2868SOL     OW20236   3.032   0.754   5.447  0.0350  0.5418 -0.3718
 2868SOL    HW120237   2.989   0.772   5.530  2.5703  0.5139  0.9519
 2868SOL    HW220238   3.065   0.665   5.460 -2.0334 -0.2132 -0.2879
 2869SOL     OW20239   0.316   2.146   4.730 -0.9364  0.1691 -0.5882
 2869SOL    HW120240   0.345   2.233   4.756 -0.1337 -0.7417  1.5904
 2869SOL    HW220241   0.230   2.139   4.771  0.7598 -0.8930  2.8490
 2870SOL     OW20242   0.526   2.473   2.909 -0.5155 -0.2662  0.2767
 2870SOL    HW120243   0.550   2.560   2.940  0.8769 -0.1552 -1.1048
 2870SOL    HW220244   0.466   2.447   2.979 -0.0215 -2.1411  0.0002
 2871SOL     OW20245   0.090   0.753   6.843 -0.7650  0.1331 -0.2116
 2871SOL    HW120246   0.025   0.731   6.777 -0.7234 -1.0895  0.1357
 2871SOL    HW220247   0.092   0.847   6.827 -1.0955 -0.0891 -1.5194
 2872SOL     OW20248   0.514   4.093  14.200  0.6009 -0.5599 -0.4299
 2872SOL    HW120249   0.566   4.159  14.246  0.1266  0.4984 -1.3796
 2872SOL    HW220250   0.508   4.139  14.116  2.1247  1.5844  0.6275
 2873SOL     OW20251   2.834   0.341   1.661 -0.0375  0.2120  0.0900
 2873SOL    HW120252   2.896   0.354   1.589 -1.8697  0.0205 -1.5374
 2873SOL    HW220253   2.898   0.345   1.732  0.0965  1.2760 -0.0846
 2874SOL     OW20254   1.966   3.645   8.350 -0.0100 -0.0939  0.0399
 2874SOL    HW120255   1.958   3.635   8.255 -1.2431 -3.4127  0.5045
 2874SOL    HW220256   1.888   3.701   8.351 -0.4681 -0.6901 -2.2293
 2875SOL     OW20257   0.614   3.270   5.623  0.2009 -0.4185  0.7164
 2875SOL    HW120258   0.534   3.259   5.571  1.0570 -3.5792  0.0343
 2875SOL    HW220259   0.675   3.256   5.550 -0.7864  0.6581 -0.3103
 2876SOL     OW20260   2.354   0.163   4.754 -0.2026 -0.1517  0.5207
 2876SOL    HW120261   2.402   0.226   4.701  1.3998 -0.8241  1.1865
 2876SOL    HW220262   2.414   0.159   4.828 -1.0231 -0.1523  1.1875
 2877SOL     OW20263   0.841   1.677   0.655 -0.1038 -0.4548  1.0014
 2877SOL    HW120264   0.871   1.632   0.575 -0.0837  0.0170  0.7442
 2877SOL    HW220265   0.783   1.739   0.611  0.1653 -0.7541  0.2233
 2878SOL     OW20266   2.260   0.333  15.927  0.4721 -0.2179 -0.0578
 2878SOL    HW120267   2.308   0.402  15.880 -0.8001  1.0674  0.5474
 2878SOL    HW220268   2.307   0.250  15.915 -1.8579 -1.4218 -0.9348
 2879SOL     OW20269   0.025   4.077   8.371  0.2910  0.1835  0.1293
 2879SOL    HW120270   4.720   4.010   8.428  2.2957 -1.6602 -0.7193
 2879SOL    HW220271   4.684   4.130   8.341 -0.0666 -0.0484  0.5890
 2880SOL     OW20272   1.134   2.412   4.490 -0.2913 -1.0039  0.0959
 2880SOL    HW120273   1.125   2.430   4.397 -1.3931 -0.2866  0.3375
 2880SOL    HW220274   1.044   2.413   4.525 -0.4741 -0.7649 -0.3883
 2881SOL     OW20275   3.235   3.166   3.840 -0.0472 -0.2263  0.1244
 2881SOL    HW120276   3.210   3.241   3.787 -2.8300 -0.8808  0.5288
 2881SOL    HW220277   3.253   3.210   3.923  0.1822 -1.2158  0.6006
 2882SOL     OW20278   2.833   0.282  13.515 -0.3990  0.1583  0.3604
 2882SOL    HW120279   2.870   0.216  13.574  3.1960  2.2623  0.4940
 2882SOL    HW220280   2.919   0.319  13.496 -0.4466  0.2877  0.3923
 2883SOL     OW20281   3.472   2.305   4.580  0.5232  0.0200  0.0624
 2883SOL    HW120282   3.464   2.270   4.491  1.4642  4.5321 -1.7820
 2883SOL    HW220283   3.515   2.391   4.579 -1.1944  0.8812  0.7475
 2884SOL     OW20284   2.552   3.796   4.583  0.3060  0.4511  0.2537
 2884SOL    HW120285   2.492   3.794   4.509  0.3211 -1.9979  0.3080
 2884SOL    HW220286   2.589   3.882   4.564 -2.5019  0.8801 -3.2377
 2885SOL     OW20287   2.379   3.127   5.229 -0.2756  0.4322 -0.1078
 2885SOL    HW120288   2.380   3.062   5.158 -1.3394  0.4903 -0.1849
 2885SOL    HW220289   2.459   3.175   5.212  0.0055  0.4367  1.2737
 2886SOL     OW20290   4.393   0.649   7.301 -0.1703  0.1385 -0.4674
 2886SOL    HW120291   4.304   0.682   7.310  0.0763  0.2658  1.6041
 2886SOL    HW220292   4.399   0.593   7.378 -1.5448  1.6454  0.7376
 2887SOL     OW20293   3.749   4.477   9.086 -0.0524 -0.0336 -0.1317
 2887SOL    HW120294   3.730   4.511   9.174 -0.9667  3.3880 -1.6711
 2887SOL    HW220295   3.756   4.383   9.104  2.6752  0.2119  0.0145
 2888SOL     OW20296   2.816   0.486   6.791 -0.1672  0.2789 -0.1133
 2888SOL    HW120297   2.876   0.528   6.729 -1.5413  0.9080 -1.0188
 2888SOL    HW220298   2.735   0.496   6.741 -1.1349 -1.9936  1.0013
 2889SOL     OW20299   3.719   4.311   2.877 -0.4518 -0.1923 -0.2220
 2889SOL    HW120300   3.637   4.335   2.832 -0.5880 -1.3592 -0.5889
 2889SOL    HW220301   3.743   4.228   2.837 -0.4691  0.9107 -2.5065
 2890SOL     OW20302   1.908   1.842   8.462 -0.1686 -0.5739  0.3528
 2890SOL    HW120303   2.000   1.867   8.453 -0.0522 -0.9536  0.4495
 2890SOL    HW220304   1.871   1.918   8.506  0.5041  1.3471 -2.4589
 2891SOL     OW20305   2.420   0.776  15.837 -0.1537 -0.1999 -1.0558
 2891SOL    HW120306   2.352   0.819  15.888 -1.3180 -0.3164 -2.5004
 2891SOL    HW220307   2.495   0.793  15.894 -1.0021  1.3201 -0.3909
 2892SOL     OW20308   3.628   3.872   1.875  0.4087 -0.0679  0.7597
 2892SOL    HW120309   3.682   3.928   1.819 -0.2424  0.9082  1.1180
 2892SOL    HW220310   3.541   3.899   1.847  0.1778 -2.4974 -0.8477
 2893SOL     OW20311   2.509   0.272   5.323  0.1979  0.3351 -0.1248
 2893SOL    HW120312   2.474   0.230   5.402 -0.9268 -0.2140 -0.9202
 2893SOL    HW220313   2.594   0.227   5.319 -0.3101 -0.5836 -0.5109
 2894SOL     OW20314   1.995   1.686   3.258  0.4999 -0.0911  0.0733
 2894SOL    HW120315   2.072   1.664   3.311  0.8126 -0.1761 -0.4147
 2894SOL    HW220316   1.946   1.604   3.246  2.1173 -1.0808  0.3079
 2895SOL     OW20317   1.937   4.259  12.133 -0.2540  0.1718  0.0007
 2895SOL    HW120318   2.029   4.251  12.108 -0.1683 -0.7475  0.6272
 2895SOL    HW220319   1.923   4.324  12.202  1.5194  4.6380 -3.8244
 2896SOL     OW20320   1.348   0.680   2.362  0.3153  0.9771 -0.7880
 2896SOL    HW120321   1.268   0.670   2.312  0.5180 -3.0615 -0.2850
 2896SOL    HW220322   1.316   0.726   2.440 -2.0339 -1.0356 -0.6006
 2897SOL     OW20323   3.938   2.081  14.135  0.1797  0.3016  0.2578
 2897SOL    HW120324   3.843   2.070  14.135  0.1186  0.7167  2.9039
 2897SOL    HW220325   3.966   2.073  14.226  1.2588  0.4056 -0.0640
 2898SOL     OW20326   3.622   1.704   3.208  0.5915 -0.4606 -0.5269
 2898SOL    HW120327   3.614   1.797   3.229 -2.7843 -1.0882  1.0711
 2898SOL    HW220328   3.529   1.685   3.197  0.2658  1.2997 -0.7510
 2899SOL     OW20329   3.769   3.873   4.163  0.7261 -0.5492 -0.4747
 2899SOL    HW120330   3.798   3.843   4.249 -3.2379 -0.8141  0.7686
 2899SOL    HW220331   3.681   3.908   4.181  1.0516  0.1601 -0.2730
 2900SOL     OW20332   3.650   2.186  13.642 -0.1250 -0.4550 -0.0392
 2900SOL    HW120333   3.646   2.201  13.737 -0.1748 -1.0873  0.0591
 2900SOL    HW220334   3.581   2.120  13.631 -0.6390  0.2636 -1.0615
 2901SOL     OW20335   2.076   2.115  13.741 -0.2798 -0.5632  1.0143
 2901SOL    HW120336   2.119   2.066  13.670  1.1582 -0.0924  1.5516
 2901SOL    HW220337   2.086   2.053  13.814 -0.4836 -1.4214  0.3108
 2902SOL     OW20338   0.285   4.001   0.831  0.0605 -0.7060  0.2679
 2902SOL    HW120339   0.299   3.907   0.821  1.9979 -0.4163  0.2388
 2902SOL    HW220340   0.207   4.023   0.780  0.5314  0.8482  0.2324
 2903SOL     OW20341   3.688   2.003   2.255 -0.1452  0.2623  0.3897
 2903SOL    HW120342   3.676   1.960   2.340  0.4675  0.2834  0.4851
 2903SOL    HW220343   3.722   2.088   2.282  0.5350  0.4352 -1.0160
 2904SOL     OW20344   1.442   0.508   0.813 -1.0326  0.1737 -0.4085
 2904SOL    HW120345   1.403   0.553   0.738 -1.5503  0.0162 -0.2332
 2904SOL    HW220346   1.370   0.461   0.855 -0.0101 -0.1084  1.0169
 2905SOL     OW20347   2.776   1.240  14.373 -0.1293  0.6976  0.6142
 2905SOL    HW120348   2.806   1.149  14.373 -0.9926  0.4110 -2.6700
 2905SOL    HW220349   2.760   1.256  14.280  1.5022  0.4547  0.2850
 2906SOL     OW20350   1.385   2.505   3.260  0.4168 -0.6514 -0.0485
 2906SOL    HW120351   1.468   2.538   3.227 -0.9949  1.7712 -1.1442
 2906SOL    HW220352   1.401   2.519   3.353  0.6169 -0.0298 -0.1785
 2907SOL     OW20353   1.711   3.611  11.037  0.0149  0.4121 -0.4878
 2907SOL    HW120354   1.702   3.586  10.945 -3.0276  1.0646 -0.3685
 2907SOL    HW220355   1.730   3.704  11.039 -0.4017  0.4965 -0.4586
 2908SOL     OW20356   4.219   2.668  16.610 -0.1133  0.2562 -0.2029
 2908SOL    HW120357   4.298   2.694  16.561  1.0172  0.4386  1.7303
 2908SOL    HW220358   4.227   2.578  16.580 -0.8727  1.2813 -3.4869
 2909SOL     OW20359   3.375   3.863   1.484 -0.1509 -0.2913 -0.5999
 2909SOL    HW120360   3.291   3.840   1.524 -0.3268  2.1365  0.4261
 2909SOL    HW220361   3.398   3.943   1.532 -0.7174 -0.3661 -0.2114
 2910SOL     OW20362   3.282   1.509   2.445 -0.5171  0.2791 -0.0583
 2910SOL    HW120363   3.250   1.477   2.529 -2.9396  1.3833 -0.5515
 2910SOL    HW220364   3.363   1.557   2.464  0.0595 -1.6518  2.3833
 2911SOL     OW20365   2.923   3.434  12.716  0.0225  0.0577  0.1192
 2911SOL    HW120366   2.992   3.465  12.774  0.8784 -0.5954 -0.5549
 2911SOL    HW220367   2.976   3.426  12.637 -0.4262 -0.7534 -0.1070
 2912SOL     OW20368   1.527   3.545  15.248 -0.4218 -0.1686  0.2110
 2912SOL    HW120369   1.601   3.605  15.263 -1.2210  0.5584  1.2162
 2912SOL    HW220370   1.576   3.463  15.259  3.3184  2.1166  0.7622
 2913SOL     OW20371   4.598   4.402   7.487  0.3672 -0.3608  0.2695
 2913SOL    HW120372   4.675   4.454   7.465  1.6379 -1.9662  0.8848
 2913SOL    HW220373   4.559   4.398   7.400  0.2532  0.1799  0.2975
 2914SOL     OW20374   2.153   1.258  11.208 -0.0373 -0.0262 -0.1777
 2914SOL    HW120375   2.219   1.208  11.160  0.4404 -2.4980  2.9852
 2914SOL    HW220376   2.215   1.314  11.255 -0.6415 -0.4106  1.0937
 2915SOL     OW20377   2.672   0.273   3.702 -0.1416 -0.6348 -0.3738
 2915SOL    HW120378   2.633   0.313   3.625  0.0909  0.8084  0.2575
 2915SOL    HW220379   2.718   0.353   3.729 -1.0663 -0.3360  0.3281
 2916SOL     OW20380   3.145   0.361   5.300  0.1972  0.0517  0.2681
 2916SOL    HW120381   3.215   0.336   5.361 -0.0987 -0.5916  0.3390
 2916SOL    HW220382   3.181   0.440   5.260 -0.3834  0.5586  0.7452
 2917SOL     OW20383   3.942   3.943  13.505  0.0169 -0.0143  0.1958
 2917SOL    HW120384   4.012   3.921  13.444 -0.3548 -0.3905 -0.0939
 2917SOL    HW220385   3.910   4.024  13.465 -0.8692  1.0472  3.0006
 2918SOL     OW20386   2.174   3.252   4.779  0.3230  0.3204 -0.2174
 2918SOL    HW120387   2.133   3.176   4.737  0.7114 -0.9488  1.6956
 2918SOL    HW220388   2.171   3.327   4.720  0.1876  0.2807 -0.2615
 2919SOL     OW20389   3.775   0.165   3.908  0.1910  0.0541  0.7717
 2919SOL    HW120390   3.775   0.132   3.998 -1.8606  1.1552  1.1679
 2919SOL    HW220391   3.773   0.086   3.854 -0.1726  1.2220 -0.9241
 2920SOL     OW20392   3.161   3.685   0.696  0.0614 -0.3752  0.0409
 2920SOL    HW120393   3.216   3.756   0.664  0.3750 -1.0455 -0.9198
 2920SOL    HW220394   3.097   3.738   0.742 -1.4262 -0.1083 -2.3047
 2921SOL     OW20395   1.407   0.121   8.884 -0.3236  0.0529 -0.1495
 2921SOL    HW120396   1.452   0.067   8.950 -0.1836 -0.4459 -0.6517
 2921SOL    HW220397   1.475   0.137   8.818 -0.2403  2.9179  0.6296
 2922SOL     OW20398   3.494   3.185  13.600 -0.4456 -0.7328  0.1506
 2922SOL    HW120399   3.414   3.171  13.549 -0.9064  1.4943  0.2363
 2922SOL    HW220400   3.550   3.209  13.527  3.3822 -1.5012  2.8152
 2923SOL     OW20401   0.566   1.740  11.368  0.0875  0.3472 -0.3902
 2923SOL    HW120402   0.579   1.796  11.292  1.9891 -1.1110 -1.1179
 2923SOL    HW220403   0.500   1.789  11.418  2.0274  2.4896  0.0494
 2924SOL     OW20404   0.448   2.998   3.488  0.0702  0.5774 -0.4860
 2924SOL    HW120405   0.502   2.965   3.416  2.6074 -0.7703  2.0545
 2924SOL    HW220406   0.473   3.090   3.493  0.5440  0.4690 -0.9063
 2925SOL     OW20407   2.120   4.129   8.034  0.5864 -0.0021  0.4075
 2925SOL    HW120408   2.196   4.187   8.031 -0.5321  1.2728 -3.2086
 2925SOL    HW220409   2.159   4.059   7.981 -1.7408 -2.0729  1.4008
 2926SOL     OW20410   2.907   4.175   5.900  0.0363 -0.4006 -0.3682
 2926SOL    HW120411   2.824   4.131   5.918  0.0826 -0.3699 -0.0804
 2926SOL    HW220412   2.913   4.147   5.808  0.9817  0.6453 -0.6258
 2927SOL     OW20413   2.161   3.151   0.296  0.8471 -0.0551 -0.4620
 2927SOL    HW120414   2.247   3.120   0.269  0.5348 -0.2031 -1.2925
 2927SOL    HW220415   2.166   3.184   0.385 -1.8647  1.7599 -0.9792
 2928SOL     OW20416   4.641   4.085   1.555 -0.5412 -0.0866  0.4693
 2928SOL    HW120417   4.568   4.039   1.514 -1.5503 -0.8031  3.0611
 2928SOL    HW220418   4.706   4.015   1.562 -1.3911 -0.7864  1.3908
 2929SOL     OW20419   3.971   3.816   2.846 -0.6233 -0.3664 -0.2929
 2929SOL    HW120420   3.892   3.871   2.848  0.0280  0.6267 -2.2116
 2929SOL    HW220421   3.945   3.764   2.770 -0.5620 -0.0057 -0.5557
 2930SOL     OW20422   0.041   1.177  16.867  0.2189  0.1273 -0.6420
 2930SOL    HW120423   4.718   1.181  16.789  0.8236 -2.3676 -1.2216
 2930SOL    HW220424   0.127   1.178  16.827  0.8619 -1.0058  0.6816
 2931SOL     OW20425   0.113   1.689   8.271  0.3030  0.4504 -0.2582
 2931SOL    HW120426   0.121   1.657   8.360 -0.4340  1.4696  0.1769
 2931SOL    HW220427   0.175   1.632   8.226 -1.5978 -1.6851 -0.2101
 2932SOL     OW20428   1.598   2.635   5.678 -0.1519 -0.0642 -0.1786
 2932SOL    HW120429   1.626   2.573   5.744 -1.1825 -1.9852 -1.5409
 2932SOL    HW220430   1.673   2.642   5.620 -1.2241 -1.9636 -1.8148
 2933SOL     OW20431   1.460   2.572   1.994 -0.2415 -0.3349 -0.0839
 2933SOL    HW120432   1.410   2.566   1.912  2.4633 -1.6557 -1.6096
 2933SOL    HW220433   1.537   2.615   1.957 -1.8734  0.1656 -2.9024
 2934SOL     OW20434   3.024   1.141  14.050 -0.1242  0.0683  0.1792
 2934SOL    HW120435   2.976   1.223  14.041  0.2026  0.2351 -0.0562
 2934SOL    HW220436   2.949   1.088  14.077 -0.0762 -0.4274 -0.6600
 2935SOL     OW20437   1.094   1.477  13.829 -0.2251 -0.3620  0.3024
 2935SOL    HW120438   1.016   1.531  13.843 -1.5527 -2.9093  2.7148
 2935SOL    HW220439   1.159   1.540  13.858  0.1365  0.6749 -2.7954
 2936SOL     OW20440   0.751   3.938  14.280 -0.8491  0.3697 -0.3182
 2936SOL    HW120441   0.667   3.948  14.235 -1.3137  0.9249  0.6791
 2936SOL    HW220442   0.803   3.884  14.220  0.4548 -0.2041  1.3488
 2937SOL     OW20443   1.125   0.309   3.118  0.5763 -0.3359  0.3479
 2937SOL    HW120444   1.213   0.345   3.105  0.0693  1.5251  2.1720
 2937SOL    HW220445   1.083   0.372   3.175  1.7888  1.0342 -0.2695
 2938SOL     OW20446   4.299   3.136   2.581 -0.3694 -0.1898  0.3192
 2938SOL    HW120447   4.308   3.138   2.486 -1.0235 -1.4069  0.2339
 2938SOL    HW220448   4.263   3.048   2.592  0.4338 -0.4920  0.5247
 2939SOL     OW20449   0.438   1.779   8.144 -0.6840  0.1204  0.7154
 2939SOL    HW120450   0.378   1.831   8.196  0.4153  1.1638  0.9414
 2939SOL    HW220451   0.513   1.837   8.132 -1.2611  0.7973  0.4044
 2940SOL     OW20452   1.111   3.403   4.140 -0.2320  0.9657  0.1496
 2940SOL    HW120453   1.062   3.325   4.165 -1.0750  1.4458 -0.0084
 2940SOL    HW220454   1.124   3.382   4.048  0.8404 -1.6510  0.8863
 2941SOL     OW20455   1.441   3.065  15.592 -0.6200  0.7764  0.3452
 2941SOL    HW120456   1.452   3.140  15.650  0.8700  1.8640 -1.3254
 2941SOL    HW220457   1.428   3.104  15.505  0.1550 -0.0733 -0.1472
 2942SOL     OW20458   3.179   3.499   4.398 -0.2006 -0.1681  0.0779
 2942SOL    HW120459   3.141   3.527   4.315 -0.6311 -0.8389  0.0485
 2942SOL    HW220460   3.253   3.560   4.402  0.1802 -0.5056 -2.1377
 2943SOL     OW20461   3.458   1.991   6.542  0.2949  0.2811 -0.9667
 2943SOL    HW120462   3.508   1.910   6.532  1.1652  0.6231  0.5746
 2943SOL    HW220463   3.381   1.956   6.585  1.2899 -0.7202  0.0120
 2944SOL     OW20464   1.662   2.994   5.828 -0.1681  0.2366  0.7167
 2944SOL    HW120465   1.679   2.977   5.735 -0.3499  0.1853  0.6940
 2944SOL    HW220466   1.582   3.045   5.838 -1.3610 -1.0256 -2.4800
 2945SOL     OW20467   4.018   1.143   5.146 -0.4898 -0.4618 -0.2592
 2945SOL    HW120468   4.022   1.047   5.144  2.7473 -0.3079 -1.6809
 2945SOL    HW220469   3.952   1.149   5.215 -0.7651 -0.7679 -0.4967
 2946SOL     OW20470   4.317   2.900  15.159  0.6692 -0.3094 -0.0108
 2946SOL    HW120471   4.241   2.932  15.207  0.1158 -1.4389 -0.1302
 2946SOL    HW220472   4.309   2.806  15.174  0.5723 -0.3188 -0.1258
 2947SOL     OW20473   1.868   0.079   2.693  0.5012 -0.5996  0.2470
 2947SOL    HW120474   1.815   4.731   2.686  1.7648 -1.3559 -0.7882
 2947SOL    HW220475   1.790   0.133   2.682  1.0294  0.3334  1.1522
 2948SOL     OW20476   2.247   0.630   2.619  0.1337  0.0792 -0.2249
 2948SOL    HW120477   2.161   0.608   2.653 -0.2261  0.0305 -1.1798
 2948SOL    HW220478   2.228   0.662   2.531 -1.1909 -2.5944 -0.9172
 2949SOL     OW20479   4.303   2.666   6.572  0.0434  0.6466 -0.4010
 2949SOL    HW120480   4.216   2.637   6.597  0.9707 -1.3121  0.6089
 2949SOL    HW220481   4.350   2.585   6.554 -1.0073 -0.1130  0.3115
 2950SOL     OW20482   3.391   0.675  14.442  0.3067 -0.3628 -0.5150
 2950SOL    HW120483   3.383   0.728  14.522 -0.4709 -3.3959  1.4291
 2950SOL    HW220484   3.334   0.599  14.455 -0.8828  0.7762  0.9056
 2951SOL     OW20485   3.530   0.722  16.261  0.3350 -0.1316 -0.2157
 2951SOL    HW120486   3.589   0.752  16.192  2.3662  0.5506  1.7822
 2951SOL    HW220487   3.562   0.774  16.335 -1.6138  2.3469 -1.1154
 2952SOL     OW20488   0.283   0.740   6.437  0.0240  0.3447  0.0331
 2952SOL    HW120489   0.354   0.692   6.395 -0.3283 -1.9370  2.0938
 2952SOL    HW220490   0.311   0.826   6.407 -2.4389  0.8258 -0.9645
 2953SOL     OW20491   0.094   3.190   8.035 -0.3811  0.0648 -0.3018
 2953SOL    HW120492   0.154   3.123   8.067 -1.0452 -0.4946 -0.2081
 2953SOL    HW220493   0.083   3.242   8.115  0.1370 -1.8288  1.0105
 2954SOL     OW20494   4.212   4.334   8.360 -0.2247  0.4470 -0.0047
 2954SOL    HW120495   4.170   4.404   8.410 -1.4782 -0.4358  0.1634
 2954SOL    HW220496   4.168   4.252   8.383 -1.9416  1.1020 -0.9233
 2955SOL     OW20497   3.493   2.096   2.907  0.2647  0.1931 -0.3414
 2955SOL    HW120498   3.418   2.155   2.907  1.2707  1.4575  0.0967
 2955SOL    HW220499   3.516   2.079   2.999 -0.6922 -3.7208 -0.8039
 2956SOL     OW20500   4.493   4.433   7.252 -0.2822 -0.7676 -0.0486
 2956SOL    HW120501   4.549   4.471   7.186 -0.5782  1.0570  0.7468
 2956SOL    HW220502   4.424   4.499   7.251  0.7208  0.2614 -0.6140
 2957SOL     OW20503   0.088   0.539  15.093 -0.0042  0.6059  0.6795
 2957SOL    HW120504   0.140   0.465  15.124 -0.7972 -1.0823 -2.0291
 2957SOL    HW220505   0.008   0.506  15.135  0.1663 -2.6025 -1.5351
 2958SOL     OW20506   2.795   2.617   6.986 -0.6743  0.3894  0.7363
 2958SOL    HW120507   2.857   2.659   7.046  0.3908 -0.0857 -0.0257
 2958SOL    HW220508   2.850   2.587   6.914  0.8767  2.7451  0.9175
 2959SOL     OW20509   2.726   0.051   8.301  0.4187 -0.2232  0.2063
 2959SOL    HW120510   2.670   0.117   8.261 -1.2746 -3.4924 -2.7914
 2959SOL    HW220511   2.663   4.712   8.300 -0.2085  0.3455 -0.4306
 2960SOL     OW20512   0.987   3.237  16.747 -0.4318  0.1415  0.2039
 2960SOL    HW120513   1.040   3.164  16.779 -2.1050 -1.1778 -0.0216
 2960SOL    HW220514   1.058   3.299  16.763 -0.1977  0.3008 -1.4493
 2961SOL     OW20515   0.520   4.382   4.145 -0.4362 -0.8005  0.1269
 2961SOL    HW120516   0.583   4.431   4.197  1.0691 -1.5278 -1.0171
 2961SOL    HW220517   0.533   4.290   4.169  0.7667 -0.3989  1.0019
 2962SOL     OW20518   3.930   4.143   3.073 -0.2463 -0.0396  0.4058
 2962SOL    HW120519   4.020   4.125   3.046 -1.2121 -0.7739 -2.2920
 2962SOL    HW220520   3.930   4.238   3.088 -1.3524  0.2084 -1.1449
 2963SOL     OW20521   2.183   2.383  15.351  0.4809 -0.1875  0.0248
 2963SOL    HW120522   2.103   2.428  15.324 -0.4510 -1.9104 -0.0468
 2963SOL    HW220523   2.253   2.439  15.317  0.0054 -1.2476 -2.7273
 2964SOL     OW20524   3.792   0.430   7.587  0.1292  0.1827 -0.0385
 2964SOL    HW120525   3.862   0.396   7.532  1.4766  0.7732  1.3214
 2964SOL    HW220526   3.849   0.469   7.653 -1.5206  1.8359  0.4373
 2965SOL     OW20527   0.623   4.624  14.716  0.4504 -0.4739  0.2817
 2965SOL    HW120528   0.622   4.530  14.732 -0.4520 -0.9999 -2.8810
 2965SOL    HW220529   0.533   4.637  14.689  0.6644 -0.4153 -0.3989
 2966SOL     OW20530   1.081   1.727   3.866  0.1167  0.0854  0.0492
 2966SOL    HW120531   1.030   1.646   3.857  1.4746 -0.6702 -0.8446
 2966SOL    HW220532   1.055   1.783   3.793 -0.1907  1.6347  1.3622
 2967SOL     OW20533   1.229   3.646  13.068 -0.1755  0.2167 -0.3258
 2967SOL    HW120534   1.264   3.639  12.979 -0.3520 -0.7582 -0.3205
 2967SOL    HW220535   1.197   3.736  13.073 -1.7491 -0.1800 -2.6574
 2968SOL     OW20536   2.001   0.876  14.738 -0.1424  0.3131  0.0529
 2968SOL    HW120537   1.906   0.888  14.736 -0.2528 -0.3763  1.4956
 2968SOL    HW220538   2.009   0.817  14.663  1.9222 -0.2332  0.7048
 2969SOL     OW20539   3.636   3.121   6.540  0.0756  0.3092  0.1216
 2969SOL    HW120540   3.718   3.164   6.518  0.4550 -2.1725 -3.2988
 2969SOL    HW220541   3.645   3.040   6.489 -2.4458  0.7420 -1.0330
 2970SOL     OW20542   1.160   1.021   8.098  0.4546 -0.0621 -0.2335
 2970SOL    HW120543   1.162   1.108   8.058 -0.1917 -0.8091 -1.9117
 2970SOL    HW220544   1.150   0.966   8.021  1.4461  0.4624 -0.7351
 2971SOL     OW20545   2.504   3.509  16.517  0.5258  0.2780 -0.0217
 2971SOL    HW120546   2.527   3.554  16.435 -2.1216 -0.3530 -1.0763
 2971SOL    HW220547   2.539   3.574  16.579  0.2038  1.7207 -1.3716
 2972SOL     OW20548   1.736   1.307   8.439 -0.0867  0.6502  0.6954
 2972SOL    HW120549   1.685   1.266   8.509  0.0923  0.9852  1.0233
 2972SOL    HW220550   1.824   1.301   8.476 -0.6432 -0.1552  1.8839
 2973SOL     OW20551   1.264   1.307   6.165  0.1107 -0.0753  0.1949
 2973SOL    HW120552   1.211   1.242   6.119 -1.2240  1.6830 -0.7320
 2973SOL    HW220553   1.212   1.384   6.145  1.3387  1.0407  1.3368
 2974SOL     OW20554   0.685   3.894   4.179 -0.1788 -0.1314 -0.2689
 2974SOL    HW120555   0.746   3.961   4.149  1.0120 -1.5696 -1.0869
 2974SOL    HW220556   0.720   3.813   4.142 -0.1862 -0.4336  0.3837
 2975SOL     OW20557   3.839   1.276   0.591 -0.4294  0.1969  0.8513
 2975SOL    HW120558   3.773   1.214   0.621  0.4652 -1.3195 -0.3463
 2975SOL    HW220559   3.856   1.328   0.669  1.8621 -0.2676  0.6525
 2976SOL     OW20560   2.032   0.612   1.998 -0.2398 -0.3206  0.2156
 2976SOL    HW120561   2.046   0.639   1.908 -1.5284  4.2221  1.3487
 2976SOL    HW220562   1.941   0.585   1.986 -0.6514  0.6539  1.1222
 2977SOL     OW20563   1.704   3.920   5.560 -0.0329  0.1896 -0.1593
 2977SOL    HW120564   1.696   3.869   5.641 -0.2530  0.4741 -0.0001
 2977SOL    HW220565   1.684   4.011   5.583  2.2741  0.3379  1.2584
 2978SOL     OW20566   2.702   4.382   0.978 -0.4989 -0.0656  0.2638
 2978SOL    HW120567   2.781   4.376   1.033 -0.3199  0.0161  0.0152
 2978SOL    HW220568   2.689   4.290   0.953 -2.2516  0.4969 -0.8274
 2979SOL     OW20569   2.493   4.021   3.542 -0.2491 -0.4449 -0.3464
 2979SOL    HW120570   2.512   4.027   3.448 -1.5905  1.1733 -0.5168
 2979SOL    HW220571   2.460   3.932   3.553 -4.1493  0.8976 -1.0326
 2980SOL     OW20572   3.369   4.491   3.632  0.1334  0.2673 -0.1141
 2980SOL    HW120573   3.416   4.429   3.688  0.3085  0.7993  0.3334
 2980SOL    HW220574   3.408   4.479   3.546 -0.6215  1.6766 -0.6604
 2981SOL     OW20575   1.662   1.124   8.616 -0.2911  0.2927 -0.1825
 2981SOL    HW120576   1.621   1.078   8.689  0.7014 -0.9018 -0.3842
 2981SOL    HW220577   1.754   1.099   8.609 -0.1100  0.9569 -0.1905
 2982SOL     OW20578   1.575   0.719   7.093 -0.3110  0.2170 -0.4356
 2982SOL    HW120579   1.623   0.644   7.128 -0.1214  0.1090 -0.9325
 2982SOL    HW220580   1.633   0.795   7.098 -0.4451  0.4617 -2.8636
 2983SOL     OW20581   0.942   2.918   9.383  0.2996  0.0457  0.0939
 2983SOL    HW120582   0.849   2.901   9.395 -0.3348  2.9663 -0.8118
 2983SOL    HW220583   0.959   2.853   9.314  2.0423 -0.2155  0.7508
 2984SOL     OW20584   0.779   3.042   0.393  0.8616 -0.4306  0.0436
 2984SOL    HW120585   0.765   3.117   0.336 -0.1298 -1.2636 -0.8097
 2984SOL    HW220586   0.687   3.017   0.405  0.7023 -0.4194 -1.1920
 2985SOL     OW20587   1.575   3.752   6.363  0.2499 -0.1576 -0.5310
 2985SOL    HW120588   1.588   3.707   6.280 -1.3940  0.9532 -1.4075
 2985SOL    HW220589   1.651   3.724   6.412 -0.4423  0.3109  0.8090
 2986SOL     OW20590   3.700   1.396  16.371 -0.0876  0.2597  0.1026
 2986SOL    HW120591   3.648   1.413  16.292 -0.4917  0.8816  0.5054
 2986SOL    HW220592   3.771   1.455  16.348  1.1828 -1.4583 -0.3945
 2987SOL     OW20593   2.103   4.521   5.162 -0.1357 -0.6656 -0.1936
 2987SOL    HW120594   2.104   4.490   5.252  1.5958 -2.7604 -0.9524
 2987SOL    HW220595   2.137   4.611   5.166  1.9435 -1.3891 -1.5753
 2988SOL     OW20596   0.771   1.561  14.810  0.2288  0.1112 -0.7172
 2988SOL    HW120597   0.832   1.633  14.829  2.0079 -0.8780 -2.6549
 2988SOL    HW220598   0.825   1.494  14.768 -0.1138 -0.0304 -0.9275
 2989SOL     OW20599   0.312   2.486   4.099  0.8043 -0.1152  0.5531
 2989SOL    HW120600   0.243   2.421   4.083 -1.3851  1.6095  2.9712
 2989SOL    HW220601   0.292   2.549   4.030 -1.0168  1.2475  2.3416
 2990SOL     OW20602   1.506   1.779   2.481  0.3715 -0.5575 -0.2955
 2990SOL    HW120603   1.486   1.864   2.443  1.1752 -0.9752 -1.6255
 2990SOL    HW220604   1.550   1.807   2.561  0.3490 -1.8199  0.1647
 2991SOL     OW20605   4.437   3.258  14.773 -0.1754  0.0845 -0.2516
 2991SOL    HW120606   4.382   3.184  14.748 -0.0714  0.5107 -1.7750
 2991SOL    HW220607   4.497   3.258  14.699  1.7341  0.6335  1.3214
 2992SOL     OW20608   4.113   4.124   8.508  0.0304  0.3643 -0.2312
 2992SOL    HW120609   4.025   4.115   8.546  0.5715 -1.1428  0.6797
 2992SOL    HW220610   4.108   4.038   8.465 -1.1886 -0.4463  1.5273
 2993SOL     OW20611   4.394   3.403   7.201 -0.1996 -0.2693  0.2343
 2993SOL    HW120612   4.340   3.429   7.127  0.1945 -1.5062 -0.4973
 2993SOL    HW220613   4.452   3.477   7.215  0.4855 -0.7776  0.0925
 2994SOL     OW20614   4.418   1.880  12.668 -0.2477  0.7199  0.1771
 2994SOL    HW120615   4.495   1.933  12.652  0.2826 -0.0181  0.2971
 2994SOL    HW220616   4.420   1.798  12.619 -2.1465  2.2074 -2.4132
 2995SOL     OW20617   2.746   4.220   5.199 -0.2063  0.9455  0.0582
 2995SOL    HW120618   2.742   4.263   5.284  1.4309  0.3442  0.4483
 2995SOL    HW220619   2.665   4.259   5.169 -1.1178 -2.0474 -1.3783
 2996SOL     OW20620   3.257   0.006   5.595  0.2798  0.5538 -0.3439
 2996SOL    HW120621   3.295   0.088   5.565 -1.6024  1.4474 -0.2951
 2996SOL    HW220622   3.313   4.724   5.671  0.6561  0.9924 -0.5431
 2997SOL     OW20623   1.029   4.263   2.791 -0.4111 -0.5206 -0.1110
 2997SOL    HW120624   0.935   4.284   2.797 -0.4277 -1.0781  1.6503
 2997SOL    HW220625   1.024   4.172   2.821  1.3014 -1.2440 -2.0472
 2998SOL     OW20626   1.853   3.317   0.985 -0.0983 -0.6822 -0.0835
 2998SOL    HW120627   1.766   3.299   1.020  0.4283  0.3744  1.7756
 2998SOL    HW220628   1.854   3.306   0.890 -1.2164 -0.4375 -0.1245
 2999SOL     OW20629   2.189   2.601   5.908 -0.5926  0.0101 -0.9235
 2999SOL    HW120630   2.226   2.657   5.977 -2.8246 -0.8929  0.9945
 2999SOL    HW220631   2.215   2.659   5.836  2.3184  0.3890  0.4349
 3000SOL     OW20632   3.977   2.730   4.147 -0.0139 -0.3749  0.3323
 3000SOL    HW120633   4.061   2.773   4.166 -0.0102 -0.2299 -0.0234
 3000SOL    HW220634   4.005   2.638   4.154  0.3626 -0.2338  0.7526
 3001SOL     OW20635   1.745   3.014  11.497 -0.1166  0.0849  0.6011
 3001SOL    HW120636   1.782   3.017  11.409 -1.1078 -0.3321  0.1788
 3001SOL    HW220637   1.745   3.106  11.526  2.4242 -0.2703  1.7388
 3002SOL     OW20638   2.610   0.469   7.066  0.2812  0.3716 -0.3072
 3002SOL    HW120639   2.561   0.525   7.126  0.1871  2.2582 -2.1311
 3002SOL    HW220640   2.548   0.469   6.994 -0.5189  0.1058  0.3845
 3003SOL     OW20641   3.738   4.173   7.513  0.6740 -0.0296 -0.6729
 3003SOL    HW120642   3.823   4.215   7.500  0.0902  1.7669  1.2719
 3003SOL    HW220643   3.689   4.255   7.520  0.2102 -0.3456 -0.1419
 3004SOL     OW20644   0.333   3.343   7.220  0.6430 -0.1548  0.3786
 3004SOL    HW120645   0.427   3.343   7.202  0.7025  1.0564  0.7207
 3004SOL    HW220646   0.294   3.392   7.148  3.2762  0.2965 -0.7293
 3005SOL     OW20647   3.058   0.772   4.497 -0.5389 -0.8412 -0.5307
 3005SOL    HW120648   3.084   0.726   4.417  0.2937 -2.3398  0.5878
 3005SOL    HW220649   3.064   0.862   4.466 -1.6310 -0.6884 -0.2766
 3006SOL     OW20650   1.530   0.535   5.941  0.1768  0.0355  0.1731
 3006SOL    HW120651   1.535   0.630   5.932 -1.5766  0.3786  2.9165
 3006SOL    HW220652   1.441   0.524   5.974  0.5813 -1.9073  0.6276
 3007SOL     OW20653   3.909   4.071  13.804 -0.0026  0.5983  0.6123
 3007SOL    HW120654   3.995   4.034  13.827  0.5425  2.0086  0.8620
 3007SOL    HW220655   3.916   4.102  13.713 -1.6218  2.1618  1.0362
 3008SOL     OW20656   1.021   2.142   6.847  0.1054  0.5432 -0.6927
 3008SOL    HW120657   0.964   2.155   6.922  0.5183  1.4182 -0.5247
 3008SOL    HW220658   1.056   2.054   6.859 -1.8399 -0.2959 -1.1237
 3009SOL     OW20659   3.285   3.106  11.841  0.3776  0.4282  0.0925
 3009SOL    HW120660   3.273   3.149  11.757 -1.1537 -0.4791 -0.1578
 3009SOL    HW220661   3.296   3.014  11.818  0.2347  0.2765  0.6241
 3010SOL     OW20662   0.436   3.643  14.688  0.3367  0.6274  0.4129
 3010SOL    HW120663   0.373   3.689  14.744 -1.6341 -0.9818 -0.4810
 3010SOL    HW220664   0.383   3.599  14.622  0.4152  1.0035  0.1006
 3011SOL     OW20665   4.012   2.428  14.132  0.5102 -0.0690  0.0702
 3011SOL    HW120666   4.003   2.453  14.224 -0.1474 -0.5515  0.1399
 3011SOL    HW220667   3.918   2.412  14.127  0.7048 -1.3085  0.2761
 3012SOL     OW20668   4.236   1.407   2.957 -0.3522  0.0350 -0.0893
 3012SOL    HW120669   4.273   1.496   2.956  1.8438 -0.8993 -2.2478
 3012SOL    HW220670   4.297   1.376   3.024 -1.7707  0.6978  1.4976
 3013SOL     OW20671   3.087   1.725   2.793 -0.3618  0.0363 -0.0439
 3013SOL    HW120672   3.117   1.790   2.857 -0.4946  0.2687 -0.2181
 3013SOL    HW220673   3.106   1.647   2.845  0.5367  1.3756  1.6422
 3014SOL     OW20674   3.566   4.183   4.102 -0.0110  0.6472 -0.2640
 3014SOL    HW120675   3.652   4.167   4.063 -0.1733 -1.7851  0.3773
 3014SOL    HW220676   3.581   4.241   4.177  2.0116 -0.3229  0.0844
 3015SOL     OW20677   0.627   3.750   4.861  0.6518 -0.1277  0.2105
 3015SOL    HW120678   0.557   3.747   4.797  1.3385  1.8268 -0.6391
 3015SOL    HW220679   0.691   3.814   4.830 -0.3289  0.6425 -0.1889
 3016SOL     OW20680   1.991   0.755   4.154 -0.7517  0.2053 -0.2814
 3016SOL    HW120681   2.060   0.698   4.119 -0.2229  2.0947 -2.3278
 3016SOL    HW220682   1.944   0.691   4.207 -2.2939  1.1972 -0.4548
 3017SOL     OW20683   3.216   0.157   6.454  0.5190 -0.9288  0.1033
 3017SOL    HW120684   3.232   0.063   6.461 -2.1186 -1.3022  1.0657
 3017SOL    HW220685   3.302   0.195   6.475 -0.2399 -1.3618  3.9749
 3018SOL     OW20686   4.323   1.468   6.846 -0.5352 -0.2130 -0.3462
 3018SOL    HW120687   4.233   1.492   6.865 -0.3423 -0.2668  0.6348
 3018SOL    HW220688   4.323   1.454   6.751  0.5026  0.8591 -0.5081
 3019SOL     OW20689   2.131   3.730   3.425 -0.2558 -0.6771 -0.2091
 3019SOL    HW120690   2.042   3.750   3.397 -0.9267 -0.3206  2.2003
 3019SOL    HW220691   2.170   3.758   3.342  1.3229  0.1632  0.8181
 3020SOL     OW20692   4.258   2.936   6.444  0.6037  0.8495 -0.2252
 3020SOL    HW120693   4.175   2.890   6.436  0.3683  1.0642  1.0293
 3020SOL    HW220694   4.312   2.860   6.468 -1.0838 -0.3931 -0.3455
 3021SOL     OW20695   1.175   2.050   7.794  0.4367  0.7579  0.2035
 3021SOL    HW120696   1.161   2.058   7.888 -1.2233 -0.8348  0.1003
 3021SOL    HW220697   1.125   2.124   7.759  0.0263  0.9366  1.1599
 3022SOL     OW20698   2.088   3.237   6.447 -0.2163 -0.2111 -0.5858
 3022SOL    HW120699   2.150   3.250   6.519  0.4093  2.7108 -1.6304
 3022SOL    HW220700   2.133   3.296   6.385 -0.7024  1.6058  0.8104
 3023SOL     OW20701   2.502   2.374   1.243 -0.2669 -0.0859  0.0468
 3023SOL    HW120702   2.434   2.441   1.250  0.6955  0.8547  0.2959
 3023SOL    HW220703   2.451   2.293   1.254 -0.6219  0.2087  0.5654
 3024SOL     OW20704   1.310   1.703   5.194  0.0169 -0.7171  0.2469
 3024SOL    HW120705   1.351   1.761   5.258 -0.1971  0.6419 -0.8573
 3024SOL    HW220706   1.224   1.744   5.189 -0.3498 -1.6440 -1.1128
 3025SOL     OW20707   4.719   3.270   5.546 -0.0261  0.0716 -0.0026
 3025SOL    HW120708   4.671   3.275   5.463 -0.9922  0.1908  0.5576
 3025SOL    HW220709   0.050   3.341   5.537  0.8350 -0.6209  0.6881
 3026SOL     OW20710   4.098   3.175   2.774 -0.0645 -0.3403 -0.1294
 3026SOL    HW120711   4.101   3.081   2.756  1.2901 -0.4734  0.7833
 3026SOL    HW220712   4.157   3.212   2.709 -0.4738 -0.4132 -0.5450
 3027SOL     OW20713   1.014   0.192   7.822 -0.0098  0.4621  0.4855
 3027SOL    HW120714   1.074   0.247   7.872  0.4129  1.7549 -1.4510
 3027SOL    HW220715   0.933   0.236   7.850 -1.7327 -4.5008  3.3399
 3028SOL     OW20716   0.170   2.069  17.499  0.4263  0.3214  0.4743
 3028SOL    HW120717   0.130   1.991  17.461 -1.8960  1.1019  1.3246
 3028SOL    HW220718   0.099   2.105  17.553  0.1477  0.7207 -0.1572
 3029SOL     OW20719   1.139   1.025  10.494  0.0823 -0.3194  0.1584
 3029SOL    HW120720   1.122   0.935  10.468 -1.6716  0.0593 -0.0405
 3029SOL    HW220721   1.102   1.029  10.582  2.1968  0.0019  1.0436
 3030SOL     OW20722   0.891   3.019  11.336  0.0433  0.6712  0.2898
 3030SOL    HW120723   0.856   2.930  11.340  2.8218 -0.4168 -0.0041
 3030SOL    HW220724   0.899   3.027  11.431  3.0382  1.1711 -0.0078
 3031SOL     OW20725   4.167   1.555   8.439  0.0512 -0.9587  0.0580
 3031SOL    HW120726   4.159   1.650   8.452  1.8487 -1.1933  2.8310
 3031SOL    HW220727   4.175   1.558   8.344  1.2253 -0.2345  0.1734
 3032SOL     OW20728   3.526   2.750   4.919 -0.2382 -0.0738 -0.5314
 3032SOL    HW120729   3.503   2.659   4.898 -1.0369  0.2118 -0.9324
 3032SOL    HW220730   3.582   2.748   4.996  0.3551 -1.8948 -1.0076
 3033SOL     OW20731   4.566   2.191   5.966 -0.8582 -0.0835  0.1014
 3033SOL    HW120732   4.472   2.178   5.956 -1.4221  2.8594  1.6771
 3033SOL    HW220733   4.578   2.219   5.875  1.8508 -1.8101 -0.0635
 3034SOL     OW20734   3.680   3.218   4.995 -0.3889  0.8185  0.4387
 3034SOL    HW120735   3.733   3.191   5.070 -4.0561 -2.5437  1.8030
 3034SOL    HW220736   3.746   3.268   4.947  0.3880 -0.2068  0.4457
 3035SOL     OW20737   0.077   2.241   2.031 -0.0422  0.0661 -0.0508
 3035SOL    HW120738   0.118   2.216   1.948  2.1441 -0.0723  1.0633
 3035SOL    HW220739   0.097   2.334   2.029 -1.8058  0.4776  1.6225
 3036SOL     OW20740   4.360   2.101   5.138 -0.0862 -0.1739  0.1961
 3036SOL    HW120741   4.290   2.036   5.129 -1.0098  0.8427  0.1022
 3036SOL    HW220742   4.320   2.173   5.090  0.0221  0.2554  0.7487
 3037SOL     OW20743   4.669   4.588  15.431 -0.1466 -0.8435 -0.2724
 3037SOL    HW120744   4.723   4.560  15.504 -1.3892 -0.1580  0.9057
 3037SOL    HW220745   4.661   4.680  15.458  1.0491 -0.5171 -1.0453
 3038SOL     OW20746   1.634   3.576   4.552  0.3672 -0.1328 -0.3872
 3038SOL    HW120747   1.685   3.609   4.625 -1.1154  1.4197 -0.0575
 3038SOL    HW220748   1.559   3.632   4.572 -0.0593 -0.3738 -1.2817
 3039SOL     OW20749   3.870   2.345   3.206  0.0273 -0.2426 -0.3233
 3039SOL    HW120750   3.929   2.330   3.132  1.8343  1.6070  0.7473
 3039SOL    HW220751   3.900   2.434   3.219 -1.2263  0.2529 -0.8346
 3040SOL     OW20752   0.034   1.365   7.863 -0.0184  0.9537  0.0966
 3040SOL    HW120753   4.707   1.296   7.832  0.1246  0.1904  1.4833
 3040SOL    HW220754   0.039   1.344   7.957  3.0424 -1.0429 -0.5213
 3041SOL     OW20755   3.514   3.984   5.052 -0.1098 -0.0716 -0.7228
 3041SOL    HW120756   3.458   3.927   4.999  1.7084 -2.0033 -0.5664
 3041SOL    HW220757   3.443   4.029   5.099 -0.7177  0.9989 -2.6504
 3042SOL     OW20758   1.817   1.390   8.084  0.2128 -0.0366  0.1194
 3042SOL    HW120759   1.735   1.381   8.133 -0.4370  0.3630 -0.9019
 3042SOL    HW220760   1.815   1.466   8.026 -2.0630 -0.3116 -0.1692
 3043SOL     OW20761   2.632   2.129   2.899  0.3883  0.4303  0.4687
 3043SOL    HW120762   2.582   2.161   2.823 -2.1669 -3.6703  0.4084
 3043SOL    HW220763   2.560   2.099   2.954 -0.7837 -0.0664 -1.3313
 3044SOL     OW20764   0.083   0.605   1.803 -0.2753 -0.4621 -0.5942
 3044SOL    HW120765   0.106   0.513   1.809 -1.8392 -0.7798  0.5620
 3044SOL    HW220766   0.157   0.642   1.852  0.7008 -1.6707 -1.1709
 3045SOL     OW20767   3.390   4.271   6.759 -0.2600  0.3117  0.4808
 3045SOL    HW120768   3.423   4.339   6.816  0.6048 -0.0080  0.3629
 3045SOL    HW220769   3.295   4.282   6.767 -0.0314  1.2419  1.9893
 3046SOL     OW20770   2.452   3.743   5.136 -0.0382 -0.4397  0.1613
 3046SOL    HW120771   2.455   3.774   5.045 -0.1435 -1.4223 -0.1742
 3046SOL    HW220772   2.504   3.814   5.173 -0.8881  0.7953 -0.9725
 3047SOL     OW20773   3.572   1.090  17.662 -0.0828 -0.0177 -0.1243
 3047SOL    HW120774   3.616   1.059  17.583  1.0361  0.2283  0.4101
 3047SOL    HW220775   3.645   1.120  17.715  0.1487 -0.5819 -0.1284
 3048SOL     OW20776   2.071   0.494  15.854  0.3195 -0.2242 -0.0777
 3048SOL    HW120777   2.002   0.445  15.899 -0.2631  0.0493 -0.6855
 3048SOL    HW220778   2.139   0.429  15.871  0.2955  0.1228  1.3429
 3049SOL     OW20779   0.769   4.114   2.563  0.5251  0.7843 -0.2928
 3049SOL    HW120780   0.762   4.154   2.650 -0.3844  0.7294 -0.3425
 3049SOL    HW220781   0.733   4.180   2.504 -1.6981  0.6830  0.9692
 3050SOL     OW20782   0.093   0.823   9.935  0.0583  0.4431 -0.1432
 3050SOL    HW120783   0.116   0.913   9.959  2.3896 -0.2109  0.1140
 3050SOL    HW220784   0.176   0.779   9.918  1.1046  2.8100 -1.0950
 3051SOL     OW20785   4.470   3.715   8.460  0.0696  0.0022 -0.0427
 3051SOL    HW120786   4.430   3.633   8.489  0.0850 -0.0417 -0.1469
 3051SOL    HW220787   4.398   3.778   8.457 -1.6977 -1.9927  0.7564
 3052SOL     OW20788   3.496   3.413   4.955 -0.1921 -0.5953  0.7933
 3052SOL    HW120789   3.568   3.350   4.959 -0.5703 -0.9845  1.4976
 3052SOL    HW220790   3.426   3.350   4.974  0.5413 -1.4616  0.6062
 3053SOL     OW20791   3.183   2.826   2.028 -0.1297 -0.0635  0.1529
 3053SOL    HW120792   3.273   2.853   2.050  0.2046 -1.3619  0.4030
 3053SOL    HW220793   3.163   2.768   2.102 -1.5495  1.1318  0.6976
 3054SOL     OW20794   3.986   0.553   6.158  0.3351  0.5005 -0.2403
 3054SOL    HW120795   4.025   0.475   6.120 -1.9321 -0.5110 -0.4281
 3054SOL    HW220796   4.061   0.609   6.180 -1.8543  2.3794  2.5088
 3055SOL     OW20797   0.199   3.615   6.677 -0.2231 -0.3259 -0.2511
 3055SOL    HW120798   0.107   3.611   6.701  0.2108  0.7555  1.5834
 3055SOL    HW220799   0.187   3.664   6.595  0.6936  0.5895  0.1615
 3056SOL     OW20800   2.813   1.603  10.659  0.0266 -0.4715 -0.5063
 3056SOL    HW120801   2.821   1.508  10.652 -2.2813 -0.6128 -1.1615
 3056SOL    HW220802   2.889   1.638  10.613 -0.6848 -0.4876 -1.6669
 3057SOL     OW20803   3.886   2.843  11.665 -0.4826  0.8770 -0.2226
 3057SOL    HW120804   3.812   2.884  11.709 -0.7861 -1.5461  1.5031
 3057SOL    HW220805   3.875   2.880  11.577 -0.4625  0.8494 -0.2371
 3058SOL     OW20806   3.707   4.059   7.236  0.6117 -0.0231 -0.2638
 3058SOL    HW120807   3.753   4.037   7.317 -1.8569  0.7276  1.3476
 3058SOL    HW220808   3.637   4.103   7.284  0.1115 -2.7708  1.5233
 3059SOL     OW20809   3.281   4.252   6.480  0.1697 -0.8284 -0.2366
 3059SOL    HW120810   3.351   4.256   6.546 -0.7032  0.1763  0.6191
 3059SOL    HW220811   3.225   4.190   6.527 -0.1548  0.0962  0.6220
 3060SOL     OW20812   0.465   1.562   7.996  0.1021  0.1152  0.2439
 3060SOL    HW120813   0.560   1.546   7.999  0.1810  0.8466  1.7001
 3060SOL    HW220814   0.457   1.640   8.051  1.2463 -0.2441  0.9223
 3061SOL     OW20815   1.113   4.527   7.901  0.1664  0.2057  0.1077
 3061SOL    HW120816   1.078   4.438   7.898 -0.6023  0.5426 -0.7619
 3061SOL    HW220817   1.032   4.574   7.882  0.7180  0.9347 -0.4271
 3062SOL     OW20818   2.297   4.212   7.587 -0.0877  0.7822  0.1118
 3062SOL    HW120819   2.388   4.235   7.606  0.5353 -2.3576  0.9250
 3062SOL    HW220820   2.317   4.160   7.510 -0.4054  0.6651  0.1089
 3063SOL     OW20821   0.613   2.439   7.068  0.3058  0.6771 -0.2028
 3063SOL    HW120822   0.690   2.440   7.010 -0.7642  2.6511 -1.5858
 3063SOL    HW220823   0.654   2.411   7.150  1.4199 -2.9621 -2.0193
 3064SOL     OW20824   4.026   2.429   6.664  0.5029  0.0583 -0.4599
 3064SOL    HW120825   4.086   2.417   6.738  0.6190 -1.2201 -0.7700
 3064SOL    HW220826   3.937   2.436   6.699  0.2711 -2.0038 -0.6719
 3065SOL     OW20827   1.994   4.477   4.096  0.5723 -0.0268 -0.0755
 3065SOL    HW120828   2.000   4.570   4.074  0.7527 -0.1148 -0.4022
 3065SOL    HW220829   2.043   4.486   4.177 -2.2803  0.2103  1.6218
 3066SOL     OW20830   0.979   3.248  11.257  0.0435 -0.7818 -0.8457
 3066SOL    HW120831   0.960   3.158  11.283 -0.5545 -0.0004  1.4373
 3066SOL    HW220832   0.896   3.295  11.264  0.8206  0.2944  1.2729
 3067SOL     OW20833   2.776   3.743   8.455  0.0937 -0.3973 -0.1698
 3067SOL    HW120834   2.869   3.740   8.429  0.0888  1.2130 -0.3974
 3067SOL    HW220835   2.784   3.656   8.493  0.1313  0.4596  1.7708
 3068SOL     OW20836   2.740   1.456  10.127 -0.1224  0.1664 -0.2023
 3068SOL    HW120837   2.818   1.509  10.139  0.0443 -0.2617  0.6068
 3068SOL    HW220838   2.698   1.486  10.208  0.2440 -5.4429  2.1058
 3069SOL     OW20839   0.271   4.149  14.382 -0.4791  0.3915 -0.5376
 3069SOL    HW120840   0.272   4.126  14.475 -2.6891  0.6237 -0.4493
 3069SOL    HW220841   0.350   4.097  14.364  0.0743  0.5420  1.5133
 3070SOL     OW20842   3.824   2.398   3.887 -0.5021  0.2365 -0.3967
 3070SOL    HW120843   3.827   2.444   3.971 -0.6546  0.1777 -0.3582
 3070SOL    HW220844   3.902   2.433   3.844  0.2701 -2.9229 -1.5194
 3071SOL     OW20845   4.143   2.500   4.145 -0.3394 -0.1754 -0.2240
 3071SOL    HW120846   4.153   2.456   4.061 -2.1063  0.0567 -0.5663
 3071SOL    HW220847   4.080   2.437   4.180  1.8052 -1.7414  0.8453
 3072SOL     OW20848   1.027   0.166   2.154  0.1681  0.0994 -0.1114
 3072SOL    HW120849   1.049   0.116   2.232  1.2194  0.6374 -0.0685
 3072SOL    HW220850   1.047   0.257   2.177 -1.6124  0.6160 -0.5986
 3073SOL     OW20851   3.237   3.299   4.910 -0.3560 -0.2177 -0.3871
 3073SOL    HW120852   3.232   3.360   4.835  2.1196 -0.7262 -0.9877
 3073SOL    HW220853   3.261   3.220   4.861 -0.9014  0.1969 -1.3111
 3074SOL     OW20854   1.659   4.278  16.397 -0.6937  0.3074 -0.1823
 3074SOL    HW120855   1.663   4.340  16.324 -0.6734  1.5249  0.8537
 3074SOL    HW220856   1.736   4.302  16.449 -0.1355 -3.7968  0.9336
 3075SOL     OW20857   1.879   2.145   6.669 -0.7740  0.0095  0.4306
 3075SOL    HW120858   1.931   2.224   6.685 -0.3586 -0.3552  0.8815
 3075SOL    HW220859   1.811   2.172   6.607  0.8549 -1.0017 -1.7495
 3076SOL     OW20860   1.614   2.793   9.082 -0.2725  0.0702  0.2487
 3076SOL    HW120861   1.606   2.698   9.094  3.3809 -0.4502 -1.3791
 3076SOL    HW220862   1.663   2.811   9.163 -1.6839  0.6550  0.9602
 3077SOL     OW20863   3.323   1.484   2.146  0.5367 -0.1895 -0.0104
 3077SOL    HW120864   3.234   1.519   2.147  2.1298  3.8119  1.2496
 3077SOL    HW220865   3.349   1.485   2.238 -1.3943  0.0183  0.5143
 3078SOL     OW20866   4.539   4.587  11.924 -0.4476  0.1855  0.0397
 3078SOL    HW120867   4.458   4.540  11.941 -0.2444  0.7243  2.4335
 3078SOL    HW220868   4.542   4.646  12.000  1.2750 -1.0724  0.9440
 3079SOL     OW20869   1.666   0.490   5.125 -0.3991 -0.2239  0.2102
 3079SOL    HW120870   1.598   0.551   5.155  0.8941  1.1738  0.3009
 3079SOL    HW220871   1.686   0.455   5.211  2.2236 -1.4739 -0.9216
 3080SOL     OW20872   0.638   4.289   6.222  0.4884  0.0184  0.6294
 3080SOL    HW120873   0.715   4.301   6.277  1.0629 -0.0739 -0.1507
 3080SOL    HW220874   0.641   4.371   6.174 -2.5196  0.8221  1.8207
 3081SOL     OW20875   1.792   1.089   5.160  0.6994 -0.4292 -0.4335
 3081SOL    HW120876   1.844   1.032   5.104 -1.1717 -0.6728 -1.9020
 3081SOL    HW220877   1.704   1.073   5.126 -0.9376  2.0221  2.6446
 3082SOL     OW20878   3.001   0.181   3.216 -0.5349  0.4494 -0.1876
 3082SOL    HW120879   3.045   0.106   3.177 -1.4841 -0.1607 -0.0812
 3082SOL    HW220880   3.041   0.257   3.174  0.7285  0.4362  0.9662
 3083SOL     OW20881   1.090   3.668  16.936 -0.0409 -0.3754 -0.4121
 3083SOL    HW120882   1.013   3.717  16.908  0.3662  0.5232  0.0374
 3083SOL    HW220883   1.162   3.731  16.932 -1.2960  1.1901  1.4937
 3084SOL     OW20884   3.054   1.924   2.209 -0.3230 -0.2536 -0.8780
 3084SOL    HW120885   3.127   1.968   2.166 -1.0633  1.2349 -0.5966
 3084SOL    HW220886   3.107   1.855   2.251  0.6741  0.2766 -1.2607
 3085SOL     OW20887   4.677   0.706   6.629 -0.2084  0.4214 -0.4394
 3085SOL    HW120888   4.613   0.732   6.563 -0.1338  0.0906 -0.6466
 3085SOL    HW220889   0.013   0.667   6.573 -1.0239 -1.3430 -0.1929
 3086SOL     OW20890   2.264   2.402  17.099  0.3252  0.4731  0.3415
 3086SOL    HW120891   2.261   2.493  17.126  0.6694  0.5360  0.1647
 3086SOL    HW220892   2.185   2.365  17.139 -0.0572 -0.4760 -1.2670
 3087SOL     OW20893   2.466   2.331   3.470  0.4528  0.0242  0.0499
 3087SOL    HW120894   2.497   2.362   3.555 -0.4690 -2.7742  1.3776
 3087SOL    HW220895   2.373   2.312   3.477  0.7414 -0.9482  1.2783
 3088SOL     OW20896   3.417   4.226  14.497  0.0039  0.5536 -0.3822
 3088SOL    HW120897   3.417   4.321  14.481  3.0051  0.5176 -0.5343
 3088SOL    HW220898   3.394   4.218  14.590  1.1994 -0.9180 -0.2185
 3089SOL     OW20899   0.946   1.860   6.332  0.0493  0.2496  0.5022
 3089SOL    HW120900   1.038   1.837   6.345  0.7147  1.3203 -2.4201
 3089SOL    HW220901   0.909   1.876   6.419 -1.9411 -1.0075 -0.0958
 3090SOL     OW20902   3.662   0.102   4.980 -0.3505  0.4150  0.3811
 3090SOL    HW120903   3.670   0.183   4.929  1.7772 -0.3819 -0.5548
 3090SOL    HW220904   3.752   0.075   4.965 -0.6356  0.7763 -2.0029
 3091SOL     OW20905   3.416   2.644   2.439 -0.1280  0.1779 -0.0095
 3091SOL    HW120906   3.346   2.707   2.451 -0.9491 -0.5110 -1.1495
 3091SOL    HW220907   3.391   2.587   2.512  0.2222  1.8779  1.4407
 3092SOL     OW20908   2.986   1.487   8.907 -0.0104  0.0621  0.1587
 3092SOL    HW120909   2.891   1.473   8.911 -0.1840  1.6237  1.4846
 3092SOL    HW220910   2.986   1.558   8.843  0.5839  1.4800  1.7359
 3093SOL     OW20911   0.038   0.905   9.268  0.3552  0.1864  0.1804
 3093SOL    HW120912   4.687   0.862   9.247 -0.2196  1.4439 -0.1609
 3093SOL    HW220913   0.031   0.927   9.361  1.8306  1.8186 -0.0931
 3094SOL     OW20914   0.642   1.482   1.528 -0.4795  0.0692  0.5016
 3094SOL    HW120915   0.598   1.442   1.603 -0.7540  0.9798  0.8254
 3094SOL    HW220916   0.573   1.484   1.462  0.0965  2.0837 -0.0409
 3095SOL     OW20917   3.922   0.477  14.389  0.8726  0.0952 -0.7285
 3095SOL    HW120918   3.980   0.527  14.447 -0.6332  0.2794  0.6197
 3095SOL    HW220919   3.971   0.490  14.308 -0.4147  2.0577 -1.1960
 3096SOL     OW20920   1.474   1.973   0.801  0.3650 -0.6811 -0.3479
 3096SOL    HW120921   1.386   1.960   0.767 -0.0509 -0.8493  0.7996
 3096SOL    HW220922   1.459   1.953   0.893 -1.2359  1.8770 -0.0566
 3097SOL     OW20923   3.119   0.171  15.577 -0.3736  0.1118  0.8239
 3097SOL    HW120924   3.132   0.090  15.528 -1.7235 -0.9046  2.1555
 3097SOL    HW220925   3.167   0.151  15.657 -0.6917  0.6309  1.1438
 3098SOL     OW20926   3.485   1.688   8.842 -0.6712  0.3210 -0.4118
 3098SOL    HW120927   3.497   1.615   8.902  0.7606  0.8971 -0.0039
 3098SOL    HW220928   3.499   1.641   8.760 -1.9787 -0.6923 -0.0475
 3099SOL     OW20929   0.322   1.611   2.432 -0.1795  0.2004  0.0449
 3099SOL    HW120930   0.371   1.574   2.506  1.2063 -0.2850 -1.1156
 3099SOL    HW220931   0.251   1.548   2.420  0.3982 -0.2750 -0.8294
 3100SOL     OW20932   0.871   0.597  15.137 -0.2966 -0.2049  0.1006
 3100SOL    HW120933   0.870   0.679  15.186 -1.4217 -0.6041  0.7393
 3100SOL    HW220934   0.782   0.564  15.123  0.3084 -1.1820 -1.5414
 3101SOL     OW20935   0.228   0.709   9.267  0.4164 -0.3166  0.5921
 3101SOL    HW120936   0.173   0.783   9.242  2.1911  0.7469 -0.1141
 3101SOL    HW220937   0.248   0.667   9.183  1.6115 -0.0934  0.7719
 3102SOL     OW20938   1.542   1.262   3.912 -0.0469  0.2486 -0.3233
 3102SOL    HW120939   1.549   1.169   3.935 -1.1805  0.4739  0.9381
 3102SOL    HW220940   1.634   1.283   3.928 -0.8096  0.4020  3.9868
 3103SOL     OW20941   1.291   4.156   8.336  0.2856 -0.6864  0.7285
 3103SOL    HW120942   1.242   4.169   8.255  1.0212  1.2525  0.6116
 3103SOL    HW220943   1.331   4.073   8.308 -1.1388 -0.3697 -2.2847
 3104SOL     OW20944   1.446   2.522   2.839  0.0141 -0.2195  0.4563
 3104SOL    HW120945   1.419   2.462   2.908  1.2562 -0.9580  0.3067
 3104SOL    HW220946   1.372   2.579   2.819  0.3669 -0.1086 -0.5394
 3105SOL     OW20947   2.014   1.610   6.757  0.5523 -0.2230  0.0079
 3105SOL    HW120948   2.062   1.590   6.837  0.4604  1.2034  0.4198
 3105SOL    HW220949   1.922   1.613   6.782  0.4147 -1.4106 -0.3295
 3106SOL     OW20950   1.249   0.806   9.338  0.2598 -0.5393  0.5496
 3106SOL    HW120951   1.306   0.732   9.315 -0.2368 -0.8985  0.4491
 3106SOL    HW220952   1.249   0.858   9.258  0.7562 -1.4693 -0.0576
 3107SOL     OW20953   3.750   0.372   5.158  0.7685  0.0354 -0.4770
 3107SOL    HW120954   3.823   0.348   5.100  1.2761 -0.2141  0.2649
 3107SOL    HW220955   3.699   0.423   5.095  0.5866 -2.0624 -2.0554
 3108SOL     OW20956   2.304   1.860   9.237 -0.2424 -0.5754 -0.1340
 3108SOL    HW120957   2.226   1.813   9.206  0.7537 -1.9959 -0.5031
 3108SOL    HW220958   2.370   1.790   9.236  0.8521  0.4124  2.3636
 3109SOL     OW20959   4.286   4.008  17.477 -0.1187  0.3827  0.1563
 3109SOL    HW120960   4.343   3.988  17.404  0.9538 -0.9127  1.3580
 3109SOL    HW220961   4.347   4.055  17.534  1.8167 -1.6745 -0.2687
 3110SOL     OW20962   2.449   4.456   0.453 -0.0749 -0.6546 -1.1776
 3110SOL    HW120963   2.390   4.532   0.461  2.3827  0.9039  2.1562
 3110SOL    HW220964   2.497   4.474   0.534  0.0781 -3.1943 -0.7157
 3111SOL     OW20965   4.098   2.386   9.369 -0.6326 -0.1763  0.5497
 3111SOL    HW120966   4.078   2.293   9.359 -1.6966  0.1058  0.1069
 3111SOL    HW220967   4.019   2.408   9.417  0.2963 -1.8132  2.8500
 3112SOL     OW20968   1.782   0.915  15.125  0.0541  0.2668  0.4804
 3112SOL    HW120969   1.835   0.995  15.131 -0.4622  0.6016  0.5460
 3112SOL    HW220970   1.732   0.923  15.206 -1.1409 -2.9837  0.0384
 3113SOL     OW20971   4.629   0.411  15.217 -0.2832 -0.5437  0.1692
 3113SOL    HW120972   4.626   0.322  15.251 -0.4157 -0.9570 -0.9182
 3113SOL    HW220973   4.592   0.465  15.287  0.1742  0.0664 -0.0574
 3114SOL     OW20974   0.672   3.848   6.966  0.0810  0.6509 -0.1044
 3114SOL    HW120975   0.607   3.890   6.909 -0.8666 -0.5824  0.0619
 3114SOL    HW220976   0.642   3.887   7.048  2.7141 -0.4545  1.3651
 3115SOL     OW20977   1.848   2.452   2.764  0.3693  0.1938 -0.1290
 3115SOL    HW120978   1.938   2.468   2.792  0.7535 -0.3548 -1.0654
 3115SOL    HW220979   1.828   2.381   2.825  3.1655 -3.0221 -2.9388
 3116SOL     OW20980   4.261   1.202   8.810  0.0977 -0.4768  0.2320
 3116SOL    HW120981   4.238   1.278   8.758 -1.5934 -2.2044 -1.5670
 3116SOL    HW220982   4.196   1.209   8.880  0.8596 -2.0714  1.0973
 3117SOL     OW20983   1.099   1.954   3.654  0.0751  0.0405  0.3583
 3117SOL    HW120984   1.115   2.024   3.718 -0.1871  1.1043 -0.7429
 3117SOL    HW220985   1.014   1.973   3.615  1.9966  2.0850 -2.7866
 3118SOL     OW20986   0.135   3.878   6.585  0.3589  0.2315 -0.3248
 3118SOL    HW120987   0.096   3.831   6.512 -0.8421  2.8492 -1.3564
 3118SOL    HW220988   0.207   3.927   6.545  0.5053  0.1330 -0.1829
 3119SOL     OW20989   1.733   2.338   2.024  0.1650  0.0332  0.1546
 3119SOL    HW120990   1.813   2.386   2.006  0.8394 -1.2536 -0.2671
 3119SOL    HW220991   1.720   2.373   2.112  0.2357 -0.9172  0.5402
 3120SOL     OW20992   2.506   3.341  11.023  0.1187  0.0362  0.7407
 3120SOL    HW120993   2.583   3.300  11.061  0.0410 -1.9346 -1.2112
 3120SOL    HW220994   2.448   3.352  11.098 -0.5519 -3.9022  0.7639
 3121SOL     OW20995   1.914   4.008   3.200  0.2116 -0.0109 -0.1381
 3121SOL    HW120996   1.922   3.985   3.107 -2.7486 -0.0831 -0.3826
 3121SOL    HW220997   1.923   3.923   3.243  0.3263  0.7918  1.4189
 3122SOL     OW20998   2.673   0.541   4.638  0.6703 -0.0311  0.4944
 3122SOL    HW120999   2.645   0.450   4.630  2.1565 -0.5287  0.9632
 3122SOL    HW221000   2.608   0.576   4.699  1.4717  1.6713  0.3638
 3123SOL     OW21001   1.324   1.100  17.314 -0.0695 -0.6730 -0.7069
 3123SOL    HW121002   1.326   1.128  17.222  1.8138 -1.1010 -0.7978
 3123SOL    HW221003   1.418   1.094  17.331 -0.2499  0.8590  0.8762
 3124SOL     OW21004   0.033   2.867  10.908 -0.9864  0.3611  0.3782
 3124SOL    HW121005   0.075   2.930  10.849  3.2868 -2.2398  0.6528
 3124SOL    HW221006   0.061   2.881  10.998 -0.4980 -1.7591  0.5452
 3125SOL     OW21007   1.361   1.370   8.268  0.1425  0.3976 -0.6891
 3125SOL    HW121008   1.353   1.315   8.346 -2.9833  0.3592 -1.0386
 3125SOL    HW221009   1.328   1.456   8.296 -1.6552 -0.2838 -0.7198
 3126SOL     OW21010   0.311   0.555   5.083 -0.2617  0.1709  0.5357
 3126SOL    HW121011   0.242   0.540   5.148 -1.6117  2.7140 -0.3465
 3126SOL    HW221012   0.375   0.597   5.141 -0.5629  0.1830  0.8644
 3127SOL     OW21013   2.055   4.117   5.224  0.0718 -0.0726 -0.4137
 3127SOL    HW121014   2.107   4.138   5.302 -0.0951 -0.5933 -0.1609
 3127SOL    HW221015   1.969   4.147   5.256 -0.6390 -1.7695 -0.7419
 3128SOL     OW21016   1.468   0.388  14.399 -0.0261 -0.2433 -0.4255
 3128SOL    HW121017   1.382   0.358  14.370  0.1176 -3.4475  2.4052
 3128SOL    HW221018   1.522   0.309  14.391 -1.0637 -0.9420 -0.4999
 3129SOL     OW21019   4.111   2.505   3.416 -0.6210 -0.0065  0.7021
 3129SOL    HW121020   4.120   2.558   3.496  0.5649 -0.5592  0.9258
 3129SOL    HW221021   4.054   2.562   3.363 -0.8394 -1.4982 -0.6645
 3130SOL     OW21022   4.009   4.154   1.681  0.0776  0.2740  0.3729
 3130SOL    HW121023   4.021   4.181   1.772  0.5163 -1.4348  0.8365
 3130SOL    HW221024   4.094   4.159   1.637 -0.5195 -1.6066 -1.0234
 3131SOL     OW21025   4.225   3.185   3.031  0.0800  0.2372 -0.3152
 3131SOL    HW121026   4.171   3.189   2.952 -1.7267  0.4170  0.9121
 3131SOL    HW221027   4.311   3.196   2.991  0.1231  0.6883 -0.0971
 3132SOL     OW21028   1.128   3.318   3.009  0.6136 -0.1650 -0.3629
 3132SOL    HW121029   1.138   3.335   3.103 -0.2618  2.9440 -0.8299
 3132SOL    HW221030   1.184   3.391   2.982 -0.1149  0.1557 -1.0109
 3133SOL     OW21031   0.268   1.775   4.279 -0.6931  0.0080  0.0343
 3133SOL    HW121032   0.297   1.825   4.355  2.8102 -3.5715  1.0613
 3133SOL    HW221033   0.174   1.794   4.276 -0.4084  1.3498 -0.4207
 3134SOL     OW21034   0.268   0.388  15.686 -0.4658 -0.1180 -0.0855
 3134SOL    HW121035   0.292   0.476  15.714 -2.1770 -0.6480  3.1285
 3134SOL    HW221036   0.173   0.396  15.675 -0.2077  0.7602 -1.6519
 3135SOL     OW21037   2.942   1.030   0.324 -0.0664  0.0178 -0.0799
 3135SOL    HW121038   3.026   1.062   0.291  0.7315 -0.6875  1.2528
 3135SOL    HW221039   2.968   0.938   0.335  1.1388  0.4535  0.6504
 3136SOL     OW21040   4.165   0.396   0.698  0.7354  0.1084 -0.5361
 3136SOL    HW121041   4.250   0.437   0.680  0.0167  1.2191 -1.4014
 3136SOL    HW221042   4.196   0.306   0.710 -2.6695 -0.7855  1.3747
 3137SOL     OW21043   3.117   0.903  16.892  0.1175 -0.0488  0.6094
 3137SOL    HW121044   3.114   0.948  16.808  0.9957  0.1714  0.6956
 3137SOL    HW221045   3.082   0.817  16.869  2.1476 -1.2883  2.1678
 3138SOL     OW21046   0.927   1.646  15.479 -0.2599 -0.5445 -0.4305
 3138SOL    HW121047   0.938   1.736  15.449  0.5173  0.4226  2.6814
 3138SOL    HW221048   0.921   1.671  15.572  1.5242 -0.3972 -0.3397
 3139SOL     OW21049   0.079   3.703   9.242 -0.4338 -0.3489  0.0880
 3139SOL    HW121050   0.094   3.653   9.323  0.8337  2.5618  1.6612
 3139SOL    HW221051   4.719   3.726   9.251 -0.6803 -1.6823  1.0140
 3140SOL     OW21052   0.077   0.527  12.367 -0.1214 -0.1668  0.2160
 3140SOL    HW121053   0.018   0.589  12.324 -0.3357 -0.3399  0.2643
 3140SOL    HW221054   0.041   0.439  12.364  2.6837 -1.2666 -1.6446
 3141SOL     OW21055   1.033   1.063   8.350 -0.2997 -0.1870 -0.7064
 3141SOL    HW121056   0.970   1.128   8.320 -1.2634 -1.2770 -1.0604
 3141SOL    HW221057   1.083   1.044   8.271  0.9836 -1.3029  0.3769
 3142SOL     OW21058   3.786   3.115   3.938  0.4654  0.0275  0.4195
 3142SOL    HW121059   3.875   3.122   3.903  1.1226 -1.3006  1.7827
 3142SOL    HW221060   3.741   3.077   3.862 -0.9732  0.3013  1.1357
 3143SOL     OW21061   2.337   2.572   7.534 -0.5368 -0.3702 -0.5203
 3143SOL    HW121062   2.257   2.580   7.585  0.2486 -0.0978  0.6641
 3143SOL    HW221063   2.378   2.493   7.569  0.7046  0.7752  0.6293
 3144SOL     OW21064   0.093   3.473   3.360 -0.4463  0.1721 -0.2328
 3144SOL    HW121065   0.000   3.490   3.378  0.8888  1.7041  4.9619
 3144SOL    HW221066   0.093   3.481   3.264  1.0918  3.6953  0.0811
 3145SOL     OW21067   2.871   0.702   6.974  0.2905 -0.1719  0.0427
 3145SOL    HW121068   2.869   0.608   6.955 -0.9437  0.1898 -1.6796
 3145SOL    HW221069   2.964   0.722   6.974  0.6403 -1.7528  1.0092
 3146SOL     OW21070   2.397   2.600   2.230  0.0970  0.6655 -0.0826
 3146SOL    HW121071   2.427   2.563   2.147 -0.6465 -1.0848  0.4525
 3146SOL    HW221072   2.483   2.634   2.255  1.6975 -1.8534 -2.0971
 3147SOL     OW21073   0.110   3.599   9.498  0.4484 -0.1805  0.4699
 3147SOL    HW121074   0.111   3.539   9.573  1.8200 -0.2353  0.4208
 3147SOL    HW221075   0.077   3.681   9.533 -0.8071 -0.8605  0.8887
 3148SOL     OW21076   2.169   4.163   6.825 -0.1247 -0.5037 -0.0966
 3148SOL    HW121077   2.159   4.114   6.743 -1.0450 -0.8530  0.2257
 3148SOL    HW221078   2.098   4.227   6.820  0.7939  0.4137 -1.3747
 3149SOL     OW21079   3.911   0.348  17.407  0.1718 -0.0123  0.7753
 3149SOL    HW121080   3.965   0.412  17.359  0.3383  0.3737  1.4721
 3149SOL    HW221081   3.880   0.297  17.333  1.0166 -0.3133  0.6283
 3150SOL     OW21082   2.723   2.905   4.015  0.4864 -0.0817 -0.1612
 3150SOL    HW121083   2.725   2.998   3.995 -0.6905  0.0650  0.3896
 3150SOL    HW221084   2.805   2.895   4.064 -0.8211 -0.1883  2.0189
 3151SOL     OW21085   3.860   1.502   5.011 -0.4737  0.6559  0.0447
 3151SOL    HW121086   3.769   1.480   5.030 -0.7350  2.2229  0.5695
 3151SOL    HW221087   3.894   1.514   5.100  2.8305 -0.4033 -1.0961
 3152SOL     OW21088   0.642   0.347  10.875  0.2479  0.5781 -0.4370
 3152SOL    HW121089   0.697   0.386  10.943  0.7104  2.4788 -1.9302
 3152SOL    HW221090   0.606   0.272  10.922 -2.4809  1.2048 -1.5063
 3153SOL     OW21091   0.322   3.381   3.788 -0.6688  0.3892  0.0593
 3153SOL    HW121092   0.274   3.391   3.870  0.8208  2.2155  0.7031
 3153SOL    HW221093   0.417   3.383   3.803 -1.0072  2.0841  1.8891
 3154SOL     OW21094   3.319   0.228   9.151  0.2174 -0.4845 -0.1159
 3154SOL    HW121095   3.288   0.196   9.067 -0.1074  2.0729 -0.9829
 3154SOL    HW221096   3.379   0.300   9.131  0.6370 -0.2767  1.8856
 3155SOL     OW21097   0.634   3.590   2.444  0.0454  0.7818  0.5970
 3155SOL    HW121098   0.704   3.652   2.422  0.0593  0.3580 -0.5577
 3155SOL    HW221099   0.571   3.616   2.378  0.5705 -2.6666 -1.2872
 3156SOL     OW21100   2.101   2.902  16.594 -0.9630  0.0722  0.3407
 3156SOL    HW121101   2.067   2.971  16.537 -1.5219 -0.9625 -0.5884
 3156SOL    HW221102   2.078   2.821  16.548  0.5773  0.3751 -0.9446
 3157SOL     OW21103   4.058   3.605   4.101 -0.1980  0.0334 -0.3508
 3157SOL    HW121104   3.977   3.624   4.054  0.8750  3.5921 -0.7358
 3157SOL    HW221105   4.034   3.659   4.176  0.0486 -0.7657  0.3053
 3158SOL     OW21106   3.358   4.509   8.070 -0.5067 -0.2265 -0.3119
 3158SOL    HW121107   3.450   4.494   8.091 -0.9175 -1.4561  0.6066
 3158SOL    HW221108   3.322   4.538   8.154  0.2624 -1.3438  0.3969
 3159SOL     OW21109   0.876   3.509   3.258  0.7465  0.5729  0.2226
 3159SOL    HW121110   0.825   3.559   3.193  2.0141  2.1139  0.4061
 3159SOL    HW221111   0.869   3.418   3.229 -0.3817  1.0294 -0.9519
 3160SOL     OW21112   2.132   1.007   2.361 -0.1826  0.2360 -0.6927
 3160SOL    HW121113   2.064   0.986   2.297 -1.5588  0.9737  0.5167
 3160SOL    HW221114   2.208   0.975   2.312  0.2809  0.0100  0.1721
 3161SOL     OW21115   3.188   2.691   5.288 -0.0637  0.0520  0.8249
 3161SOL    HW121116   3.139   2.771   5.266  0.0483 -0.4452 -1.1853
 3161SOL    HW221117   3.193   2.720   5.380 -0.9295 -1.4712  1.3403
 3162SOL     OW21118   3.439   4.096   8.149  0.0116  0.0213 -0.3515
 3162SOL    HW121119   3.356   4.139   8.171 -0.5510 -0.7030 -1.0380
 3162SOL    HW221120   3.398   4.018   8.110 -0.2316  0.2176 -0.4888
 3163SOL     OW21121   4.049   1.590   6.398 -0.2061  0.0225  0.0924
 3163SOL    HW121122   4.057   1.677   6.436 -1.2689  0.4944 -0.7739
 3163SOL    HW221123   4.125   1.605   6.341  0.6955 -1.6210  0.8449
 3164SOL     OW21124   4.390   3.265   6.691  0.0082 -0.0655 -1.1665
 3164SOL    HW121125   4.420   3.356   6.684 -0.5707  0.1494 -0.8211
 3164SOL    HW221126   4.395   3.242   6.598  1.0205 -1.3731 -0.7922
 3165SOL     OW21127   1.896   2.610   6.976  0.0349 -0.2002 -0.4003
 3165SOL    HW121128   1.942   2.585   7.055  0.0450 -2.0943 -1.0219
 3165SOL    HW221129   1.943   2.681   6.932 -2.5196  1.0398 -1.1957
 3166SOL     OW21130   4.510   4.264  15.640 -0.2432 -0.1420  0.1005
 3166SOL    HW121131   4.451   4.321  15.688 -3.2386  0.3019 -4.0810
 3166SOL    HW221132   4.492   4.289  15.549  1.9578  0.6859 -0.1305
 3167SOL     OW21133   3.341   3.032   2.598 -0.2385 -0.3835 -0.0272
 3167SOL    HW121134   3.307   2.944   2.581  0.8323 -0.4566 -1.7325
 3167SOL    HW221135   3.259   3.075   2.622  0.0171 -0.1683  0.4652
 3168SOL     OW21136   1.536   3.875   4.882  0.0784  0.5486 -0.1914
 3168SOL    HW121137   1.612   3.933   4.881  1.4883 -1.2388  2.9424
 3168SOL    HW221138   1.568   3.820   4.811  1.9885  1.0124  0.2952
 3169SOL     OW21139   4.130   1.557  10.575  0.2400 -0.3258  0.6545
 3169SOL    HW121140   4.136   1.647  10.606 -1.0913 -0.2621  0.7188
 3169SOL    HW221141   4.058   1.529  10.630 -1.3853  0.1659 -1.2187
 3170SOL     OW21142   2.992   1.627   6.694  0.5864  0.2608 -0.2519
 3170SOL    HW121143   2.992   1.609   6.600 -3.0267 -1.8438  0.1542
 3170SOL    HW221144   2.945   1.711   6.698 -1.5747 -1.0266  1.2587
 3171SOL     OW21145   2.923   2.774  10.399 -0.0428 -0.2261  0.2074
 3171SOL    HW121146   2.895   2.863  10.378  1.6104 -0.1852 -1.7564
 3171SOL    HW221147   2.871   2.764  10.479  0.9711  0.0811  0.9039
 3172SOL     OW21148   3.084   0.521   6.311 -0.1468 -0.1958 -0.0438
 3172SOL    HW121149   3.036   0.594   6.272  0.7514  0.1007 -0.6010
 3172SOL    HW221150   3.041   0.506   6.395  0.0264 -0.3589  0.0174
 3173SOL     OW21151   0.026   2.461   4.666  0.0811 -0.2537  0.3865
 3173SOL    HW121152   4.678   2.436   4.712 -0.8380  3.1043  0.6132
 3173SOL    HW221153   0.039   2.547   4.706  0.6101  0.6915 -1.8229
 3174SOL     OW21154   0.543   1.901  17.633 -0.2824  0.1440 -0.4383
 3174SOL    HW121155   0.615   1.962  17.644 -0.7564  0.2602  1.9411
 3174SOL    HW221156   0.494   1.950  17.567 -1.9107  1.8912  2.0635
 3175SOL     OW21157   4.486   4.520   4.090  0.1901 -0.2911 -0.0908
 3175SOL    HW121158   4.523   4.432   4.085  2.4418  0.7757 -2.5485
 3175SOL    HW221159   4.486   4.547   3.998  0.6670 -0.7407 -0.2238
 3176SOL     OW21160   2.932   3.228  13.435  0.1040 -0.4244 -0.1630
 3176SOL    HW121161   2.988   3.164  13.479  1.4231  1.2199  0.5443
 3176SOL    HW221162   2.873   3.165  13.394 -0.4931  0.4059 -0.5832
 3177SOL     OW21163   0.024   3.126   6.863  0.1481 -0.5633 -0.8937
 3177SOL    HW121164   0.111   3.117   6.903 -0.2569 -0.4188  0.0343
 3177SOL    HW221165   0.040   3.210   6.819  0.7746 -0.7433 -1.0083
 3178SOL     OW21166   1.513   2.510   8.358 -0.0092  0.3089 -0.1277
 3178SOL    HW121167   1.505   2.604   8.341  2.1757  0.5050  0.0098
 3178SOL    HW221168   1.600   2.499   8.395 -0.2458 -0.5010  0.1904
 3179SOL     OW21169   0.855   2.488   7.384 -0.2606 -0.2968  0.2992
 3179SOL    HW121170   0.860   2.551   7.456 -1.2509  0.5606 -0.3872
 3179SOL    HW221171   0.923   2.529   7.331  1.3834  0.2353  2.7866
 3180SOL     OW21172   0.496   1.857   6.040  0.3127  0.2907  0.2486
 3180SOL    HW121173   0.539   1.859   6.125 -0.0895  0.9878  0.4385
 3180SOL    HW221174   0.514   1.770   6.005 -2.3656  0.5032 -1.6858
 3181SOL     OW21175   2.998   3.966   4.590 -0.6027 -0.3205  0.5308
 3181SOL    HW121176   2.994   3.870   4.591  2.6307 -0.4828 -2.3064
 3181SOL    HW221177   3.029   3.985   4.679 -0.7556  3.1512 -0.1780
 3182SOL     OW21178   2.217   2.310   3.413 -0.9081  0.0004  0.4901
 3182SOL    HW121179   2.209   2.245   3.344  0.8911  0.3156 -0.0147
 3182SOL    HW221180   2.186   2.387   3.366 -2.7819  0.4252  2.3969
 3183SOL     OW21181   1.742   0.869   2.653  0.2336 -0.3712 -0.1257
 3183SOL    HW121182   1.658   0.854   2.696  0.2007  1.7295  0.5333
 3183SOL    HW221183   1.718   0.843   2.565  0.1360  2.7761 -1.0262
 3184SOL     OW21184   4.133   3.162   7.816  0.5551  0.3182 -0.1354
 3184SOL    HW121185   4.226   3.139   7.817  0.2591 -0.8933 -0.3062
 3184SOL    HW221186   4.088   3.089   7.858 -1.2561  0.5944 -1.5844
 3185SOL     OW21187   0.808   0.022   2.997 -0.1327  0.0495  0.2168
 3185SOL    HW121188   0.766   0.002   3.081 -0.9503  2.1658  0.2911
 3185SOL    HW221189   0.780   0.113   2.997  1.3413  0.5062  1.3227
 3186SOL     OW21190   1.787   3.939  13.357 -0.3178 -0.0038 -0.5260
 3186SOL    HW121191   1.815   4.031  13.352  0.6362 -0.1760  1.3735
 3186SOL    HW221192   1.732   3.949  13.435  0.4516 -0.5957  0.1004
 3187SOL     OW21193   0.835   1.128  15.608 -0.0039 -0.1332  0.0174
 3187SOL    HW121194   0.764   1.181  15.571  0.4458  0.6433  0.2797
 3187SOL    HW221195   0.885   1.193  15.657 -1.9537  1.4755 -0.1240
 3188SOL     OW21196   2.068   0.803  11.741 -0.0615  0.0413  0.4430
 3188SOL    HW121197   2.054   0.795  11.647  0.8392  0.7039  0.2540
 3188SOL    HW221198   1.981   0.832  11.769 -1.2851 -0.9860 -2.3243
 3189SOL     OW21199   3.504   0.101   3.987  0.1411  0.2774 -0.2502
 3189SOL    HW121200   3.519   0.075   3.896 -1.4548  0.7911 -0.6479
 3189SOL    HW221201   3.480   0.016   4.023  0.3937  1.0016  1.6174
 3190SOL     OW21202   0.804   2.474  11.380  0.3086 -0.5128  0.5829
 3190SOL    HW121203   0.865   2.408  11.346  0.5646 -0.2902  0.6058
 3190SOL    HW221204   0.845   2.555  11.348 -0.5301 -0.4711 -0.4117
 3191SOL     OW21205   0.335   0.787   7.752 -0.2261 -0.0061  0.7237
 3191SOL    HW121206   0.346   0.696   7.780 -1.4538 -0.4985 -0.3667
 3191SOL    HW221207   0.273   0.813   7.820 -2.2792  0.2488 -1.2314
 3192SOL     OW21208   4.712   3.148   2.681  0.1094  0.0986 -0.2475
 3192SOL    HW121209   0.050   3.093   2.716 -1.3525 -1.6639 -0.0237
 3192SOL    HW221210   0.016   3.176   2.597 -0.2963 -0.2097 -0.5261
 3193SOL     OW21211   1.393   0.641   1.680 -0.1685 -0.2770 -0.5015
 3193SOL    HW121212   1.337   0.592   1.620 -0.8443 -0.8930  0.6227
 3193SOL    HW221213   1.374   0.732   1.657  1.6539 -0.3233 -2.1516
 3194SOL     OW21214   3.347   0.765   4.548 -0.3011  0.1835 -0.3039
 3194SOL    HW121215   3.259   0.731   4.563  0.4046 -0.9156  1.2528
 3194SOL    HW221216   3.323   0.857   4.536  1.5715  0.4979 -1.5890
 3195SOL     OW21217   3.435   0.575  10.949  0.2974 -0.1907 -0.2351
 3195SOL    HW121218   3.475   0.624  10.876 -4.6965 -0.6710 -3.2814
 3195SOL    HW221219   3.424   0.493  10.901  0.0391  1.0705 -2.3602
 3196SOL     OW21220   0.975   3.408   6.297 -0.1784  0.2890 -0.5901
 3196SOL    HW121221   0.903   3.350   6.322  0.4752  0.3094  1.3386
 3196SOL    HW221222   0.973   3.413   6.201 -1.0675 -0.5059 -0.6076
 3197SOL     OW21223   3.613   2.883   2.346 -0.2250  0.5262  0.4565
 3197SOL    HW121224   3.587   2.894   2.255  0.2194 -0.1179  0.2475
 3197SOL    HW221225   3.555   2.813   2.376  0.2074 -1.1510 -2.5892
 3198SOL     OW21226   2.554   1.253  11.905 -0.0820  0.1943  0.5655
 3198SOL    HW121227   2.586   1.320  11.845 -0.1623 -0.4687 -0.2274
 3198SOL    HW221228   2.476   1.215  11.864 -0.2656 -0.8636  1.8864
 3199SOL     OW21229   2.491   1.131   3.250 -0.6751 -0.2199  0.2310
 3199SOL    HW121230   2.577   1.143   3.210 -0.6868 -0.3751  0.1578
 3199SOL    HW221231   2.451   1.061   3.199 -1.2967  0.3391 -0.0430
 3200SOL     OW21232   1.704   3.105   1.373  0.6280  0.6118 -0.0637
 3200SOL    HW121233   1.633   3.169   1.368  0.1903  0.1325  0.0060
 3200SOL    HW221234   1.689   3.070   1.461  1.5836 -0.0678 -0.1675
 3201SOL     OW21235   3.706   3.568   7.634 -0.4230 -0.1083 -0.5273
 3201SOL    HW121236   3.722   3.642   7.694  1.2418  1.2643 -2.6572
 3201SOL    HW221237   3.694   3.616   7.553 -2.1294 -2.4774 -1.6686
 3202SOL     OW21238   1.614   3.418   7.187  0.2060 -0.1965 -0.1740
 3202SOL    HW121239   1.585   3.336   7.228 -1.5519  0.0332 -0.9739
 3202SOL    HW221240   1.692   3.420   7.242  0.9571 -0.0645 -1.2449
 3203SOL     OW21241   3.130   2.153  10.028 -0.0763 -0.4675  0.4585
 3203SOL    HW121242   3.096   2.242  10.037 -0.1150 -0.5753  1.4147
 3203SOL    HW221243   3.211   2.155  10.080 -0.7698  1.9124  1.4672
 3204SOL     OW21244   4.566   4.000  14.134 -0.3941  0.7317 -0.2873
 3204SOL    HW121245   4.648   3.989  14.182 -1.6332  0.7556  1.8528
 3204SOL    HW221246   4.514   4.013  14.214  0.2881  0.6953  0.1693
 3205SOL     OW21247   3.626   2.973   7.525  0.5398 -0.0053  0.1385
 3205SOL    HW121248   3.688   3.043   7.505 -0.6719  0.4838 -1.9143
 3205SOL    HW221249   3.646   2.962   7.618  2.8961  1.1181 -0.2535
 3206SOL     OW21250   1.744   0.176   6.040  0.1756 -0.0558  0.1378
 3206SOL    HW121251   1.824   0.152   6.088  0.5679  1.5858  0.3187
 3206SOL    HW221252   1.740   0.266   6.073 -1.2890  0.1331 -0.5428
 3207SOL     OW21253   1.976   2.513  13.848  0.3891 -0.3754  0.0142
 3207SOL    HW121254   1.967   2.440  13.787 -0.4089  1.4639 -2.0885
 3207SOL    HW221255   1.887   2.549  13.857  1.1817  1.7129 -0.4203
 3208SOL     OW21256   1.279   2.976  12.439  0.5402 -0.0674  0.2753
 3208SOL    HW121257   1.200   2.992  12.387  0.7720  0.3477  0.0489
 3208SOL    HW221258   1.268   3.045  12.504 -0.2047  3.4316 -3.5638
 3209SOL     OW21259   4.221   2.079   6.538  0.5692  0.3124 -0.5419
 3209SOL    HW121260   4.213   2.098   6.632 -1.5788  0.6284 -0.7845
 3209SOL    HW221261   4.312   2.094   6.513  1.7278 -0.2710  3.2572
 3210SOL     OW21262   4.442   2.738   5.636  0.4768  0.0905  0.0179
 3210SOL    HW121263   4.349   2.719   5.624  0.2629  1.6871 -0.8618
 3210SOL    HW221264   4.480   2.723   5.549  0.8212 -2.4635  0.6233
 3211SOL     OW21265   1.593   2.405   4.828 -0.1882  0.0830  0.0831
 3211SOL    HW121266   1.521   2.343   4.824 -0.6277  0.5214  1.2381
 3211SOL    HW221267   1.602   2.416   4.923 -0.2693 -2.3597  0.3601
 3212SOL     OW21268   0.946   0.373   3.492 -0.4897  0.0086  0.9637
 3212SOL    HW121269   1.024   0.380   3.546 -0.5261 -2.4015  1.3309
 3212SOL    HW221270   0.879   0.349   3.557  0.5197 -0.9726  1.6309
 3213SOL     OW21271   0.966   0.699   8.540  0.3862 -1.0250  0.0988
 3213SOL    HW121272   0.952   0.639   8.467  0.7451 -0.1573 -0.6863
 3213SOL    HW221273   1.045   0.661   8.580  0.3866  0.6421  1.6760
 3214SOL     OW21274   1.911   0.657   2.591  0.0208  0.2106 -0.3344
 3214SOL    HW121275   1.823   0.689   2.608  0.3499  1.5025 -1.0435
 3214SOL    HW221276   1.909   0.562   2.586  1.2852  0.2772 -2.3252
 3215SOL     OW21277   3.402   3.943   9.109 -0.6487  0.0809  0.2653
 3215SOL    HW121278   3.342   3.987   9.170 -1.6933 -0.8623 -0.0831
 3215SOL    HW221279   3.355   3.870   9.070  1.3185 -1.8164  1.4369
 3216SOL     OW21280   3.114   2.324  12.369 -0.8165  0.2597 -0.2184
 3216SOL    HW121281   3.136   2.351  12.280 -1.7632  2.1486  0.1129
 3216SOL    HW221282   3.021   2.307  12.358 -0.5069 -1.8638  0.3983
 3217SOL     OW21283   1.447   4.219  17.194 -0.7606  0.6059 -0.3552
 3217SOL    HW121284   1.431   4.139  17.145 -1.3855 -0.0320  0.8925
 3217SOL    HW221285   1.372   4.230  17.252 -1.1583 -0.1756 -0.7366
 3218SOL     OW21286   3.376   1.848   2.352  0.7016  0.0140 -0.3839
 3218SOL    HW121287   3.400   1.922   2.297 -0.6421  0.6045 -0.1849
 3218SOL    HW221288   3.330   1.791   2.290  1.3165  0.0956 -0.9163
 3219SOL     OW21289   2.981   3.560   3.414  0.1240 -0.6119  0.1926
 3219SOL    HW121290   2.953   3.477   3.453 -2.2751 -0.3315 -0.9217
 3219SOL    HW221291   2.957   3.549   3.322 -1.5654  0.6140  0.4748
 3220SOL     OW21292   3.104   0.056   8.508 -0.8196 -0.5075  0.0185
 3220SOL    HW121293   3.063   0.065   8.594  0.1482  2.4236  0.1682
 3220SOL    HW221294   3.140   4.700   8.513  0.5033  0.0424  0.1511
 3221SOL     OW21295   1.583   3.301  15.031  0.3306  0.6810  0.1874
 3221SOL    HW121296   1.586   3.268  15.121  0.4517 -0.9260 -0.4080
 3221SOL    HW221297   1.670   3.338  15.043  0.2098  1.0317 -0.0053
 3222SOL     OW21298   2.026   1.497   7.822  0.6328 -1.0557  0.0834
 3222SOL    HW121299   1.960   1.559   7.854  1.6189  1.2499 -2.4028
 3222SOL    HW221300   2.100   1.534   7.871 -0.1295 -3.8267  3.3701
 3223SOL     OW21301   2.787   1.792   3.656  0.1640 -0.1373 -0.1109
 3223SOL    HW121302   2.762   1.810   3.565 -3.8587  1.9894  1.4046
 3223SOL    HW221303   2.866   1.846   3.663 -1.0763  1.7763 -0.8573
 3224SOL     OW21304   4.728   3.520   4.770 -0.1226 -0.5934  0.5220
 3224SOL    HW121305   4.639   3.553   4.784 -0.8296 -1.8053 -1.1113
 3224SOL    HW221306   0.051   3.598   4.775 -0.8757 -0.0683  0.8013
 3225SOL     OW21307   4.225   3.614  17.056 -0.0658  0.2778  0.6433
 3225SOL    HW121308   4.155   3.679  17.060 -0.6355 -0.1834 -1.6024
 3225SOL    HW221309   4.262   3.619  17.144  1.2076  2.5672 -0.0228
 3226SOL     OW21310   0.651   0.452   5.822  0.3765  0.7026  0.0099
 3226SOL    HW121311   0.640   0.383   5.756 -0.3373 -1.0966  2.0170
 3226SOL    HW221312   0.558   0.456   5.846 -0.0651 -0.9288 -1.4569
 3227SOL     OW21313   1.146   0.722   0.953  0.0322  0.3291 -0.2035
 3227SOL    HW121314   1.126   0.759   1.039  0.0987  0.2575 -0.1581
 3227SOL    HW221315   1.225   0.768   0.924 -0.8003  1.8940 -0.0343
 3228SOL     OW21316   4.051   1.278   8.200  0.4595  0.3427 -0.3787
 3228SOL    HW121317   4.065   1.194   8.156  0.2398 -0.5995  1.3557
 3228SOL    HW221318   4.049   1.332   8.121  1.8254 -1.3422 -1.5681
 3229SOL     OW21319   2.475   0.165   9.282 -0.3242 -0.3103  0.3403
 3229SOL    HW121320   2.475   0.261   9.277  0.0251 -0.4015 -1.5911
 3229SOL    HW221321   2.548   0.152   9.341 -0.6095  1.5606  1.1195
 3230SOL     OW21322   2.126   1.948   8.954 -0.5327 -0.1563 -0.3594
 3230SOL    HW121323   2.133   1.895   9.033  0.0497  2.4192  1.3554
 3230SOL    HW221324   2.217   1.940   8.924 -1.3699 -0.8801 -2.6355
 3231SOL     OW21325   2.312   3.658   6.504 -0.7115  0.2593 -0.3108
 3231SOL    HW121326   2.250   3.603   6.552 -0.5040 -0.5533 -0.9780
 3231SOL    HW221327   2.395   3.630   6.543  0.5189  1.3557 -2.1396
 3232SOL     OW21328   0.570   3.188   0.002 -0.1642 -0.5248  0.2544
 3232SOL    HW121329   0.578   3.115  17.669  1.7335 -1.0817  1.1581
 3232SOL    HW221330   0.627   3.254  17.693  2.6708 -1.3821  3.0989
 3233SOL     OW21331   0.491   2.307   5.498 -0.2531  0.7208 -0.2584
 3233SOL    HW121332   0.430   2.345   5.561 -1.4427 -1.5181 -0.0408
 3233SOL    HW221333   0.444   2.226   5.476  0.2549 -0.3694  2.6025
 3234SOL     OW21334   0.308   3.538   9.957 -0.2984 -0.2363 -0.0521
 3234SOL    HW121335   0.304   3.615   9.901  0.8480 -0.0291  0.1650
 3234SOL    HW221336   0.385   3.562  10.007  0.4313 -1.9574 -0.3395
 3235SOL     OW21337   0.244   0.598   9.013  0.7548  0.7087 -0.5000
 3235SOL    HW121338   0.195   0.565   8.938 -0.6432  1.5098  0.0765
 3235SOL    HW221339   0.328   0.552   9.003  0.2014  0.1573 -2.5818
 3236SOL     OW21340   2.339   3.931   6.098 -0.1202  0.0353 -0.2258
 3236SOL    HW121341   2.394   4.001   6.063 -0.1579 -1.3223 -3.0208
 3236SOL    HW221342   2.280   3.907   6.026 -2.0617 -0.0401  1.4003
 3237SOL     OW21343   0.349   2.772   8.491 -0.0815 -1.0896 -0.2200
 3237SOL    HW121344   0.417   2.834   8.463 -0.1704 -0.9853 -0.2021
 3237SOL    HW221345   0.337   2.714   8.415  0.5750 -1.5130 -0.0049
 3238SOL     OW21346   0.362   1.085  14.626  0.4774  0.2782  0.1961
 3238SOL    HW121347   0.410   1.003  14.634  0.2223  0.0114 -1.1067
 3238SOL    HW221348   0.424   1.141  14.579 -2.2749  0.1047 -3.5666
 3239SOL     OW21349   3.470   0.641   6.948 -0.2594 -0.7939 -0.5688
 3239SOL    HW121350   3.478   0.733   6.972  2.5720 -1.1757 -0.0370
 3239SOL    HW221351   3.494   0.603   7.033  0.6552  1.3316  0.1369
 3240SOL     OW21352   0.424   2.226   6.063  0.1127  0.2873 -0.1731
 3240SOL    HW121353   0.330   2.226   6.045 -0.2145  2.8653  1.4682
 3240SOL    HW221354   0.427   2.148   6.119  0.8344 -1.2061 -2.3277
 3241SOL     OW21355   0.311   1.598   2.131  0.0439 -0.1673  0.1009
 3241SOL    HW121356   0.227   1.575   2.092  0.2077  0.1917 -0.4743
 3241SOL    HW221357   0.269   1.667   2.182 -2.0063 -1.9140  0.7736
 3242SOL     OW21358   1.171   4.156   8.983  0.5968  0.3553  0.0075
 3242SOL    HW121359   1.226   4.235   8.978  1.8168 -0.2879  3.0182
 3242SOL    HW221360   1.145   4.159   9.075 -1.0572 -0.1902 -0.4404
 3243SOL     OW21361   0.399   2.513  10.612  0.0544 -0.3399 -0.0873
 3243SOL    HW121362   0.339   2.586  10.595 -0.7400 -0.6609  1.2716
 3243SOL    HW221363   0.341   2.444  10.645 -1.0978  0.4166 -0.5222
 3244SOL     OW21364   3.072   3.406   1.013  0.2992  0.1236 -0.3460
 3244SOL    HW121365   3.105   3.496   1.008  1.4777 -0.2765  0.3187
 3244SOL    HW221366   3.002   3.418   0.948 -0.1342 -2.2217 -0.2899
 3245SOL     OW21367   3.487   1.767   1.696 -0.3277  0.4830 -0.4326
 3245SOL    HW121368   3.575   1.804   1.693  0.2843 -1.1239 -1.8497
 3245SOL    HW221369   3.512   1.675   1.697 -1.1540  0.2542  0.0442
 3246SOL     OW21370   1.906   0.034   4.381  0.3562 -0.0797 -0.5687
 3246SOL    HW121371   1.877   4.724   4.462  1.5190  2.3496  1.1008
 3246SOL    HW221372   1.940   4.686   4.341 -0.0526 -0.3295 -0.4279
 3247SOL     OW21373   0.897   2.870   5.857  0.0205 -0.3949  0.5431
 3247SOL    HW121374   0.892   2.867   5.953  0.2403 -1.1151  0.5346
 3247SOL    HW221375   0.903   2.777   5.837  1.9519 -0.1261 -0.1608
 3248SOL     OW21376   0.017   1.822   4.280 -0.2497 -0.4982 -0.1510
 3248SOL    HW121377   4.713   1.878   4.212  1.1327  0.3567 -0.1976
 3248SOL    HW221378   4.677   1.835   4.341 -0.7701 -2.1719 -0.4186
 3249SOL     OW21379   0.501   2.373   7.661  0.4743 -0.1649  0.1568
 3249SOL    HW121380   0.440   2.344   7.729  0.0196  1.7266  0.5630
 3249SOL    HW221381   0.574   2.372   7.722  0.4453 -1.2246  0.1792
 3250SOL     OW21382   1.561   2.406   4.564 -0.0327  0.2133  0.0859
 3250SOL    HW121383   1.645   2.448   4.545 -0.5895  1.7891  1.1028
 3250SOL    HW221384   1.579   2.387   4.656 -1.1103 -1.0248  0.0545
 3251SOL     OW21385   3.824   4.064   7.957  0.5117  0.0705 -0.1952
 3251SOL    HW121386   3.831   4.155   7.928  1.7074 -0.3003 -1.0652
 3251SOL    HW221387   3.747   4.031   7.910 -0.4700  2.1331 -0.0161
 3252SOL     OW21388   1.381   4.634   7.105  0.5088  0.0536 -0.0848
 3252SOL    HW121389   1.426   4.627   7.190 -0.0925  1.1336  0.3221
 3252SOL    HW221390   1.416   4.714   7.066 -0.8366  1.1648  1.0154
 3253SOL     OW21391   3.667   1.764   5.733 -0.9016 -0.3216  0.1305
 3253SOL    HW121392   3.750   1.804   5.759 -1.5061 -0.6228  2.5135
 3253SOL    HW221393   3.692   1.740   5.643 -0.0877 -1.3783  0.6485
 3254SOL     OW21394   1.906   2.402   1.558 -0.2270  0.2086 -0.0116
 3254SOL    HW121395   1.852   2.480   1.565  0.7707  0.8123  0.9579
 3254SOL    HW221396   1.862   2.350   1.492 -0.4171  0.4845 -0.1002
 3255SOL     OW21397   2.558   1.739   6.591 -0.0898  0.0531  0.0199
 3255SOL    HW121398   2.630   1.797   6.616 -0.9471  1.2874 -0.3899
 3255SOL    HW221399   2.533   1.709   6.679  2.1444  0.6661  0.8889
 3256SOL     OW21400   4.061   0.164   1.797  0.3175  0.2178  0.6904
 3256SOL    HW121401   3.995   0.228   1.770 -0.9687 -0.1941  2.8983
 3256SOL    HW221402   4.074   0.125   1.711 -1.4101 -0.9222  0.9534
 3257SOL     OW21403   3.915   2.525   4.623  0.2696 -1.0493  0.0729
 3257SOL    HW121404   3.916   2.589   4.694  0.4489  0.3494 -1.1808
 3257SOL    HW221405   3.975   2.573   4.566 -0.0433  0.1168  0.7232
 3258SOL     OW21406   3.105   3.043  14.083 -0.4010 -0.7196 -0.4302
 3258SOL    HW121407   3.192   3.013  14.110 -0.6343 -2.8950 -2.1702
 3258SOL    HW221408   3.062   2.958  14.074 -2.8643  0.4422  0.3060
 3259SOL     OW21409   3.303   4.569   6.941 -0.3460 -0.6414  0.1316
 3259SOL    HW121410   3.260   4.507   6.999 -1.1251  0.9520  1.2792
 3259SOL    HW221411   3.329   4.642   6.997 -0.7831 -0.6248  0.3159
 3260SOL     OW21412   4.618   1.303   6.794  0.2308 -0.8355  0.3278
 3260SOL    HW121413   4.541   1.342   6.836 -1.0427  0.1912 -2.9520
 3260SOL    HW221414   4.606   1.351   6.712 -0.4810 -1.5967 -0.0089
 3261SOL     OW21415   1.343   0.938   1.153 -0.4837 -0.0603  0.2532
 3261SOL    HW121416   1.263   0.888   1.172  0.4593 -1.9107 -0.5667
 3261SOL    HW221417   1.393   0.924   1.234 -5.1762 -1.1377  2.9863
 3262SOL     OW21418   1.821   3.672   6.453  0.2601 -0.2189 -0.0558
 3262SOL    HW121419   1.882   3.679   6.380  0.5268 -3.5526 -0.1637
 3262SOL    HW221420   1.849   3.584   6.480  1.5411 -0.4214 -2.0526
 3263SOL     OW21421   4.120   1.630   7.899  0.4004 -0.8303 -0.0731
 3263SOL    HW121422   4.150   1.709   7.853 -1.3379  0.1706  0.5105
 3263SOL    HW221423   4.125   1.558   7.836 -0.3395 -0.5628 -0.4377
 3264SOL     OW21424   2.573   0.926   0.592  0.3726 -0.0672 -0.1802
 3264SOL    HW121425   2.590   0.837   0.561  2.1568 -0.2569  1.3291
 3264SOL    HW221426   2.653   0.972   0.566  1.6219 -0.8077  2.2977
 3265SOL     OW21427   1.529   1.718   3.003  0.5298 -0.6962  0.1908
 3265SOL    HW121428   1.547   1.701   3.095  0.8081  1.3498  0.5116
 3265SOL    HW221429   1.574   1.799   2.979 -0.6432 -0.3175 -0.7162
 3266SOL     OW21430   0.327   3.996  12.119 -0.3191 -0.0591  0.7920
 3266SOL    HW121431   0.264   4.068  12.106  0.3211 -0.2793 -3.5168
 3266SOL    HW221432   0.288   3.928  12.065  0.5603 -0.1570  0.2851
 3267SOL     OW21433   0.798   0.106   4.561 -0.1198 -0.4706  0.1743
 3267SOL    HW121434   0.838   0.106   4.648  1.4516  2.6926 -0.5580
 3267SOL    HW221435   0.846   0.171   4.511  0.8943 -0.6661  0.9019
 3268SOL     OW21436   0.813   1.984   9.445 -0.4717 -0.4808  0.0003
 3268SOL    HW121437   0.811   2.011   9.537 -1.8543 -1.5945  0.2947
 3268SOL    HW221438   0.761   2.051   9.400  0.4522  0.5182  0.4038
 3269SOL     OW21439   0.417   1.176  17.352 -0.1626  0.4644 -0.2353
 3269SOL    HW121440   0.419   1.153  17.259  3.9920 -2.3673  0.5375
 3269SOL    HW221441   0.510   1.167  17.374 -0.2934  0.1295  0.1881
 3270SOL     OW21442   0.996   1.214   5.590  0.3492 -0.5188  0.1290
 3270SOL    HW121443   0.960   1.290   5.634 -1.0115 -2.5525  2.5059
 3270SOL    HW221444   1.079   1.245   5.553 -1.0310 -0.8420 -3.2483
 3271SOL     OW21445   1.153   2.623  10.064  0.0464 -0.6742  0.0071
 3271SOL    HW121446   1.118   2.567  10.133  0.1673 -0.7903 -0.0262
 3271SOL    HW221447   1.075   2.675  10.042  0.3053 -0.5660 -0.6450
 3272SOL     OW21448   4.576   2.194  15.007 -0.4692 -0.5655  0.1566
 3272SOL    HW121449   4.571   2.099  15.020 -1.1961 -0.6507 -0.7451
 3272SOL    HW221450   4.667   2.221  14.992 -0.8531  0.5028 -0.2418
 3273SOL     OW21451   2.963   1.556  13.650  0.3924  0.6722  1.0374
 3273SOL    HW121452   2.921   1.512  13.576 -0.6551  1.5309  1.1303
 3273SOL    HW221453   2.960   1.646  13.617 -0.1021 -0.3266 -1.6694
 3274SOL     OW21454   4.370   0.964   3.024 -0.2585 -0.2153 -0.6752
 3274SOL    HW121455   4.412   0.911   3.091  0.2434  0.5436 -0.3844
 3274SOL    HW221456   4.444   1.001   2.977 -0.4341  1.3452  0.2677
 3275SOL     OW21457   1.312   2.904  14.753  0.4115 -0.0979 -0.2057
 3275SOL    HW121458   1.292   2.878  14.843 -2.3879 -2.5844 -1.5435
 3275SOL    HW221459   1.401   2.937  14.767  0.3277  0.1979 -0.3647
 3276SOL     OW21460   2.392   0.872   8.792  0.1259 -0.4207  0.3122
 3276SOL    HW121461   2.478   0.882   8.831 -0.3604  0.7057  1.0929
 3276SOL    HW221462   2.333   0.937   8.828 -0.7345  0.6270 -2.9474
 3277SOL     OW21463   3.786   0.889  16.865 -0.1032  0.2745  0.5989
 3277SOL    HW121464   3.854   0.826  16.841  0.8726  0.8513  1.8163
 3277SOL    HW221465   3.830   0.974  16.857 -0.4141  0.5630  1.8838
 3278SOL     OW21466   4.038   4.461   2.285 -0.3926  0.4318  0.2700
 3278SOL    HW121467   4.114   4.417   2.247 -0.4873 -1.3938  2.2321
 3278SOL    HW221468   4.018   4.408   2.362  3.4328  1.3681  1.9174
 3279SOL     OW21469   1.754   3.540   8.569 -0.5073  0.2733 -0.6391
 3279SOL    HW121470   1.775   3.457   8.527  1.1156 -0.3587  1.4204
 3279SOL    HW221471   1.814   3.607   8.539  2.0234 -2.0579 -0.7316
 3280SOL     OW21472   0.150   3.643   8.634  0.0349 -0.0276  0.0134
 3280SOL    HW121473   0.181   3.553   8.645  2.6825  0.7387 -1.0538
 3280SOL    HW221474   0.174   3.672   8.721  0.5144 -0.8041  0.1456
 3281SOL     OW21475   1.557   0.709   7.509  0.4803 -0.1474  0.3533
 3281SOL    HW121476   1.500   0.785   7.497  0.9293 -0.1389 -1.7448
 3281SOL    HW221477   1.489   0.644   7.529  0.7156 -1.1243 -1.9727
 3282SOL     OW21478   2.443   2.056   5.140  0.4164  0.0553 -0.1046
 3282SOL    HW121479   2.396   2.056   5.224 -0.7282  0.6212 -0.7474
 3282SOL    HW221480   2.523   2.009   5.162  1.1028  0.6289 -1.3718
 3283SOL     OW21481   3.887   0.149   7.133  0.1061  0.1577  0.1168
 3283SOL    HW121482   3.846   0.077   7.086  1.6700  0.0420 -1.0908
 3283SOL    HW221483   3.930   0.195   7.061 -0.6899 -0.1366 -0.5440
 3284SOL     OW21484   2.681   3.363  15.654 -0.0747 -0.5076 -0.4726
 3284SOL    HW121485   2.586   3.375  15.656 -0.2372 -2.1637  1.9962
 3284SOL    HW221486   2.700   3.270  15.641  0.0785 -0.4145 -0.9046
 3285SOL     OW21487   1.424   0.678   0.605  0.8359  0.8643 -0.2312
 3285SOL    HW121488   1.359   0.712   0.544  0.1133  0.8013  0.5111
 3285SOL    HW221489   1.505   0.672   0.553 -0.4635 -1.6391 -1.9541
 3286SOL     OW21490   3.315   0.730   7.354 -0.0799 -0.2782 -0.0338
 3286SOL    HW121491   3.383   0.687   7.302  1.9286  2.1488  0.5737
 3286SOL    HW221492   3.248   0.667   7.379  0.0173  0.1052  1.1976
 3287SOL     OW21493   2.382   3.214   5.486 -0.3777 -0.3192  0.2796
 3287SOL    HW121494   2.368   3.200   5.393 -0.3032 -2.6498  0.6098
 3287SOL    HW221495   2.294   3.223   5.523 -0.3624 -1.1274  0.5082
 3288SOL     OW21496   1.954   1.430   6.551  0.0500 -0.2176  0.3813
 3288SOL    HW121497   2.043   1.396   6.546 -0.5283 -1.6326 -0.2938
 3288SOL    HW221498   1.973   1.508   6.603  0.2552 -0.1168  0.1531
 3289SOL     OW21499   1.316   3.074   5.211  0.3787 -0.0446  0.0373
 3289SOL    HW121500   1.231   3.105   5.243  0.0860 -1.5025  0.6298
 3289SOL    HW221501   1.293   2.990   5.173  3.2150 -1.2511  1.0058
 3290SOL     OW21502   2.299   2.855  17.082 -0.7400 -0.1750  0.2080
 3290SOL    HW121503   2.320   2.948  17.086  0.6809 -0.4315 -1.6473
 3290SOL    HW221504   2.225   2.869  17.023 -0.8279  1.2765  0.6564
 3291SOL     OW21505   4.174   4.430   9.587 -0.4004 -0.4244  1.0655
 3291SOL    HW121506   4.256   4.456   9.544 -0.6870  1.0104  1.3883
 3291SOL    HW221507   4.199   4.451   9.677  1.0344 -1.2637  0.8703
 3292SOL     OW21508   1.119   4.361   3.865 -0.1389 -0.2331 -0.7122
 3292SOL    HW121509   1.138   4.454   3.869  0.6338 -0.4648  0.9149
 3292SOL    HW221510   1.210   4.333   3.855  0.6706  1.0578  2.9525
 3293SOL     OW21511   0.513   0.206  11.071  0.1700  0.2547  0.2772
 3293SOL    HW121512   0.585   0.155  11.107  0.7259 -0.0628 -1.3003
 3293SOL    HW221513   0.457   0.146  11.021  1.3839 -0.9368  0.3663
 3294SOL     OW21514   2.712   0.035   6.386 -0.0415 -0.4927 -0.5587
 3294SOL    HW121515   2.740   0.081   6.307  1.3455  1.6937  1.1806
 3294SOL    HW221516   2.621   0.009   6.377 -0.0638 -0.5648 -0.1437
 3295SOL     OW21517   0.095   4.536   7.566  0.1380  0.0567  0.3546
 3295SOL    HW121518   0.149   4.508   7.492 -0.3542 -0.5448  0.2187
 3295SOL    HW221519   0.126   4.491   7.645 -0.7541 -2.9001 -0.9785
 3296SOL     OW21520   1.291   3.511   2.963 -0.4160 -0.3363 -0.2350
 3296SOL    HW121521   1.363   3.526   3.023 -0.8476 -2.7261  0.8611
 3296SOL    HW221522   1.339   3.540   2.886  0.1269 -0.2611  0.1367
 3297SOL     OW21523   3.172   1.461   8.412  0.0943 -0.3406  0.0854
 3297SOL    HW121524   3.119   1.453   8.333 -1.1947 -0.9592  1.0165
 3297SOL    HW221525   3.122   1.510   8.477 -0.1071  2.1648 -1.9446
 3298SOL     OW21526   4.345   3.929   2.628  0.6006  0.2341  0.1934
 3298SOL    HW121527   4.250   3.929   2.621  0.3845  0.0510  3.3528
 3298SOL    HW221528   4.371   3.995   2.693 -1.1250  2.6737 -1.5925
 3299SOL     OW21529   1.816   4.124   9.549 -0.3342  1.1545 -0.3103
 3299SOL    HW121530   1.892   4.066   9.551 -1.7307 -0.6520  0.0978
 3299SOL    HW221531   1.769   4.093   9.471 -1.2723  1.0785  0.2825
 3300SOL     OW21532   1.619   3.953   2.595  0.0028  0.3644 -0.4595
 3300SOL    HW121533   1.596   4.045   2.609  0.3977  0.4546 -0.4214
 3300SOL    HW221534   1.710   3.939   2.619 -0.0327  0.1674 -0.4380
 3301SOL     OW21535   0.761   1.819   0.966 -0.2706 -0.3374  0.9830
 3301SOL    HW121536   0.807   1.747   1.008  0.5592  0.5772  1.6313
 3301SOL    HW221537   0.689   1.768   0.929 -0.7723 -0.6883  2.4541
 3302SOL     OW21538   1.086   4.345   4.964 -0.6546 -0.1979  0.4228
 3302SOL    HW121539   1.083   4.412   5.033  2.4314 -0.5211  0.8660
 3302SOL    HW221540   1.179   4.322   4.971  0.2623  3.5010  0.6868
 3303SOL     OW21541   0.892   0.210   5.973 -0.6602 -0.0871 -0.0676
 3303SOL    HW121542   0.848   0.142   6.024 -2.1359  0.1611 -1.0063
 3303SOL    HW221543   0.870   0.188   5.882 -1.1850  0.5927 -0.1075
 3304SOL     OW21544   0.141   2.575   6.505  0.0044  0.0453  0.0782
 3304SOL    HW121545   0.056   2.576   6.463 -0.7782 -2.6970  1.5811
 3304SOL    HW221546   0.153   2.664   6.537  1.2622  0.1967 -0.8161
 3305SOL     OW21547   3.104   0.177   9.390 -0.0878  0.4031  0.4505
 3305SOL    HW121548   3.183   0.213   9.430  0.7248 -0.6783 -0.1574
 3305SOL    HW221549   3.067   0.242   9.330  1.1758  1.2272  0.5837
 3306SOL     OW21550   3.358   3.397   8.632 -0.4449 -0.5253  0.5857
 3306SOL    HW121551   3.400   3.450   8.700  1.9667 -1.7766  0.0870
 3306SOL    HW221552   3.401   3.429   8.552  1.2493 -0.6703  1.4208
 3307SOL     OW21553   1.639   2.508   3.686 -0.3883 -0.5282 -0.6584
 3307SOL    HW121554   1.625   2.594   3.726 -0.0067 -0.0103 -1.6257
 3307SOL    HW221555   1.651   2.450   3.761  0.2891 -0.4686 -0.7171
 3308SOL     OW21556   2.125   3.832   4.033 -0.4680 -0.4358  0.1336
 3308SOL    HW121557   2.165   3.752   4.068 -1.7884 -1.1224  0.0866
 3308SOL    HW221558   2.085   3.796   3.954 -1.8625 -0.3544  0.8034
 3309SOL     OW21559   3.031   4.418   1.066 -0.0333  0.1983 -0.1015
 3309SOL    HW121560   3.119   4.407   1.102  0.1044  3.6595  0.5639
 3309SOL    HW221561   2.973   4.429   1.142  0.3250 -0.4366  0.2678
 3310SOL     OW21562   0.147   0.924   1.070 -0.0336 -0.0089 -0.4320
 3310SOL    HW121563   0.179   0.836   1.049 -1.9238 -0.0347 -3.0671
 3310SOL    HW221564   0.153   0.916   1.166 -1.8529  0.7833 -0.2585
 3311SOL     OW21565   4.343   0.061   3.033  0.0256 -0.1712  0.0774
 3311SOL    HW121566   4.411   0.115   2.991 -1.5678  1.8658  0.1341
 3311SOL    HW221567   4.379   4.705   3.041 -1.0346 -0.6465 -0.4024
 3312SOL     OW21568   1.389   4.140   2.179 -0.1582  0.3858  0.5842
 3312SOL    HW121569   1.442   4.156   2.256 -1.3565 -0.9114  1.6771
 3312SOL    HW221570   1.299   4.155   2.209  0.0836  0.2663  1.3639
 3313SOL     OW21571   1.233   1.368  13.493 -0.5671  0.1109  0.2371
 3313SOL    HW121572   1.164   1.315  13.452 -0.6364 -0.7350  1.4472
 3313SOL    HW221573   1.286   1.395  13.418 -0.5551 -0.8109 -0.0887
 3314SOL     OW21574   1.908   3.380   3.569 -0.1202 -0.1228  0.6321
 3314SOL    HW121575   1.927   3.290   3.541 -1.3844 -0.0618 -0.3975
 3314SOL    HW221576   1.870   3.352   3.652 -0.6450 -0.0212  0.4210
 3315SOL     OW21577   1.816   0.396   8.566  0.2202  0.3735 -0.1972
 3315SOL    HW121578   1.876   0.358   8.629 -0.1760 -2.0548 -1.2820
 3315SOL    HW221579   1.827   0.334   8.494 -0.6547 -0.2938  0.2496
 3316SOL     OW21580   0.022   1.402   4.955  0.2801 -0.4335  0.1463
 3316SOL    HW121581   0.099   1.356   4.988 -0.2184 -0.7986  0.8009
 3316SOL    HW221582   4.700   1.326   4.933  0.8326 -0.0710 -2.5337
 3317SOL     OW21583   1.848   3.455   6.134 -0.5586  0.0464 -0.9306
 3317SOL    HW121584   1.886   3.377   6.094  0.3606 -0.2251  0.4739
 3317SOL    HW221585   1.820   3.411   6.214  0.4249  1.3506  0.1431
 3318SOL     OW21586   1.499   0.588   1.903 -0.2231  0.3548  0.0282
 3318SOL    HW121587   1.457   0.590   1.818 -1.1371  0.3968  0.4823
 3318SOL    HW221588   1.556   0.665   1.906 -0.4723  0.5178  0.7082
 3319SOL     OW21589   0.691   0.236  15.031 -0.1889  0.3652  0.2218
 3319SOL    HW121590   0.756   0.198  14.972 -0.0861  1.9018 -0.6522
 3319SOL    HW221591   0.745   0.244  15.109  1.0307  0.7814 -0.6551
 3320SOL     OW21592   2.387   0.514  15.750  0.0662  1.0413  0.1808
 3320SOL    HW121593   2.430   0.594  15.782  0.6903  1.1685 -0.9864
 3320SOL    HW221594   2.357   0.548  15.666 -6.0919 -1.5841  1.3683
 3321SOL     OW21595   3.070   4.216   2.394 -0.4940  0.1930  0.0461
 3321SOL    HW121596   3.082   4.130   2.353 -2.3524  0.5732 -1.3019
 3321SOL    HW221597   2.975   4.210   2.402 -0.4879 -0.1584 -0.1545
 3322SOL     OW21598   0.568   3.041   7.353 -0.3831 -0.0288 -0.0454
 3322SOL    HW121599   0.610   3.088   7.425 -2.7444  1.5250  0.3194
 3322SOL    HW221600   0.481   3.032   7.391  0.0863 -0.5049  0.8984
 3323SOL     OW21601   2.535   0.271   4.016 -0.1491 -0.0375  0.3712
 3323SOL    HW121602   2.504   0.254   4.105 -0.4660  1.6887  0.5974
 3323SOL    HW221603   2.588   0.192   4.009  1.2911  0.9892 -0.2695
 3324SOL     OW21604   3.859   1.010   3.184  0.3918  0.2733 -0.0793
 3324SOL    HW121605   3.791   1.073   3.209 -1.6620 -0.9208 -2.6167
 3324SOL    HW221606   3.905   1.001   3.268 -0.4802 -0.2266  0.3453
 3325SOL     OW21607   0.557   2.539  10.259  0.4099 -0.0349 -0.1799
 3325SOL    HW121608   0.605   2.583  10.329 -1.9094  0.0672  1.3581
 3325SOL    HW221609   0.596   2.541  10.172 -0.1417  0.8380 -0.4100
 3326SOL     OW21610   0.960   0.712   6.736 -0.0156  0.8044  0.7509
 3326SOL    HW121611   1.003   0.690   6.654 -0.2187 -1.1993  1.1735
 3326SOL    HW221612   1.023   0.764   6.786  0.7158  1.5718 -0.9729
 3327SOL     OW21613   0.453   2.304  17.327 -0.5742 -0.6977 -0.6782
 3327SOL    HW121614   0.470   2.296  17.233 -2.3999 -2.0381 -0.8932
 3327SOL    HW221615   0.358   2.292  17.333 -0.7310 -0.0557 -1.9567
 3328SOL     OW21616   2.053   3.474   3.161 -0.1184 -0.3743 -0.1825
 3328SOL    HW121617   1.996   3.550   3.146 -0.1940 -0.3986 -0.0201
 3328SOL    HW221618   2.121   3.510   3.104  0.7068 -0.4810  0.7448
 3329SOL     OW21619   3.462   4.533   6.080  0.2132  0.3256 -0.2522
 3329SOL    HW121620   3.409   4.471   6.130 -0.8633  2.3701  1.1116
 3329SOL    HW221621   3.412   4.611   6.104 -0.5836  1.1813 -4.5404
 3330SOL     OW21622   0.653   0.827  13.463  0.2338 -0.2415 -0.0936
 3330SOL    HW121623   0.670   0.919  13.443 -1.0749  0.6672  2.9377
 3330SOL    HW221624   0.561   0.824  13.492 -0.5765 -1.3685 -2.7657
 3331SOL     OW21625   0.836   0.495   5.148  0.0451 -0.2556  0.0689
 3331SOL    HW121626   0.853   0.533   5.062 -0.4953 -1.2705 -0.4851
 3331SOL    HW221627   0.818   0.406   5.118  1.0890 -0.5479  0.3199
 3332SOL     OW21628   0.103   4.467  15.618 -0.3991 -0.2007  0.2676
 3332SOL    HW121629   0.193   4.467  15.586 -0.9328  3.3671 -1.1188
 3332SOL    HW221630   0.083   4.373  15.612  1.0958 -0.3545 -2.2881
 3333SOL     OW21631   0.325   4.613  10.426 -0.1111  0.3962  0.0876
 3333SOL    HW121632   0.254   4.671  10.399 -1.3282 -0.7763  0.7810
 3333SOL    HW221633   0.292   4.525  10.406 -1.1368  1.1997 -1.8210
 3334SOL     OW21634   2.965   2.395   5.017 -0.5734 -0.1372  0.0592
 3334SOL    HW121635   3.021   2.437   4.951 -0.8762  1.1383  0.6050
 3334SOL    HW221636   3.000   2.426   5.101  0.6522 -1.6824  0.1044
 3335SOL     OW21637   2.041   3.054   1.945 -0.3116 -0.1036  0.5827
 3335SOL    HW121638   2.037   3.091   2.033  0.1467 -1.7236  1.2962
 3335SOL    HW221639   2.056   2.963   1.970  1.7877 -0.4254 -1.8228
 3336SOL     OW21640   0.557   1.979  11.187  0.6158 -0.3771  0.4746
 3336SOL    HW121641   0.511   2.060  11.167 -0.3474 -0.9664  0.3036
 3336SOL    HW221642   0.518   1.918  11.124  0.4288 -1.4321  1.6084
 3337SOL     OW21643   3.505   0.771   6.534 -0.2509 -0.2255 -0.1217
 3337SOL    HW121644   3.456   0.826   6.595 -0.3662 -0.9674  0.4526
 3337SOL    HW221645   3.443   0.699   6.529 -1.8916  1.3296 -2.1852
 3338SOL     OW21646   1.829   1.372   9.963 -0.2790  0.9807  0.1072
 3338SOL    HW121647   1.733   1.366   9.963 -0.2378  0.4342  0.9039
 3338SOL    HW221648   1.849   1.444  10.023 -1.5824  1.6498 -0.2445
 3339SOL     OW21649   4.154   1.420   7.730  0.1945 -0.1819  0.2245
 3339SOL    HW121650   4.070   1.376   7.745  1.0926 -1.2602  2.1194
 3339SOL    HW221651   4.215   1.361   7.775 -0.6825 -0.3921  1.1349
 3340SOL     OW21652   3.739   0.233   2.268 -0.2959  0.4231 -0.1498
 3340SOL    HW121653   3.799   0.177   2.317  1.3444  0.0910 -2.5133
 3340SOL    HW221654   3.758   0.212   2.177  0.8572 -0.7992  0.3742
 3341SOL     OW21655   2.756   1.020   7.216  0.1619  0.0053  0.2044
 3341SOL    HW121656   2.712   1.043   7.134 -0.0947 -3.6698 -0.7037
 3341SOL    HW221657   2.684   0.984   7.268 -1.1022  0.9662 -0.8773
 3342SOL     OW21658   0.133   2.066   5.338  0.0226 -0.0596 -0.1819
 3342SOL    HW121659   0.127   2.111   5.254 -2.7328 -1.1499 -0.5936
 3342SOL    HW221660   0.040   2.046   5.353 -0.1328  1.6928  1.2204
 3343SOL     OW21661   0.740   3.514   9.317 -0.3909  0.0700 -0.1193
 3343SOL    HW121662   0.690   3.567   9.254  1.5814  0.5863 -1.2691
 3343SOL    HW221663   0.687   3.444   9.354  2.0143 -2.0161 -0.6067
 3344SOL     OW21664   1.128   1.889   8.634  0.3509 -0.0662 -0.3979
 3344SOL    HW121665   1.087   1.941   8.703 -3.3856 -1.2115 -1.7490
 3344SOL    HW221666   1.136   1.958   8.568 -3.5181 -2.2877 -3.1853
 3345SOL     OW21667   2.595   3.743   8.230 -0.1917 -0.6756 -0.0974
 3345SOL    HW121668   2.527   3.729   8.297 -1.0778 -1.3903 -1.1377
 3345SOL    HW221669   2.671   3.754   8.287 -0.6349  0.0931  0.3493
 3346SOL     OW21670   2.970   1.942   8.287  0.3613  0.5256  0.0960
 3346SOL    HW121671   3.054   1.975   8.320  0.3806  0.7804 -0.1948
 3346SOL    HW221672   2.917   2.020   8.270  2.0216  1.6875  0.2128
 3347SOL     OW21673   4.107   0.265   8.109 -0.0292 -0.0044 -0.3462
 3347SOL    HW121674   4.066   0.212   8.177  0.0101  1.6221  0.9430
 3347SOL    HW221675   4.197   0.232   8.116  0.0380  0.1506 -0.4735
 3348SOL     OW21676   1.470   3.713   5.418  0.1655 -0.3285  0.1350
 3348SOL    HW121677   1.455   3.762   5.337  2.1388  0.3988  0.2102
 3348SOL    HW221678   1.476   3.782   5.483 -1.5456 -1.0963  1.1168
 3349SOL     OW21679   0.596   1.116  13.699  0.0234  0.0095  0.7445
 3349SOL    HW121680   0.562   1.088  13.784 -1.4705 -2.3682 -0.6320
 3349SOL    HW221681   0.651   1.185  13.737  1.2567 -1.5636  1.8217
 3350SOL     OW21682   0.474   0.576   7.246 -0.0355 -0.7875  0.3493
 3350SOL    HW121683   0.445   0.499   7.294 -1.1355  0.8391  2.3173
 3350SOL    HW221684   0.517   0.627   7.314 -0.0983  0.0925 -0.2596
 3351SOL     OW21685   1.403   2.183   1.160 -0.4318  0.5052  0.4497
 3351SOL    HW121686   1.432   2.149   1.245  2.1348 -0.2322 -0.7131
 3351SOL    HW221687   1.397   2.100   1.112  2.9864  0.6849 -0.2962
 3352SOL     OW21688   3.997   4.346   5.531  0.3050 -0.7639 -0.7752
 3352SOL    HW121689   4.049   4.425   5.541 -1.3940  0.0387  1.7247
 3352SOL    HW221690   3.962   4.357   5.443 -0.1229  0.7061 -0.4290
 3353SOL     OW21691   2.633   1.641  17.715 -0.0791 -0.3476  0.0762
 3353SOL    HW121692   2.646   1.627   0.081  0.7236 -0.5620 -0.0650
 3353SOL    HW221693   2.713   1.689  17.692 -0.8185  0.6988 -0.2826
 3354SOL     OW21694   2.882   3.838   2.710  0.1868 -0.1490  1.1110
 3354SOL    HW121695   2.875   3.744   2.727 -0.0070 -0.4723 -0.7753
 3354SOL    HW221696   2.796   3.846   2.670  1.0916  0.5325 -0.6745
 3355SOL     OW21697   2.962   4.659   8.237  0.2932  0.7868 -0.0761
 3355SOL    HW121698   2.914   4.722   8.291  0.0523 -1.1924  2.0294
 3355SOL    HW221699   2.898   4.640   8.168 -0.9947 -1.0277  1.6292
 3356SOL     OW21700   1.987   0.522   6.968  0.1559 -0.5717  0.0795
 3356SOL    HW121701   2.046   0.587   6.930 -0.9758 -0.7214 -1.9328
 3356SOL    HW221702   2.051   0.462   7.006  1.4411 -0.0888 -1.3317
 3357SOL     OW21703   2.715   0.266   2.987  0.2402 -0.4765 -0.1849
 3357SOL    HW121704   2.799   0.244   2.947 -0.4770  0.3527 -2.1233
 3357SOL    HW221705   2.704   0.357   2.962  0.4516 -0.0827  1.1502
 3358SOL     OW21706   1.651   4.638  11.377 -0.2057 -0.1899  0.2981
 3358SOL    HW121707   1.662   4.677  11.290 -3.3902 -0.2658 -0.1244
 3358SOL    HW221708   1.582   4.573  11.364 -2.9213  2.4404  1.6216
 3359SOL     OW21709   1.221   2.032   5.009 -0.0206  0.3050  0.3546
 3359SOL    HW121710   1.176   2.102   5.057  2.7042  1.9853  0.4270
 3359SOL    HW221711   1.171   1.953   5.028  1.4163 -0.7164 -0.0948
 3360SOL     OW21712   3.310   4.382   1.532 -0.2408  0.2511 -0.0748
 3360SOL    HW121713   3.323   4.445   1.462 -0.0392  1.3031  0.9184
 3360SOL    HW221714   3.339   4.435   1.606  0.1659 -1.7265  1.1914
 3361SOL     OW21715   4.675   0.226   3.376  0.4750  0.3245 -0.4821
 3361SOL    HW121716   4.598   0.174   3.351  0.2479  2.0936 -3.4981
 3361SOL    HW221717   4.729   0.152   3.406 -3.7405 -3.2716 -1.6583
 3362SOL     OW21718   3.317   1.453  12.640  0.1950 -0.0159  0.2480
 3362SOL    HW121719   3.342   1.444  12.548  1.9934 -0.7218  0.8195
 3362SOL    HW221720   3.303   1.547  12.650  0.3512  0.2818 -2.4533
 3363SOL     OW21721   0.117   2.309   3.920  0.4494 -0.3075  0.3399
 3363SOL    HW121722   0.194   2.334   3.869  0.7215  0.1591  0.9776
 3363SOL    HW221723   0.055   2.368   3.878  1.4099 -0.9008 -1.9372
 3364SOL     OW21724   2.392   0.392   6.419 -0.0986 -0.5763  0.1347
 3364SOL    HW121725   2.311   0.433   6.387 -0.2170 -1.3250 -0.5068
 3364SOL    HW221726   2.386   0.404   6.514 -1.6681 -2.8740  0.3177
 3365SOL     OW21727   1.740   1.962  13.013  0.4786  0.5512 -0.1099
 3365SOL    HW121728   1.728   1.936  13.104 -1.4118  3.4757  0.4750
 3365SOL    HW221729   1.651   1.993  12.995  0.4939  0.2308 -0.7347
 3366SOL     OW21730   0.048   4.038  10.839 -0.4371 -0.1841 -0.0919
 3366SOL    HW121731   0.031   4.117  10.788  0.3125 -1.1970 -1.8881
 3366SOL    HW221732   4.720   4.055  10.912 -0.0690  2.2060 -0.3734
 3367SOL     OW21733   4.159   2.633   2.664  0.5232 -0.2745  0.2914
 3367SOL    HW121734   4.228   2.573   2.637  0.6633  0.2025 -0.3973
 3367SOL    HW221735   4.154   2.683   2.582 -0.0879 -0.5991  0.1299
 3368SOL     OW21736   4.050   4.079   5.493 -0.2034 -0.0428 -0.2416
 3368SOL    HW121737   3.994   4.053   5.566  0.6361 -0.7103  0.1659
 3368SOL    HW221738   4.030   4.172   5.502  1.7171  0.1634  1.8161
 3369SOL     OW21739   4.325   3.662   5.734 -0.2062  0.2944  0.7170
 3369SOL    HW121740   4.400   3.720   5.747  0.2708 -0.2096  0.2474
 3369SOL    HW221741   4.338   3.631   5.644 -1.1018  0.0541  0.6711
 3370SOL     OW21742   3.933   1.369   8.445 -0.2015  0.2541  0.2429
 3370SOL    HW121743   3.961   1.323   8.366  0.6530 -0.9472  1.2320
 3370SOL    HW221744   4.020   1.399   8.471 -0.7664  1.0763  1.1973
 3371SOL     OW21745   3.470   0.211   1.665  0.4147  0.0741 -0.2294
 3371SOL    HW121746   3.447   0.273   1.596  0.5765  0.2119 -0.1570
 3371SOL    HW221747   3.463   0.267   1.741  1.0620 -1.4180  0.9268
 3372SOL     OW21748   1.393   2.261   8.427 -0.7045  0.2405 -0.0302
 3372SOL    HW121749   1.428   2.350   8.418  0.6411 -0.1640  1.1604
 3372SOL    HW221750   1.334   2.270   8.502 -0.7241  0.0843 -0.0263
 3373SOL     OW21751   1.079   2.211  17.357 -0.1481  0.0092  0.4710
 3373SOL    HW121752   0.992   2.200  17.318  0.9698 -1.6856 -1.5475
 3373SOL    HW221753   1.052   2.209  17.449 -3.3347  2.1827 -0.4038
 3374SOL     OW21754   4.575   0.191  15.887  0.4451 -0.1347 -0.1115
 3374SOL    HW121755   4.520   0.218  15.960  1.7552  3.2274 -0.3314
 3374SOL    HW221756   4.551   0.099  15.884  0.6092 -0.1850  0.2693
 3375SOL     OW21757   2.881   1.075   4.589 -0.1089  0.5517 -0.1918
 3375SOL    HW121758   2.832   1.138   4.537  0.8516  1.5100  0.0634
 3375SOL    HW221759   2.818   1.006   4.568 -1.4787  1.1059  2.1379
 3376SOL     OW21760   1.709   0.580   4.846  0.8672 -0.2865  0.6283
 3376SOL    HW121761   1.706   0.551   4.937  0.1814  1.4092  1.1367
 3376SOL    HW221762   1.641   0.532   4.798  0.0745  0.7229  0.7508
 3377SOL     OW21763   0.023   1.278  13.506  0.2201  0.3108  0.5238
 3377SOL    HW121764   0.053   1.253  13.593  1.9744  0.8774  0.0782
 3377SOL    HW221765   4.699   1.354  13.525 -0.2929  0.2217 -0.6355
 3378SOL     OW21766   3.889   0.083   7.515 -0.3342 -0.1417 -0.7552
 3378SOL    HW121767   3.910   0.175   7.504  0.2465 -0.1042  0.6687
 3378SOL    HW221768   3.899   0.053   7.424 -0.7360  0.0069 -0.8514
 3379SOL     OW21769   4.010   3.164   6.260 -0.4640 -0.3079  0.4205
 3379SOL    HW121770   4.065   3.205   6.194  0.9089  0.9157  2.3299
 3379SOL    HW221771   3.993   3.076   6.227  0.3965  0.3303 -1.7002
 3380SOL     OW21772   3.058   3.163   8.390  0.1648  0.4684 -0.5473
 3380SOL    HW121773   3.072   3.070   8.370  2.0604  1.5056 -4.1398
 3380SOL    HW221774   3.051   3.145   8.484 -2.5419  2.2100 -0.4294
 3381SOL     OW21775   2.451   1.604   1.975 -0.2941  0.2087 -0.0670
 3381SOL    HW121776   2.410   1.680   2.017 -0.5343  0.2629 -0.3962
 3381SOL    HW221777   2.450   1.638   1.885  2.0006  0.3617 -0.0284
 3382SOL     OW21778   1.613   1.061  13.103  0.3111 -0.0856 -0.2388
 3382SOL    HW121779   1.566   0.978  13.110 -0.1384  0.1446 -0.5635
 3382SOL    HW221780   1.678   1.035  13.037 -1.7569 -1.0626 -1.8672
 3383SOL     OW21781   0.399   3.067   9.007 -0.1158  0.1346 -0.2457
 3383SOL    HW121782   0.402   3.072   8.911 -0.5692 -0.9494 -0.3062
 3383SOL    HW221783   0.342   3.138   9.036  1.7573  2.0246 -1.1080
 3384SOL     OW21784   3.607   0.770   2.616  0.6193  0.0698  0.2739
 3384SOL    HW121785   3.540   0.838   2.622  2.6881  2.1975 -0.7891
 3384SOL    HW221786   3.578   0.717   2.542 -1.8151  1.1369  0.4679
 3385SOL     OW21787   3.000   1.688   4.673  0.4494  0.0443  0.2368
 3385SOL    HW121788   3.048   1.691   4.589 -1.9190 -1.2875 -1.1570
 3385SOL    HW221789   2.914   1.661   4.644  1.0140 -1.4995  0.0171
 3386SOL     OW21790   1.270   4.236   6.770  0.3118  0.3209  0.0566
 3386SOL    HW121791   1.259   4.331   6.773 -2.3192  0.0412 -0.4564
 3386SOL    HW221792   1.364   4.232   6.753  0.6844 -0.8461  2.4689
 3387SOL     OW21793   0.812   2.936   5.351  0.8196 -0.2809 -0.8404
 3387SOL    HW121794   0.813   2.875   5.277  1.5346 -1.7617  0.3993
 3387SOL    HW221795   0.816   2.869   5.419  0.5095  0.1456 -0.3972
 3388SOL     OW21796   3.739   3.919   4.951 -0.4305  0.1976 -0.5358
 3388SOL    HW121797   3.655   3.952   4.983 -1.3891 -3.0693  0.3375
 3388SOL    HW221798   3.767   3.901   5.041 -1.3901  0.7592 -0.1277
 3389SOL     OW21799   3.779   1.079   1.938  0.2824  0.6524 -0.6815
 3389SOL    HW121800   3.733   1.129   2.005  0.9663 -0.5550  0.6883
 3389SOL    HW221801   3.833   1.016   1.985  2.8738  1.1350 -3.0115
 3390SOL     OW21802   1.118   0.063   3.249  0.2707  0.3636 -0.6506
 3390SOL    HW121803   1.117   0.127   3.178 -0.3449  0.4288 -0.5780
 3390SOL    HW221804   1.184   0.002   3.215  0.2506 -0.6600  1.1533
 3391SOL     OW21805   0.175   1.779  16.719 -0.1729 -0.2839  0.0612
 3391SOL    HW121806   0.150   1.781  16.811 -1.1896 -0.1880 -0.2203
 3391SOL    HW221807   0.149   1.868  16.695  1.3633  0.0627 -0.3046
 3392SOL     OW21808   0.862   1.273   2.523  0.4675 -0.3939  0.2494
 3392SOL    HW121809   0.795   1.274   2.455  0.0541 -0.9086  0.6452
 3392SOL    HW221810   0.802   1.265   2.597 -0.8558  1.7503 -0.6331
 3393SOL     OW21811   0.217   4.095   8.180  0.4722  0.3078 -0.1745
 3393SOL    HW121812   0.170   4.169   8.142  0.6138  1.4529  1.9108
 3393SOL    HW221813   0.169   4.067   8.257 -0.7437 -0.4380 -1.1952
 3394SOL     OW21814   0.574   2.501  14.168 -0.2677 -0.5212  0.9306
 3394SOL    HW121815   0.481   2.485  14.152  0.3995 -1.8169 -1.5688
 3394SOL    HW221816   0.561   2.591  14.200 -0.7762 -0.1727 -0.2424
 3395SOL     OW21817   3.604   4.133  17.365  0.1790 -0.3301 -0.0718
 3395SOL    HW121818   3.523   4.139  17.314 -0.0955 -0.0804  0.3832
 3395SOL    HW221819   3.649   4.212  17.335 -2.0129  0.5116 -1.1521
 3396SOL     OW21820   0.537   1.109   8.471  0.3729  0.4118  0.0633
 3396SOL    HW121821   0.553   1.018   8.445 -3.4639 -0.0660 -0.6282
 3396SOL    HW221822   0.442   1.105   8.461  0.5278 -1.7326 -0.6018
 3397SOL     OW21823   1.103   3.282   9.444  0.1607  0.6141 -0.0104
 3397SOL    HW121824   1.028   3.279   9.385  2.0903  0.4036 -2.4521
 3397SOL    HW221825   1.165   3.240   9.384  0.3701  0.9941 -0.0617
 3398SOL     OW21826   4.130   2.118   4.899  0.1372 -0.2138  0.1075
 3398SOL    HW121827   4.098   2.176   4.830 -1.5189 -0.9571  0.2448
 3398SOL    HW221828   4.133   2.169   4.980 -0.6838 -0.0845  0.0627
 3399SOL     OW21829   0.592   4.406   3.042  1.1209  0.4063  0.5610
 3399SOL    HW121830   0.506   4.375   3.070 -1.3013  3.2517 -3.6920
 3399SOL    HW221831   0.572   4.496   3.017 -0.4186 -0.7193 -2.3093
 3400SOL     OW21832   4.526   3.604   1.886 -0.3775 -0.1792 -0.0055
 3400SOL    HW121833   4.555   3.604   1.977 -0.0031 -0.9262 -0.1285
 3400SOL    HW221834   4.436   3.632   1.904  0.3497  1.1042  1.7293
 3401SOL     OW21835   4.527   3.855   5.811 -0.0173 -0.2747 -0.4396
 3401SOL    HW121836   4.575   3.801   5.873 -1.2502 -1.6304 -0.6754
 3401SOL    HW221837   4.575   3.938   5.810  3.8348 -2.4593  1.3590
 3402SOL     OW21838   3.373   2.814  13.647 -0.1776 -0.2358  0.0965
 3402SOL    HW121839   3.343   2.780  13.562  1.1545 -3.0982  0.7524
 3402SOL    HW221840   3.407   2.898  13.616 -1.3545 -0.3706 -1.5989
 3403SOL     OW21841   3.986   3.436   5.651  0.8816  0.2200 -0.0227
 3403SOL    HW121842   3.960   3.347   5.626  0.0503  0.5619 -0.3734
 3403SOL    HW221843   4.058   3.445   5.588  1.3651 -1.8080  0.2511
 3404SOL     OW21844   2.087   0.241   5.168  0.0461  0.4742 -0.2453
 3404SOL    HW121845   2.159   0.284   5.122 -1.3904 -0.9753 -3.8769
 3404SOL    HW221846   2.139   0.184   5.226  1.1398  1.6499 -0.0645
 3405SOL     OW21847   3.757   1.096   2.300 -0.1267 -0.0949 -0.1590
 3405SOL    HW121848   3.827   1.032   2.315 -0.2263 -0.0010  0.7352
 3405SOL    HW221849   3.747   1.140   2.385 -1.6700 -0.0275 -0.3842
 3406SOL     OW21850   3.253   3.290   3.425 -0.1864 -0.1142 -0.2464
 3406SOL    HW121851   3.325   3.236   3.458 -0.7506  0.3090  1.6988
 3406SOL    HW221852   3.182   3.242   3.467 -0.5112  0.0983 -0.5519
 3407SOL     OW21853   1.537   2.673   5.386 -0.3500  0.2945  0.4580
 3407SOL    HW121854   1.581   2.595   5.420  0.1902  0.5393  0.3189
 3407SOL    HW221855   1.592   2.691   5.310  0.2913  0.6448  1.0080
 3408SOL     OW21856   4.179   4.686   4.938 -0.3206 -0.1000 -0.1840
 3408SOL    HW121857   4.194   0.032   4.886 -2.2873  0.8070  0.5852
 3408SOL    HW221858   4.179   4.722   5.026  0.8311 -0.6321  0.0354
 3409SOL     OW21859   4.181   1.847   7.746  0.0108 -0.3333  0.0562
 3409SOL    HW121860   4.169   1.880   7.657 -3.5809 -1.2819  0.1688
 3409SOL    HW221861   4.276   1.844   7.747 -0.1020 -2.5333  3.9954
 3410SOL     OW21862   2.273   2.630  11.934  0.1481 -0.1348  0.3844
 3410SOL    HW121863   2.315   2.555  11.891 -1.0593 -0.9456  0.6163
 3410SOL    HW221864   2.352   2.681  11.953  0.5474 -0.5462 -0.1630
 3411SOL     OW21865   1.117   2.131   8.802  0.3541  0.7888  0.1713
 3411SOL    HW121866   1.163   2.080   8.868  0.4733 -1.9482 -2.0656
 3411SOL    HW221867   1.047   2.168   8.857  0.0806  1.7150 -0.8086
 3412SOL     OW21868   4.258   2.104   7.934 -0.2838  0.1353 -0.1200
 3412SOL    HW121869   4.222   2.172   7.990  0.9418  1.9974 -1.6037
 3412SOL    HW221870   4.181   2.053   7.907  0.0690 -1.4688  1.9415
 3413SOL     OW21871   2.014   1.476   8.848  0.2637  0.5455 -0.4533
 3413SOL    HW121872   2.039   1.531   8.774  0.9306 -1.2975 -1.5785
 3413SOL    HW221873   1.943   1.424   8.810  0.8217 -1.1390  0.8181
 3414SOL     OW21874   2.736   0.697   0.611  0.4531 -0.0016  0.2100
 3414SOL    HW121875   2.785   0.697   0.693 -0.1475 -0.3146  0.5670
 3414SOL    HW221876   2.656   0.650   0.632 -0.3548  2.2539  2.2218
 3415SOL     OW21877   3.132   2.705   6.464  0.2051 -0.5323  0.5578
 3415SOL    HW121878   3.216   2.662   6.480  0.8020  0.4528  0.0578
 3415SOL    HW221879   3.136   2.743   6.377  1.3811 -1.1104  0.3670
 3416SOL     OW21880   4.550   3.929   9.318 -0.1955 -0.3696 -0.2009
 3416SOL    HW121881   4.532   3.840   9.287  0.0328 -0.0343 -1.3269
 3416SOL    HW221882   4.549   3.922   9.413  1.6379  0.6298 -0.1014
 3417SOL     OW21883   3.796   1.305  14.332  0.3784  0.3290 -0.0596
 3417SOL    HW121884   3.720   1.253  14.358 -0.2068  0.6943 -1.0410
 3417SOL    HW221885   3.846   1.306  14.414  0.6565  0.9651 -0.2353
 3418SOL     OW21886   1.284   3.113   1.637  0.0301  0.3908 -0.4618
 3418SOL    HW121887   1.334   3.145   1.712 -1.3645  1.9116 -0.1680
 3418SOL    HW221888   1.223   3.053   1.680  0.8287  0.9391  1.4447
 3419SOL     OW21889   0.932   0.275   1.300 -0.5044 -0.0627 -0.0107
 3419SOL    HW121890   1.026   0.259   1.289 -0.1208  1.2474  1.5240
 3419SOL    HW221891   0.936   0.352   1.356  2.5232  1.2134 -1.9842
 3420SOL     OW21892   1.899   4.158   3.509  0.5387 -0.7174  0.0816
 3420SOL    HW121893   1.932   4.069   3.516  0.6581 -0.8685 -2.1728
 3420SOL    HW221894   1.941   4.201   3.583  1.9556 -0.5755 -0.8031
 3421SOL     OW21895   4.509   3.124   7.469 -0.4162 -0.7899  1.2352
 3421SOL    HW121896   4.515   3.122   7.374 -2.4631 -0.7957  1.1055
 3421SOL    HW221897   4.588   3.070   7.478  1.1838  1.5343  1.2509
 3422SOL     OW21898   0.684   2.508  13.914 -0.0849  0.2931 -0.6762
 3422SOL    HW121899   0.640   2.590  13.893 -1.0379 -0.4109 -1.4288
 3422SOL    HW221900   0.666   2.504  14.008  0.7422 -2.6917 -0.6371
 3423SOL     OW21901   1.037   2.972   8.407 -0.2049 -0.0871  0.1542
 3423SOL    HW121902   1.047   2.917   8.484  1.2619 -0.7145 -0.4669
 3423SOL    HW221903   1.126   2.977   8.370  0.9250 -1.5740  2.6730
 3424SOL     OW21904   3.587   2.587   7.964 -0.2582  0.6697 -0.1570
 3424SOL    HW121905   3.530   2.664   7.964 -1.3611 -0.1458  0.1008
 3424SOL    HW221906   3.640   2.601   7.886 -1.4611  1.0206 -0.9032
 3425SOL     OW21907   3.451   0.050  16.339  0.3213  0.6066  0.0717
 3425SOL    HW121908   3.413   0.117  16.281 -1.5104  0.9175  1.6189
 3425SOL    HW221909   3.384   0.024  16.402 -0.2545  3.2955  0.5908
 3426SOL     OW21910   0.050   3.201  13.361  0.1775 -0.0046  0.7443
 3426SOL    HW121911   0.143   3.181  13.350 -0.5739 -2.0877 -1.6756
 3426SOL    HW221912   0.019   3.144  13.431  0.1498  1.0097  1.5634
 3427SOL     OW21913   1.760   1.369   5.222 -0.3829  0.0839  0.0170
 3427SOL    HW121914   1.852   1.378   5.200  0.2410 -2.8550  1.3789
 3427SOL    HW221915   1.755   1.276   5.202  0.0051  0.1149 -0.2101
 3428SOL     OW21916   4.133   3.348  17.186  0.0260 -1.0888  0.1940
 3428SOL    HW121917   4.179   3.288  17.127 -0.5037  0.1400 -1.4661
 3428SOL    HW221918   4.203   3.386  17.239 -0.7531  0.0334  0.4089
 3429SOL     OW21919   1.935   0.369   2.537 -0.3948  0.0858 -0.7824
 3429SOL    HW121920   2.024   0.368   2.502 -0.0906 -1.4255  0.0126
 3429SOL    HW221921   1.877   0.354   2.462 -0.8460 -0.4677 -0.3218
 3430SOL     OW21922   3.973   0.878   9.624  0.0450  0.5701 -0.2894
 3430SOL    HW121923   4.067   0.895   9.617  0.2632 -1.0921 -1.5519
 3430SOL    HW221924   3.966   0.883   9.719 -2.1558  3.0737 -0.5912
 3431SOL     OW21925   1.321   0.599   6.311 -0.4334  0.0303 -0.3174
 3431SOL    HW121926   1.318   0.503   6.306  0.3865 -0.0918  1.6278
 3431SOL    HW221927   1.403   0.614   6.264  0.0391 -3.3351 -0.6008
 3432SOL     OW21928   4.047   1.624   3.508 -0.0550  0.1024 -0.2812
 3432SOL    HW121929   4.061   1.679   3.431  1.1866  2.4216  1.6057
 3432SOL    HW221930   3.955   1.600   3.498  0.9348 -3.6503 -0.3217
 3433SOL     OW21931   4.446   1.010   8.747 -0.7278  0.4351  0.1166
 3433SOL    HW121932   4.386   1.079   8.773 -1.1243  0.6882 -1.4629
 3433SOL    HW221933   4.409   0.947   8.809  1.1354 -0.9095 -0.1408
 3434SOL     OW21934   4.390   0.505   7.067 -0.6935  0.1283  0.2745
 3434SOL    HW121935   4.405   0.548   7.152 -1.2088 -0.5230  0.6997
 3434SOL    HW221936   4.433   0.565   7.006 -0.7418 -0.9763 -0.8363
 3435SOL     OW21937   0.098   2.046  10.922 -0.0760  0.0174 -0.4208
 3435SOL    HW121938   0.142   2.062  11.006  2.8026 -2.0307 -1.5395
 3435SOL    HW221939   0.064   1.957  10.933  0.1740  0.1912  1.7951
 3436SOL     OW21940   3.072   0.845  14.776 -0.6026 -0.0321  0.4699
 3436SOL    HW121941   3.002   0.908  14.760 -0.3183  0.2237  0.2423
 3436SOL    HW221942   3.034   0.765  14.740 -0.4920 -0.0879  0.4770
 3437SOL     OW21943   3.304   3.193   9.224 -0.2347  0.6746  0.6076
 3437SOL    HW121944   3.374   3.238   9.271  0.2790 -1.0539  1.5256
 3437SOL    HW221945   3.237   3.259   9.206 -3.0641 -2.2962  0.1797
 3438SOL     OW21946   3.485   3.264   5.660 -0.0007 -0.0828 -0.8512
 3438SOL    HW121947   3.449   3.342   5.618 -0.6844 -0.6548 -1.3248
 3438SOL    HW221948   3.413   3.202   5.659 -1.1969  1.2918 -0.4051
 3439SOL     OW21949   3.258   0.373   3.047  0.3313 -0.2036 -0.2356
 3439SOL    HW121950   3.319   0.358   3.119  0.6741 -0.7324 -0.6332
 3439SOL    HW221951   3.289   0.457   3.015 -0.4370  0.3209  0.4038
 3440SOL     OW21952   3.008   0.901   5.014  0.6812 -0.0702  0.0649
 3440SOL    HW121953   2.918   0.929   5.030  0.4274 -0.7589 -0.1562
 3440SOL    HW221954   2.996   0.822   4.960  1.4268 -0.4472  0.4480
 3441SOL     OW21955   3.705   4.635   9.910  0.6915  0.0748  0.1851
 3441SOL    HW121956   3.610   4.645   9.908  0.9532  2.5085 -0.0906
 3441SOL    HW221957   3.737   4.673   9.828  1.1974 -1.4221 -0.3064
 3442SOL     OW21958   3.084   3.994   8.378  0.1920 -0.3694  0.1309
 3442SOL    HW121959   3.098   4.051   8.454  0.8476  1.3285 -1.2835
 3442SOL    HW221960   3.099   3.914   8.429  0.7227  0.8774  1.9184
 3443SOL     OW21961   0.538   4.477   0.322  0.6211 -0.0833  0.4799
 3443SOL    HW121962   0.607   4.540   0.301  0.5129 -0.3224 -0.5785
 3443SOL    HW221963   0.474   4.536   0.360 -1.7861 -1.0198 -2.1703
 3444SOL     OW21964   4.471   0.016   0.060 -0.2546  0.1610  0.0187
 3444SOL    HW121965   4.500   0.049   0.145  0.2664  2.7951 -1.1783
 3444SOL    HW221966   4.397   4.691   0.083 -0.2475 -0.9812 -2.8206
 3445SOL     OW21967   3.863   0.840   2.692  0.0857  0.2074  0.0469
 3445SOL    HW121968   3.879   0.775   2.760  0.8178  1.2069  0.8245
 3445SOL    HW221969   3.767   0.834   2.700 -0.1668  2.7869 -1.2666
 3446SOL     OW21970   4.398   3.315   9.919 -0.6394 -0.3132  0.0613
 3446SOL    HW121971   4.468   3.307   9.854 -1.2767 -1.7667 -0.4343
 3446SOL    HW221972   4.432   3.394   9.961  0.0461  0.3649 -1.7402
 3447SOL     OW21973   1.345   4.698  15.986 -0.1752  0.4269 -0.0351
 3447SOL    HW121974   1.375   4.725  16.073  0.3085  1.9144 -0.6617
 3447SOL    HW221975   1.261   4.668  16.020 -0.0012  0.7669  0.6991
 3448SOL     OW21976   4.409   1.353   4.760  0.4108  0.0191  0.8604
 3448SOL    HW121977   4.321   1.365   4.725 -0.3710  0.5431  3.0101
 3448SOL    HW221978   4.426   1.433   4.810  0.7521 -0.1838  1.0695
 3449SOL     OW21979   0.373   2.270   3.769 -0.0154  0.3721  0.0147
 3449SOL    HW121980   0.436   2.201   3.789  2.0632  2.3388  0.2764
 3449SOL    HW221981   0.299   2.210   3.759  0.1698  0.4402 -1.7228
 3450SOL     OW21982   2.334   0.312   5.095 -0.1336  0.1064  0.3514
 3450SOL    HW121983   2.397   0.328   5.026 -0.7346  2.0289  0.2403
 3450SOL    HW221984   2.388   0.268   5.161 -0.3541  0.0214  0.4769
 3451SOL     OW21985   4.645   3.101  10.667 -0.3071 -0.1611 -0.6407
 3451SOL    HW121986   4.604   3.170  10.615  0.6144 -0.0731 -1.2658
 3451SOL    HW221987   4.685   3.142  10.744 -2.0031 -0.3987  0.3611
 3452SOL     OW21988   3.653   0.568   1.689  0.2477 -0.5052  0.6190
 3452SOL    HW121989   3.653   0.526   1.775 -3.2205 -0.8569  0.4473
 3452SOL    HW221990   3.745   0.594   1.683 -0.2220  0.7441 -1.4254
 3453SOL     OW21991   2.379   1.372   3.244  0.1305  0.6968  0.2934
 3453SOL    HW121992   2.406   1.381   3.152  1.0577  2.4471  0.7416
 3453SOL    HW221993   2.413   1.284   3.258 -0.0426  0.7114  0.7866
 3454SOL     OW21994   2.964   4.059   7.603  0.2539 -0.0538 -0.4400
 3454SOL    HW121995   3.006   3.974   7.616 -0.2270 -0.2282 -0.0672
 3454SOL    HW221996   3.045   4.106   7.579 -0.1539  1.3513  0.9109
 3455SOL     OW21997   2.747   3.788   7.170 -0.0964 -0.6774  0.0635
 3455SOL    HW121998   2.666   3.767   7.217 -0.0797 -0.8319  0.0247
 3455SOL    HW221999   2.820   3.760   7.226 -0.9953 -0.2510  1.4446
 3456SOL     OW22000   1.374   2.069   5.570  0.1058  0.2062 -0.5436
 3456SOL    HW122001   1.369   2.142   5.631 -1.8161  0.7488 -1.3366
 3456SOL    HW222002   1.281   2.052   5.551  0.1380  0.6192 -1.0842
 3457SOL     OW22003   0.151   0.196  10.124  0.3239 -0.2528  0.2291
 3457SOL    HW122004   0.162   0.149  10.041 -1.2924  2.0583 -1.3038
 3457SOL    HW222005   0.230   0.251  10.122  1.2407 -1.6236 -1.0954
 3458SOL     OW22006   2.409   2.496   1.571 -0.0417 -0.1275 -0.3966
 3458SOL    HW122007   2.496   2.524   1.600 -0.0896  0.1764 -0.5425
 3458SOL    HW222008   2.367   2.577   1.600  0.1654 -0.3639  0.5548
 3459SOL     OW22009   0.290   4.208   7.573 -0.1506  0.0058 -0.7623
 3459SOL    HW122010   0.277   4.121   7.612 -0.6531 -0.0188 -0.9878
 3459SOL    HW222011   0.351   4.249   7.634  1.1625  0.0328 -2.0744
 3460SOL     OW22012   0.257   1.144  15.348  0.2263 -0.1407  0.5154
 3460SOL    HW122013   0.333   1.107  15.305  0.1697 -1.0517  1.1920
 3460SOL    HW222014   0.255   1.232  15.311  0.6149 -0.7759 -0.9944
 3461SOL     OW22015   1.309   1.245   6.810 -0.7336  0.1915  0.1727
 3461SOL    HW122016   1.304   1.157   6.772 -2.4508  0.4796 -0.2679
 3461SOL    HW222017   1.330   1.225   6.901 -0.8741  2.1185  0.6308
 3462SOL     OW22018   2.457   1.087  16.009  0.0172  0.1899  0.0281
 3462SOL    HW122019   2.393   1.151  15.978 -1.5649 -1.4665 -0.1429
 3462SOL    HW222020   2.441   1.003  15.967  2.5281 -0.0905 -0.3353
 3463SOL     OW22021   1.497   3.730   7.931  0.1983  0.2236 -0.0999
 3463SOL    HW122022   1.554   3.771   7.866 -1.3305  1.2836 -0.7602
 3463SOL    HW222023   1.517   3.775   8.013  1.6370 -1.4007  0.4289
 3464SOL     OW22024   3.764   1.468   3.073 -0.5354  0.6463  0.1949
 3464SOL    HW122025   3.697   1.403   3.053 -1.0165  1.5602 -1.1993
 3464SOL    HW222026   3.720   1.537   3.122 -0.7808  0.6970 -0.0947
 3465SOL     OW22027   0.457   0.006   6.877 -0.4164 -0.2987 -0.2201
 3465SOL    HW122028   0.518   0.080   6.873 -0.8677  0.0534 -0.5545
 3465SOL    HW222029   0.377   0.045   6.842  1.0434  2.4286 -0.4955
 3466SOL     OW22030   1.785   3.632  17.458  0.0430  0.4845 -0.4713
 3466SOL    HW122031   1.833   3.610  17.378  0.7232  0.5611 -0.0817
 3466SOL    HW222032   1.847   3.680  17.512 -1.3795  1.4549  0.2930
 3467SOL     OW22033   3.764   1.569   2.564 -0.0287 -0.1458  0.1518
 3467SOL    HW122034   3.675   1.603   2.560 -1.4813 -4.0761 -0.8959
 3467SOL    HW222035   3.757   1.475   2.549 -0.0612 -0.2016  0.5200
 3468SOL     OW22036   0.344   4.173   5.038 -0.4255  0.0197 -0.3552
 3468SOL    HW122037   0.361   4.106   4.972 -2.0857  2.4616 -3.2352
 3468SOL    HW222038   0.393   4.135   5.111 -1.7311 -0.9976  0.0044
 3469SOL     OW22039   0.539   1.190   0.907 -0.4383 -0.1434  0.2174
 3469SOL    HW122040   0.595   1.113   0.900 -2.4475 -1.6599  0.9452
 3469SOL    HW222041   0.494   1.165   0.987  0.7177 -2.0183  0.2827
 3470SOL     OW22042   3.183   1.551  10.249  0.0014 -0.1484  0.2334
 3470SOL    HW122043   3.220   1.508  10.172  2.3292  0.2349  1.1384
 3470SOL    HW222044   3.218   1.492  10.316 -0.5565  0.6927  1.2530
 3471SOL     OW22045   4.652   4.306   6.000 -0.4199 -0.3044 -0.1421
 3471SOL    HW122046   4.571   4.337   5.960 -0.1804 -0.5443 -0.8187
 3471SOL    HW222047   4.705   4.275   5.926  2.0069  0.9479  1.0758
 3472SOL     OW22048   4.330   4.119   2.009 -0.0434 -0.3256  0.0545
 3472SOL    HW122049   4.351   4.068   2.088  2.9852  2.6224  1.1730
 3472SOL    HW222050   4.352   4.052   1.945 -0.3433 -1.1549  0.8124
 3473SOL     OW22051   3.745   0.672  15.466 -0.3604 -0.2627 -0.7567
 3473SOL    HW122052   3.807   0.636  15.529 -0.7281 -0.0341 -0.2668
 3473SOL    HW222053   3.663   0.670  15.515  0.3911 -1.8550  0.4339
 3474SOL     OW22054   4.223   3.822   8.574  0.1533  0.4166 -0.1576
 3474SOL    HW122055   4.176   3.858   8.650 -0.4186 -1.9912  0.6329
 3474SOL    HW222056   4.171   3.742   8.567  1.3189 -0.3635  0.1962
 3475SOL     OW22057   3.297   4.697   2.262  0.2054  0.1949  0.0592
 3475SOL    HW122058   3.300   4.623   2.321  2.7629  1.6325  1.7379
 3475SOL    HW222059   3.268   0.038   2.316 -1.9609  1.1161 -2.3473
 3476SOL     OW22060   2.030   2.488   3.639  0.6349  0.4029 -0.4066
 3476SOL    HW122061   2.015   2.426   3.568 -2.6048 -0.1917  0.7545
 3476SOL    HW222062   2.015   2.566   3.586 -1.2176  0.6922  0.5339
 3477SOL     OW22063   1.873   2.683   8.202 -0.0497  0.1053  0.6340
 3477SOL    HW122064   1.937   2.703   8.270  1.7136  1.7116 -1.5011
 3477SOL    HW222065   1.820   2.762   8.195 -0.2272 -0.0363  0.3665
 3478SOL     OW22066   1.269   0.506   4.103  0.4076  0.2036 -0.0231
 3478SOL    HW122067   1.334   0.453   4.149  1.6191  1.1575 -0.6280
 3478SOL    HW222068   1.189   0.463   4.132  0.1241  0.0406 -1.0218
 3479SOL     OW22069   4.004   0.717   5.839  0.1641  0.6389  0.4697
 3479SOL    HW122070   4.051   0.634   5.834 -2.9827 -1.0381 -1.0619
 3479SOL    HW222071   4.077   0.773   5.868 -1.0534  2.1694  0.5776
 3480SOL     OW22072   3.998   0.800   6.934 -0.3787  0.1195 -0.8290
 3480SOL    HW122073   3.923   0.806   6.875 -0.9666  1.8846  0.1216
 3480SOL    HW222074   3.988   0.705   6.941  0.3694  0.1293  0.4723
 3481SOL     OW22075   3.786   3.195   5.732  0.0938 -0.2735 -0.3381
 3481SOL    HW122076   3.850   3.165   5.797 -0.6901 -2.6263 -0.6684
 3481SOL    HW222077   3.711   3.222   5.785  0.6974 -0.1097  0.4328
 3482SOL     OW22078   3.437   1.340   2.823  0.1382 -0.9741 -0.0139
 3482SOL    HW122079   3.463   1.431   2.812  1.8316 -1.4977 -0.3693
 3482SOL    HW222080   3.472   1.314   2.908 -2.0175  1.5957  1.6504
 3483SOL     OW22081   3.726   2.283   8.281 -0.0430  0.1632 -0.0127
 3483SOL    HW122082   3.751   2.193   8.260 -1.4929 -0.1558 -0.3446
 3483SOL    HW222083   3.751   2.294   8.373  1.7760  0.0354 -0.4752
 3484SOL     OW22084   0.761   3.887  10.661 -0.2683  0.6175  0.1308
 3484SOL    HW122085   0.851   3.902  10.632  0.2022 -0.0043  1.2535
 3484SOL    HW222086   0.768   3.815  10.724 -0.6488  0.7967  0.3801
 3485SOL     OW22087   1.503   4.543   7.391 -0.1887 -0.4364 -0.3264
 3485SOL    HW122088   1.478   4.450   7.386  1.8384 -1.1784  3.4137
 3485SOL    HW222089   1.598   4.535   7.396 -0.3234  0.3758  3.4317
 3486SOL     OW22090   0.760   0.404   6.655  0.0239  0.2430  0.4180
 3486SOL    HW122091   0.724   0.490   6.632  0.8978 -0.4878 -3.6255
 3486SOL    HW222092   0.818   0.384   6.581 -0.3785 -0.8536  0.4008
 3487SOL     OW22093   2.113   2.633   5.424 -0.7222 -0.5005 -0.3127
 3487SOL    HW122094   2.111   2.553   5.372  0.3560  0.0793 -1.2597
 3487SOL    HW222095   2.089   2.694   5.354 -1.1491  1.2393  1.3620
 3488SOL     OW22096   0.940   0.927  10.222 -0.1992 -0.0604  0.1189
 3488SOL    HW122097   1.010   0.991  10.210  0.7673 -1.2943 -0.7895
 3488SOL    HW222098   0.988   0.860  10.271  1.9886  1.1948 -0.2897
 3489SOL     OW22099   1.691   2.977   5.186  0.0370 -0.2689  0.0323
 3489SOL    HW122100   1.646   2.990   5.269  1.6006 -1.3727  1.0387
 3489SOL    HW222101   1.785   2.994   5.197  0.2053 -0.7645 -0.6017
 3490SOL     OW22102   3.758   1.839  15.139 -0.2009 -1.0257 -0.1011
 3490SOL    HW122103   3.805   1.777  15.084  0.8802  0.0166 -0.3556
 3490SOL    HW222104   3.688   1.861  15.078 -1.5449 -1.4016  1.2935
 3491SOL     OW22105   2.299   2.606   4.572 -0.4762 -0.8316  0.2174
 3491SOL    HW122106   2.243   2.614   4.649 -1.7076 -0.3622 -0.7331
 3491SOL    HW222107   2.382   2.563   4.594  0.1376  0.0777 -0.3065
 3492SOL     OW22108   3.166   3.482  12.591  0.3536 -0.2181  0.1328
 3492SOL    HW122109   3.169   3.539  12.514  3.4214 -1.0482 -0.3871
 3492SOL    HW222110   3.248   3.503  12.635  0.7257 -1.0938 -0.1415
 3493SOL     OW22111   1.245   4.508   4.691  0.1980 -0.1263  0.7007
 3493SOL    HW122112   1.213   4.424   4.657 -0.0697  0.2200  0.0955
 3493SOL    HW222113   1.327   4.475   4.728  0.9782  0.6308 -0.3650
 3494SOL     OW22114   2.550   4.097   5.468  0.1595 -0.1654  0.0341
 3494SOL    HW122115   2.567   4.034   5.397 -3.2272  1.8633 -2.5597
 3494SOL    HW222116   2.626   4.154   5.464 -0.2816  0.3268 -1.2554
 3495SOL     OW22117   1.091   2.549   7.289 -0.0779 -0.1029  0.0278
 3495SOL    HW122118   1.152   2.603   7.239  1.6492 -2.0122  0.0787
 3495SOL    HW222119   1.139   2.467   7.280 -0.2823 -0.3528  1.2076
 3496SOL     OW22120   0.693   2.216   7.783 -0.7427 -0.0602 -0.0812
 3496SOL    HW122121   0.670   2.125   7.765 -0.2150 -0.6221  1.9870
 3496SOL    HW222122   0.676   2.232   7.876 -0.4747 -1.9276  0.2802
 3497SOL     OW22123   4.394   4.318   4.978  0.2589 -0.5698  0.2733
 3497SOL    HW122124   4.368   4.331   5.070 -0.6657  3.3091 -0.5394
 3497SOL    HW222125   4.410   4.407   4.947 -2.1925 -0.6951 -1.2907
 3498SOL     OW22126   1.154   4.325  11.752  0.2428 -0.3368  0.1812
 3498SOL    HW122127   1.104   4.311  11.833 -0.5592  0.4203 -0.1838
 3498SOL    HW222128   1.100   4.400  11.726 -1.4643 -1.8239 -0.5172
 3499SOL     OW22129   4.695   2.821  12.164  0.0049 -0.3154 -0.3124
 3499SOL    HW122130   4.715   2.748  12.105  1.2829 -0.2578  0.0488
 3499SOL    HW222131   0.010   2.807  12.246 -0.3251  1.2864  0.1338
 3500SOL     OW22132   2.356   1.057  11.097  0.1672 -0.1569  1.2432
 3500SOL    HW122133   2.447   1.054  11.067 -0.1563  2.5423 -0.0101
 3500SOL    HW222134   2.319   1.033  11.012 -0.5115  0.5331  1.3451
 3501SOL     OW22135   3.198   4.238   4.211  0.0766  0.5149 -0.0994
 3501SOL    HW122136   3.192   4.152   4.169 -1.1238 -0.8828  2.8729
 3501SOL    HW222137   3.225   4.293   4.138 -2.6141  0.3196 -1.2304
 3502SOL     OW22138   1.804   0.401   3.496 -0.3579  0.5382  0.4791
 3502SOL    HW122139   1.807   0.334   3.564 -2.7404  0.1818  0.2443
 3502SOL    HW222140   1.854   0.356   3.429 -0.7879  1.9112 -0.7765
 3503SOL     OW22141   3.732   1.065   8.918  0.0512  0.2957 -0.2708
 3503SOL    HW122142   3.716   1.118   8.997  2.0138 -0.6689  0.7735
 3503SOL    HW222143   3.746   0.981   8.962  0.0550 -0.1819 -1.1905
 3504SOL     OW22144   0.908   3.188   5.997 -0.0870 -0.4015 -0.6058
 3504SOL    HW122145   0.903   3.281   6.020 -0.9347 -0.3771 -0.8645
 3504SOL    HW222146   1.002   3.169   5.999  0.4496  2.0592 -3.1849
 3505SOL     OW22147   3.540   0.867   7.863 -0.2189 -0.0702 -0.0266
 3505SOL    HW122148   3.466   0.895   7.917  1.1696  2.0405  0.8102
 3505SOL    HW222149   3.491   0.878   7.782 -1.3166  0.0063  0.6471
 3506SOL     OW22150   1.117   1.281   6.541 -0.0301  0.2080 -0.5042
 3506SOL    HW122151   1.105   1.336   6.463  0.7324  1.5953  0.3559
 3506SOL    HW222152   1.181   1.336   6.586  0.9889 -0.7729 -0.7589
 3507SOL     OW22153   1.163   1.342   3.218  0.2240  0.3398  0.8115
 3507SOL    HW122154   1.180   1.294   3.136  1.5397 -0.4188  1.5237
 3507SOL    HW222155   1.248   1.317   3.255  1.2980  2.0467 -0.4789
 3508SOL     OW22156   4.507   1.854  13.482 -0.4447 -0.5603  0.5602
 3508SOL    HW122157   4.517   1.865  13.576  3.5945  0.7796 -0.0560
 3508SOL    HW222158   4.597   1.869  13.455 -1.0239  1.0887 -0.4919
 3509SOL     OW22159   0.695   2.683  10.477  0.1635  0.5384 -0.1127
 3509SOL    HW122160   0.631   2.681  10.548 -0.6278 -3.2133 -0.9173
 3509SOL    HW222161   0.748   2.609  10.507 -0.4194  0.7640  1.5028
 3510SOL     OW22162   4.390   0.284   2.307  0.3755 -0.2763 -0.0895
 3510SOL    HW122163   4.348   0.232   2.239 -1.5581  2.4888 -1.0160
 3510SOL    HW222164   4.398   0.223   2.381 -3.3520  0.8071  1.1988
 3511SOL     OW22165   2.232   1.418   2.669 -0.3013 -0.3172  0.0220
 3511SOL    HW122166   2.246   1.505   2.706  0.6632 -0.0050 -1.0787
 3511SOL    HW222167   2.321   1.384   2.668 -0.0295  0.4142 -0.5646
 3512SOL     OW22168   0.142   4.632   7.182 -0.0576 -0.1749  0.3576
 3512SOL    HW122169   0.165   4.723   7.168 -1.1160  0.2741  1.5028
 3512SOL    HW222170   0.047   4.635   7.194 -0.1252 -0.4679 -0.1061
 3513SOL     OW22171   4.166   3.516   9.769  0.1945 -0.3565 -0.1418
 3513SOL    HW122172   4.141   3.449   9.832 -2.2844  0.4982 -0.1991
 3513SOL    HW222173   4.131   3.471   9.692 -1.0210 -1.5421  1.1004
 3514SOL     OW22174   1.081   0.424  15.085  0.2148  0.3182 -0.2747
 3514SOL    HW122175   1.025   0.364  15.035 -0.5123  0.7543  0.0098
 3514SOL    HW222176   1.016   0.487  15.118  0.3431 -0.6994  1.8872
 3515SOL     OW22177   3.100   2.275  14.974  1.1027 -0.1728  0.0795
 3515SOL    HW122178   3.114   2.180  14.978  1.3488 -0.0598  2.1112
 3515SOL    HW222179   3.154   2.291  14.897  1.1682  1.2583  0.4302
 3516SOL     OW22180   4.718   0.630   9.771 -0.0541 -0.4964 -0.5674
 3516SOL    HW122181   4.700   0.660   9.682  0.2502  0.6540 -0.2329
 3516SOL    HW222182   0.007   0.711   9.817 -0.7144  0.4360 -1.9344
 3517SOL     OW22183   0.432   0.057  13.859  0.4164 -0.2181  0.3724
 3517SOL    HW122184   0.343   0.049  13.825 -0.7025  1.1402  2.9277
 3517SOL    HW222185   0.479   0.026  13.782  1.6958  3.0602 -0.1816
 3518SOL     OW22186   3.101   1.071  10.664  0.0514 -0.1951  0.2086
 3518SOL    HW122187   3.133   0.984  10.689 -2.5755 -1.0392  0.7421
 3518SOL    HW222188   3.150   1.100  10.588  0.4053  1.2930  0.9979
 3519SOL     OW22189   1.066   2.726  15.433 -0.3553 -0.0801  0.4319
 3519SOL    HW122190   0.988   2.676  15.408  0.2175 -1.0781  0.6370
 3519SOL    HW222191   1.053   2.805  15.380 -1.5197 -1.2093 -0.9649
 3520SOL     OW22192   2.194   2.284   3.059  0.3582  0.0570 -0.4038
 3520SOL    HW122193   2.276   2.326   3.084  1.1185 -1.7397  0.1287
 3520SOL    HW222194   2.195   2.199   3.102 -1.1527 -0.1692 -0.8022
 3521SOL     OW22195   3.628   4.668   3.785  0.2095  0.5825  0.0235
 3521SOL    HW122196   3.592   4.589   3.824  2.8530 -0.2403  0.7807
 3521SOL    HW222197   3.664   4.633   3.704  0.1278  0.9547 -0.1739
 3522SOL     OW22198   1.088   0.827   5.035 -0.4990  0.3795  0.6967
 3522SOL    HW122199   1.088   0.776   5.116 -1.0823 -0.7424 -0.0163
 3522SOL    HW222200   1.163   0.786   4.992 -0.6937  0.8993 -0.1335
 3523SOL     OW22201   3.356   2.261  13.772 -0.1802  0.2008  0.0738
 3523SOL    HW122202   3.427   2.243  13.834 -0.3701  0.8266  0.4716
 3523SOL    HW222203   3.339   2.175  13.735 -1.1776  2.0773 -3.8592
 3524SOL     OW22204   0.414   4.719   0.456 -0.4993 -0.1978  0.1166
 3524SOL    HW122205   0.337   0.042   0.471  0.3712  0.7096  1.1935
 3524SOL    HW222206   0.474   0.040   0.403 -1.5721  0.4473 -0.4753
 3525SOL     OW22207   3.954   0.695  15.746  0.1203  0.1177 -0.2639
 3525SOL    HW122208   4.043   0.730  15.751  0.5792 -1.0870 -0.1609
 3525SOL    HW222209   3.970   0.602  15.758  3.4942  0.5402 -1.4047
 3526SOL     OW22210   0.512   3.469   4.048 -0.1505 -0.2883  0.3589
 3526SOL    HW122211   0.574   3.444   3.980 -0.4375 -1.4371  0.5276
 3526SOL    HW222212   0.462   3.388   4.056 -1.1529  0.4031  1.0780
 3527SOL     OW22213   1.846   4.692  10.975 -0.4816  0.2907  0.3934
 3527SOL    HW122214   1.777   4.731  11.029 -0.4363  0.7079  0.1519
 3527SOL    HW222215   1.880   0.032  10.921 -3.4643 -0.0763 -1.9447
 3528SOL     OW22216   0.065   2.849   2.492  0.2003 -0.5210 -0.7526
 3528SOL    HW122217   0.058   2.756   2.471 -1.9441 -0.3007 -1.0415
 3528SOL    HW222218   4.706   2.860   2.520  0.2821  0.9059 -1.0487
 3529SOL     OW22219   0.307   2.131   5.653  0.0483  0.2586 -0.5432
 3529SOL    HW122220   0.354   2.085   5.583  0.5109  0.0681 -0.1049
 3529SOL    HW222221   0.296   2.058   5.714 -2.4977  0.6810 -0.5008
 3530SOL     OW22222   3.881   3.047   9.701 -0.4180 -0.3551  0.3535
 3530SOL    HW122223   3.934   3.031   9.779  0.2041  0.5722  0.1162
 3530SOL    HW222224   3.923   2.983   9.643 -0.1780  1.0438 -1.0183
 3531SOL     OW22225   0.228   3.361   5.082 -0.0072 -0.0974 -0.2918
 3531SOL    HW122226   0.296   3.332   5.143  1.5506 -0.3732 -2.1322
 3531SOL    HW222227   0.242   3.455   5.079  2.6139 -0.4396  0.8594
 3532SOL     OW22228   1.650   3.004   1.618 -0.5860  0.1455 -0.3927
 3532SOL    HW122229   1.572   3.017   1.672 -0.8231  0.9859 -0.9442
 3532SOL    HW222230   1.721   3.032   1.675 -1.6111  3.7354 -0.8658
 3533SOL     OW22231   3.072   3.406   6.554 -0.0871 -0.3758 -0.1761
 3533SOL    HW122232   2.983   3.440   6.566  0.2480  0.4934 -0.1851
 3533SOL    HW222233   3.119   3.489   6.553 -0.7077 -0.0638 -2.0821
 3534SOL     OW22234   2.823   3.008  16.501  0.3815 -0.3558  0.0704
 3534SOL    HW122235   2.754   3.072  16.480 -0.1407 -1.0662 -0.3669
 3534SOL    HW222236   2.762   2.954  16.551 -1.4659  2.3543  0.7687
 3535SOL     OW22237   1.056   2.169   2.705 -0.4799  0.3570 -0.6164
 3535SOL    HW122238   1.150   2.153   2.698 -0.3438  0.9455 -0.1510
 3535SOL    HW222239   1.021   2.093   2.659 -0.3110 -1.1456  1.7374
 3536SOL     OW22240   0.339   1.731   6.966  0.2969 -0.2562  0.4301
 3536SOL    HW122241   0.392   1.717   7.045  0.1340  0.4294  0.6600
 3536SOL    HW222242   0.354   1.823   6.946 -1.2191 -0.3928 -1.4169
 3537SOL     OW22243   1.719   0.242   4.896 -0.8824  0.3662  0.4037
 3537SOL    HW122244   1.773   0.184   4.950 -0.8796 -0.3765 -0.4055
 3537SOL    HW222245   1.647   0.266   4.955  0.3650  2.5590  1.0601
 3538SOL     OW22246   2.209   1.684  14.299 -0.3466 -0.4510 -0.2019
 3538SOL    HW122247   2.129   1.735  14.300  0.3674  0.6744  0.1065
 3538SOL    HW222248   2.183   1.614  14.239  0.7275 -2.0099  1.1515
 3539SOL     OW22249   3.877   3.300   8.221  0.0498 -0.0405  0.4437
 3539SOL    HW122250   3.901   3.207   8.223  1.1543  0.2265 -0.6882
 3539SOL    HW222251   3.880   3.313   8.126 -1.4970 -3.0838 -0.0258
 3540SOL     OW22252   0.369   2.114   2.479 -0.0519  0.4588 -0.6469
 3540SOL    HW122253   0.388   2.020   2.472 -0.5311  0.3993 -1.2165
 3540SOL    HW222254   0.350   2.124   2.385  0.3569 -1.1430 -0.9100
 3541SOL     OW22255   4.612   1.585  10.317 -0.1403 -0.3542 -0.4976
 3541SOL    HW122256   4.685   1.636  10.352 -0.8763 -0.5621  1.2990
 3541SOL    HW222257   4.594   1.529  10.392 -0.9635  1.1609  0.4277
 3542SOL     OW22258   4.117   0.863  14.362 -0.1566  0.7467 -0.0921
 3542SOL    HW122259   4.026   0.871  14.392 -0.3079 -1.1169 -0.0487
 3542SOL    HW222260   4.098   0.872  14.269  0.9611 -1.2107 -0.5080
 3543SOL     OW22261   1.415   3.539   8.268  0.3377 -0.0844  0.2362
 3543SOL    HW122262   1.504   3.505   8.261  0.8816  1.5488 -0.8064
 3543SOL    HW222263   1.361   3.482   8.213 -0.2103  0.8504 -0.1961
 3544SOL     OW22264   2.371   3.957  10.750  0.3929  0.2091  0.2533
 3544SOL    HW122265   2.396   3.865  10.754  1.7163  0.6053  1.1411
 3544SOL    HW222266   2.438   4.004  10.799  0.0092  2.2310 -1.1860
 3545SOL     OW22267   1.572   3.109   7.550  0.2167  0.2748 -0.9110
 3545SOL    HW122268   1.552   3.135   7.640 -0.0499  0.7525 -1.1105
 3545SOL    HW222269   1.611   3.022   7.558  0.4907  0.4396 -0.4811
 3546SOL     OW22270   2.385   3.957   2.475  0.2534  0.1817  0.3276
 3546SOL    HW122271   2.380   4.051   2.463  1.3882 -0.0561 -2.0493
 3546SOL    HW222272   2.373   3.940   2.568  1.1906 -1.0066  0.2381
 3547SOL     OW22273   0.968   4.320   2.364  0.5207 -0.6267 -0.1942
 3547SOL    HW122274   1.006   4.233   2.351 -0.9843 -1.0105 -1.9534
 3547SOL    HW222275   0.878   4.290   2.350  0.3437  1.2249 -3.0178
 3548SOL     OW22276   4.144   3.237   5.185  0.8869 -0.2997  0.0106
 3548SOL    HW122277   4.233   3.268   5.205  1.0830  0.5313 -2.1041
 3548SOL    HW222278   4.162   3.159   5.131  1.0525 -0.8508  0.8647
 3549SOL     OW22279   1.304   4.049   2.876 -0.1607  0.2623 -0.8288
 3549SOL    HW122280   1.292   4.127   2.822  1.8116  1.8938  1.0853
 3549SOL    HW222281   1.279   4.079   2.963 -2.1747 -2.3687 -0.5164
 3550SOL     OW22282   0.579   1.107   2.652  0.6280  0.3152 -0.1825
 3550SOL    HW122283   0.521   1.128   2.726 -0.6423  0.5729 -1.2534
 3550SOL    HW222284   0.663   1.105   2.699 -0.1344 -0.3924  1.1661
 3551SOL     OW22285   0.213   3.196   3.579 -0.3516 -0.1728 -0.1922
 3551SOL    HW122286   0.269   3.224   3.508  1.2998  0.0620  1.2112
 3551SOL    HW222287   0.219   3.254   3.654 -2.5041  0.2609 -0.3581
 3552SOL     OW22288   2.026   2.810   7.506  0.2731 -0.4547  0.1268
 3552SOL    HW122289   1.982   2.759   7.574  0.1706 -0.6568 -0.0900
 3552SOL    HW222290   2.032   2.748   7.433  3.0751  0.5222 -0.4458
 3553SOL     OW22291   3.364   3.878   3.185 -0.0718  0.1725  0.2238
 3553SOL    HW122292   3.288   3.863   3.241  1.0800  1.5802  2.1692
 3553SOL    HW222293   3.337   3.956   3.136 -2.0499 -1.4002 -1.1922
 3554SOL     OW22294   3.752   2.646   4.015  0.4887 -0.2822  0.8508
 3554SOL    HW122295   3.824   2.698   4.052 -2.2680  3.6391  0.6660
 3554SOL    HW222296   3.684   2.669   4.079  1.3840 -0.6876  1.9493
 3555SOL     OW22297   1.171   1.369   1.550 -0.1912 -0.3338 -0.5946
 3555SOL    HW122298   1.234   1.351   1.480  2.3064 -1.4555  1.8868
 3555SOL    HW222299   1.115   1.430   1.503  0.6539  0.4559 -0.5782
 3556SOL     OW22300   1.406   0.498   6.838 -0.2434 -0.1051 -0.2207
 3556SOL    HW122301   1.433   0.473   6.926 -0.4147 -1.8132 -0.6521
 3556SOL    HW222302   1.490   0.473   6.798  0.5078  0.9088  0.7114
 3557SOL     OW22303   2.391   4.495   3.899  0.0665 -0.2367  0.2125
 3557SOL    HW122304   2.483   4.516   3.884 -0.2059 -0.1744 -1.3971
 3557SOL    HW222305   2.368   4.588   3.892  1.1408 -0.1464 -2.2273
 3558SOL     OW22306   4.671   3.773   8.259  0.0265 -0.3488 -0.3676
 3558SOL    HW122307   4.593   3.733   8.296  0.2018 -0.2996  0.0484
 3558SOL    HW222308   4.634   3.830   8.191 -0.6149  0.8768  0.9974
 3559SOL     OW22309   4.217   2.190  13.042  0.4798  0.5040 -0.2634
 3559SOL    HW122310   4.124   2.212  13.048  0.6714  0.7006  1.9464
 3559SOL    HW222311   4.259   2.276  13.043  0.4591  0.4885  2.0450
 3560SOL     OW22312   0.152   0.859  11.295 -0.0741 -0.7928  0.0465
 3560SOL    HW122313   0.064   0.884  11.264  0.4294  0.3323 -0.4661
 3560SOL    HW222314   0.210   0.881  11.222  0.4486 -0.9576  0.4225
 3561SOL     OW22315   2.345   1.205   8.670  0.1302  0.1270  0.1650
 3561SOL    HW122316   2.336   1.225   8.763 -0.9105 -0.2699  0.1537
 3561SOL    HW222317   2.439   1.189   8.674 -0.0189 -0.6089  0.7485
 3562SOL     OW22318   0.485   1.291   6.970 -0.4837  0.8393 -0.1133
 3562SOL    HW122319   0.419   1.225   6.950 -0.8215  0.9374  0.6705
 3562SOL    HW222320   0.511   1.300   6.879 -2.7859 -1.5853 -1.0203
 3563SOL     OW22321   0.037   1.561   7.115 -0.1924 -0.0535  0.1322
 3563SOL    HW122322   0.070   1.482   7.072 -0.4726  0.5073 -1.0928
 3563SOL    HW222323   0.109   1.582   7.174 -1.2736 -1.7796  2.1175
 3564SOL     OW22324   4.494   0.254  17.611 -0.2443  0.9252  0.8564
 3564SOL    HW122325   4.498   0.173  17.663 -0.6630 -0.1447 -0.7676
 3564SOL    HW222326   4.407   0.286  17.634 -1.2996 -2.0521  1.0906
 3565SOL     OW22327   3.964   4.321   6.792  0.4654 -0.4727 -0.1590
 3565SOL    HW122328   3.975   4.400   6.739 -1.4218 -0.3640 -0.4194
 3565SOL    HW222329   4.017   4.252   6.753  2.7774 -0.0034  2.1863
 3566SOL     OW22330   0.842   2.454   8.844 -0.1803 -0.2465  0.7921
 3566SOL    HW122331   0.820   2.418   8.759  1.6115  0.3628  0.0720
 3566SOL    HW222332   0.899   2.519   8.802 -0.8036 -0.6737 -0.7132
 3567SOL     OW22333   0.347   2.784   8.772  0.4820  0.1568  0.0712
 3567SOL    HW122334   0.371   2.791   8.679  1.3317 -0.6086  0.2403
 3567SOL    HW222335   0.434   2.761   8.805  0.7342  0.6909 -0.2120
 3568SOL     OW22336   2.174   3.478   6.341  0.1535  0.1621  0.2825
 3568SOL    HW122337   2.114   3.547   6.311 -1.2424 -1.5836 -0.9438
 3568SOL    HW222338   2.240   3.537   6.377  1.1671 -0.6464 -0.2622
 3569SOL     OW22339   2.502   0.347   4.401 -0.1579  0.4294  0.2416
 3569SOL    HW122340   2.504   0.256   4.371 -0.3004  0.7286 -0.6752
 3569SOL    HW222341   2.517   0.335   4.495 -1.9346 -1.3680  0.2877
 3570SOL     OW22342   1.228   4.267   2.618  0.7998 -0.0864  0.1780
 3570SOL    HW122343   1.148   4.274   2.670 -0.7093  0.2830 -2.1769
 3570SOL    HW222344   1.204   4.217   2.539  0.5750  1.0822 -0.4962
 3571SOL     OW22345   3.367   4.156  17.189  0.0011 -0.0469  0.3080
 3571SOL    HW122346   3.371   4.102  17.110  2.9663 -0.8482  0.9991
 3571SOL    HW222347   3.294   4.119  17.239  0.6491 -0.1262  1.1945
 3572SOL     OW22348   0.188   2.630   3.415 -0.1922  0.4839 -0.7413
 3572SOL    HW122349   0.120   2.598   3.355  1.3185  0.6855 -2.5753
 3572SOL    HW222350   0.266   2.595   3.371  0.2544 -0.9728  1.2369
 3573SOL     OW22351   0.484   4.046   9.211  0.0299 -0.3496 -0.3375
 3573SOL    HW122352   0.431   4.108   9.160  0.0602 -0.7242 -0.8192
 3573SOL    HW222353   0.481   3.963   9.165  0.4846 -1.3806  1.5050
 3574SOL     OW22354   2.738   0.109   1.110  0.5489  0.2270  0.0843
 3574SOL    HW122355   2.727   0.140   1.020  0.0884 -2.9915 -0.9876
 3574SOL    HW222356   2.653   0.131   1.148  0.0631 -0.0116 -0.8631
 3575SOL     OW22357   4.702   1.460  13.150  0.4857  0.1295  0.4561
 3575SOL    HW122358   4.621   1.410  13.154 -1.3056  2.9131 -0.6898
 3575SOL    HW222359   0.039   1.399  13.176  2.0252  1.1421 -1.2142
 3576SOL     OW22360   1.867   0.560   1.292  0.5436 -0.6257 -0.1315
 3576SOL    HW122361   1.861   0.465   1.309  0.2739 -0.8644 -1.6008
 3576SOL    HW222362   1.924   0.557   1.216  0.2852  2.7456 -0.4332
 3577SOL     OW22363   2.646   1.195   6.059  0.1810 -0.1257  0.0391
 3577SOL    HW122364   2.599   1.203   5.976 -1.8318  3.5653  1.5390
 3577SOL    HW222365   2.735   1.179   6.027  1.0181  1.0062  1.8347
 3578SOL     OW22366   2.649   0.221   6.884  0.1684 -0.2358  0.3962
 3578SOL    HW122367   2.673   0.305   6.923 -0.2258  0.3093 -0.5360
 3578SOL    HW222368   2.719   0.199   6.822  0.1218  0.6406  0.0237
 3579SOL     OW22369   1.602   3.648  17.671  0.6844  0.4353  0.1864
 3579SOL    HW122370   1.539   3.624  17.603  1.0411 -0.1119  0.0507
 3579SOL    HW222371   1.671   3.685  17.615  1.5103 -1.0692  0.1984
 3580SOL     OW22372   2.286   3.225   6.634  0.0353 -0.3772 -0.2858
 3580SOL    HW122373   2.371   3.262   6.609  0.0983  0.1443  0.7398
 3580SOL    HW222374   2.310   3.168   6.707 -0.1623 -0.5759 -0.3755
 3581SOL     OW22375   3.510   2.341   5.219 -0.3196  0.1570  0.2362
 3581SOL    HW122376   3.439   2.279   5.200 -0.8753  0.3973  1.5783
 3581SOL    HW222377   3.498   2.411   5.154 -0.7541 -0.1649 -0.0379
 3582SOL     OW22378   4.542   0.583  15.394 -0.2185  0.2609  0.2257
 3582SOL    HW122379   4.530   0.678  15.396  0.3996  0.3308  0.7184
 3582SOL    HW222380   4.552   0.569  15.488  0.9407 -0.7421 -0.0402
 3583SOL     OW22381   0.377   3.870   7.300  0.3382 -0.0619  0.4311
 3583SOL    HW122382   0.302   3.888   7.242  2.2405 -0.4490 -2.1509
 3583SOL    HW222383   0.414   3.956   7.319  1.6455 -1.0511  2.2846
 3584SOL     OW22384   3.597   2.060  15.765  0.2355  0.6865  0.7828
 3584SOL    HW122385   3.598   2.151  15.794 -3.6454  1.1287 -0.4954
 3584SOL    HW222386   3.669   2.022  15.815  0.6534 -1.0907 -1.1564
 3585SOL     OW22387   4.612   4.728   7.259 -0.0652  0.0838 -0.3706
 3585SOL    HW122388   4.605   0.090   7.278  0.1160  0.4097 -1.8936
 3585SOL    HW222389   4.536   4.699   7.309  0.2852  2.8268  1.7865
 3586SOL     OW22390   2.944   1.328   7.865  0.0684 -0.7447 -0.0778
 3586SOL    HW122391   2.938   1.419   7.837  0.6149 -0.2825  1.3422
 3586SOL    HW222392   2.865   1.292   7.824  1.0113 -1.9915 -0.8100
 3587SOL     OW22393   3.786   1.888  13.460 -0.1846  0.9456  0.5558
 3587SOL    HW122394   3.780   1.799  13.426 -2.3889  2.0638 -2.0085
 3587SOL    HW222395   3.828   1.943  13.394 -1.7584  1.8422  0.3069
 3588SOL     OW22396   2.807   1.029   3.602 -0.1717 -0.5043  0.5533
 3588SOL    HW122397   2.766   0.947   3.574 -1.3318  0.3404 -0.2594
 3588SOL    HW222398   2.747   1.070   3.664 -0.5895  1.3158 -1.0283
 3589SOL     OW22399   3.973   2.278  13.040 -0.2905 -0.6596 -0.2104
 3589SOL    HW122400   3.909   2.311  12.977 -0.4465  1.7297  1.2115
 3589SOL    HW222401   3.983   2.362  13.084  1.5759 -0.5672 -0.7858
 3590SOL     OW22402   2.532   3.475   7.246  0.0899  0.1314  1.1110
 3590SOL    HW122403   2.514   3.476   7.152 -0.6906 -0.0005  1.2561
 3590SOL    HW222404   2.443   3.467   7.281 -0.9036 -1.0533 -1.6980
 3591SOL     OW22405   2.114   0.932   9.010  0.3635  0.0762  0.2134
 3591SOL    HW122406   2.169   1.009   9.017  1.5114 -0.6334 -1.2027
 3591SOL    HW222407   2.171   0.872   9.058  1.7163  1.6279  0.5433
 3592SOL     OW22408   4.039   4.273   1.910 -0.2653 -0.0671  0.4887
 3592SOL    HW122409   4.097   4.341   1.876  0.7123 -1.4074 -0.5022
 3592SOL    HW222410   4.084   4.253   1.992  2.5252  1.4049 -0.6720
 3593SOL     OW22411   3.957   1.223   0.946  0.7434 -0.0177  0.2583
 3593SOL    HW122412   3.953   1.312   0.981 -0.3625 -0.4203  1.1475
 3593SOL    HW222413   3.998   1.239   0.861  1.8377 -0.4444  0.7084
 3594SOL     OW22414   4.200   4.381  17.186  0.6766  0.0003  0.0161
 3594SOL    HW122415   4.164   4.465  17.155 -0.7333 -0.3797  0.6073
 3594SOL    HW222416   4.125   4.360  17.242  0.7431  0.7334  0.3793
 3595SOL     OW22417   2.111   4.649   7.322 -0.6256 -0.1895 -0.4846
 3595SOL    HW122418   2.106   4.709   7.397  2.1580 -0.3630 -0.1680
 3595SOL    HW222419   2.149   4.572   7.363 -0.5012  0.9433  1.5658
 3596SOL     OW22420   1.262   4.389   5.333 -0.0488 -0.4027 -0.0561
 3596SOL    HW122421   1.204   4.463   5.313  1.2934  1.2693  2.1924
 3596SOL    HW222422   1.315   4.393   5.254  0.5972 -1.6524  0.3105
 3597SOL     OW22423   0.792   3.242  16.571  0.1678  0.0489 -0.2338
 3597SOL    HW122424   0.863   3.254  16.635  2.2189 -1.5813 -2.1794
 3597SOL    HW222425   0.774   3.149  16.583 -0.2339  0.2241  0.5032
 3598SOL     OW22426   0.042   1.838   7.765 -0.0380  0.4058 -0.4913
 3598SOL    HW122427   0.015   1.847   7.857 -0.5598 -1.6755 -0.4308
 3598SOL    HW222428   0.079   1.750   7.775  2.0000  1.4421  1.2008
 3599SOL     OW22429   0.826   3.694  10.850 -0.1984  0.1863 -0.5615
 3599SOL    HW122430   0.852   3.716  10.940 -0.1865 -0.5826 -0.3763
 3599SOL    HW222431   0.901   3.639  10.828 -1.0536 -1.1645 -0.1076
 3600SOL     OW22432   1.547   2.961  10.304  0.2342 -0.1946 -0.1160
 3600SOL    HW122433   1.532   2.967  10.210 -1.3348  0.5050  0.1742
 3600SOL    HW222434   1.459   2.935  10.332  0.0911  0.9448  0.5226
 3601SOL     OW22435   4.021   0.196  12.218 -0.6983  0.3723  0.2250
 3601SOL    HW122436   4.087   0.149  12.269 -1.9576  1.0101  2.4851
 3601SOL    HW222437   4.029   0.153  12.133  1.8514 -3.0404  2.2048
 3602SOL     OW22438   0.891   3.915   5.518  0.6084 -0.5105  0.5785
 3602SOL    HW122439   0.880   3.990   5.460 -1.7915 -0.0689  1.6011
 3602SOL    HW222440   0.901   3.955   5.604 -2.4648  2.3665 -0.4290
 3603SOL     OW22441   1.669   3.292   9.389 -0.1711  0.0119  0.0179
 3603SOL    HW122442   1.721   3.356   9.437 -1.0699  1.0708 -0.4297
 3603SOL    HW222443   1.647   3.236   9.464 -1.3570 -0.3507 -0.6041
 3604SOL     OW22444   4.494   3.841   6.117  1.1035 -0.3236 -0.3119
 3604SOL    HW122445   4.461   3.840   6.207 -0.5173  0.8102 -0.8861
 3604SOL    HW222446   4.583   3.873   6.128  0.4505  1.5909 -0.6211
 3605SOL     OW22447   4.152   0.232  11.106 -0.1383 -0.2820 -0.1798
 3605SOL    HW122448   4.059   0.249  11.089 -0.4997 -1.8074  0.2675
 3605SOL    HW222449   4.161   0.275  11.191 -2.5214 -0.2870  0.0844
 3606SOL     OW22450   4.658   1.614   7.551 -0.4018 -0.7799  0.2425
 3606SOL    HW122451   4.580   1.600   7.497 -0.8510  0.4745  0.5713
 3606SOL    HW222452   4.646   1.709   7.559 -1.7450 -0.8388 -1.2330
 3607SOL     OW22453   0.972   1.003   2.203  0.4731 -0.2704  0.0722
 3607SOL    HW122454   1.029   0.937   2.163 -0.9679 -0.4715 -1.6428
 3607SOL    HW222455   1.023   1.055   2.265 -2.6400  2.5019  0.2985
 3608SOL     OW22456   2.602   1.113  17.275 -0.0526 -1.1564 -0.6626
 3608SOL    HW122457   2.638   1.143  17.358  0.4314  1.4262 -1.7902
 3608SOL    HW222458   2.612   1.195  17.225 -0.3095 -1.0709 -0.5695
 3609SOL     OW22459   0.515   0.900   4.521  0.6319 -0.3211  0.6080
 3609SOL    HW122460   0.480   0.832   4.463  0.0343 -0.1021  0.7093
 3609SOL    HW222461   0.464   0.977   4.495  3.4120  1.6416  1.0779
 3610SOL     OW22462   2.683   3.394   7.439 -0.5528 -0.2664  0.0433
 3610SOL    HW122463   2.626   3.409   7.364 -0.0449 -2.5181 -0.7922
 3610SOL    HW222464   2.767   3.390   7.393 -0.6256 -0.4124 -0.0769
 3611SOL     OW22465   1.325   3.111   8.375  0.3191 -0.0136 -0.7346
 3611SOL    HW122466   1.324   3.203   8.403  1.5549  0.3687 -1.9120
 3611SOL    HW222467   1.365   3.071   8.452 -2.0953  0.7059  0.8840
 3612SOL     OW22468   0.941   2.634   1.322  0.3630  0.1119  0.3988
 3612SOL    HW122469   0.950   2.661   1.231 -2.4097 -1.7793 -0.4588
 3612SOL    HW222470   0.979   2.707   1.370 -0.5150 -0.4010  1.8581
 3613SOL     OW22471   4.326   1.739  12.318 -0.3317 -0.1647  0.0449
 3613SOL    HW122472   4.383   1.808  12.285  0.2404  0.1209  1.6757
 3613SOL    HW222473   4.377   1.660  12.299  0.3566 -0.0960  1.6594
 3614SOL     OW22474   3.200   2.152   2.349  0.0578  0.1455  0.0617
 3614SOL    HW122475   3.238   2.099   2.279 -1.6385  0.8486 -1.4037
 3614SOL    HW222476   3.110   2.169   2.323 -0.0437  0.8786  0.8957
 3615SOL     OW22477   3.816   4.216   2.215  0.8374 -0.2403 -0.1560
 3615SOL    HW122478   3.904   4.178   2.215  0.6329 -0.7056  0.6692
 3615SOL    HW222479   3.766   4.149   2.169  1.8257 -0.8864 -0.2903
 3616SOL     OW22480   0.857   3.276   7.736 -0.4296  0.2067  0.4052
 3616SOL    HW122481   0.825   3.329   7.663  1.2618 -1.1880 -1.3380
 3616SOL    HW222482   0.910   3.334   7.790  1.6929 -0.9768 -0.4067
 3617SOL     OW22483   1.155   1.021   1.960 -0.7749 -0.4835  0.3225
 3617SOL    HW122484   1.107   1.087   2.010 -1.2727 -0.9960  0.5186
 3617SOL    HW222485   1.174   1.060   1.875 -1.4380 -2.8413 -0.9080
 3618SOL     OW22486   2.885   3.011   1.400 -0.4728  0.2698  0.5788
 3618SOL    HW122487   2.813   3.072   1.389  0.2899  0.5973 -2.6679
 3618SOL    HW222488   2.936   3.024   1.320 -1.2301 -0.9363 -0.0991
 3619SOL     OW22489   3.729   2.171  10.190 -0.5335 -0.2000  0.1226
 3619SOL    HW122490   3.689   2.124  10.263  1.5898 -3.0408 -0.5623
 3619SOL    HW222491   3.657   2.226  10.160  0.8563  2.7296  2.2033
 3620SOL     OW22492   2.567   2.962   3.696  0.8381 -0.4702  0.0224
 3620SOL    HW122493   2.491   3.017   3.674  0.0175 -0.4434  2.8664
 3620SOL    HW222494   2.528   2.886   3.740 -0.8348  0.9879  1.0588
 3621SOL     OW22495   3.485   0.223   6.486 -0.0159  0.3927 -0.5022
 3621SOL    HW122496   3.549   0.156   6.463 -0.1380 -0.8462  2.6791
 3621SOL    HW222497   3.534   0.305   6.479  1.3252 -0.4552 -1.0395
 3622SOL     OW22498   0.195   0.876   8.157  0.1575 -0.4820  0.2361
 3622SOL    HW122499   0.154   0.889   8.071 -0.6566  0.9706  0.8548
 3622SOL    HW222500   0.174   0.783   8.166 -1.5543  0.2444  3.6527
 3623SOL     OW22501   3.773   2.988  11.175 -0.6258 -0.0612 -0.5112
 3623SOL    HW122502   3.857   2.985  11.129 -1.1140  4.4547 -1.6511
 3623SOL    HW222503   3.732   2.908  11.141  1.5070 -0.9901 -0.8820
 3624SOL     OW22504   4.489   4.156   6.648  0.1989  0.3339  0.7258
 3624SOL    HW122505   4.573   4.122   6.676  0.4526  0.5227  0.1808
 3624SOL    HW222506   4.514   4.232   6.596  1.7774 -1.6650 -1.4198
 3625SOL     OW22507   4.178   0.957   5.358 -0.2730  0.0671 -0.1449
 3625SOL    HW122508   4.124   0.913   5.292 -0.2075 -0.6907  0.3094
 3625SOL    HW222509   4.253   0.981   5.305  0.1123 -0.3273  0.2247
 3626SOL     OW22510   1.554   3.380   3.005 -0.4890 -0.2334  0.4398
 3626SOL    HW122511   1.503   3.339   2.935 -0.0835 -1.0815  0.6473
 3626SOL    HW222512   1.634   3.329   3.014 -0.2360  0.1277  0.2561
 3627SOL     OW22513   0.634   2.507   9.030  0.3260  1.0648 -0.0053
 3627SOL    HW122514   0.667   2.479   8.945 -1.2305 -1.1462  0.1252
 3627SOL    HW222515   0.596   2.589   8.997  0.9105  0.6313 -1.7368
 3628SOL     OW22516   0.868   0.540   4.532  0.1407 -0.6708  0.3994
 3628SOL    HW122517   0.784   0.520   4.490 -0.0474  1.2951 -0.1809
 3628SOL    HW222518   0.841   0.583   4.613 -2.4639 -1.9283  0.1972
 3629SOL     OW22519   0.032   3.687   1.022  0.5800  0.0952  0.0115
 3629SOL    HW122520   0.068   3.734   0.947 -0.8900  0.0947 -0.6976
 3629SOL    HW222521   0.107   3.676   1.081  0.0254 -1.0720  0.4883
 3630SOL     OW22522   3.812   3.812  10.612 -0.2634 -0.1859  0.9360
 3630SOL    HW122523   3.802   3.883  10.549  1.6720  1.6942  2.7620
 3630SOL    HW222524   3.866   3.858  10.676  0.8582 -2.0028  1.2786
 3631SOL     OW22525   1.607   1.299   0.697  0.3159 -0.3550  0.0024
 3631SOL    HW122526   1.611   1.394   0.699  1.0509 -0.3912  0.3175
 3631SOL    HW222527   1.606   1.268   0.787 -3.1097 -0.1382  0.0144
 3632SOL     OW22528   2.361   0.947   3.112  0.1800 -0.3138 -0.1213
 3632SOL    HW122529   2.351   0.956   3.017  0.6344  0.2564 -0.1186
 3632SOL    HW222530   2.291   0.890   3.142 -0.5971  1.4918  1.5264
 3633SOL     OW22531   3.837   3.352   7.243 -0.3122 -0.3028 -0.3506
 3633SOL    HW122532   3.781   3.340   7.166  0.6715 -3.4063 -0.6022
 3633SOL    HW222533   3.879   3.266   7.246  0.1987 -0.0353  0.4005
 3634SOL     OW22534   0.801   1.418  15.527  0.0294 -0.2748 -0.7521
 3634SOL    HW122535   0.837   1.497  15.486  0.9658  0.4192  1.4184
 3634SOL    HW222536   0.863   1.416  15.599  0.5110  1.5563 -1.1137
 3635SOL     OW22537   1.167   2.045   9.505 -0.5510  0.1206 -0.0022
 3635SOL    HW122538   1.122   2.061   9.588 -1.0293  1.3801 -0.5056
 3635SOL    HW222539   1.096   1.992   9.468 -1.1542 -0.2973  1.7154
 3636SOL     OW22540   4.247   4.557   7.575 -0.0771 -0.3603  0.1485
 3636SOL    HW122541   4.230   4.465   7.555 -1.8173  0.0331 -0.2022
 3636SOL    HW222542   4.171   4.578   7.629  0.2574  0.8824  0.1346
 3637SOL     OW22543   2.072   0.691  14.555 -0.0765  0.0791 -0.5356
 3637SOL    HW122544   1.988   0.668  14.515  0.2950  0.3847 -1.5049
 3637SOL    HW222545   2.128   0.646  14.492 -1.6713  0.1136 -1.9851
 3638SOL     OW22546   1.899   4.241  12.552 -0.1386  0.2012  0.2415
 3638SOL    HW122547   1.943   4.183  12.490  2.3467  1.4420  0.8378
 3638SOL    HW222548   1.922   4.221  12.643  0.2299 -2.7963 -0.5316
 3639SOL     OW22549   0.379   4.177   9.445  0.0224  0.1681 -0.3738
 3639SOL    HW122550   0.364   4.270   9.432 -0.2980  0.2883  0.8663
 3639SOL    HW222551   0.420   4.154   9.361 -0.0128  1.3406 -0.7129
 3640SOL     OW22552   4.322   2.721   7.815  0.4034 -0.1806 -0.3437
 3640SOL    HW122553   4.402   2.682   7.781 -0.2667 -3.5986  1.9267
 3640SOL    HW222554   4.256   2.651   7.821 -0.8692  0.9347 -1.2166
 3641SOL     OW22555   3.494   0.008   4.807 -0.1346  0.5914  0.1071
 3641SOL    HW122556   3.559   0.031   4.873 -0.5401 -1.8684  1.3670
 3641SOL    HW222557   3.414   0.046   4.844 -0.1571  0.7598 -0.1138
 3642SOL     OW22558   0.476   3.115   4.873 -0.1614 -0.2988  0.5331
 3642SOL    HW122559   0.401   3.116   4.932 -0.7632  0.0194 -0.2299
 3642SOL    HW222560   0.525   3.041   4.909  0.4241 -0.6606 -0.9791
 3643SOL     OW22561   0.184   3.431   7.446 -0.2174 -0.0463  0.3695
 3643SOL    HW122562   0.234   3.414   7.365  1.3021  2.9111  0.6661
 3643SOL    HW222563   0.193   3.524   7.464 -2.5059  0.5496 -1.5240
 3644SOL     OW22564   2.795   3.853   7.984 -0.8015  0.6256  0.7065
 3644SOL    HW122565   2.779   3.759   7.992 -0.2778  0.4194 -0.7269
 3644SOL    HW222566   2.815   3.876   8.075  0.2674  0.6442  0.4601
 3645SOL     OW22567   3.178   1.623   4.452 -0.6925 -0.2685 -0.4754
 3645SOL    HW122568   3.242   1.636   4.522 -1.6422 -1.3246  0.5940
 3645SOL    HW222569   3.202   1.701   4.403 -4.5848  0.5411 -1.0825
 3646SOL     OW22570   0.346   3.744   4.277 -0.4498  0.0162 -0.1405
 3646SOL    HW122571   0.278   3.789   4.327 -2.7831  0.1903 -3.4447
 3646SOL    HW222572   0.357   3.801   4.201  2.1499 -0.8337 -0.3726
 3647SOL     OW22573   2.589   2.214   5.549  0.1076 -0.2444 -0.1435
 3647SOL    HW122574   2.615   2.132   5.506 -1.9629 -1.6331  1.2478
 3647SOL    HW222575   2.549   2.190   5.632  2.8621  0.1680  1.2815
 3648SOL     OW22576   3.706   0.513   1.956 -0.2976  0.3173 -0.0335
 3648SOL    HW122577   3.685   0.580   2.022 -0.9747 -0.7937  0.8812
 3648SOL    HW222578   3.784   0.476   1.997 -0.4937  1.3695  1.3218
 3649SOL     OW22579   1.136   3.841   6.484 -0.0127 -0.4176  0.5209
 3649SOL    HW122580   1.170   3.891   6.558 -1.3287  0.2584  0.6523
 3649SOL    HW222581   1.123   3.760   6.534 -1.5250 -0.6794 -0.3181
 3650SOL     OW22582   0.193   0.334   6.614 -0.0833 -0.0637 -0.1985
 3650SOL    HW122583   0.178   0.263   6.676 -1.2504  0.7423  0.4434
 3650SOL    HW222584   0.241   0.401   6.662  0.7294 -1.5971  1.0823
 3651SOL     OW22585   0.046   1.863  13.498  0.2268 -0.4279  0.1124
 3651SOL    HW122586   0.103   1.812  13.440  0.2015  1.0317 -1.1899
 3651SOL    HW222587   0.066   1.955  13.482 -3.0193  0.0725 -1.0960
 3652SOL     OW22588   1.495   0.740   1.359  0.0702  0.2827 -0.2502
 3652SOL    HW122589   1.569   0.797   1.338  2.1072 -0.7729  4.0941
 3652SOL    HW222590   1.444   0.788   1.424 -2.8730 -3.4346  0.1659
 3653SOL     OW22591   2.925   4.628   0.929 -0.0751  0.3516  0.0054
 3653SOL    HW122592   2.931   4.563   0.999  1.8891  0.9599  0.3960
 3653SOL    HW222593   3.019   4.644   0.919 -0.3728  1.3375 -1.1774
 3654SOL     OW22594   2.841   1.991  11.344 -0.4822  0.2471 -0.1815
 3654SOL    HW122595   2.799   1.928  11.285  1.3853  0.5248 -1.7976
 3654SOL    HW222596   2.799   1.968  11.427  0.6782 -1.5952 -0.0865
 3655SOL     OW22597   3.005   1.976   4.992 -0.1600  0.3913  0.1594
 3655SOL    HW122598   2.928   1.926   5.017  1.5727 -2.1518  0.4721
 3655SOL    HW222599   3.060   1.951   5.066 -0.0349 -1.7525 -0.6507
 3656SOL     OW22600   1.636   1.875   4.207 -0.0353 -0.0850 -0.0569
 3656SOL    HW122601   1.574   1.915   4.269 -0.9071  0.0829 -1.0373
 3656SOL    HW222602   1.710   1.868   4.267 -1.2141 -0.8157  1.3068
 3657SOL     OW22603   4.493   4.718   8.710  0.2412  0.0414 -0.0045
 3657SOL    HW122604   4.487   4.634   8.666  1.1118 -0.5614  1.0004
 3657SOL    HW222605   4.414   4.712   8.764 -0.7679  2.0800 -1.2787
 3658SOL     OW22606   0.130   1.789   9.509  0.2618 -0.2477  0.1707
 3658SOL    HW122607   0.171   1.743   9.436  0.0562 -1.4925  0.8559
 3658SOL    HW222608   0.117   1.877   9.473  0.0926  0.3552  1.6979
 3659SOL     OW22609   4.258   4.078   9.068  0.3393  0.5374  0.1303
 3659SOL    HW122610   4.246   4.031   9.151  1.1574  0.3327  0.1338
 3659SOL    HW222611   4.252   4.010   9.000 -0.3599  1.5463 -0.8178
 3660SOL     OW22612   0.065   0.635   6.119 -0.6737  0.1995 -0.0919
 3660SOL    HW122613   0.094   0.553   6.081 -0.3083 -0.1210  0.8840
 3660SOL    HW222614   0.127   0.648   6.190 -1.3265  0.5484  0.4214
 3661SOL     OW22615   3.957   0.400  11.296 -0.1508 -0.4004  0.0416
 3661SOL    HW122616   4.044   0.439  11.301 -0.2076 -0.3105  0.3266
 3661SOL    HW222617   3.946   0.396  11.201 -1.9041  0.5646  0.2014
 3662SOL     OW22618   2.967   4.702  14.211  0.5151  0.2991 -0.2350
 3662SOL    HW122619   2.976   4.687  14.305  2.8459 -1.6873 -0.7811
 3662SOL    HW222620   2.891   4.649  14.189  1.1142 -0.8031  0.3664
 3663SOL     OW22621   2.905   3.351   7.293 -0.3459 -0.0270 -0.1858
 3663SOL    HW122622   2.953   3.277   7.329  3.0124  2.9762  1.4649
 3663SOL    HW222623   2.907   3.335   7.199  2.0994  1.2543 -0.3460
 3664SOL     OW22624   0.730   0.322  11.206  0.1124  0.8195 -0.0118
 3664SOL    HW122625   0.637   0.315  11.183  0.1898 -3.3192  0.8298
 3664SOL    HW222626   0.736   0.414  11.232  1.1923  0.9928 -0.8718
 3665SOL     OW22627   1.389   4.183  11.582  0.1708 -0.1649  0.2626
 3665SOL    HW122628   1.330   4.255  11.605 -0.8495 -0.6887 -0.7337
 3665SOL    HW222629   1.469   4.212  11.625 -0.0255 -1.3865  1.4459
 3666SOL     OW22630   0.924   4.134   5.745 -0.3972 -0.5100 -0.0699
 3666SOL    HW122631   0.840   4.179   5.736 -1.1047 -2.3147 -2.3129
 3666SOL    HW222632   0.985   4.207   5.739 -0.6287 -0.2636  0.5034
 3667SOL     OW22633   1.186   4.040   6.191 -0.3542  0.2462 -0.7830
 3667SOL    HW122634   1.254   4.049   6.258  0.5089  0.3101 -1.6735
 3667SOL    HW222635   1.213   3.954   6.157  1.8547  0.5796  0.1192
 3668SOL     OW22636   2.388   3.001   0.273  0.0792  0.0468 -0.2650
 3668SOL    HW122637   2.438   2.986   0.354  0.4946  0.3040 -0.4714
 3668SOL    HW222638   2.323   2.932   0.284  0.5656 -0.1957  1.1599
 3669SOL     OW22639   1.538   2.192   2.865  0.4087 -0.2822 -0.8202
 3669SOL    HW122640   1.474   2.218   2.932  1.6143 -2.1048  1.0354
 3669SOL    HW222641   1.500   2.240   2.792 -1.2940 -0.7682 -0.2732
 3670SOL     OW22642   4.371   1.078   8.027 -0.4078  0.6858 -0.2913
 3670SOL    HW122643   4.391   1.075   8.120 -2.0861  1.2586  0.0893
 3670SOL    HW222644   4.281   1.045   8.032  0.7132 -2.5518 -1.4080
 3671SOL     OW22645   2.367   2.722   6.502 -0.0311 -0.3452 -0.1819
 3671SOL    HW122646   2.433   2.771   6.453  1.7554 -1.2487  1.3429
 3671SOL    HW222647   2.293   2.719   6.441  0.1209 -1.8948 -0.2944
 3672SOL     OW22648   2.141   3.262   9.430 -0.0547  0.5180  0.9010
 3672SOL    HW122649   2.205   3.320   9.388  0.7402 -1.2362 -0.2954
 3672SOL    HW222650   2.148   3.184   9.376  0.5618  1.2687 -0.1050
 3673SOL     OW22651   3.390   2.724   1.818  0.1359  0.7469  0.1507
 3673SOL    HW122652   3.397   2.818   1.833 -1.2405  0.6210  1.5396
 3673SOL    HW222653   3.325   2.729   1.749  0.6868  0.3397 -0.3954
 3674SOL     OW22654   2.413   3.878   1.464 -0.4071 -0.1259  0.1927
 3674SOL    HW122655   2.338   3.817   1.464  0.3268 -1.0292  1.2960
 3674SOL    HW222656   2.371   3.961   1.443  0.1550  0.2433  0.5525
 3675SOL     OW22657   1.462   2.043   2.368  0.8577 -0.0939 -0.5396
 3675SOL    HW122658   1.391   2.051   2.304 -0.4711  0.4310  0.9955
 3675SOL    HW222659   1.500   2.131   2.379  2.0508 -0.6185 -0.4693
 3676SOL     OW22660   4.419   1.318   7.030  0.4075  0.5184  0.0769
 3676SOL    HW122661   4.375   1.377   6.969  0.4054 -0.0131 -0.4315
 3676SOL    HW222662   4.341   1.292   7.080 -0.6112  1.0861 -1.2364
 3677SOL     OW22663   0.897   2.691   6.166  0.5317 -0.2152  0.3331
 3677SOL    HW122664   0.900   2.786   6.151  1.0031 -0.3338 -0.3273
 3677SOL    HW222665   0.816   2.666   6.121 -1.4177  3.2149  1.8619
 3678SOL     OW22666   1.485   2.681   2.269  0.1760  0.2590  0.5343
 3678SOL    HW122667   1.470   2.658   2.177  4.1757 -2.4496  0.5944
 3678SOL    HW222668   1.391   2.695   2.280  0.3150 -0.4171  2.4375
 3679SOL     OW22669   2.758   0.697   9.225 -0.0170  0.2366 -0.3637
 3679SOL    HW122670   2.846   0.672   9.254 -0.1021 -0.8712 -1.0665
 3679SOL    HW222671   2.705   0.692   9.304  0.3462  1.3829 -0.0495
 3680SOL     OW22672   2.104   4.366   3.637 -0.2045  0.0201  0.4739
 3680SOL    HW122673   2.192   4.356   3.601  0.2908  0.4499  1.5722
 3680SOL    HW222674   2.114   4.344   3.729 -0.2790  2.0950  0.9683
 3681SOL     OW22675   2.869   0.497   4.401 -0.0530 -0.3839 -0.2352
 3681SOL    HW122676   2.956   0.465   4.425  0.2108  1.4005  1.2439
 3681SOL    HW222677   2.831   0.489   4.489 -0.3602  2.7164 -0.0845
 3682SOL     OW22678   2.077   4.308   3.163  0.1796 -0.4496  0.5023
 3682SOL    HW122679   2.056   4.395   3.197 -0.2570 -0.1381 -0.5536
 3682SOL    HW222680   2.010   4.253   3.203  1.0931 -0.7484  1.6193
 3683SOL     OW22681   3.991   4.422   6.353 -0.9328 -0.5289 -0.0687
 3683SOL    HW122682   4.041   4.400   6.432 -0.1263  0.9389 -0.1701
 3683SOL    HW222683   3.904   4.382   6.356 -0.4833 -1.5894 -0.8491
 3684SOL     OW22684   4.411   3.271   4.804  0.0961  0.2142  0.6013
 3684SOL    HW122685   4.493   3.305   4.839  0.5891  1.6167 -1.9308
 3684SOL    HW222686   4.425   3.176   4.813 -0.7334 -0.1254 -1.5868
 3685SOL     OW22687   1.523   3.204   7.296 -0.7473  0.4763 -0.1734
 3685SOL    HW122688   1.543   3.123   7.249 -1.5561 -0.0483  0.3875
 3685SOL    HW222689   1.551   3.182   7.385 -0.4783 -0.3900 -0.4739
 3686SOL     OW22690   3.369   0.423   3.396 -0.6792  0.0675  0.5679
 3686SOL    HW122691   3.329   0.478   3.463 -1.8100 -0.6209  0.4504
 3686SOL    HW222692   3.383   0.338   3.438 -0.7395 -0.5213 -0.5864
 3687SOL     OW22693   4.630   3.106   5.016 -0.4291  0.0694 -0.1434
 3687SOL    HW122694   4.692   3.157   4.965  0.8002 -2.3351 -1.0592
 3687SOL    HW222695   4.582   3.058   4.949 -0.1499  0.0492 -0.3318
 3688SOL     OW22696   3.202   3.403   7.833  0.0774 -0.1887 -0.9324
 3688SOL    HW122697   3.150   3.482   7.850  0.3188  0.0353 -1.2271
 3688SOL    HW222698   3.285   3.441   7.864 -0.7836  0.6824  0.3057
 3689SOL     OW22699   3.638   2.630   3.784  0.5070  0.1051  0.4407
 3689SOL    HW122700   3.695   2.679   3.725 -0.5143  1.0491  0.2477
 3689SOL    HW222701   3.695   2.620   3.860  1.4773  1.2914 -0.1309
 3690SOL     OW22702   0.427   2.650   4.815 -0.2876  0.1568  0.5852
 3690SOL    HW122703   0.450   2.575   4.760 -3.1690  0.1176 -0.5884
 3690SOL    HW222704   0.365   2.688   4.752 -0.1159  1.7792  1.4038
 3691SOL     OW22705   2.897   1.814  17.647 -0.2641  0.1979  0.1357
 3691SOL    HW122706   2.885   1.822   0.014 -0.5836  1.5437 -0.0174
 3691SOL    HW222707   2.988   1.842  17.637 -0.3733 -0.5740 -3.0202
 3692SOL     OW22708   1.780   0.183   9.996 -0.0295  0.8492 -0.6415
 3692SOL    HW122709   1.785   0.170  10.090 -0.4411  0.5347 -0.6618
 3692SOL    HW222710   1.743   0.099   9.970 -1.1048  1.1096  0.0247
 3693SOL     OW22711   0.316   0.140   4.263 -0.1290 -0.8157 -0.1635
 3693SOL    HW122712   0.335   0.095   4.181  0.8540 -0.3536 -0.1935
 3693SOL    HW222713   0.405   0.170   4.283 -0.2978 -0.7448  0.4956
 3694SOL     OW22714   4.387   2.404   6.629 -0.1702  0.3794  0.1469
 3694SOL    HW122715   4.382   2.322   6.580  0.2957  0.6162 -0.2925
 3694SOL    HW222716   4.481   2.402   6.645 -0.0412 -1.6096 -0.8808
 3695SOL     OW22717   0.879   3.748   3.550  0.6335  0.0475  0.3753
 3695SOL    HW122718   0.819   3.789   3.489  2.6560  1.1667 -0.8815
 3695SOL    HW222719   0.961   3.754   3.501 -0.6321 -0.4266 -1.8041
 3696SOL     OW22720   2.764   2.977   7.029 -0.1018  0.1943  0.7771
 3696SOL    HW122721   2.796   2.937   6.948  0.4765 -1.4241  1.8106
 3696SOL    HW222722   2.668   2.984   7.023 -0.0676  0.8343  1.0623
 3697SOL     OW22723   2.885   2.424   3.592  0.0879 -0.0421 -0.9237
 3697SOL    HW122724   2.929   2.353   3.545 -0.6561 -1.1538  0.0646
 3697SOL    HW222725   2.893   2.399   3.685 -0.1041  2.6608 -0.1945
 3698SOL     OW22726   3.580   3.942   5.942 -0.0931  0.1407 -0.1661
 3698SOL    HW122727   3.602   4.011   6.005  0.7344 -0.0973 -0.1910
 3698SOL    HW222728   3.650   3.879   5.957 -1.1913 -1.3287 -1.2352
 3699SOL     OW22729   4.308   4.698   1.042 -0.6262  0.6068 -0.2269
 3699SOL    HW122730   4.362   4.672   0.968 -1.4501 -0.0093 -0.6099
 3699SOL    HW222731   4.285   4.611   1.077  0.2422  0.8953  1.0749
 3700SOL     OW22732   3.260   1.863   2.603  0.6240 -0.6960 -0.8324
 3700SOL    HW122733   3.184   1.812   2.631  0.8292 -2.1625 -2.8638
 3700SOL    HW222734   3.282   1.841   2.512  1.1873 -0.8955 -0.6485
 3701SOL     OW22735   3.117   0.336   6.618  0.1649 -0.5612 -0.7009
 3701SOL    HW122736   3.046   0.393   6.587  1.1985  1.1739  0.1165
 3701SOL    HW222737   3.146   0.283   6.544 -1.1356 -0.6152 -1.1715
 3702SOL     OW22738   4.023   1.053   6.814 -0.4213  0.3832 -0.0013
 3702SOL    HW122739   4.049   1.041   6.723 -1.2318  3.4347 -0.6379
 3702SOL    HW222740   4.058   0.971   6.850  1.3022  0.8450 -0.6335
 3703SOL     OW22741   3.613   0.996   6.360 -0.0799  0.2583 -0.0822
 3703SOL    HW122742   3.650   1.058   6.424 -1.1970  0.5307  0.3079
 3703SOL    HW222743   3.607   0.916   6.412  0.4452  1.6114  2.0569
 3704SOL     OW22744   0.483   4.032   8.324 -0.0593 -0.0840 -0.0423
 3704SOL    HW122745   0.480   4.112   8.376  0.5438 -1.2890  1.8623
 3704SOL    HW222746   0.394   4.024   8.289 -0.2965 -1.6355  0.9309
 3705SOL     OW22747   0.108   2.786  15.768 -0.2152 -0.3761  0.7191
 3705SOL    HW122748   0.102   2.712  15.708  1.7615 -1.3271  1.6728
 3705SOL    HW222749   0.025   2.827  15.744 -0.7263 -1.2013  1.1124
 3706SOL     OW22750   0.201   3.171  13.061 -0.4303  0.1656  0.3493
 3706SOL    HW122751   0.225   3.219  13.141 -1.3372  1.6994 -0.3018
 3706SOL    HW222752   0.145   3.234  13.017  0.7809  0.3715 -0.9140
 3707SOL     OW22753   4.003   4.262  14.568  0.4315  0.1180 -0.3120
 3707SOL    HW122754   3.914   4.279  14.537 -0.3138 -3.0311  0.0472
 3707SOL    HW222755   3.987   4.278  14.660  0.3933 -1.9644  0.0566
 3708SOL     OW22756   2.246   2.097  11.649  0.3804  0.0755  0.2435
 3708SOL    HW122757   2.258   2.062  11.738 -1.8780  0.3426  0.6439
 3708SOL    HW222758   2.328   2.080  11.603  0.7453  0.1707  0.8580
 3709SOL     OW22759   2.234   2.543  11.198 -0.6326  0.0730  0.3537
 3709SOL    HW122760   2.328   2.538  11.210 -0.6425  0.3864  0.5718
 3709SOL    HW222761   2.216   2.565  11.106  0.5170  1.9385  0.5852
 3710SOL     OW22762   3.615   3.027   9.741 -0.2795  0.2535 -0.3785
 3710SOL    HW122763   3.710   3.022   9.730 -0.2521  0.5286 -0.2675
 3710SOL    HW222764   3.609   2.974   9.821 -1.5584  0.4867 -0.3149
 3711SOL     OW22765   4.596   3.474   1.106  0.2544 -0.1262 -0.0501
 3711SOL    HW122766   4.585   3.390   1.062  1.3056  0.2017 -0.9626
 3711SOL    HW222767   4.665   3.506   1.046  1.1701 -0.7812  0.6491
 3712SOL     OW22768   2.423   0.699   0.509 -0.6261  0.0974 -0.2926
 3712SOL    HW122769   2.382   0.715   0.594 -0.1036 -0.5078  0.0764
 3712SOL    HW222770   2.359   0.728   0.444 -1.3037  0.3575  0.4900
 3713SOL     OW22771   1.125   3.601   4.343  0.0305 -0.0282 -0.4018
 3713SOL    HW122772   1.206   3.562   4.373  1.1091  1.2850 -1.6109
 3713SOL    HW222773   1.098   3.532   4.282  1.0473 -1.8171  1.1822
 3714SOL     OW22774   1.946   1.674   3.867 -0.0845 -0.0105 -0.8198
 3714SOL    HW122775   1.998   1.595   3.881  0.1005 -0.1219 -2.0693
 3714SOL    HW222776   1.856   1.647   3.886  0.0267  0.8576  0.8652
 3715SOL     OW22777   2.877   3.597   6.508  0.1991 -0.9891  0.0588
 3715SOL    HW122778   2.881   3.690   6.529  2.4612 -1.2423  0.6664
 3715SOL    HW222779   2.899   3.595   6.415 -0.0988 -1.3386 -0.0086
 3716SOL     OW22780   3.929   0.958  16.382  0.1118  0.2283 -0.0443
 3716SOL    HW122781   4.011   0.996  16.412  0.1501 -0.3694  0.6179
 3716SOL    HW222782   3.924   0.993  16.293 -1.9550  1.5207  0.5800
 3717SOL     OW22783   3.327   2.256   7.874 -0.1836  0.2633 -0.0947
 3717SOL    HW122784   3.375   2.197   7.933  0.6405  2.7439  1.7701
 3717SOL    HW222785   3.342   2.213   7.790  0.6728 -0.0285  0.2073
 3718SOL     OW22786   0.970   0.850   7.625  0.2079  0.5493  0.2401
 3718SOL    HW122787   0.953   0.943   7.614  1.3105  0.8223  0.8808
 3718SOL    HW222788   0.894   0.812   7.581 -1.4694  2.8373  1.1726
 3719SOL     OW22789   2.390   4.578   2.538  0.1076  0.4832 -0.3489
 3719SOL    HW122790   2.451   4.517   2.496 -0.5853  1.0646 -2.1921
 3719SOL    HW222791   2.329   4.584   2.464 -0.2881  0.2020 -0.0433
 3720SOL     OW22792   3.149   1.102   6.720  0.5813  0.0063 -0.2097
 3720SOL    HW122793   3.114   1.060   6.798  0.3022  2.7221  1.1600
 3720SOL    HW222794   3.128   1.193   6.741  0.6178  0.1508 -0.8069
 3721SOL     OW22795   1.083   1.678   7.805  0.3522 -0.0377 -0.0684
 3721SOL    HW122796   1.134   1.718   7.876 -1.4259 -0.1243  1.2622
 3721SOL    HW222797   1.055   1.756   7.759 -0.7561 -0.0064  0.6545
 3722SOL     OW22798   1.373   1.005   3.586 -0.0115  0.0779  0.5872
 3722SOL    HW122799   1.302   1.053   3.627  0.0540  0.9857 -0.3575
 3722SOL    HW222800   1.333   0.993   3.499  0.8467  1.3103  0.0283
 3723SOL     OW22801   2.288   0.238   5.570 -0.1667  0.3352 -0.4622
 3723SOL    HW122802   2.224   0.276   5.631 -0.6093 -0.5925 -0.3499
 3723SOL    HW222803   2.375   0.264   5.602 -0.7082  0.3230  1.0347
 3724SOL     OW22804   3.163   1.604  10.889 -0.3144  0.2598  0.2647
 3724SOL    HW122805   3.146   1.512  10.869  1.0458  0.3055 -1.0998
 3724SOL    HW222806   3.199   1.635  10.805 -0.3962  0.8022  0.4273
 3725SOL     OW22807   2.241   1.144   7.010 -0.3526  0.5216  0.3065
 3725SOL    HW122808   2.153   1.134   7.045  0.0557 -2.9065  0.3577
 3725SOL    HW222809   2.266   1.052   7.007  0.9593  0.8446  1.2599
 3726SOL     OW22810   2.253   2.266   2.067  0.4609 -0.0956  0.8827
 3726SOL    HW122811   2.344   2.283   2.092  0.1642  0.6641  1.4394
 3726SOL    HW222812   2.217   2.336   2.121 -1.7950 -0.7682  0.2420
 3727SOL     OW22813   1.203   1.846   7.208  0.2656  0.1935  0.5184
 3727SOL    HW122814   1.220   1.792   7.131  0.5813  0.6968  0.2358
 3727SOL    HW222815   1.250   1.925   7.182 -0.5251  0.0540 -1.3177
 3728SOL     OW22816   1.827   4.727  12.345  0.6589 -0.7300 -0.1250
 3728SOL    HW122817   1.796   0.011  12.434  1.3895 -1.3638  0.2445
 3728SOL    HW222818   1.749   0.013  12.293  1.3618  0.9033 -0.6026
 3729SOL     OW22819   4.389   2.185  12.388 -0.1913 -0.2811 -0.0086
 3729SOL    HW122820   4.353   2.270  12.363  0.3324  0.1330  0.6673
 3729SOL    HW222821   4.383   2.187  12.483 -2.1673 -2.1827 -0.1105
 3730SOL     OW22822   3.065   0.995   8.755  0.2806  0.0604 -0.4990
 3730SOL    HW122823   3.129   1.064   8.736  3.6989 -2.7586  0.6710
 3730SOL    HW222824   3.062   0.939   8.677 -0.0762  0.0877 -0.5035
 3731SOL     OW22825   0.827   4.175   1.757 -0.1357 -0.2886 -0.0313
 3731SOL    HW122826   0.793   4.087   1.772 -0.0669 -0.1576  0.8669
 3731SOL    HW222827   0.764   4.205   1.692 -0.0081 -0.9134 -0.4462
 3732SOL     OW22828   0.205   1.587   7.849  0.4391  0.1585  0.4624
 3732SOL    HW122829   0.273   1.578   7.915  2.5476 -0.0646 -1.7390
 3732SOL    HW222830   0.147   1.513   7.868 -0.2296  0.8192  1.0318
 3733SOL     OW22831   4.351   2.392  17.065 -0.3168  0.7183  0.2784
 3733SOL    HW122832   4.300   2.457  17.015 -0.4273  0.7299  0.4059
 3733SOL    HW222833   4.340   2.316  17.008  0.2868  1.2051 -0.4977
 3734SOL     OW22834   2.759   2.235   5.132 -0.5868  0.0234 -0.1627
 3734SOL    HW122835   2.827   2.297   5.104  0.1919 -0.7708 -0.0224
 3734SOL    HW222836   2.780   2.161   5.076 -0.1576  1.4334 -1.8529
 3735SOL     OW22837   0.350   1.390   4.376 -0.0096 -0.0624 -0.0903
 3735SOL    HW122838   0.255   1.385   4.364  0.0104 -2.1795  0.5137
 3735SOL    HW222839   0.372   1.301   4.349 -0.4583 -0.2250  0.0758
 3736SOL     OW22840   0.087   2.799   7.577  0.1753  0.2786  0.8705
 3736SOL    HW122841   0.027   2.724   7.570  0.8701  0.1353 -3.3159
 3736SOL    HW222842   0.061   2.858   7.506 -1.5055 -0.0679  1.1787
 3737SOL     OW22843   1.514   1.646   6.952  0.0328  0.1956  0.9121
 3737SOL    HW122844   1.576   1.699   7.003 -0.5892  1.0801  0.7456
 3737SOL    HW222845   1.567   1.623   6.876 -0.0296  1.1657  0.5845
 3738SOL     OW22846   3.757   3.599   5.444  0.4239  0.8776 -0.2793
 3738SOL    HW122847   3.739   3.676   5.498 -1.7565  1.5808 -1.9917
 3738SOL    HW222848   3.696   3.623   5.374 -1.4030  2.0355  1.6906
 3739SOL     OW22849   1.444   0.925   4.626 -0.0783  0.0509  0.6310
 3739SOL    HW122850   1.421   0.835   4.651 -0.2160 -0.7039 -2.1978
 3739SOL    HW222851   1.482   0.905   4.540 -2.3458 -0.8111 -0.1865
 3740SOL     OW22852   0.503   0.931  14.328  0.5570 -0.1026  0.2638
 3740SOL    HW122853   0.531   1.021  14.312  0.4876 -0.1935 -0.3874
 3740SOL    HW222854   0.410   0.927  14.306  0.6011 -1.7138  0.3302
 3741SOL     OW22855   4.139   3.157   8.341  0.4852  0.3454 -0.5479
 3741SOL    HW122856   4.107   3.196   8.422  0.6945 -0.5978 -0.0177
 3741SOL    HW222857   4.063   3.119   8.297  0.6640  1.7400 -2.0665
 3742SOL     OW22858   3.494   0.661   5.463 -0.5050  0.0072 -0.0332
 3742SOL    HW122859   3.547   0.605   5.519 -0.9267  2.0854  2.4499
 3742SOL    HW222860   3.552   0.729   5.428 -1.2652  0.3319 -0.6774
 3743SOL     OW22861   0.178   2.739   5.928 -0.0903 -0.1757  0.6664
 3743SOL    HW122862   0.110   2.805   5.936  2.0614  2.0233  0.7110
 3743SOL    HW222863   0.173   2.686   6.008 -0.1079 -0.4743  0.4667
 3744SOL     OW22864   1.044   2.940  15.249 -0.8106 -0.1318  0.0500
 3744SOL    HW122865   1.137   2.964  15.253 -0.9543  0.8123 -2.3300
 3744SOL    HW222866   1.006   3.027  15.246  0.7051  0.4895 -1.2444
 3745SOL     OW22867   1.538   0.367  10.064 -0.2844  0.4069  0.0936
 3745SOL    HW122868   1.611   0.305  10.056 -1.1721 -0.7329  0.7119
 3745SOL    HW222869   1.570   0.441  10.115  1.6871  0.3486 -1.0745
 3746SOL     OW22870   1.824   4.276   4.043 -0.2798 -1.1141  0.6520
 3746SOL    HW122871   1.866   4.350   4.087 -2.1222 -0.6158  1.5586
 3746SOL    HW222872   1.769   4.242   4.114 -0.3664 -0.3573  0.9457
 3747SOL     OW22873   3.803   1.310   5.692 -0.2896  0.0721  0.2790
 3747SOL    HW122874   3.826   1.330   5.783  1.8057 -1.3633  0.0769
 3747SOL    HW222875   3.815   1.393   5.647  2.3094  0.1249  1.0725
 3748SOL     OW22876   2.468   2.493   6.569 -0.1784  0.5921  0.1422
 3748SOL    HW122877   2.526   2.467   6.498 -0.6693  0.0634 -0.0595
 3748SOL    HW222878   2.436   2.580   6.544  3.1019  1.1338 -2.0953
 3749SOL     OW22879   3.433   2.010   4.827  0.7489 -0.4041  0.4177
 3749SOL    HW122880   3.439   1.958   4.906 -0.8164 -0.5013  0.4744
 3749SOL    HW222881   3.511   2.065   4.823 -1.4389  2.7710  0.8857
 3750SOL     OW22882   3.643   4.134  15.388  0.2673 -0.1442 -0.1976
 3750SOL    HW122883   3.707   4.108  15.454  0.8400 -0.9336 -1.0660
 3750SOL    HW222884   3.563   4.108  15.434 -0.3994  2.9799  0.3908
 3751SOL     OW22885   1.021   0.277  11.921 -0.6658  0.0364 -0.1818
 3751SOL    HW122886   0.944   0.265  11.977 -0.6890 -1.3686 -0.5074
 3751SOL    HW222887   0.974   0.260  11.839 -1.1204  2.1673 -0.3462
 3752SOL     OW22888   0.892   1.054  12.878 -0.3856  0.4040 -0.0798
 3752SOL    HW122889   0.866   1.100  12.798 -0.2474  2.1797  0.9041
 3752SOL    HW222890   0.863   0.966  12.852 -1.5811  1.0108 -0.8303
 3753SOL     OW22891   2.072   0.069   4.727  0.2413  0.0250  0.1764
 3753SOL    HW122892   2.023   0.140   4.769  2.1522  1.9382 -0.8124
 3753SOL    HW222893   2.134   0.130   4.687 -0.0502  0.9237  1.0829
 3754SOL     OW22894   2.992   0.572   9.357 -0.5443  0.5020  0.4130
 3754SOL    HW122895   2.943   0.617   9.426  2.4387  1.5427  1.8992
 3754SOL    HW222896   3.081   0.576   9.393 -1.7844 -1.5754  3.6905
 3755SOL     OW22897   2.049   0.879   8.451  0.4641 -0.3055  1.0139
 3755SOL    HW122898   2.126   0.844   8.407  0.4126 -1.4169  1.8136
 3755SOL    HW222899   1.994   0.896   8.374  0.3793 -2.6890  0.5477
 3756SOL     OW22900   2.560   0.747   4.452  0.2507 -0.7960  0.2704
 3756SOL    HW122901   2.592   0.666   4.492 -0.0266 -1.9610 -1.8745
 3756SOL    HW222902   2.466   0.732   4.447 -0.1914  1.8260  0.8201
 3757SOL     OW22903   1.052   0.372   7.157  0.4619 -0.3742  0.1617
 3757SOL    HW122904   1.077   0.288   7.118  0.8062  0.0781 -0.5953
 3757SOL    HW222905   1.135   0.398   7.197 -0.4726  1.4942  0.8651
 3758SOL     OW22906   2.851   0.756   6.417  0.2309  0.5560 -0.3341
 3758SOL    HW122907   2.777   0.800   6.374 -0.0155 -1.9301 -2.5261
 3758SOL    HW222908   2.887   0.824   6.473 -2.1930  1.4933  0.1238
 3759SOL     OW22909   0.437   1.866   2.404  0.1391 -0.5249 -0.2665
 3759SOL    HW122910   0.520   1.833   2.371 -0.1907 -1.5652 -0.0557
 3759SOL    HW222911   0.388   1.784   2.405 -1.2381  0.2979  0.0197
 3760SOL     OW22912   4.395   4.180   7.246 -0.5275 -0.1488  0.4702
 3760SOL    HW122913   4.429   4.267   7.268  0.4897 -0.6433  0.8430
 3760SOL    HW222914   4.305   4.207   7.228 -0.9486 -0.4228  2.1156
 3761SOL     OW22915   2.976   3.358   6.225 -0.0658 -0.0058  0.3519
 3761SOL    HW122916   2.907   3.344   6.289 -2.3903  0.5325 -2.0262
 3761SOL    HW222917   2.971   3.453   6.236 -2.5672 -0.2272  0.9994
 3762SOL     OW22918   2.278   3.150   3.927  0.2757  0.2672 -0.3396
 3762SOL    HW122919   2.269   3.064   3.888 -1.3715 -0.3127  1.3240
 3762SOL    HW222920   2.338   3.192   3.866 -1.4632 -0.3460 -2.4616
 3763SOL     OW22921   4.535   4.049   7.003 -0.6239 -0.0974  0.1102
 3763SOL    HW122922   4.542   4.041   7.098  1.0015  0.7632  0.0519
 3763SOL    HW222923   4.568   3.961   6.983 -1.2646 -0.3216  0.0528
 3764SOL     OW22924   4.527   1.740   8.337  0.1732  0.2367 -0.1040
 3764SOL    HW122925   4.614   1.780   8.336  1.4610 -2.5522  0.3748
 3764SOL    HW222926   4.474   1.813   8.305 -1.4090 -1.8475 -2.2788
 3765SOL     OW22927   3.813   0.951   3.664 -0.3201 -0.2135  0.0954
 3765SOL    HW122928   3.868   0.973   3.589 -1.6126  4.3485  0.4849
 3765SOL    HW222929   3.733   0.993   3.633  0.2123  0.2270 -0.6781
 3766SOL     OW22930   1.743   4.254   3.245 -0.1902  0.1302 -0.0028
 3766SOL    HW122931   1.761   4.161   3.228 -2.6651 -0.2748 -0.3724
 3766SOL    HW222932   1.796   4.283   3.319 -0.7475 -1.2409  0.9248
 3767SOL     OW22933   2.835   1.815   2.072  0.2884  0.2498  0.2416
 3767SOL    HW122934   2.749   1.855   2.089 -0.3690 -0.4995 -1.3723
 3767SOL    HW222935   2.883   1.826   2.154  1.7418  0.6657 -0.6737
 3768SOL     OW22936   2.271   2.701   5.112 -0.0937  0.0291 -0.3785
 3768SOL    HW122937   2.256   2.636   5.044  0.6309  0.2232 -0.7272
 3768SOL    HW222938   2.311   2.646   5.179 -1.9663 -0.2600  0.4815
 3769SOL     OW22939   3.132   3.821   2.483  0.7682  0.3968 -0.8325
 3769SOL    HW122940   3.127   3.731   2.450 -0.5118 -0.4479  1.6247
 3769SOL    HW222941   3.216   3.826   2.529 -1.1586 -1.1285  2.8856
 3770SOL     OW22942   0.184   3.281   8.393  0.3244  0.4668  0.0519
 3770SOL    HW122943   0.097   3.266   8.355 -0.1296 -0.4443  1.4630
 3770SOL    HW222944   0.200   3.375   8.380  1.6150  0.3848  1.0338
 3771SOL     OW22945   4.228   2.640  10.292 -0.1696  0.0858 -0.4128
 3771SOL    HW122946   4.174   2.562  10.304  0.9520 -0.5388  0.5762
 3771SOL    HW222947   4.209   2.692  10.370  0.7817  1.5613 -1.1504
 3772SOL     OW22948   3.885   3.666   8.899  0.0585  0.5347 -0.6710
 3772SOL    HW122949   3.974   3.669   8.864 -0.1683 -2.4151 -1.4842
 3772SOL    HW222950   3.906   3.633   8.987  0.0248  0.8914 -0.5307
 3773SOL     OW22951   1.935   4.709  12.642 -0.0011 -0.3081  0.0108
 3773SOL    HW122952   2.014   4.655  12.640 -0.2038 -0.6371  1.2561
 3773SOL    HW222953   1.973   0.064  12.636  0.3057 -0.4641 -0.3507
 3774SOL     OW22954   4.686   1.948   5.901  0.4533  0.4545 -0.1845
 3774SOL    HW122955   4.652   2.019   5.954  1.2464  1.0131 -0.4153
 3774SOL    HW222956   4.696   2.001   5.822 -0.0932  0.2745 -0.3701
 3775SOL     OW22957   0.136   0.237   2.548  0.1755 -0.1645  0.3081
 3775SOL    HW122958   0.226   0.268   2.540 -0.7423  2.1754 -1.1248
 3775SOL    HW222959   0.150   0.145   2.568 -0.8439 -0.4818 -0.4100
 3776SOL     OW22960   4.696   4.206   3.440 -0.1251 -0.4418  0.3331
 3776SOL    HW122961   0.012   4.272   3.490  1.0412 -0.7058 -0.4446
 3776SOL    HW222962   4.665   4.148   3.509  0.5635  0.4136  1.3597
 3777SOL     OW22963   4.539   3.732   2.609 -0.2202  0.0266 -0.2432
 3777SOL    HW122964   4.487   3.663   2.650  0.8523 -0.5788  0.1118
 3777SOL    HW222965   4.477   3.804   2.601  0.1173  0.1143 -2.0582
 3778SOL     OW22966   3.651   4.036   6.503  0.3289 -0.1802  0.1103
 3778SOL    HW122967   3.582   3.974   6.527 -0.1677 -0.5633 -2.3626
 3778SOL    HW222968   3.669   4.007   6.414 -0.4295  0.6995 -0.3333
 3779SOL     OW22969   1.154   1.287   4.134 -0.0762  0.1949  0.4434
 3779SOL    HW122970   1.127   1.341   4.208 -1.7479 -1.7074  1.2090
 3779SOL    HW222971   1.206   1.227   4.188  0.3649 -1.2801 -1.6393
 3780SOL     OW22972   1.239   1.622   6.087  0.4060  0.4020  0.1297
 3780SOL    HW122973   1.215   1.571   6.009  0.6219  0.1806  0.2057
 3780SOL    HW222974   1.150   1.645   6.112  0.3023 -1.5330  1.5775
 3781SOL     OW22975   1.477   1.171   5.455 -0.2244  0.4010  0.2036
 3781SOL    HW122976   1.571   1.180   5.468 -0.2495  1.3058 -0.2475
 3781SOL    HW222977   1.473   1.193   5.361  1.0033 -1.1137 -0.2023
 3782SOL     OW22978   4.517   3.157   7.195 -0.3962  0.1732  0.3556
 3782SOL    HW122979   4.600   3.184   7.155 -0.7330 -1.2089 -1.3106
 3782SOL    HW222980   4.469   3.239   7.197 -1.5911 -0.4685 -1.2307
 3783SOL     OW22981   2.408   3.192   7.406 -0.0920  0.2235  0.3059
 3783SOL    HW122982   2.342   3.122   7.409  0.0961 -0.0242 -1.5007
 3783SOL    HW222983   2.417   3.204   7.312 -0.0141  1.0594  0.4179
 3784SOL     OW22984   2.596   1.624  14.387  0.2692  0.7173  0.6045
 3784SOL    HW122985   2.681   1.605  14.428  0.2285  0.2063  0.4425
 3784SOL    HW222986   2.597   1.720  14.394 -1.3962  0.6868  1.0640
 3785SOL     OW22987   2.638   2.604   1.651 -0.0809 -0.1578  0.1170
 3785SOL    HW122988   2.712   2.547   1.633  0.9026 -0.6248  5.5423
 3785SOL    HW222989   2.656   2.690   1.613 -0.0756 -0.3750 -0.3630
 3786SOL     OW22990   1.647   2.945  12.114  0.1877 -0.9207 -0.0891
 3786SOL    HW122991   1.656   2.860  12.157 -1.4225 -1.5553 -1.0036
 3786SOL    HW222992   1.552   2.956  12.123  0.2313  0.0496 -0.7930
 3787SOL     OW22993   1.343   1.353  13.764  0.4235 -0.2902  0.3669
 3787SOL    HW122994   1.257   1.389  13.783 -0.0147 -0.3851 -1.4732
 3787SOL    HW222995   1.356   1.358  13.670  0.4837  2.9061  0.5135
 3788SOL     OW22996   3.016   4.686  13.158  0.3775 -0.0077 -0.1577
 3788SOL    HW122997   2.995   0.045  13.140 -1.1053 -0.1981  0.6112
 3788SOL    HW222998   3.097   4.693  13.209 -0.0425  1.1085  0.3448
 3789SOL     OW22999   3.574   2.572   8.572  0.5347  0.1755 -0.5495
 3789SOL    HW123000   3.519   2.509   8.619 -0.1808  1.1685 -0.0613
 3789SOL    HW223001   3.511   2.641   8.550 -2.8720 -2.0900  2.1950
 3790SOL     OW23002   2.313   3.390   3.323  0.4589 -0.2667  0.0082
 3790SOL    HW123003   2.263   3.464   3.358 -1.3477 -1.4542 -0.0562
 3790SOL    HW223004   2.265   3.315   3.358  1.5522 -0.9334  0.0635
 3791SOL     OW23005   0.673   1.836   2.249 -0.1898  0.8963  0.3049
 3791SOL    HW123006   0.766   1.814   2.252  0.0126  1.1497 -3.6749
 3791SOL    HW223007   0.639   1.792   2.171  0.9537  0.7596 -0.1216
 3792SOL     OW23008   3.036   0.392   2.172  0.0418  0.1646  0.7132
 3792SOL    HW123009   2.969   0.457   2.153  0.1112 -0.5113 -1.7857
 3792SOL    HW223010   2.993   0.315   2.135  0.7308 -0.0764  0.3984
 3793SOL     OW23011   2.112   4.534   4.639 -0.3937 -0.1708 -0.2580
 3793SOL    HW123012   2.201   4.565   4.653  0.3865 -2.3915 -0.2208
 3793SOL    HW223013   2.073   4.604   4.691 -0.8882  0.5098 -1.5311
 3794SOL     OW23014   0.580   0.507  15.213  0.3321  0.1265 -0.1013
 3794SOL    HW123015   0.627   0.472  15.288 -0.7244  3.0712  1.9392
 3794SOL    HW223016   0.490   0.502  15.245  0.0438 -0.2082 -0.9606
 3795SOL     OW23017   3.764   0.294  14.489 -0.3258  0.2768 -0.8466
 3795SOL    HW123018   3.832   0.346  14.447 -1.0125  1.0411 -1.0117
 3795SOL    HW223019   3.691   0.356  14.495  1.2669  2.0726 -0.0886
 3796SOL     OW23020   0.587   2.460   8.391 -0.0289  0.2151 -0.4711
 3796SOL    HW123021   0.505   2.509   8.388 -0.5737 -0.8276 -3.0647
 3796SOL    HW223022   0.560   2.376   8.353  0.8097 -0.0926 -0.3992
 3797SOL     OW23023   3.734   2.347  11.609  0.7764 -0.4899 -0.7061
 3797SOL    HW123024   3.821   2.341  11.569  1.2018 -2.6695  0.5241
 3797SOL    HW223025   3.734   2.263  11.655 -0.8660  0.0707  0.3243
 3798SOL     OW23026   4.299   3.371   9.275 -0.4253  0.0730 -0.2807
 3798SOL    HW123027   4.313   3.404   9.363 -0.1241  1.6157 -0.9034
 3798SOL    HW223028   4.356   3.294   9.274  0.1014  0.4478  1.2282
 3799SOL     OW23029   0.805   2.330   4.122 -0.5708 -0.0180  0.6496
 3799SOL    HW123030   0.734   2.394   4.120  0.1827  0.6668 -3.1365
 3799SOL    HW223031   0.831   2.332   4.030 -1.0777 -1.2825  0.4774
 3800SOL     OW23032   0.157   2.504  10.885  0.2352 -0.1679 -0.3298
 3800SOL    HW123033   0.138   2.551  10.803 -1.4686 -1.4485 -0.6627
 3800SOL    HW223034   0.069   2.480  10.913  0.6794 -2.5465 -0.9978
 3801SOL     OW23035   2.789   1.045   6.463  0.5433  0.1158  0.6451
 3801SOL    HW123036   2.726   1.116   6.477  0.3104 -0.0006  0.1966
 3801SOL    HW223037   2.746   0.999   6.391 -1.0296 -0.3548  1.9049
 3802SOL     OW23038   0.331   3.448   9.027 -0.1786  0.4115  0.1285
 3802SOL    HW123039   0.345   3.455   8.933 -1.1076 -3.0540 -0.2825
 3802SOL    HW223040   0.273   3.522   9.041 -0.3625  0.1747  0.6482
 3803SOL     OW23041   4.094   4.163   9.571 -0.1610  0.2102  0.4858
 3803SOL    HW123042   4.181   4.125   9.580 -0.5314 -0.2758  1.9768
 3803SOL    HW223043   4.111   4.257   9.566 -1.9203  0.5681  1.2195
 3804SOL     OW23044   0.692   1.563   2.847 -0.4340  0.2344  0.6717
 3804SOL    HW123045   0.602   1.591   2.865 -1.5059 -2.3372 -0.6033
 3804SOL    HW223046   0.691   1.547   2.753  0.0504  0.0055  0.7069
 3805SOL     OW23047   3.606   4.155  11.051  0.1284 -0.2120 -0.3170
 3805SOL    HW123048   3.608   4.126  11.142  1.3571 -1.2428 -0.6909
 3805SOL    HW223049   3.649   4.088  11.000  0.8375  0.0767 -0.1007
 3806SOL     OW23050   3.130   0.521   4.031 -0.2451  0.2399 -0.2837
 3806SOL    HW123051   3.145   0.573   4.110  0.2607  0.2025 -0.3535
 3806SOL    HW223052   3.199   0.455   4.041 -0.6341 -0.4152 -2.0133
 3807SOL     OW23053   4.673   2.498   2.733  0.7112 -0.5695 -0.3612
 3807SOL    HW123054   0.010   2.435   2.756  1.1729 -0.7912 -2.3438
 3807SOL    HW223055   4.640   2.467   2.649 -0.3250  0.8037 -0.4534
 3808SOL     OW23056   3.008   4.646   3.543 -0.3758 -0.2819  0.0226
 3808SOL    HW123057   3.065   4.722   3.532 -1.7134  0.5305 -1.3401
 3808SOL    HW223058   2.940   4.676   3.603 -0.0498 -2.2297  1.3772
 3809SOL     OW23059   3.321   1.060   8.965  0.1475  0.0387  0.6023
 3809SOL    HW123060   3.305   0.973   9.003 -1.5279 -0.3793 -1.0526
 3809SOL    HW223061   3.242   1.102   8.997  0.8015  1.2907  0.5762
 3810SOL     OW23062   1.045   0.708  12.722 -0.0365  0.0863 -0.2211
 3810SOL    HW123063   0.969   0.752  12.759 -0.3902  0.4869 -1.4249
 3810SOL    HW223064   1.064   0.748  12.637 -0.1177 -2.2640 -1.3602
 3811SOL     OW23065   4.707   0.524   6.962  0.6300 -0.0842  0.2147
 3811SOL    HW123066   0.040   0.580   7.004 -1.9424  1.5141  2.0293
 3811SOL    HW223067   4.638   0.586   6.939 -1.4010 -2.2025  0.5838
 3812SOL     OW23068   4.515   2.312   3.033 -0.4013 -0.1996 -0.2810
 3812SOL    HW123069   4.513   2.277   2.944 -0.3577 -0.0164 -0.3534
 3812SOL    HW223070   4.488   2.402   3.013  0.4062 -0.4285 -2.3922
 3813SOL     OW23071   1.310   3.539   7.134  0.1797 -0.0478 -0.2168
 3813SOL    HW123072   1.317   3.458   7.184  0.6213  0.3963  0.4414
 3813SOL    HW223073   1.357   3.520   7.053  3.7002  2.1955  1.3141
 3814SOL     OW23074   3.369   3.454   3.767 -0.0096 -0.1303  0.3780
 3814SOL    HW123075   3.389   3.523   3.830 -0.9440  0.6435 -0.1655
 3814SOL    HW223076   3.273   3.457   3.764  0.0858  2.4305 -1.1981
 3815SOL     OW23077   2.598   4.352  15.797  0.3393 -0.1781 -0.0336
 3815SOL    HW123078   2.602   4.447  15.811  1.8639 -0.2509 -0.0267
 3815SOL    HW223079   2.533   4.348  15.727  1.0830 -0.8359 -0.6770
 3816SOL     OW23080   4.308   3.629  16.223 -0.5037 -0.0906  0.1989
 3816SOL    HW123081   4.271   3.569  16.288 -0.2083 -1.4438 -0.8735
 3816SOL    HW223082   4.387   3.582  16.198  0.4818  0.7174  1.7892
 3817SOL     OW23083   1.122   0.918   0.696  0.6042 -0.1408  0.4474
 3817SOL    HW123084   1.210   0.918   0.734  0.7200  1.7956  0.2068
 3817SOL    HW223085   1.141   0.875   0.613  0.6666  1.5807 -0.4212
 3818SOL     OW23086   0.486   2.727   9.494 -0.4655  0.0753  0.1852
 3818SOL    HW123087   0.441   2.791   9.550  0.0587  0.9217 -0.3566
 3818SOL    HW223088   0.485   2.655   9.557 -0.6485 -0.6770 -0.6765
 3819SOL     OW23089   3.009   1.497   8.094  0.0263 -0.3353  0.3522
 3819SOL    HW123090   2.936   1.449   8.054 -0.4104 -0.1395  0.9177
 3819SOL    HW223091   3.082   1.472   8.037  0.8501 -1.1194  1.7549
 3820SOL     OW23092   0.929   3.504  13.640 -0.3002  0.3389 -0.0754
 3820SOL    HW123093   0.917   3.410  13.647  0.6235  0.2710  0.5710
 3820SOL    HW223094   0.978   3.505  13.558 -1.2181 -1.5397 -0.6399
 3821SOL     OW23095   2.785   0.518  14.479 -0.3990  0.1735  0.2681
 3821SOL    HW123096   2.758   0.468  14.556 -1.4388 -2.7186 -1.9273
 3821SOL    HW223097   2.724   0.591  14.481 -0.0803  0.4666 -0.5962
 3822SOL     OW23098   2.036   1.361   8.235  0.6687  0.0116 -0.7136
 3822SOL    HW123099   1.959   1.382   8.182  0.4863  0.7728 -0.1529
 3822SOL    HW223100   2.053   1.269   8.217  0.0053 -0.0044 -1.2296
 3823SOL     OW23101   2.152   2.676   2.177  0.2128 -0.1481 -0.1749
 3823SOL    HW123102   2.163   2.727   2.097  0.2656 -1.9590 -1.3256
 3823SOL    HW223103   2.236   2.634   2.194  0.8487  0.7863 -0.9799
 3824SOL     OW23104   1.426   3.168   8.122 -0.2761  0.3458 -0.1449
 3824SOL    HW123105   1.517   3.162   8.148 -0.3714  1.2733  0.4037
 3824SOL    HW223106   1.389   3.153   8.209  1.3667  0.2994  0.5446
 3825SOL     OW23107   2.936   2.285  13.567  0.0550 -0.3752  0.5275
 3825SOL    HW123108   2.980   2.370  13.572 -0.4361 -0.0104 -1.3420
 3825SOL    HW223109   3.005   2.236  13.524  0.1763  1.9919 -1.9924
 3826SOL     OW23110   4.349   0.790   8.201 -0.5136 -0.1896 -0.1344
 3826SOL    HW123111   4.283   0.771   8.134  0.5147  1.1194 -1.5255
 3826SOL    HW223112   4.427   0.754   8.159 -0.5445 -0.1455 -0.2303
 3827SOL     OW23113   1.098   3.611  16.045  0.0529 -0.1270 -0.1955
 3827SOL    HW123114   1.162   3.649  15.986 -1.2378  0.5923 -1.1213
 3827SOL    HW223115   1.096   3.666  16.123  0.5810 -0.5793  0.1417
 3828SOL     OW23116   2.595   1.906   4.544  0.4485  0.4084 -0.5697
 3828SOL    HW123117   2.624   1.985   4.590 -0.1275  0.8018 -0.8861
 3828SOL    HW223118   2.607   1.930   4.453 -0.0842  0.7796 -0.5390
 3829SOL     OW23119   2.854   3.974   3.567  0.2721 -0.4124  0.1721
 3829SOL    HW123120   2.909   4.006   3.639 -1.1371 -0.8141  1.4262
 3829SOL    HW223121   2.766   4.002   3.591 -1.0368 -3.4409 -1.1867
 3830SOL     OW23122   3.186   0.360  11.056 -0.3796 -0.6083 -0.0143
 3830SOL    HW123123   3.192   0.452  11.030  1.3472 -0.8721 -0.5515
 3830SOL    HW223124   3.097   0.337  11.031 -0.6491  1.3834 -0.9347
 3831SOL     OW23125   0.813   3.988  16.975  0.2027  0.0303 -0.2845
 3831SOL    HW123126   0.884   4.035  17.019 -0.7748  2.2808 -1.0892
 3831SOL    HW223127   0.834   3.974  16.883 -0.0491 -0.5596 -0.2558
 3832SOL     OW23128   3.645   3.827   3.327  0.1410  0.1353 -0.0131
 3832SOL    HW123129   3.565   3.834   3.274  0.9301  1.2066 -1.0602
 3832SOL    HW223130   3.603   3.814   3.412 -0.2570 -0.4924 -0.3090
 3833SOL     OW23131   1.249   0.046  17.672  0.5349 -0.6824  0.2003
 3833SOL    HW123132   1.297   0.045   0.027  2.2373 -1.7600 -0.8204
 3833SOL    HW223133   1.306   0.106  17.624 -1.2926  0.9331  0.0613
 3834SOL     OW23134   1.166   3.571  17.646  0.4646 -0.1131  0.1555
 3834SOL    HW123135   1.242   3.563  17.589  0.2502 -0.5955 -0.0635
 3834SOL    HW223136   1.153   3.664  17.662  0.9622  0.0261 -0.2590
 3835SOL     OW23137   4.023   2.508   5.661 -0.2186  0.0658  0.1218
 3835SOL    HW123138   3.968   2.453   5.717 -0.6438 -0.4711 -0.8205
 3835SOL    HW223139   3.985   2.593   5.639  0.2666 -0.2592 -1.9751
 3836SOL     OW23140   1.843   3.422   4.435  0.0871 -0.0335  0.4648
 3836SOL    HW123141   1.806   3.334   4.423  1.7728 -1.0279  2.4774
 3836SOL    HW223142   1.767   3.468   4.468 -0.0075 -0.2317  0.5216
 3837SOL     OW23143   3.230   4.187   7.841 -0.7258  0.6822  0.8962
 3837SOL    HW123144   3.150   4.135   7.843 -0.3585  0.0950  0.4495
 3837SOL    HW223145   3.224   4.205   7.935 -3.0625  1.1613  0.6558
 3838SOL     OW23146   4.521   0.694   6.874 -0.0532 -0.2972 -0.2096
 3838SOL    HW123147   4.483   0.781   6.884 -0.7043 -0.5663 -0.3365
 3838SOL    HW223148   4.551   0.690   6.783 -0.6706  1.4171 -0.4788
 3839SOL     OW23149   2.546   0.206   0.458 -0.9137 -0.3058 -0.3561
 3839SOL    HW123150   2.509   0.293   0.447  2.0358  0.7980 -1.4745
 3839SOL    HW223151   2.556   0.184   0.365  1.8609  0.2550 -0.1775
 3840SOL     OW23152   2.770   1.568   3.177  0.4259  0.1933 -0.2087
 3840SOL    HW123153   2.798   1.529   3.094  0.6212  0.3279 -0.2053
 3840SOL    HW223154   2.835   1.538   3.240  1.1562 -0.5617 -1.3178
 3841SOL     OW23155   1.726   3.027   2.849 -0.3618 -0.3093 -1.0097
 3841SOL    HW123156   1.763   2.959   2.905  1.7817  0.9358 -0.9335
 3841SOL    HW223157   1.651   2.976   2.819 -0.4911 -0.5227 -0.3189
 3842SOL     OW23158   4.321   2.200  16.869  0.0094 -0.6076  0.4126
 3842SOL    HW123159   4.236   2.156  16.867 -1.0224  1.4219 -0.0401
 3842SOL    HW223160   4.383   2.133  16.839  0.1697 -1.5728  2.9462
 3843SOL     OW23161   2.038   3.552   4.338  0.4189 -0.1553 -0.0623
 3843SOL    HW123162   1.960   3.499   4.352  1.1185 -1.1424  0.1711
 3843SOL    HW223163   1.999   3.639   4.342  2.6654  0.9297 -1.7723
 3844SOL     OW23164   1.489   2.555   7.817  0.3159  0.2255  0.0553
 3844SOL    HW123165   1.474   2.462   7.798 -0.1708  1.0332 -3.5984
 3844SOL    HW223166   1.407   2.578   7.860  0.5397  2.5594 -0.7707
 3845SOL     OW23167   3.312   0.282   2.092  0.1864  0.0891 -0.4266
 3845SOL    HW123168   3.270   0.368   2.089  0.8390  0.4569  1.0328
 3845SOL    HW223169   3.340   0.293   2.183  1.8185  1.2683 -1.0663
 3846SOL     OW23170   0.441   0.984  16.172  0.9501 -0.1436 -0.6980
 3846SOL    HW123171   0.476   0.969  16.260  0.5442  2.4469 -0.0754
 3846SOL    HW223172   0.354   1.022  16.184  0.5470 -1.7076  1.3373
 3847SOL     OW23173   2.625   4.112   3.761  0.6745 -0.5045 -0.0121
 3847SOL    HW123174   2.627   4.206   3.743 -0.5019 -0.7443 -1.3922
 3847SOL    HW223175   2.558   4.088   3.696  1.6548  0.8402 -1.5031
 3848SOL     OW23176   1.558   0.045  10.248  0.4040  0.0884  0.1652
 3848SOL    HW123177   1.507   0.041  10.329  0.4534  1.6251  0.2808
 3848SOL    HW223178   1.644   0.010  10.269  0.0335 -0.3793  0.9068
 3849SOL     OW23179   3.886   4.101   4.450 -0.7651 -1.0983  0.1395
 3849SOL    HW123180   3.884   4.182   4.399 -3.1427 -1.2809 -0.0405
 3849SOL    HW223181   3.955   4.060   4.398 -2.0330 -2.1725 -0.6738
 3850SOL     OW23182   2.289   1.291   9.341 -0.9027  0.5109 -0.0068
 3850SOL    HW123183   2.219   1.313   9.279 -1.0200 -1.7863 -0.6943
 3850SOL    HW223184   2.283   1.197   9.361 -1.9279  0.7293  0.6763
 3851SOL     OW23185   0.492   3.869  14.430 -0.0530 -0.5775  0.0801
 3851SOL    HW123186   0.564   3.806  14.439 -0.0833 -1.0421 -3.1218
 3851SOL    HW223187   0.514   3.907  14.345  1.3536 -0.3459  0.5304
 3852SOL     OW23188   0.437   1.320  16.414 -0.2058  0.3257  0.4203
 3852SOL    HW123189   0.377   1.307  16.487 -2.5560  0.7778 -1.4519
 3852SOL    HW223190   0.509   1.353  16.467  0.5665  0.1273 -0.4980
 3853SOL     OW23191   1.818   2.138  13.809 -0.4334 -0.1277  0.0706
 3853SOL    HW123192   1.910   2.159  13.791 -0.6433  1.0858  0.4131
 3853SOL    HW223193   1.797   2.078  13.737 -0.0848 -0.1052 -0.0525
 3854SOL     OW23194   0.621   2.093   0.434  0.3471 -0.6337  0.4832
 3854SOL    HW123195   0.680   2.127   0.502 -2.1132 -1.4824  3.0798
 3854SOL    HW223196   0.665   2.012   0.410  2.0174  0.5740 -0.4845
 3855SOL     OW23197   1.343   4.245   4.923 -0.4892 -0.1117  0.3395
 3855SOL    HW123198   1.408   4.256   4.993 -0.7922 -0.8663  0.7413
 3855SOL    HW223199   1.381   4.298   4.854 -1.0726 -3.8772 -2.8516
 3856SOL     OW23200   4.126   2.463  17.399 -0.5110  0.1094 -0.2910
 3856SOL    HW123201   4.134   2.559  17.396  0.4899 -0.0026 -1.0764
 3856SOL    HW223202   4.032   2.451  17.415  0.0478 -3.1172  0.4806
 3857SOL     OW23203   3.428   4.460  16.009  0.5857 -0.2074  0.6334
 3857SOL    HW123204   3.408   4.515  15.933 -0.3813 -0.8436  0.4329
 3857SOL    HW223205   3.493   4.521  16.044 -0.9905  1.0160  1.4304
 3858SOL     OW23206   1.266   1.178   1.739  0.7916  0.3981 -0.5735
 3858SOL    HW123207   1.344   1.226   1.763  0.8175 -0.5913  1.3431
 3858SOL    HW223208   1.225   1.235   1.674  0.9565  0.1741 -0.8790
 3859SOL     OW23209   0.957   2.855   3.925 -1.1515  0.2673  0.1390
 3859SOL    HW123210   0.950   2.764   3.955 -1.4239 -0.3139 -1.7385
 3859SOL    HW223211   0.941   2.837   3.833  2.0194  1.1304 -0.5748
 3860SOL     OW23212   2.185   2.323   6.968 -0.4376  0.4624  0.5839
 3860SOL    HW123213   2.129   2.397   6.994 -0.9660  0.0046  0.7572
 3860SOL    HW223214   2.264   2.339   7.020 -0.3587 -0.2126  0.6643
 3861SOL     OW23215   0.361   2.327   2.007  0.2283 -0.5877 -0.0719
 3861SOL    HW123216   0.373   2.233   1.994 -1.5249 -0.6900 -0.8744
 3861SOL    HW223217   0.321   2.359   1.927  1.3585 -0.4808 -0.5964
 3862SOL     OW23218   3.841   3.778   4.412  0.1593 -0.0677  0.7498
 3862SOL    HW123219   3.820   3.828   4.491  0.4345  2.2115 -0.6251
 3862SOL    HW223220   3.927   3.740   4.431  0.3145 -0.6598 -1.1390
 3863SOL     OW23221   1.770   4.516   7.007 -0.3297  0.0490  0.6634
 3863SOL    HW123222   1.793   4.543   7.096  0.0689  3.4069 -0.4590
 3863SOL    HW223223   1.690   4.463   7.010  0.3173 -1.0405 -0.8626
 3864SOL     OW23224   0.602   1.388   5.656 -0.5714 -0.0206  0.3413
 3864SOL    HW123225   0.602   1.307   5.606 -0.1858  0.8317 -1.0379
 3864SOL    HW223226   0.544   1.378   5.731  0.5570  1.7617  1.4603
 3865SOL     OW23227   3.067   2.889  17.346  0.2827  0.0484 -0.2740
 3865SOL    HW123228   3.095   2.913  17.435 -1.2674 -0.9436  0.4750
 3865SOL    HW223229   3.134   2.822  17.333 -1.4766 -2.0697  1.5462
 3866SOL     OW23230   3.034   0.618  10.991 -0.1436  0.1770  0.7250
 3866SOL    HW123231   2.984   0.570  11.057 -0.0237 -0.3510  0.4332
 3866SOL    HW223232   2.994   0.704  10.999 -0.7099  0.1131 -1.3727
 3867SOL     OW23233   4.496   4.316  13.166  0.3892 -0.4784 -0.0228
 3867SOL    HW123234   4.438   4.261  13.218 -1.5433  1.9940  0.4827
 3867SOL    HW223235   4.430   4.385  13.154 -1.4677 -2.5763 -2.0562
 3868SOL     OW23236   3.974   0.530   6.676  0.0959  0.2740  0.1756
 3868SOL    HW123237   3.958   0.435   6.672  1.1872  0.1742 -2.1080
 3868SOL    HW223238   3.906   0.556   6.738 -0.7605  1.9920 -1.4718
 3869SOL     OW23239   4.571   1.866   6.971  0.8718 -0.1821  0.1004
 3869SOL    HW123240   4.615   1.946   6.997  0.9867 -0.1654 -0.1511
 3869SOL    HW223241   4.644   1.805   6.970 -0.8854 -2.2884 -0.9697
 3870SOL     OW23242   0.319   4.345   9.917 -0.4803 -0.0101 -0.2007
 3870SOL    HW123243   0.291   4.366  10.006 -3.1838 -0.3276 -0.9540
 3870SOL    HW223244   0.239   4.374   9.872  2.2450  2.2472 -3.5539
 3871SOL     OW23245   3.961   3.647   9.960  0.1302 -0.3153  0.1125
 3871SOL    HW123246   3.905   3.650   9.882 -0.6698 -2.6988  0.6157
 3871SOL    HW223247   4.043   3.613   9.922 -0.6030 -0.5023 -1.3134
 3872SOL     OW23248   1.087   2.238   4.846 -0.1816  0.1698 -0.2591
 3872SOL    HW123249   1.009   2.209   4.893  0.0796 -0.0361  0.0420
 3872SOL    HW223250   1.063   2.239   4.753 -3.0073  0.7207  0.4733
 3873SOL     OW23251   4.513   3.890  12.157  0.4804  0.1995 -0.2684
 3873SOL    HW123252   4.565   3.856  12.230  0.7441 -0.4002 -0.7329
 3873SOL    HW223253   4.429   3.844  12.161 -0.9699  2.8495 -0.3503
 3874SOL     OW23254   3.271   1.680   6.058 -0.3145 -0.2728 -0.1663
 3874SOL    HW123255   3.177   1.660   6.050 -0.1119 -1.7543  1.0585
 3874SOL    HW223256   3.298   1.670   6.149 -0.0549 -0.3757 -0.2559
 3875SOL     OW23257   2.693   0.559   0.212  0.0038 -0.0756 -0.3421
 3875SOL    HW123258   2.677   0.493   0.144  2.5075 -1.3535  0.3166
 3875SOL    HW223259   2.772   0.528   0.257  0.7499  1.8824 -0.3212
 3876SOL     OW23260   3.090   3.434   3.753 -0.2183  0.2982 -0.5335
 3876SOL    HW123261   3.081   3.521   3.715 -1.1539  1.0834  1.5071
 3876SOL    HW223262   3.051   3.369   3.694  0.4086 -0.1990 -0.4026
 3877SOL     OW23263   3.649   3.542  16.814  0.1527  0.8123 -0.4920
 3877SOL    HW123264   3.646   3.573  16.905  1.1938 -1.6902  0.4077
 3877SOL    HW223265   3.739   3.566  16.792  0.5015  0.3963  0.4317
 3878SOL     OW23266   2.530   1.675   4.698  0.0421  0.1050  0.4531
 3878SOL    HW123267   2.559   1.758   4.660  2.0446  0.2704  2.3357
 3878SOL    HW223268   2.453   1.665   4.641  0.9711 -0.5302 -0.6988
 3879SOL     OW23269   0.071   2.170   4.801  0.6135 -0.5635  0.6570
 3879SOL    HW123270   0.019   2.231   4.748 -0.0779 -1.2291  0.5685
 3879SOL    HW223271   0.027   2.087   4.787 -2.1982  1.3800 -1.9205
 3880SOL     OW23272   3.228   0.860  14.309 -0.6843  0.3144 -0.5264
 3880SOL    HW123273   3.298   0.801  14.336 -3.2649 -2.0398  0.9546
 3880SOL    HW223274   3.272   0.908  14.239  1.0590 -0.7291 -0.1359
 3881SOL     OW23275   3.648   0.776   5.124 -0.0822 -0.2449  0.1196
 3881SOL    HW123276   3.560   0.796   5.094 -0.9993 -0.2594  2.7969
 3881SOL    HW223277   3.640   0.791   5.218  1.9904 -3.7168  0.8296
 3882SOL     OW23278   0.110   2.047   3.339  0.3891  0.3409  0.3255
 3882SOL    HW123279   0.069   2.126   3.373  0.0906 -0.9092  2.9108
 3882SOL    HW223280   0.074   1.999   3.414  1.3817 -1.7927 -0.5538
 3883SOL     OW23281   0.992   2.843  14.865  0.1993  0.4502 -0.2177
 3883SOL    HW123282   1.077   2.885  14.879 -0.3803  1.9996 -1.3999
 3883SOL    HW223283   1.020   2.756  14.834  1.3676  1.0939 -0.9710
 3884SOL     OW23284   3.415   0.181   9.373 -0.2629  0.4677 -0.1694
 3884SOL    HW123285   3.484   0.126   9.335 -0.6240  2.0095 -3.0791
 3884SOL    HW223286   3.367   0.205   9.294 -1.0544 -0.6351 -0.0155
 3885SOL     OW23287   2.779   3.236  16.739  0.0292  0.2745  0.4439
 3885SOL    HW123288   2.817   3.288  16.668 -2.0718  1.3214  0.0877
 3885SOL    HW223289   2.868   3.216  16.767  0.0996 -2.7283 -1.9170
 3886SOL     OW23290   0.261   4.308   5.417 -0.2512 -0.3536  0.0367
 3886SOL    HW123291   0.279   4.398   5.446  2.0174 -0.6362 -0.5204
 3886SOL    HW223292   0.268   4.316   5.322 -0.1221  2.1851  0.2512
 3887SOL     OW23293   0.218   4.106   8.675  0.4161 -0.4820 -0.5273
 3887SOL    HW123294   0.153   4.176   8.680  1.4788  0.4236  0.6918
 3887SOL    HW223295   0.282   4.143   8.614 -1.3710 -0.6865 -2.4811
 3888SOL     OW23296   3.542   1.815  14.834  0.3837 -0.2805 -0.0277
 3888SOL    HW123297   3.615   1.774  14.787  0.8430 -2.5857  2.6750
 3888SOL    HW223298   3.571   1.906  14.837  1.8995 -0.7702  0.7044
 3889SOL     OW23299   0.536   0.828  14.633 -0.4887 -0.2970 -0.1806
 3889SOL    HW123300   0.620   0.865  14.603 -1.6356  1.6994 -0.9437
 3889SOL    HW223301   0.546   0.776  14.713 -0.5329  0.7511  0.5148
 3890SOL     OW23302   2.668   0.881   6.274  0.1589  0.9471 -0.3227
 3890SOL    HW123303   2.603   0.812   6.256  1.8559 -0.7423  0.0397
 3890SOL    HW223304   2.643   0.955   6.218  1.4520  2.1829  0.7260
 3891SOL     OW23305   0.248   0.279  15.355  0.2751  0.0435 -0.4053
 3891SOL    HW123306   0.303   0.349  15.390  2.0247 -0.5363 -1.9838
 3891SOL    HW223307   0.299   0.245  15.281 -1.5087 -0.9300 -1.1743
 3892SOL     OW23308   1.018   0.311   6.213 -0.5620  0.3764 -0.0420
 3892SOL    HW123309   1.094   0.362   6.186 -1.1068  1.4682  0.4701
 3892SOL    HW223310   0.987   0.278   6.129 -1.3251  4.2734 -1.2871
 3893SOL     OW23311   0.699   3.698   5.748  0.2180 -0.7310  0.2150
 3893SOL    HW123312   0.643   3.775   5.736 -0.1888 -0.9949  0.4084
 3893SOL    HW223313   0.639   3.628   5.723 -0.1398 -0.9361  1.6147
 3894SOL     OW23314   3.645   2.074   7.712 -0.1052  0.4941  0.3081
 3894SOL    HW123315   3.697   2.007   7.758  1.5809 -0.4615 -3.0137
 3894SOL    HW223316   3.581   2.091   7.782 -0.9598 -0.4321 -0.2627
 3895SOL     OW23317   3.534   3.636   5.809 -0.3311  0.1755  0.0598
 3895SOL    HW123318   3.462   3.682   5.851 -1.0544 -0.9541  0.0720
 3895SOL    HW223319   3.498   3.568   5.751 -0.4717 -1.0583  1.5924
 3896SOL     OW23320   0.239   2.718   3.110 -0.5112  0.2550 -0.0013
 3896SOL    HW123321   0.220   2.800   3.155 -2.3927  0.2424 -0.8063
 3896SOL    HW223322   0.200   2.728   3.024 -0.5908  0.1520  0.0235
 3897SOL     OW23323   2.659   2.102   4.803 -0.9186 -0.1869  0.4019
 3897SOL    HW123324   2.659   2.042   4.877 -2.6769 -1.4391 -0.5949
 3897SOL    HW223325   2.740   2.152   4.814 -0.6711 -0.3178 -0.8236
 3898SOL     OW23326   4.375   3.080   7.730 -0.4722 -0.0891 -0.1233
 3898SOL    HW123327   4.453   3.064   7.783  0.2994  1.3801 -0.8164
 3898SOL    HW223328   4.420   3.091   7.647 -0.2522 -1.7850 -0.2194
 3899SOL     OW23329   0.074   0.939   6.320  0.0389 -0.5060  0.1151
 3899SOL    HW123330   0.008   0.964   6.256  0.1443 -2.7784 -0.8589
 3899SOL    HW223331   0.142   0.925   6.254 -1.2550 -0.4223 -1.2057
 3900SOL     OW23332   1.200   3.348   3.282  0.0638 -0.2054  0.0324
 3900SOL    HW123333   1.284   3.385   3.310  1.6604 -1.4311 -3.1414
 3900SOL    HW223334   1.190   3.272   3.339 -0.2976 -1.5254 -1.7862
 3901SOL     OW23335   2.603   3.725  12.787  0.1477  0.1929 -0.2139
 3901SOL    HW123336   2.565   3.700  12.871 -2.9156 -0.0749 -1.6751
 3901SOL    HW223337   2.528   3.760  12.739 -0.4534 -1.4712 -0.4950
 3902SOL     OW23338   0.065   3.444   9.708  0.0898  0.3404  0.2504
 3902SOL    HW123339   0.009   3.367   9.703  0.9777 -0.4110  2.0178
 3902SOL    HW223340   0.024   3.508   9.766 -1.3804 -1.3419  1.0562
 3903SOL     OW23341   2.357   3.811  14.877  0.1527 -0.0495 -0.2087
 3903SOL    HW123342   2.371   3.840  14.787  0.3178  1.7065  0.3911
 3903SOL    HW223343   2.404   3.880  14.923 -0.3589  0.3708 -0.3144
 3904SOL     OW23344   1.401   3.869   0.696  0.1559  0.7552 -0.0179
 3904SOL    HW123345   1.396   3.930   0.623 -0.2210  0.1941 -0.4643
 3904SOL    HW223346   1.490   3.890   0.725  0.6173 -1.6418  0.3247
 3905SOL     OW23347   2.710   3.445   5.765  0.2731 -0.3852  0.0103
 3905SOL    HW123348   2.644   3.446   5.695 -1.1853 -1.0398  1.3660
 3905SOL    HW223349   2.708   3.350   5.776  2.7990 -0.5092 -0.5804
 3906SOL     OW23350   0.519   1.967   7.590 -0.1546 -0.2776 -0.1888
 3906SOL    HW123351   0.609   1.950   7.561  0.0338 -1.1289  0.9248
 3906SOL    HW223352   0.500   2.040   7.531 -1.2415 -0.5619 -0.1845
 3907SOL     OW23353   4.597   2.854   8.734  0.3082 -0.0070  0.3319
 3907SOL    HW123354   4.653   2.922   8.771  0.9404  0.1373 -0.9059
 3907SOL    HW223355   4.616   2.865   8.641  0.4740  1.1101  0.5049
 3908SOL     OW23356   4.143   3.359   4.810  0.7686 -0.4101 -0.1793
 3908SOL    HW123357   4.230   3.323   4.793  0.6967  0.7483 -3.0213
 3908SOL    HW223358   4.171   3.424   4.874 -1.3698 -1.1130  1.4642
 3909SOL     OW23359   1.423   1.767   1.712  0.3019 -0.4015 -0.4002
 3909SOL    HW123360   1.509   1.808   1.712  0.8730 -1.5830 -3.6904
 3909SOL    HW223361   1.450   1.680   1.682  0.6086  0.1124 -1.6183
 3910SOL     OW23362   0.909   4.361   6.275 -0.0016 -0.0738 -0.0426
 3910SOL    HW123363   0.910   4.313   6.357  1.2267 -2.4101 -1.4175
 3910SOL    HW223364   0.904   4.450   6.308 -0.9970 -0.6340  1.3257
 3911SOL     OW23365   2.197   1.555   2.175  0.1788 -0.4446 -0.1853
 3911SOL    HW123366   2.111   1.595   2.188  0.6147 -0.0764  1.5773
 3911SOL    HW223367   2.252   1.630   2.157  0.8678 -1.1793 -1.1236
 3912SOL     OW23368   2.367   3.875   9.286 -0.0022 -0.0117  0.1008
 3912SOL    HW123369   2.338   3.805   9.344  2.5769  0.4260  1.8704
 3912SOL    HW223370   2.458   3.877   9.315 -0.0442  2.0199  0.1002
 3913SOL     OW23371   1.666   1.696   6.526 -0.1881  0.3135  0.5673
 3913SOL    HW123372   1.580   1.656   6.526 -0.8430  1.7084  1.4029
 3913SOL    HW223373   1.658   1.780   6.480 -0.0614  0.3064  0.5311
 3914SOL     OW23374   2.305   2.256   7.602 -0.2671  0.4490  0.1375
 3914SOL    HW123375   2.216   2.284   7.625 -0.7839 -1.9766  1.1302
 3914SOL    HW223376   2.301   2.260   7.506 -1.0213 -3.3914  0.0171
 3915SOL     OW23377   0.903   3.191   9.275 -0.2617 -0.1386 -0.3465
 3915SOL    HW123378   0.923   3.102   9.306  0.9827 -0.0252 -0.8282
 3915SOL    HW223379   0.816   3.183   9.236 -0.4327  1.1405 -0.2238
 3916SOL     OW23380   1.691   1.749   1.269  1.0426 -0.6634 -0.4148
 3916SOL    HW123381   1.782   1.729   1.292  0.6941 -1.0277  0.6649
 3916SOL    HW223382   1.688   1.844   1.272 -2.5798 -0.8176  0.9903
 3917SOL     OW23383   3.357   2.553  11.376 -0.3714 -0.1834 -0.3883
 3917SOL    HW123384   3.366   2.646  11.398  0.0604 -0.5710  1.1175
 3917SOL    HW223385   3.271   2.538  11.415  0.1195  0.4764  0.9706
 3918SOL     OW23386   2.835   2.610   5.438 -0.3628  0.4445 -0.8808
 3918SOL    HW123387   2.815   2.703   5.450 -2.1794 -0.1081  0.5150
 3918SOL    HW223388   2.777   2.572   5.504  2.0992  0.9358  1.5683
 3919SOL     OW23389   1.625   2.016   4.746  0.3711  0.1982 -0.2220
 3919SOL    HW123390   1.625   2.044   4.654  1.9715  0.6392 -0.0770
 3919SOL    HW223391   1.646   1.923   4.736  0.6201  0.0622  1.5789
 3920SOL     OW23392   4.053   4.623   6.863  0.1289 -0.2094  0.3004
 3920SOL    HW123393   4.147   4.611   6.860  0.1325 -0.0538 -0.3853
 3920SOL    HW223394   4.044   4.691   6.795 -0.3133  2.0829  2.6640
 3921SOL     OW23395   4.001   2.852  15.629 -0.2293  0.0032 -0.0101
 3921SOL    HW123396   4.062   2.913  15.671 -0.7177 -0.7063  1.7187
 3921SOL    HW223397   3.940   2.842  15.702  0.0102  1.7884  0.4267
 3922SOL     OW23398   3.387   0.633   0.567 -0.0130  0.1514  0.0333
 3922SOL    HW123399   3.325   0.563   0.589  1.2894 -0.9091  0.2999
 3922SOL    HW223400   3.329   0.709   0.572 -1.6127 -1.0370 -0.4991
 3923SOL     OW23401   3.878   0.773   8.395  0.4766  0.0028 -0.3190
 3923SOL    HW123402   3.882   0.762   8.490  1.3639 -0.1067 -0.3684
 3923SOL    HW223403   3.954   0.830   8.386  1.1069 -0.8289 -0.2236
 3924SOL     OW23404   3.225   0.198   7.069  0.6485  0.1308 -0.1092
 3924SOL    HW123405   3.233   0.252   7.148  0.9336  0.3883 -0.3133
 3924SOL    HW223406   3.217   0.115   7.116  0.4961 -0.5686 -1.3950
 3925SOL     OW23407   0.030   2.201   5.091 -0.2897  0.2058  0.2494
 3925SOL    HW123408   0.018   2.289   5.127 -1.6710 -0.3823  1.2572
 3925SOL    HW223409   0.070   2.211   5.005  0.2730 -1.9700  0.2508
 3926SOL     OW23410   2.528   2.308   4.469  0.1380  0.1764  0.2428
 3926SOL    HW123411   2.503   2.253   4.543 -0.0498  1.3383  1.0521
 3926SOL    HW223412   2.597   2.262   4.422  0.3857  0.1139  0.6685
 3927SOL     OW23413   0.785   3.384   7.459 -0.1121 -0.7021  0.6911
 3927SOL    HW123414   0.701   3.415   7.425 -1.2825 -1.1690  3.2149
 3927SOL    HW223415   0.821   3.467   7.490 -1.5806  0.9421 -1.9893
 3928SOL     OW23416   0.661   3.492   8.760  0.5086  0.1048 -0.0505
 3928SOL    HW123417   0.733   3.554   8.758 -0.7100  1.4827 -0.9273
 3928SOL    HW223418   0.585   3.550   8.755  0.3586 -0.1408 -0.6818
 3929SOL     OW23419   0.430   0.205   9.200 -0.3529 -0.0692  0.2677
 3929SOL    HW123420   0.451   0.140   9.267  0.1472  0.9890  1.1265
 3929SOL    HW223421   0.342   0.169   9.187  0.9260 -2.4427 -1.8475
 3930SOL     OW23422   0.490   3.875  11.839  0.4474  0.0086 -0.0445
 3930SOL    HW123423   0.457   3.797  11.882  2.0591 -0.4500  0.3545
 3930SOL    HW223424   0.585   3.864  11.843  0.5213  0.4993 -0.3900
 3931SOL     OW23425   0.578   2.475   2.612  0.0638 -0.7833 -0.4542
 3931SOL    HW123426   0.541   2.423   2.684  1.4452 -1.5626 -0.3093
 3931SOL    HW223427   0.647   2.417   2.581  1.5031  1.8377 -2.0823
 3932SOL     OW23428   1.140   4.059  11.742  0.4203  0.2878 -0.3075
 3932SOL    HW123429   1.138   4.154  11.732 -2.9421 -0.0079 -2.2967
 3932SOL    HW223430   1.210   4.044  11.679 -0.1305  0.9554 -1.0807
 3933SOL     OW23431   2.437   4.141   1.781  0.2644 -0.0995 -0.3510
 3933SOL    HW123432   2.362   4.189   1.745 -0.2206 -0.5474  0.0796
 3933SOL    HW223433   2.407   4.090   1.856  2.0953 -0.7366 -0.0410
 3934SOL     OW23434   2.405   2.853  17.486  0.6296 -0.4895  0.2375
 3934SOL    HW123435   2.367   2.845  17.574  0.0015  2.0546  0.2006
 3934SOL    HW223436   2.354   2.930  17.460  1.5022 -0.0383 -0.1378
 3935SOL     OW23437   2.595   3.073  16.948 -0.1650 -0.1235 -0.3120
 3935SOL    HW123438   2.534   3.055  17.019 -0.5494 -2.5116 -1.2421
 3935SOL    HW223439   2.657   3.001  16.941 -0.9853 -0.4812 -4.0292
 3936SOL     OW23440   1.505   1.526   8.742 -0.0908  0.1269 -0.1573
 3936SOL    HW123441   1.566   1.572   8.685 -0.3693 -0.5089 -0.9738
 3936SOL    HW223442   1.420   1.569   8.728 -1.6682 -3.3478 -1.2206
 3937SOL     OW23443   0.016   2.298  15.928 -0.0578  0.1069  0.5065
 3937SOL    HW123444   0.059   2.383  15.925  0.4583 -0.1649  0.2859
 3937SOL    HW223445   4.661   2.337  15.920  0.1111  0.0771 -1.5355
 3938SOL     OW23446   2.094   3.159   3.128  0.2429  0.7303  0.3810
 3938SOL    HW123447   2.132   3.242   3.156  0.6986  0.4318  0.6413
 3938SOL    HW223448   1.999   3.175   3.122 -0.2422 -1.5900  1.7198
 3939SOL     OW23449   4.296   1.744  15.144 -0.0998 -0.8887  0.2000
 3939SOL    HW123450   4.214   1.759  15.097  0.4948 -0.6225 -0.7431
 3939SOL    HW223451   4.296   1.649  15.155  0.9329 -1.0239 -0.9788
 3940SOL     OW23452   3.511   1.359   7.836  0.1136 -0.1621 -0.1045
 3940SOL    HW123453   3.422   1.356   7.871  0.1536  0.5072  0.0744
 3940SOL    HW223454   3.558   1.296   7.890 -0.8836 -0.8202 -0.0122
 3941SOL     OW23455   4.104   1.553  10.946 -0.6768 -0.3651  0.0015
 3941SOL    HW123456   4.152   1.513  10.874 -1.1324 -1.2757  0.1981
 3941SOL    HW223457   4.155   1.634  10.953  0.4320 -1.1647  1.1706
 3942SOL     OW23458   4.407   3.889   3.150  0.4523 -0.0375 -0.4622
 3942SOL    HW123459   4.471   3.824   3.178  2.0561  0.8559 -2.1141
 3942SOL    HW223460   4.328   3.850   3.188  1.5839 -0.4279  1.4836
 3943SOL     OW23461   0.314   0.023   5.147  0.4408 -0.3606 -0.2776
 3943SOL    HW123462   0.378   0.082   5.186  0.5962 -1.3961  1.0254
 3943SOL    HW223463   0.367   4.713   5.079  0.7429 -2.2496  1.1339
 3944SOL     OW23464   3.024   0.203   7.427 -0.1096  0.1124  0.1283
 3944SOL    HW123465   3.054   0.132   7.485  1.3489  0.8451  0.2585
 3944SOL    HW223466   2.946   0.161   7.391  0.2081  0.1781 -0.6467
 3945SOL     OW23467   1.959   1.588   6.130  0.7533 -0.1330  0.3195
 3945SOL    HW123468   1.956   1.681   6.149 -1.0646 -0.3308  0.9905
 3945SOL    HW223469   1.901   1.562   6.202 -1.1185  0.6852 -0.8915
 3946SOL     OW23470   4.676   3.964  16.853 -0.0453 -0.1746 -0.5560
 3946SOL    HW123471   4.691   4.041  16.798  0.7235 -0.2310 -0.4153
 3946SOL    HW223472   0.022   3.971  16.907 -0.7078 -0.0925  0.3908
 3947SOL     OW23473   2.713   2.767  11.786 -0.0728  0.2456 -0.0441
 3947SOL    HW123474   2.723   2.835  11.720 -1.0914 -0.5775 -1.0400
 3947SOL    HW223475   2.802   2.766  11.821  0.7681 -0.3614 -2.2158
 3948SOL     OW23476   4.537   1.615  12.602 -0.4071  0.0154  0.1653
 3948SOL    HW123477   4.471   1.547  12.591  0.6277 -0.8678 -0.6140
 3948SOL    HW223478   4.575   1.592  12.687  0.1726  1.3242  0.2669
 3949SOL     OW23479   0.713   2.194   6.394 -0.1749  0.4130 -0.1358
 3949SOL    HW123480   0.694   2.287   6.381  0.2875  0.7548  1.6104
 3949SOL    HW223481   0.785   2.196   6.457 -1.2592  2.7754  1.0639
 3950SOL     OW23482   4.008   2.850   7.093 -0.1619 -0.8060 -0.2734
 3950SOL    HW123483   4.031   2.943   7.085 -0.1039 -1.0025 -2.4231
 3950SOL    HW223484   4.027   2.822   7.003  0.0248 -3.5331  0.6220
 3951SOL     OW23485   3.719   1.752   3.594  0.5135 -0.2328  0.0536
 3951SOL    HW123486   3.683   1.762   3.682 -1.1423  1.0273 -0.7566
 3951SOL    HW223487   3.785   1.683   3.598  0.0813 -0.7382 -1.2325
 3952SOL     OW23488   4.405   3.341   2.129  0.0790  0.0530  0.4154
 3952SOL    HW123489   4.337   3.389   2.175  0.4191  2.0836 -1.2240
 3952SOL    HW223490   4.357   3.260   2.108 -0.2345 -0.5277  3.4719
 3953SOL     OW23491   0.517   0.718   8.757 -0.2735 -0.1507  0.1768
 3953SOL    HW123492   0.546   0.670   8.835 -1.2213  0.0058  0.6202
 3953SOL    HW223493   0.586   0.783   8.745  0.7706 -1.4371 -0.7422
 3954SOL     OW23494   1.710   4.722   1.819  0.4112 -0.2937  0.4449
 3954SOL    HW123495   1.739   4.723   1.728 -3.9304  2.7252 -0.9089
 3954SOL    HW223496   1.736   4.633   1.841  0.1907 -0.3575  0.4429
 3955SOL     OW23497   3.421   2.163   7.569 -0.9415 -0.1700  0.2295
 3955SOL    HW123498   3.427   2.150   7.474  0.8798  2.8115 -0.0539
 3955SOL    HW223499   3.511   2.150   7.598 -0.9807 -0.3318  0.2766
 3956SOL     OW23500   1.520   2.980  10.011  0.1478  0.9809  0.4159
 3956SOL    HW123501   1.472   2.923   9.952 -0.9697  1.7998  0.5321
 3956SOL    HW223502   1.575   2.906  10.038 -0.0462  0.8024  0.3188
 3957SOL     OW23503   4.499   3.640   1.319  0.7315 -0.1954  0.5361
 3957SOL    HW123504   4.546   3.722   1.307 -0.2254  0.3944  0.9063
 3957SOL    HW223505   4.528   3.584   1.246  0.4976  1.3493 -0.7448
 3958SOL     OW23506   4.223   0.374   6.444  0.0240  0.4643  0.5923
 3958SOL    HW123507   4.283   0.323   6.389 -2.6260 -1.9237 -0.1393
 3958SOL    HW223508   4.282   0.424   6.499  1.3576 -1.8946  1.2803
 3959SOL     OW23509   3.022   0.346   1.839  0.3576  0.3124  0.6214
 3959SOL    HW123510   3.059   0.264   1.870  1.1666  1.1280  1.8254
 3959SOL    HW223511   3.067   0.409   1.895  0.8593  0.6510 -0.1579
 3960SOL     OW23512   1.897   2.792   2.887 -0.0170  0.4577 -0.1518
 3960SOL    HW123513   1.972   2.849   2.870 -0.0694  0.3484 -0.7371
 3960SOL    HW223514   1.928   2.744   2.964 -0.8128 -0.0912 -0.1757
 3961SOL     OW23515   1.035   0.061   9.641  0.1048 -0.3355  0.1778
 3961SOL    HW123516   1.068   0.066   9.730  2.3144  2.2085 -0.7683
 3961SOL    HW223517   1.036   0.149   9.602  1.0937 -0.4659 -0.1025
 3962SOL     OW23518   0.621   4.492   5.643  0.4484  0.2177  0.0254
 3962SOL    HW123519   0.644   4.558   5.577 -0.0480 -0.6688 -1.0395
 3962SOL    HW223520   0.580   4.533   5.719 -0.2024  1.1547 -0.8303
 3963SOL     OW23521   0.725   1.675   3.314  0.0281 -0.1437  0.1688
 3963SOL    HW123522   0.744   1.606   3.250  2.1035 -1.7877  2.5704
 3963SOL    HW223523   0.815   1.699   3.334 -0.1769  0.6423  0.1192
 3964SOL     OW23524   3.567   4.673  16.123 -0.7234  0.4857 -0.7533
 3964SOL    HW123525   3.539   4.709  16.207 -0.3885  1.1514 -0.9262
 3964SOL    HW223526   3.626   0.010  16.093  0.2976  0.8428  2.0662
 3965SOL     OW23527   0.593   3.846   3.080 -0.0914 -0.2473 -0.1215
 3965SOL    HW123528   0.666   3.853   3.019 -0.1088  0.9913  0.0097
 3965SOL    HW223529   0.574   3.938   3.097 -2.8503 -1.0934  1.4757
 3966SOL     OW23530   2.545   3.598   2.880 -0.0142  0.1706  0.0839
 3966SOL    HW123531   2.609   3.539   2.841  0.8811 -0.7835  2.9900
 3966SOL    HW223532   2.504   3.633   2.801  1.1052  0.6681 -0.2656
 3967SOL     OW23533   1.039   4.259   9.672  0.0303 -0.1569  0.2775
 3967SOL    HW123534   0.972   4.255   9.739 -0.4560 -3.4384 -0.3901
 3967SOL    HW223535   1.056   4.166   9.654  0.4013 -0.3333  1.5357
 3968SOL     OW23536   4.543   3.526  16.151 -0.1445  0.4402 -0.2677
 3968SOL    HW123537   4.519   3.548  16.061 -0.3958 -1.7258 -0.7213
 3968SOL    HW223538   4.616   3.585  16.168 -0.2799  1.4758 -3.3253
 3969SOL     OW23539   3.970   2.966   7.937 -0.3864 -0.6333 -0.4108
 3969SOL    HW123540   3.989   2.872   7.930  3.0825  0.0765 -0.4387
 3969SOL    HW223541   3.899   2.971   7.873  0.1780  0.7812 -0.9253
 3970SOL     OW23542   3.428   2.513   1.992  0.4409 -0.0810 -0.0494
 3970SOL    HW123543   3.335   2.490   1.996  0.4037 -0.3587 -2.2929
 3970SOL    HW223544   3.423   2.590   1.936  1.6185 -0.2162 -0.3472
 3971SOL     OW23545   3.068   0.796   8.206 -0.5301  0.1536  0.0108
 3971SOL    HW123546   3.103   0.712   8.236 -0.8222  0.7917  2.1963
 3971SOL    HW223547   3.144   0.838   8.167 -1.6961  0.6090 -1.7638
 3972SOL     OW23548   2.165   1.169  10.489 -0.1319 -0.3115  0.9083
 3972SOL    HW123549   2.091   1.178  10.428  0.5936  0.2565  0.1079
 3972SOL    HW223550   2.131   1.179  10.578 -3.3221  1.0704 -0.4559
 3973SOL     OW23551   4.111   3.844  12.283  0.4852  0.1440  0.0060
 3973SOL    HW123552   4.143   3.868  12.370 -0.9775  2.9890 -0.2577
 3973SOL    HW223553   4.046   3.909  12.258 -2.1111 -2.7836 -0.8732
 3974SOL     OW23554   0.357   0.415   4.826 -0.2673 -0.0778 -0.1335
 3974SOL    HW123555   0.273   0.370   4.828 -1.8829  2.9187 -1.4139
 3974SOL    HW223556   0.344   0.471   4.903  0.6849 -2.8450  2.0368
 3975SOL     OW23557   2.056   3.309  11.491  1.0284  0.9412 -0.8799
 3975SOL    HW123558   1.987   3.259  11.450  2.1278 -1.5921  0.3704
 3975SOL    HW223559   2.043   3.390  11.441  3.7911  1.7957 -0.2516
 3976SOL     OW23560   0.566   2.452   3.741 -0.1566 -0.0536 -0.2749
 3976SOL    HW123561   0.531   2.542   3.738 -0.6008 -0.2400 -0.6564
 3976SOL    HW223562   0.488   2.402   3.763  0.3104  0.6287  2.8669
 3977SOL     OW23563   4.617   1.082   2.960 -0.2626  0.2257 -0.7311
 3977SOL    HW123564   4.671   1.039   3.026 -2.5538  0.1917  1.1338
 3977SOL    HW223565   4.686   1.119   2.905  1.1617 -1.3399  0.0200
 3978SOL     OW23566   0.029   1.099   7.329  0.1962 -0.1028  0.1119
 3978SOL    HW123567   0.025   1.092   7.234  0.4427  1.9311 -0.0446
 3978SOL    HW223568   0.059   1.189   7.345  0.8419 -0.2721 -0.1859
 3979SOL     OW23569   4.332   1.897   2.818 -0.0667  0.2323  0.2671
 3979SOL    HW123570   4.363   1.985   2.796  0.7638  0.3020  1.6922
 3979SOL    HW223571   4.403   1.843   2.783 -1.5028 -2.7881  2.0437
 3980SOL     OW23572   2.870   1.763  14.444  0.0390 -0.9140  0.0541
 3980SOL    HW123573   2.903   1.673  14.434 -3.1829 -2.1717  0.6880
 3980SOL    HW223574   2.949   1.806  14.409 -1.5451  1.3249 -0.7665
 3981SOL     OW23575   1.338   2.078   4.059  0.1802  0.3456 -0.2764
 3981SOL    HW123576   1.266   2.024   4.092  0.0414  1.4016  1.1645
 3981SOL    HW223577   1.313   2.072   3.967  1.3776 -2.2570 -0.4082
 3982SOL     OW23578   4.712   4.137  10.080  0.4559 -0.1409  0.2890
 3982SOL    HW123579   4.716   4.141   9.985 -0.0498 -2.0853  0.1935
 3982SOL    HW223580   0.008   4.051  10.110  0.4441 -0.8605 -1.8025
 3983SOL     OW23581   3.132   4.004   6.728 -0.5257  0.5329 -0.5067
 3983SOL    HW123582   3.115   4.098   6.736  0.8844  0.9542 -2.2214
 3983SOL    HW223583   3.224   3.997   6.700 -0.0474  1.8068  0.7366
 3984SOL     OW23584   0.306   2.515   5.534 -0.8630 -0.1094  0.1898
 3984SOL    HW123585   0.288   2.542   5.444  1.3671  2.0531  0.3919
 3984SOL    HW223586   0.355   2.593   5.559 -0.7544 -0.1040 -0.0398
 3985SOL     OW23587   2.298   3.399   9.260 -0.4347  0.0308  0.1500
 3985SOL    HW123588   2.297   3.345   9.180 -1.8037  1.4620 -0.8152
 3985SOL    HW223589   2.385   3.439   9.266 -0.2499 -0.3478  0.0064
 3986SOL     OW23590   1.402   1.898   5.353  0.3972  0.1724 -0.3764
 3986SOL    HW123591   1.472   1.948   5.311  0.0925  2.4619  1.8586
 3986SOL    HW223592   1.400   1.955   5.430 -1.0865 -1.1482  0.5544
 3987SOL     OW23593   2.455   4.225  16.667  0.3695 -0.3115  0.0873
 3987SOL    HW123594   2.487   4.313  16.685 -1.5747  0.6747 -1.3478
 3987SOL    HW223595   2.538   4.183  16.643  1.0814 -0.0286  2.0491
 3988SOL     OW23596   3.122   2.541  13.192 -0.6699 -0.2461  0.4779
 3988SOL    HW123597   3.040   2.587  13.176 -0.4102  0.2292  0.5213
 3988SOL    HW223598   3.123   2.484  13.115 -1.8046 -0.7638  0.8482
 3989SOL     OW23599   0.052   2.463   8.295 -0.0231 -0.0587 -0.6280
 3989SOL    HW123600   0.022   2.439   8.383 -1.3533  1.2212 -0.7364
 3989SOL    HW223601   0.018   2.551   8.279 -0.3422 -0.1068 -0.2161
 3990SOL     OW23602   1.412   2.092   5.916 -0.0537  0.4191  0.4849
 3990SOL    HW123603   1.377   2.010   5.951 -0.0976  0.9747  1.7046
 3990SOL    HW223604   1.350   2.149   5.960 -0.5381  0.4153 -0.1956
 3991SOL     OW23605   4.188   3.929   5.084  0.1411  1.5010 -0.5192
 3991SOL    HW123606   4.177   4.015   5.044  1.7655  2.5711  1.3118
 3991SOL    HW223607   4.143   3.874   5.020  1.2281 -1.8956  1.6266
 3992SOL     OW23608   1.542   4.623   3.074  0.0924 -0.4378 -0.1606
 3992SOL    HW123609   1.616   4.678   3.048  0.5186 -0.6938  0.4783
 3992SOL    HW223610   1.582   4.574   3.146  0.5535 -2.4009 -1.7650
 3993SOL     OW23611   3.804   3.186  16.659 -0.2710 -0.7992 -0.1184
 3993SOL    HW123612   3.796   3.181  16.754 -1.2553 -1.5685 -0.2388
 3993SOL    HW223613   3.792   3.093  16.639  1.7621 -1.2331  0.6416
 3994SOL     OW23614   1.607   3.821   8.184  0.2329 -0.6394  0.3769
 3994SOL    HW123615   1.694   3.790   8.163  0.2124  0.0013 -0.6817
 3994SOL    HW223616   1.611   3.863   8.270 -3.2243  0.9687 -0.2415
 3995SOL     OW23617   1.251   0.604  14.247  0.4816 -0.1438  0.3075
 3995SOL    HW123618   1.196   0.663  14.299 -1.0338  0.1412 -1.6185
 3995SOL    HW223619   1.273   0.671  14.183 -1.0997  0.4004  0.3359
 3996SOL     OW23620   0.523   3.831  15.684  0.0979  0.4392 -0.1345
 3996SOL    HW123621   0.586   3.900  15.705 -0.1114  1.2088 -2.0419
 3996SOL    HW223622   0.569   3.783  15.615 -0.6553 -0.2103 -0.1749
 3997SOL     OW23623   2.320   0.847   7.982  0.1061 -0.9996  0.3647
 3997SOL    HW123624   2.261   0.772   7.987 -2.0458  0.5980 -1.2034
 3997SOL    HW223625   2.398   0.803   8.015  1.1026  3.6345  4.1831
 3998SOL     OW23626   0.359   4.627   4.110 -0.0853 -0.2398  0.2254
 3998SOL    HW123627   0.284   4.589   4.156 -1.7518  2.5415 -0.1968
 3998SOL    HW223628   0.407   4.545   4.104  1.8468  1.0313 -1.8884
 3999SOL     OW23629   1.977   2.620   7.968  0.0919 -0.3996  0.2447
 3999SOL    HW123630   1.960   2.640   8.060  0.1274  2.3539 -0.3347
 3999SOL    HW223631   1.891   2.590   7.937 -0.6728  2.2120 -0.1461
 4000SOL     OW23632   2.266   4.347  11.516 -0.0958 -0.2829 -0.4345
 4000SOL    HW123633   2.172   4.331  11.504 -0.2132 -0.4152  0.6978
 4000SOL    HW223634   2.251   4.442  11.520  0.2392 -0.2436 -0.1567
 4001SOL     OW23635   2.777   2.190   3.806 -0.0681  0.1572  0.2388
 4001SOL    HW123636   2.774   2.094   3.806 -0.1965  0.1601 -0.3712
 4001SOL    HW223637   2.826   2.212   3.885 -0.3098  0.9905  0.1557
 4002SOL     OW23638   3.352   0.126   0.663  0.5468 -0.2784 -0.1027
 4002SOL    HW123639   3.441   0.105   0.634  1.2296  1.9134  0.4411
 4002SOL    HW223640   3.306   0.103   0.582 -2.4682  2.1009  0.9065
 4003SOL     OW23641   2.096   3.090   6.958  0.5023 -0.2694  0.1978
 4003SOL    HW123642   2.005   3.062   6.970  0.6940 -2.7714 -4.3300
 4003SOL    HW223643   2.097   3.175   7.003  3.6660 -1.0492  1.5680
 4004SOL     OW23644   0.234   1.870  13.918 -0.2450 -0.1444 -0.0978
 4004SOL    HW123645   0.255   1.778  13.932 -1.5192 -0.0873  2.1075
 4004SOL    HW223646   0.298   1.898  13.852  0.6946 -4.2456 -0.9142
 4005SOL     OW23647   2.085   0.909   5.144  0.1525  0.0767 -0.1022
 4005SOL    HW123648   2.087   0.963   5.223  1.9368 -1.5439  0.9541
 4005SOL    HW223649   2.022   0.961   5.094  0.1118 -0.0561 -0.1893
 4006SOL     OW23650   0.779   3.746   8.803 -0.1425  0.1874 -0.0226
 4006SOL    HW123651   0.721   3.807   8.849  0.0473 -0.4417  1.0608
 4006SOL    HW223652   0.836   3.729   8.879 -0.1346 -1.0267 -0.3136
 4007SOL     OW23653   0.777   4.678  11.465  0.4538  0.3287  0.2095
 4007SOL    HW123654   0.838   4.605  11.458 -1.6663 -1.4260  0.1467
 4007SOL    HW223655   0.819   4.729  11.534 -1.3720  2.4425 -0.2321
 4008SOL     OW23656   2.937   3.814   4.232  0.3546 -0.4965 -0.1456
 4008SOL    HW123657   2.907   3.789   4.320  2.8445 -0.8459  0.5872
 4008SOL    HW223658   2.891   3.897   4.218  1.4563  0.0522 -0.4759
 4009SOL     OW23659   2.406   2.518  15.257 -0.5025  0.3484 -0.2176
 4009SOL    HW123660   2.493   2.480  15.253 -0.8397 -0.3886 -0.5044
 4009SOL    HW223661   2.432   2.609  15.270  1.6036 -0.0557 -1.7434
 4010SOL     OW23662   2.488   2.918   7.846 -0.2500 -0.7403  0.3502
 4010SOL    HW123663   2.499   2.844   7.905 -0.0447  0.5395  1.9211
 4010SOL    HW223664   2.506   2.872   7.764  2.1331 -1.7236  1.4401
 4011SOL     OW23665   4.550   0.749   5.977  0.6608  0.5171 -0.0744
 4011SOL    HW123666   4.641   0.743   6.004  0.7624 -1.1928 -0.7444
 4011SOL    HW223667   4.511   0.725   6.061 -0.8061 -0.6714 -1.0924
 4012SOL     OW23668   0.790   4.012   5.143  0.0642  0.1330 -0.0386
 4012SOL    HW123669   0.868   3.997   5.090 -0.7418 -3.0203 -0.3160
 4012SOL    HW223670   0.841   4.050   5.215 -0.8244 -0.9066  1.1352
 4013SOL     OW23671   2.040   4.295  15.431  0.4728  0.6443 -0.2441
 4013SOL    HW123672   2.041   4.319  15.338 -1.2660 -0.5618 -0.5623
 4013SOL    HW223673   1.987   4.369  15.461  0.3860  1.8348 -3.3205
 4014SOL     OW23674   3.173   0.201  16.623 -0.2635 -0.3399  0.2583
 4014SOL    HW123675   3.162   0.212  16.529  1.0184 -2.4813 -0.1277
 4014SOL    HW223676   3.242   0.135  16.629  0.6200  0.5100 -0.6371
 4015SOL     OW23677   0.524   1.457   8.864  0.3969 -0.5766 -0.2595
 4015SOL    HW123678   0.525   1.363   8.849  3.4261 -0.2754 -1.8284
 4015SOL    HW223679   0.560   1.492   8.783  1.0956  2.1644  1.2330
 4016SOL     OW23680   1.603   2.206   3.187 -0.0479  0.4633  0.2921
 4016SOL    HW123681   1.529   2.194   3.247 -0.2494  0.4609  0.0416
 4016SOL    HW223682   1.650   2.128   3.219  0.9113  0.8611 -0.1576
 4017SOL     OW23683   2.578   1.676   4.958 -0.3778 -0.0420  0.2615
 4017SOL    HW123684   2.606   1.586   4.975 -0.0842  0.1911  1.0307
 4017SOL    HW223685   2.551   1.685   4.867  0.0992  0.7382  0.1942
 4018SOL     OW23686   0.683   2.387   9.543  0.2073  0.6008 -0.0569
 4018SOL    HW123687   0.595   2.355   9.522  0.5511 -0.0718 -0.4423
 4018SOL    HW223688   0.729   2.375   9.460  2.5696  0.2235  1.3054
 4019SOL     OW23689   0.238   2.765   2.105  0.9962  0.4029  0.3508
 4019SOL    HW123690   0.280   2.730   2.027  0.1961 -1.2085  0.6297
 4019SOL    HW223691   0.274   2.705   2.170  0.6450 -0.1591  0.0257
 4020SOL     OW23692   2.758   0.593   2.799 -0.6784  0.1523 -0.8895
 4020SOL    HW123693   2.825   0.582   2.866 -0.9411 -1.5263 -0.8940
 4020SOL    HW223694   2.677   0.629   2.836 -0.5846  0.4420 -0.9669
 4021SOL     OW23695   1.980   1.265   4.354  0.0501  1.0923 -0.0018
 4021SOL    HW123696   1.907   1.324   4.338 -0.4078 -0.0592 -2.0947
 4021SOL    HW223697   1.963   1.197   4.289  0.2556  0.9436  0.0990
 4022SOL     OW23698   3.004   0.598  14.701 -0.3474 -0.5864  0.2453
 4022SOL    HW123699   2.909   0.605  14.705 -0.4278 -0.6892 -1.6274
 4022SOL    HW223700   3.022   0.629  14.612 -2.4272 -1.6632 -0.5471
 4023SOL     OW23701   0.850   3.206   4.716  0.3660 -0.0307 -0.1590
 4023SOL    HW123702   0.784   3.275   4.722  0.5217  0.2488 -1.6596
 4023SOL    HW223703   0.922   3.251   4.759  1.4642 -2.5820  0.7054
 4024SOL     OW23704   4.267   3.810   4.049 -0.5981 -0.1107  0.0184
 4024SOL    HW123705   4.266   3.820   3.953 -2.3583  1.0189  0.1403
 4024SOL    HW223706   4.221   3.727   4.060 -0.9541  0.2171  1.0132
 4025SOL     OW23707   2.145   3.517   3.623 -0.6511  0.4487  0.3879
 4025SOL    HW123708   2.059   3.484   3.596 -0.4211 -1.2193  1.7546
 4025SOL    HW223709   2.154   3.588   3.559 -0.6756  2.4375  2.5928
 4026SOL     OW23710   0.503   4.582   0.670 -0.0589 -0.0129 -0.5881
 4026SOL    HW123711   0.490   4.611   0.580 -2.0344 -2.3172 -1.0540
 4026SOL    HW223712   0.443   4.508   0.660 -0.3157  0.2860 -1.2733
 4027SOL     OW23713   3.989   0.750  10.119  0.4641  0.0914 -0.1279
 4027SOL    HW123714   3.999   0.705  10.034  0.5349 -0.8836  0.3991
 4027SOL    HW223715   4.050   0.823  10.107  0.4207 -0.0023 -0.9563
 4028SOL     OW23716   3.977   4.069   9.359 -0.1700  0.4669  0.0503
 4028SOL    HW123717   4.020   4.095   9.440  0.6803 -1.5990  0.2545
 4028SOL    HW223718   4.044   4.011   9.322  0.8870  1.0207  1.1082
 4029SOL     OW23719   2.800   3.829   6.161  0.2255  0.0644 -0.8662
 4029SOL    HW123720   2.793   3.911   6.209  1.1890 -0.1532 -0.3547
 4029SOL    HW223721   2.821   3.860   6.073  0.0196  4.0405  0.4850
 4030SOL     OW23722   3.974   1.473   2.097 -0.1965 -0.2328 -0.2745
 4030SOL    HW123723   4.048   1.423   2.060 -2.0052 -2.6950 -0.5715
 4030SOL    HW223724   4.011   1.551   2.138 -3.6392  0.6639  1.0358
 4031SOL     OW23725   0.778   0.211   2.074  0.3024 -0.2578  0.1478
 4031SOL    HW123726   0.788   0.204   1.979 -1.1537  0.1316 -0.0397
 4031SOL    HW223727   0.862   0.170   2.093 -0.4506 -0.5207  2.8323
 4032SOL     OW23728   3.754   3.315   9.637  0.0691 -0.5590  0.3340
 4032SOL    HW123729   3.759   3.300   9.542  0.7976 -2.2677  0.6243
 4032SOL    HW223730   3.778   3.231   9.677 -0.8919 -1.1026 -0.2203
 4033SOL     OW23731   4.052   3.195   1.588 -0.5067 -0.2134  0.4226
 4033SOL    HW123732   4.120   3.128   1.602 -0.4648 -0.0557  0.9827
 4033SOL    HW223733   4.111   3.270   1.587 -1.9200  0.8571 -1.4645
 4034SOL     OW23734   0.773   1.967   7.461 -0.2798 -0.2666 -0.1309
 4034SOL    HW123735   0.785   1.927   7.375  1.1222 -1.2511  0.5147
 4034SOL    HW223736   0.834   2.039   7.448 -0.0949 -0.1924  1.1976
 4035SOL     OW23737   4.410   4.053  14.676  0.0898  0.6088 -0.7328
 4035SOL    HW123738   4.331   4.013  14.640  0.2694 -0.0329 -0.4197
 4035SOL    HW223739   4.397   4.026  14.767  0.3020  1.7810 -0.3507
 4036SOL     OW23740   0.153   1.687   4.617 -0.1385 -0.1353 -0.0987
 4036SOL    HW123741   0.188   1.639   4.542  0.3118 -0.0617  0.0648
 4036SOL    HW223742   0.195   1.772   4.613  3.2532 -1.7191  1.5603
 4037SOL     OW23743   3.298   3.172   7.498  0.4289 -0.3201 -0.4240
 4037SOL    HW123744   3.321   3.261   7.524 -0.6580 -0.0412 -0.4209
 4037SOL    HW223745   3.371   3.137   7.447  1.4856  0.4227  0.5818
 4038SOL     OW23746   2.674   1.418   4.661  0.3227 -0.3369  0.2798
 4038SOL    HW123747   2.638   1.504   4.641 -0.1599  0.0306  2.7725
 4038SOL    HW223748   2.620   1.398   4.738  2.6231 -2.1350  1.4248
 4039SOL     OW23749   4.497   0.584   4.787 -0.0187  0.3486 -1.4136
 4039SOL    HW123750   4.568   0.597   4.850 -0.3037  1.2575 -1.2816
 4039SOL    HW223751   4.496   0.489   4.794 -0.7572  0.6113  2.3366
 4040SOL     OW23752   4.509   0.227   2.899 -0.0960 -0.0004 -0.1137
 4040SOL    HW123753   4.599   0.259   2.894 -0.1290  0.2167  0.6696
 4040SOL    HW223754   4.477   0.267   2.818  1.1624 -2.5563 -1.8569
 4041SOL     OW23755   4.518   1.528   7.180  0.2740  0.6084  0.0411
 4041SOL    HW123756   4.504   1.454   7.121 -0.6215  0.1567  0.7938
 4041SOL    HW223757   4.610   1.547   7.162  0.2063  0.8596 -0.0368
 4042SOL     OW23758   0.284   1.262   8.936  0.1156 -0.2392 -0.4000
 4042SOL    HW123759   0.242   1.269   8.850  0.3031 -1.9155 -0.6141
 4042SOL    HW223760   0.331   1.182   8.913  0.4783 -0.3160  0.6408
 4043SOL     OW23761   4.634   2.979  12.731  0.0095  0.5278 -0.3691
 4043SOL    HW123762   4.549   2.959  12.769  0.3892  0.6302  0.5384
 4043SOL    HW223763   4.673   2.891  12.728 -0.6592  0.1477  2.3096
 4044SOL     OW23764   3.675   1.619  11.207 -0.0258  0.6043  0.1590
 4044SOL    HW123765   3.727   1.582  11.278  0.3950  0.6239 -0.1384
 4044SOL    HW223766   3.736   1.599  11.136 -1.0589 -0.4178 -0.4434
 4045SOL     OW23767   4.622   2.798   7.904 -0.4355 -0.5615 -0.4471
 4045SOL    HW123768   4.587   2.735   7.967  1.6667 -1.5081 -0.2265
 4045SOL    HW223769   4.648   2.744   7.830  0.3147  0.0738 -0.6449
 4046SOL     OW23770   0.797   0.285   4.998 -0.0434  0.0104 -0.1626
 4046SOL    HW123771   0.721   0.272   4.941 -1.2918  3.2169  0.7886
 4046SOL    HW223772   0.874   0.266   4.945 -0.7085 -0.4722 -0.9485
 4047SOL     OW23773   1.768   3.369  17.600  0.0674  0.0667  0.3541
 4047SOL    HW123774   1.835   3.380  17.668  1.3534 -3.3891 -0.3533
 4047SOL    HW223775   1.748   3.462  17.588 -2.0173 -0.4695 -0.2418
 4048SOL     OW23776   4.489   0.599   6.210 -0.1830  0.3987  0.8438
 4048SOL    HW123777   4.584   0.591   6.222 -0.3439  0.5544  2.1853
 4048SOL    HW223778   4.459   0.575   6.297 -0.0881 -4.0150 -0.3504
 4049SOL     OW23779   0.139   2.834   8.912 -0.3633 -0.0356 -0.3410
 4049SOL    HW123780   0.224   2.827   8.869  1.0381  0.8763  2.3103
 4049SOL    HW223781   0.144   2.748   8.953 -0.8767 -0.8173 -1.8939
 4050SOL     OW23782   4.009   0.358   5.999 -0.1986 -0.6555 -0.0706
 4050SOL    HW123783   4.102   0.345   6.017 -0.0198  0.6207 -0.1128
 4050SOL    HW223784   4.009   0.419   5.925  1.5785 -1.4603 -0.7516
 4051SOL     OW23785   4.174   3.795   3.273  0.0185  0.5413  0.4256
 4051SOL    HW123786   4.084   3.763   3.269 -0.7247  2.8131 -1.2525
 4051SOL    HW223787   4.213   3.723   3.322 -0.4781  0.7556  1.1328
 4052SOL     OW23788   0.160   2.609   9.335  0.1662  0.3043 -0.8720
 4052SOL    HW123789   0.099   2.682   9.331 -0.7436 -0.4820 -1.5982
 4052SOL    HW223790   0.240   2.640   9.293  0.2769  1.1530 -0.0301
 4053SOL     OW23791   4.627   0.842   2.394 -0.1142 -0.5390 -0.5003
 4053SOL    HW123792   4.660   0.768   2.344  2.3780 -0.1667  0.5754
 4053SOL    HW223793   4.681   0.915   2.363 -2.9928  3.0546  2.8701
 4054SOL     OW23794   1.629   1.004   9.118 -0.0100  0.6362 -0.0182
 4054SOL    HW123795   1.666   0.918   9.098 -1.4780 -0.2799  1.2156
 4054SOL    HW223796   1.683   1.026   9.193 -0.0923  0.5086  0.0792
 4055SOL     OW23797   4.526   0.918  14.218  0.2475 -0.4334  0.0675
 4055SOL    HW123798   4.471   0.947  14.291  0.0920 -1.0077  0.1792
 4055SOL    HW223799   4.560   1.003  14.189  1.4063 -1.1463 -0.6707
 4056SOL     OW23800   1.737   2.613   1.592 -0.0729  0.0825 -0.1206
 4056SOL    HW123801   1.772   2.651   1.511 -2.1793 -0.6795 -1.3896
 4056SOL    HW223802   1.793   2.648   1.662  1.6578  0.9962 -1.9713
 4057SOL     OW23803   1.694   0.410   2.825  0.0013  0.0837  0.1983
 4057SOL    HW123804   1.660   0.364   2.748  1.2505  0.6886 -0.7028
 4057SOL    HW223805   1.783   0.431   2.797  0.4962  1.2455  2.5980
 4058SOL     OW23806   2.937   0.418  12.925 -0.5867 -0.8007  0.8801
 4058SOL    HW123807   2.905   0.396  12.838  1.8490  0.9965 -0.4482
 4058SOL    HW223808   2.856   0.433  12.972  0.1554  2.0349  1.2701
 4059SOL     OW23809   1.919   2.797   2.253 -0.0387 -0.2368  0.3620
 4059SOL    HW123810   1.864   2.739   2.305  0.0558  0.8570  1.7041
 4059SOL    HW223811   1.998   2.746   2.237 -1.2676 -2.2335  0.6712
 4060SOL     OW23812   3.154   0.739   7.029  0.1372 -0.0607 -0.8634
 4060SOL    HW123813   3.234   0.729   6.977 -0.4518  0.2653 -1.8340
 4060SOL    HW223814   3.188   0.747   7.118  1.9886  2.5149 -1.8072
 4061SOL     OW23815   2.390   3.561   8.134 -1.1827 -0.1155 -0.1557
 4061SOL    HW123816   2.443   3.500   8.083  0.9606 -1.2966  3.5278
 4061SOL    HW223817   2.369   3.499   8.203  1.5698 -0.3924  0.4151
 4062SOL     OW23818   4.054   0.211   1.441  0.3981  0.0514 -0.0189
 4062SOL    HW123819   4.062   0.116   1.437 -0.3028 -0.0281  0.5636
 4062SOL    HW223820   3.989   0.217   1.511  0.4293 -0.5395  0.0629
 4063SOL     OW23821   3.658   4.421  11.083 -0.2858  0.4117 -0.0133
 4063SOL    HW123822   3.750   4.411  11.107 -0.5996 -1.2679  0.4854
 4063SOL    HW223823   3.633   4.334  11.053 -0.9475  0.3383  0.7411
 4064SOL     OW23824   4.046   0.832   3.084 -0.0056 -0.1074  0.1139
 4064SOL    HW123825   3.980   0.893   3.116  0.2455 -0.1471  0.6941
 4064SOL    HW223826   4.087   0.879   3.011 -0.4545  2.0430  1.2331
 4065SOL     OW23827   1.224   2.608   2.357 -0.3730  0.5422 -0.6753
 4065SOL    HW123828   1.142   2.617   2.308 -0.4321  0.9038 -0.5130
 4065SOL    HW223829   1.231   2.517   2.386 -0.2823  0.4305 -1.0557
 4066SOL     OW23830   2.372   1.961  14.247 -0.4288 -0.2669 -0.1697
 4066SOL    HW123831   2.325   1.879  14.266  2.6598 -1.3234  2.7409
 4066SOL    HW223832   2.461   1.939  14.219  0.1493  2.0230 -0.0842
 4067SOL     OW23833   0.210   2.825   4.152  0.0193 -0.8052 -0.1226
 4067SOL    HW123834   0.247   2.744   4.188  1.0289 -0.0304  0.6112
 4067SOL    HW223835   0.276   2.890   4.175 -1.8829  0.6534  1.1278
 4068SOL     OW23836   4.484   1.661   2.818 -0.3889 -0.0859  0.6077
 4068SOL    HW123837   4.488   1.619   2.732  1.5140  1.5130 -0.0946
 4068SOL    HW223838   4.524   1.590   2.868  0.7483  1.4794  1.9383
 4069SOL     OW23839   0.664   3.421   4.633  0.1150 -0.1090  0.0973
 4069SOL    HW123840   0.679   3.441   4.540 -1.5710  0.4291 -0.0597
 4069SOL    HW223841   0.576   3.383   4.628  1.2359 -2.6934  0.2810
 4070SOL     OW23842   0.559   0.677  15.885 -0.1369 -0.3287 -0.0671
 4070SOL    HW123843   0.496   0.605  15.885 -0.8439  0.2286  5.1743
 4070SOL    HW223844   0.557   0.718  15.799 -0.1263 -0.2291 -0.0194
 4071SOL     OW23845   0.773   1.151   6.189  0.4282  0.2497  1.0574
 4071SOL    HW123846   0.849   1.210   6.177 -0.1398  0.8602  0.4334
 4071SOL    HW223847   0.817   1.066   6.185 -1.0475 -0.4819  0.6716
 4072SOL     OW23848   3.989   4.623  13.461  0.3531 -0.6378 -0.5679
 4072SOL    HW123849   3.974   4.601  13.553 -0.2454 -2.2015 -1.0426
 4072SOL    HW223850   3.906   4.592  13.424 -1.4443  1.9239  1.2813
 4073SOL     OW23851   1.991   1.689  13.193 -0.0581 -0.4938  0.2429
 4073SOL    HW123852   2.081   1.721  13.186 -0.5866  1.1274  0.9850
 4073SOL    HW223853   1.940   1.750  13.140 -0.8846  0.1233  1.7295
 4074SOL     OW23854   2.620   4.611   2.869  0.0470 -0.3769  0.5762
 4074SOL    HW123855   2.677   4.535   2.859  1.0142  0.4764 -0.3427
 4074SOL    HW223856   2.618   4.615   2.964  2.7658 -0.6808  0.6504
 4075SOL     OW23857   4.134   0.990  16.908  0.1742  0.0526 -0.0099
 4075SOL    HW123858   4.103   0.899  16.904  0.9013 -0.1889 -0.1350
 4075SOL    HW223859   4.169   0.999  16.820  2.3081  0.6535  0.9074
 4076SOL     OW23860   0.688   1.674   7.766 -0.4842  0.1692 -0.1187
 4076SOL    HW123861   0.661   1.589   7.731  0.1567 -0.1345  0.1255
 4076SOL    HW223862   0.761   1.699   7.711 -0.4067 -1.6827 -0.8619
 4077SOL     OW23863   2.860   2.640   6.487  0.1113  0.3720 -0.1076
 4077SOL    HW123864   2.868   2.580   6.413 -1.6275 -1.6493  1.3508
 4077SOL    HW223865   2.949   2.673   6.494 -0.2689  1.2603  0.5338
 4078SOL     OW23866   2.796   2.997   4.425 -0.4451 -0.2221  0.1781
 4078SOL    HW123867   2.862   3.061   4.453 -2.1474  0.3370  2.9077
 4078SOL    HW223868   2.853   2.941   4.372  0.2725 -0.1846  0.8982
 4079SOL     OW23869   2.155   0.331   9.304 -0.5805 -0.8288 -0.4372
 4079SOL    HW123870   2.183   0.249   9.344  0.6643  0.4545  1.3533
 4079SOL    HW223871   2.062   0.315   9.322 -0.5658 -0.0415  0.3581
 4080SOL     OW23872   0.935   3.684  15.091  0.2253 -0.8232  0.4305
 4080SOL    HW123873   0.989   3.695  15.012 -0.7900 -1.5152 -0.3670
 4080SOL    HW223874   1.001   3.631  15.136  0.9272 -0.6841 -0.4308
 4081SOL     OW23875   2.658   1.392   4.935  0.2179 -0.0351  0.0346
 4081SOL    HW123876   2.639   1.314   4.987 -0.3982 -1.5887 -2.5709
 4081SOL    HW223877   2.720   1.429   4.998 -0.9413  0.4534  0.9020
 4082SOL     OW23878   1.548   1.499   3.567 -0.1659  0.1450  0.9490
 4082SOL    HW123879   1.599   1.424   3.597 -0.4415 -0.5401 -0.2632
 4082SOL    HW223880   1.459   1.464   3.574 -0.8603  1.2714 -1.9732
 4083SOL     OW23881   3.620   1.605  16.886 -0.0505  0.6335  0.5990
 4083SOL    HW123882   3.637   1.553  16.807 -0.3825 -0.6415  1.3702
 4083SOL    HW223883   3.701   1.652  16.907  0.3191  0.2599  0.0271
 4084SOL     OW23884   2.653   4.359   2.663  0.2409 -0.1276 -0.1400
 4084SOL    HW123885   2.646   4.413   2.585 -1.3717 -1.8544 -1.1928
 4084SOL    HW223886   2.721   4.405   2.712  0.1021 -1.3520  1.2203
 4085SOL     OW23887   0.081   3.853   9.593  0.0160  0.6478 -0.2788
 4085SOL    HW123888   0.119   3.937   9.567  0.7908  0.3802 -0.0178
 4085SOL    HW223889   4.720   3.872   9.586 -1.0051 -3.4061  2.0293
 4086SOL     OW23890   3.220   4.105   3.113  0.6705  0.3785 -0.2228
 4086SOL    HW123891   3.179   4.180   3.070 -1.4933 -0.3353  0.5733
 4086SOL    HW223892   3.217   4.135   3.203  3.4661  1.3873 -0.4684
 4087SOL     OW23893   2.171   0.323  11.571 -0.2483  0.2423 -0.4598
 4087SOL    HW123894   2.195   0.346  11.481 -2.5461 -0.1719 -1.1919
 4087SOL    HW223895   2.255   0.285  11.594 -0.6140 -0.4387 -0.2423
 4088SOL     OW23896   2.755   4.503   2.138 -0.1020 -0.4153  0.0511
 4088SOL    HW123897   2.820   4.464   2.080 -0.7273 -0.4901 -0.6124
 4088SOL    HW223898   2.692   4.539   2.075  0.0701  1.0407  0.6990
 4089SOL     OW23899   2.323   0.636   6.097  0.4740 -0.1597 -0.1290
 4089SOL    HW123900   2.371   0.657   6.177 -0.7294 -1.7822  1.0285
 4089SOL    HW223901   2.317   0.726   6.066 -0.8956 -0.1760  0.1090
 4090SOL     OW23902   3.953   2.962   7.465  0.3786  0.2001 -0.0583
 4090SOL    HW123903   4.036   2.943   7.508 -0.8166 -2.2240  1.2331
 4090SOL    HW223904   3.929   2.872   7.442  0.5311  0.8200 -2.5879
 4091SOL     OW23905   4.286   0.740   3.581  0.8851  0.1883 -0.0312
 4091SOL    HW123906   4.268   0.713   3.671 -0.4569 -2.5991 -1.1392
 4091SOL    HW223907   4.320   0.658   3.545 -0.6366  0.5337 -2.1860
 4092SOL     OW23908   3.573   1.419  16.131 -0.2794  0.9685 -0.0287
 4092SOL    HW123909   3.563   1.333  16.091  0.7974  1.9024 -2.3242
 4092SOL    HW223910   3.514   1.472  16.079  1.2180  0.8659 -1.8282
 4093SOL     OW23911   1.917   3.890  12.998  0.4940 -0.0421  0.0605
 4093SOL    HW123912   1.965   3.946  13.058 -1.7689  2.0458 -0.0688
 4093SOL    HW223913   1.823   3.886  13.020  0.4205  1.5444  0.0157
 4094SOL     OW23914   0.333   4.394   9.187  0.1360  0.3782  0.0688
 4094SOL    HW123915   0.352   4.363   9.099  0.1346 -3.0566  1.2671
 4094SOL    HW223916   0.414   4.442   9.207 -0.1854  0.8638  0.1992
 4095SOL     OW23917   0.161   4.106   9.574 -0.4784  0.2528 -0.2182
 4095SOL    HW123918   0.111   4.134   9.497 -1.4937  2.6912  1.3432
 4095SOL    HW223919   0.245   4.107   9.527  0.2884 -2.5564  1.0621
 4096SOL     OW23920   2.986   0.387   2.963  0.9198  0.5435  0.6988
 4096SOL    HW123921   3.077   0.405   2.985  1.4662 -2.1510  0.5762
 4096SOL    HW223922   2.943   0.449   3.021  1.5268  2.1554 -0.5743
 4097SOL     OW23923   3.369   0.564   5.878 -0.3010  0.5654  0.2936
 4097SOL    HW123924   3.300   0.527   5.933  1.6826 -1.2142  1.5358
 4097SOL    HW223925   3.307   0.595   5.812 -0.1925  0.4825  0.1536
 4098SOL     OW23926   4.040   2.796   0.310  0.0411  0.0426  0.6809
 4098SOL    HW123927   4.008   2.771   0.397 -0.5635 -0.7532  0.2306
 4098SOL    HW223928   3.973   2.755   0.256  0.5256  1.0618 -0.6937
 4099SOL     OW23929   0.195   2.781  14.514  0.1421  0.3870 -0.3736
 4099SOL    HW123930   0.247   2.742  14.443 -0.3726  0.5913 -0.8726
 4099SOL    HW223931   0.142   2.838  14.458  0.1304  1.3588  0.6310
 4100SOL     OW23932   3.062   1.603   8.660 -0.0681  0.0266  0.3718
 4100SOL    HW123933   3.121   1.665   8.701 -0.6378 -0.5457  2.0486
 4100SOL    HW223934   3.010   1.639   8.588  0.5361 -0.3209 -0.2341
 4101SOL     OW23935   1.838   4.287   7.204  0.6900 -0.2508 -0.5547
 4101SOL    HW123936   1.804   4.375   7.222  0.1069  0.4152 -4.9065
 4101SOL    HW223937   1.885   4.268   7.285  0.7923 -0.3668 -0.6413
 4102SOL     OW23938   0.327   4.088   9.837  0.0457  0.1051  0.1644
 4102SOL    HW123939   0.311   4.166   9.890  0.3236 -0.5998  1.2870
 4102SOL    HW223940   0.291   4.107   9.750 -0.4210  2.1281  0.7900
 4103SOL     OW23941   0.467   1.747   3.273  0.0118 -0.3739 -0.6784
 4103SOL    HW123942   0.558   1.734   3.299  0.6095 -0.3055 -2.7049
 4103SOL    HW223943   0.467   1.839   3.244 -0.2612 -0.1441  0.0714
 4104SOL     OW23944   0.799   4.207   6.484 -0.3559 -0.2627 -0.0024
 4104SOL    HW123945   0.850   4.135   6.448 -0.4331 -0.8193  0.9939
 4104SOL    HW223946   0.825   4.193   6.575  0.8502 -0.5497 -0.3935
 4105SOL     OW23947   1.282   3.070  15.235  0.1635  0.8233  0.0031
 4105SOL    HW123948   1.278   3.137  15.167  0.7851  2.5713  1.7013
 4105SOL    HW223949   1.322   3.117  15.308 -0.6935  0.4295  0.7262
 4106SOL     OW23950   3.012   0.340   3.480 -0.2743 -0.2108  0.5708
 4106SOL    HW123951   2.955   0.291   3.421  0.0390  0.5132 -0.3215
 4106SOL    HW223952   3.090   0.303   3.440  0.4364  1.0368  0.8057
 4107SOL     OW23953   0.351   3.007  11.713 -0.1155  0.3962  0.2582
 4107SOL    HW123954   0.298   3.078  11.677 -1.4062 -0.7375 -0.0801
 4107SOL    HW223955   0.432   3.058  11.719 -0.6100  1.4060 -1.4741
 4108SOL     OW23956   4.723   4.246  17.023 -0.1160  0.0904  0.2491
 4108SOL    HW123957   0.033   4.163  17.045  1.2684  0.7535  0.1287
 4108SOL    HW223958   4.651   4.252  17.085  0.5855  0.5825  1.0225
 4109SOL     OW23959   3.773   3.161   8.613 -0.2666  0.1141  0.1953
 4109SOL    HW123960   3.713   3.207   8.672  0.2603  0.8577  0.1496
 4109SOL    HW223961   3.857   3.204   8.629 -0.6388  0.2556  1.7720
 4110SOL     OW23962   2.613   2.722   8.677 -0.1727 -0.5741 -0.4270
 4110SOL    HW123963   2.706   2.704   8.660  0.1348  0.7775 -0.1125
 4110SOL    HW223964   2.627   2.716   8.772  0.4339  1.2359 -0.4168
 4111SOL     OW23965   0.070   4.057   5.084 -0.3388 -0.3372 -0.2179
 4111SOL    HW123966   0.004   4.127   5.087  0.5059  0.5209 -1.5777
 4111SOL    HW223967   0.152   4.104   5.097 -0.8256  0.2849  0.5746
 4112SOL     OW23968   0.371   0.553  15.385 -0.4631  0.1391 -0.4780
 4112SOL    HW123969   0.330   0.626  15.338 -0.3039  1.0653  0.8392
 4112SOL    HW223970   0.400   0.592  15.467  0.1812  0.2105 -0.7396
 4113SOL     OW23971   2.831   0.544   3.111  0.2287  0.1016  0.5482
 4113SOL    HW123972   2.771   0.508   3.177 -1.1553  1.3741 -0.0113
 4113SOL    HW223973   2.824   0.638   3.130  0.5476  0.5135 -1.4246
 4114SOL     OW23974   4.282   0.454   2.804 -0.2109  0.4474 -0.0064
 4114SOL    HW123975   4.332   0.441   2.723 -0.2786  1.0922 -0.1471
 4114SOL    HW223976   4.303   0.544   2.827  1.4184 -0.2549  1.2506
 4115SOL     OW23977   2.288   1.994  10.552  0.2151  0.1141  0.2872
 4115SOL    HW123978   2.283   2.084  10.521 -0.2131 -0.1940 -0.5573
 4115SOL    HW223979   2.369   1.999  10.602  0.0630 -2.3726  0.7902
 4116SOL     OW23980   3.029   4.363   9.181 -0.0790 -0.0587 -0.4103
 4116SOL    HW123981   3.113   4.320   9.199 -0.2547  0.4828  1.7410
 4116SOL    HW223982   3.053   4.454   9.198 -0.2330 -0.1155  0.1293
 4117SOL     OW23983   2.531   4.453  12.554  0.3169  0.5963 -0.3508
 4117SOL    HW123984   2.522   4.382  12.491  1.4573 -1.8489  2.2072
 4117SOL    HW223985   2.476   4.522  12.518 -1.0881  0.4443  1.5280
 4118SOL     OW23986   1.938   2.317   9.173 -0.3471  0.0660 -0.2219
 4118SOL    HW123987   1.904   2.230   9.193  0.4593 -0.7405 -2.3721
 4118SOL    HW223988   2.027   2.298   9.144 -0.7123 -0.1925 -1.1960
 4119SOL     OW23989   1.899   1.257  13.415 -0.1349 -0.1127 -0.4688
 4119SOL    HW123990   1.958   1.231  13.344  0.3884 -1.5409  0.4909
 4119SOL    HW223991   1.908   1.351  13.402  0.2540  0.0336  0.8908
 4120SOL     OW23992   3.540   0.553   4.604  0.3902  0.5299  0.3786
 4120SOL    HW123993   3.481   0.515   4.670  0.9684  1.4945  1.4519
 4120SOL    HW223994   3.477   0.609   4.559  0.2017  0.1468  0.1613
 4121SOL     OW23995   0.508   1.314   6.699  0.4290 -0.2267  0.2653
 4121SOL    HW123996   0.596   1.321   6.661  0.6832 -1.5844  0.5835
 4121SOL    HW223997   0.457   1.294   6.620  0.4129 -0.2650  0.2854
 4122SOL     OW23998   0.140   2.955  16.239 -0.6713  0.0850  0.7271
 4122SOL    HW123999   0.187   3.038  16.247 -0.1822  0.0263 -1.4599
 4122SOL    HW224000   0.143   2.938  16.145  0.9325 -0.7912  0.9358
 4123SOL     OW24001   2.616   2.203  16.833  0.0210  0.0270 -0.0281
 4123SOL    HW124002   2.616   2.296  16.811 -3.3937  0.1402  0.5122
 4123SOL    HW224003   2.530   2.176  16.802  0.9857 -1.7951 -1.0691
 4124SOL     OW24004   4.505   4.299  14.652 -0.0160 -0.3681 -0.1444
 4124SOL    HW124005   4.417   4.304  14.614  0.0828 -1.1289 -0.4836
 4124SOL    HW224006   4.512   4.205  14.667 -0.5205 -0.6333 -1.5247
 4125SOL     OW24007   0.654   0.032  11.859  0.3265  0.0942 -0.7116
 4125SOL    HW124008   0.712   4.731  11.790  1.0483 -1.9049  0.8627
 4125SOL    HW224009   0.688   0.001  11.943 -0.4732 -0.1693 -0.4841
 4126SOL     OW24010   0.836   2.867   7.437 -0.1834 -0.6476  0.1899
 4126SOL    HW124011   0.856   2.961   7.431  3.7905 -1.4234  1.4401
 4126SOL    HW224012   0.763   2.870   7.499 -0.1108  0.1033  0.2384
 4127SOL     OW24013   4.354   1.343  16.837 -0.0327  0.4543  0.5331
 4127SOL    HW124014   4.369   1.437  16.828  1.7740  0.2199  1.0011
 4127SOL    HW224015   4.405   1.309  16.763 -1.1038  0.8883 -0.3866
 4128SOL     OW24016   1.831   2.832  16.208  0.0297  0.2904 -0.2556
 4128SOL    HW124017   1.881   2.760  16.170  2.4298  0.9927  1.5650
 4128SOL    HW224018   1.739   2.804  16.200 -0.3711  0.9318  1.9619
 4129SOL     OW24019   4.096   2.068   7.161 -0.3412  0.6153 -0.3180
 4129SOL    HW124020   4.015   2.118   7.148 -2.0874 -2.3707 -1.0415
 4129SOL    HW224021   4.162   2.137   7.155  2.0406 -1.6816 -0.5183
 4130SOL     OW24022   2.642   2.874   8.184 -0.4312  0.7108 -0.0958
 4130SOL    HW124023   2.695   2.808   8.229 -0.9786 -0.5224 -1.3093
 4130SOL    HW224024   2.580   2.822   8.134 -0.9872  2.8247 -1.6174
 4131SOL     OW24025   4.631   2.411  10.986  0.1054 -0.0888 -0.0723
 4131SOL    HW124026   4.593   2.499  10.995 -3.6548 -1.8119  0.9997
 4131SOL    HW224027   4.688   2.409  11.062  1.7155  2.3155 -1.2243
 4132SOL     OW24028   3.502   1.865   2.730 -0.5076 -0.3607  0.6578
 4132SOL    HW124029   3.502   1.943   2.785 -1.7576 -0.0542  0.2445
 4132SOL    HW224030   3.407   1.861   2.714 -0.6680  0.1253  1.5385
 4133SOL     OW24031   2.825   0.125  17.378 -0.0840 -0.3044 -0.0334
 4133SOL    HW124032   2.855   0.165  17.460 -2.6464 -1.6768  1.5507
 4133SOL    HW224033   2.786   0.203  17.340  0.0383 -1.5690 -2.7052
 4134SOL     OW24034   1.224   1.164   9.277  0.2906 -0.0759  0.3286
 4134SOL    HW124035   1.250   1.102   9.209  2.5431  1.8472 -0.5793
 4134SOL    HW224036   1.134   1.177   9.246  0.8655  1.1565 -0.8338
 4135SOL     OW24037   3.177   3.401  12.981  0.5197 -0.3354 -0.6042
 4135SOL    HW124038   3.127   3.390  13.062  0.2927 -2.3640 -1.0044
 4135SOL    HW224039   3.254   3.347  12.997  1.1203  0.8882  0.6514
 4136SOL     OW24040   2.111   3.122  17.579  0.0154 -0.1434 -0.3984
 4136SOL    HW124041   2.045   3.121  17.648 -0.5761  1.0660 -0.9530
 4136SOL    HW224042   2.177   3.058  17.608 -2.5964 -2.9903 -0.7697
 4137SOL     OW24043   3.500   3.013   2.823  0.0283  0.0821 -0.3091
 4137SOL    HW124044   3.477   3.038   2.734 -2.5937  0.2697  0.4193
 4137SOL    HW224045   3.450   3.074   2.877  1.8328  0.5978  0.7654
 4138SOL     OW24046   3.416   1.630   3.435  0.1978 -0.1563  0.0078
 4138SOL    HW124047   3.323   1.652   3.426  0.0126 -1.0111 -0.1694
 4138SOL    HW224048   3.445   1.702   3.490  1.9823 -0.7152 -0.1744
 4139SOL     OW24049   1.917   0.513  12.533  0.0150  0.5939  0.3257
 4139SOL    HW124050   1.976   0.546  12.465 -1.7923  3.1006 -0.0365
 4139SOL    HW224051   1.875   0.595  12.559  0.0964  0.2988  1.3819
 4140SOL     OW24052   3.489   2.297   7.267 -0.2248  0.5173  0.5031
 4140SOL    HW124053   3.492   2.201   7.259 -0.8664  0.5378  0.0022
 4140SOL    HW224054   3.554   2.314   7.199 -3.3676 -1.4517 -3.0683
 4141SOL     OW24055   3.681   3.147  14.067 -0.2119  0.1231  0.0302
 4141SOL    HW124056   3.669   3.140  13.972 -1.0694  1.2075  0.0591
 4141SOL    HW224057   3.617   3.217  14.081 -0.6836 -0.5619  1.2562
 4142SOL     OW24058   2.918   0.098   4.999  0.0353 -0.0806 -0.3116
 4142SOL    HW124059   2.941   0.075   5.089 -3.7196 -2.1990  0.0953
 4142SOL    HW224060   2.939   0.015   4.957  1.0279  0.5868 -1.1075
 4143SOL     OW24061   2.310   4.581   4.392  0.9615  0.2855 -0.3551
 4143SOL    HW124062   2.324   4.507   4.333 -0.6741 -0.2567 -0.0675
 4143SOL    HW224063   2.376   4.555   4.457  0.3660 -1.0275 -0.2615
 4144SOL     OW24064   3.954   4.234  16.126 -0.3048 -0.4975  0.1190
 4144SOL    HW124065   3.971   4.140  16.119 -0.9978 -0.5546 -0.8394
 4144SOL    HW224066   3.963   4.238  16.221 -0.8070  0.0347  0.1370
 4145SOL     OW24067   1.009   4.655   8.508  0.1259 -0.1430  0.0920
 4145SOL    HW124068   1.091   4.645   8.460 -1.0127 -1.0876 -1.6340
 4145SOL    HW224069   0.980   0.006   8.472  0.4736 -0.3196 -0.5962
 4146SOL     OW24070   3.413   0.466  11.955 -0.5263  0.2806  0.5099
 4146SOL    HW124071   3.441   0.459  12.046  0.3790  2.5451  0.4120
 4146SOL    HW224072   3.454   0.385  11.924 -1.8405  0.4697 -1.7005
 4147SOL     OW24073   4.263   4.209   1.595 -0.2271  0.0646 -0.4569
 4147SOL    HW124074   4.340   4.266   1.596 -1.5517  1.8009  2.9724
 4147SOL    HW224075   4.305   4.126   1.572  0.0902 -0.2043  1.1250
 4148SOL     OW24076   4.494   1.340   1.469 -0.4119 -0.1922  0.4674
 4148SOL    HW124077   4.408   1.302   1.450  0.0954 -1.5465  0.9194
 4148SOL    HW224078   4.507   1.413   1.408  1.2396 -1.5513 -0.7850
 4149SOL     OW24079   0.425   0.965  12.145 -0.5055 -0.1614 -0.2431
 4149SOL    HW124080   0.510   1.001  12.121 -0.2440 -0.1578  0.7188
 4149SOL    HW224081   0.391   0.949  12.057 -0.1434  0.5487 -0.5096
 4150SOL     OW24082   2.250   1.554  16.018 -0.3119 -0.3086  0.4802
 4150SOL    HW124083   2.254   1.602  15.935  1.2075 -2.1053 -0.4611
 4150SOL    HW224084   2.155   1.544  16.021 -0.4225  0.2127 -1.2921
 4151SOL     OW24085   2.485   0.287   2.719 -0.2999  0.1928 -0.1845
 4151SOL    HW124086   2.519   0.217   2.664 -0.2753 -2.0144  2.6633
 4151SOL    HW224087   2.476   0.242   2.802 -0.3441 -2.6167 -1.7289
 4152SOL     OW24088   2.543   3.358   5.196 -0.0481  0.0894  0.2221
 4152SOL    HW124089   2.506   3.438   5.232  0.2643  0.0229  0.6956
 4152SOL    HW224090   2.496   3.351   5.113  1.1365 -1.5151 -0.3301
 4153SOL     OW24091   3.440   3.436   2.520 -0.1387 -0.2651  0.4840
 4153SOL    HW124092   3.508   3.473   2.577  0.1629 -1.2061  0.7453
 4153SOL    HW224093   3.493   3.373   2.470  1.5853 -0.5602  2.6694
 4154SOL     OW24094   2.980   4.053   9.406 -0.6049  0.8224 -0.3793
 4154SOL    HW124095   2.917   4.026   9.472  2.3443 -1.7524  1.4025
 4154SOL    HW224096   2.927   4.068   9.328 -1.5537  2.8725  0.6527
 4155SOL     OW24097   2.977   4.705  11.013 -0.0457  0.4384  0.0672
 4155SOL    HW124098   3.063   4.719  11.052  0.6353 -0.0335 -1.2638
 4155SOL    HW224099   2.983   4.615  10.979 -1.4376 -0.0125  0.9911
 4156SOL     OW24100   2.592   2.325  11.136 -0.3819  0.1097  0.3126
 4156SOL    HW124101   2.559   2.272  11.064  1.4873  0.2343 -0.6196
 4156SOL    HW224102   2.687   2.331  11.128 -0.3811  0.3895  0.5156
 4157SOL     OW24103   0.896   4.578   9.918 -0.1911 -0.5797  0.2954
 4157SOL    HW124104   0.907   4.668   9.948 -1.8722 -0.0960 -0.5655
 4157SOL    HW224105   0.825   4.555   9.978 -0.4957 -1.3306 -0.3611
 4158SOL     OW24106   4.655   1.368   0.544 -0.2318 -0.0224 -0.3342
 4158SOL    HW124107   4.677   1.322   0.463  1.3265  2.9033 -1.5445
 4158SOL    HW224108   4.634   1.292   0.599 -0.1596  0.6155  0.5816
 4159SOL     OW24109   3.958   3.755  13.690 -0.2330  0.0935 -0.2512
 4159SOL    HW124110   3.947   3.827  13.627  4.0306  2.1559  1.3307
 4159SOL    HW224111   3.893   3.776  13.757 -1.0406 -0.9275 -0.7257
 4160SOL     OW24112   0.941   0.040   6.724 -0.2065 -0.6126  0.0782
 4160SOL    HW124113   0.892   0.095   6.786  0.0636 -0.3480  0.0620
 4160SOL    HW224114   0.908   0.074   6.641 -0.6792 -1.6491 -0.1561
 4161SOL     OW24115   0.659   3.655   9.092  0.5186 -0.0377  0.1417
 4161SOL    HW124116   0.681   3.748   9.086  0.0781  0.0391 -0.2474
 4161SOL    HW224117   0.658   3.635   8.999  0.6766 -0.8623  0.3179
 4162SOL     OW24118   3.748   0.551   9.025  0.1387  0.3400  0.3512
 4162SOL    HW124119   3.745   0.638   8.985  1.4959  0.2574  0.0506
 4162SOL    HW224120   3.828   0.547   9.077 -0.2081  1.5345  0.9816
 4163SOL     OW24121   3.520   4.251   9.290  0.3526  0.7167 -0.0412
 4163SOL    HW124122   3.571   4.173   9.269  1.7017  1.3311  0.9900
 4163SOL    HW224123   3.593   4.305   9.321  0.6697 -0.0468  0.5186
 4164SOL     OW24124   0.562   3.317  15.157 -0.3309 -0.4002  0.1082
 4164SOL    HW124125   0.624   3.386  15.136 -0.6277 -0.0067  0.5203
 4164SOL    HW224126   0.538   3.291  15.068  1.5092  1.2598 -0.8620
 4165SOL     OW24127   2.149   2.235  12.384  0.4988  0.1248 -0.6798
 4165SOL    HW124128   2.081   2.299  12.361  2.1543  1.4634 -1.8543
 4165SOL    HW224129   2.186   2.200  12.302  0.4188  0.8320 -1.0198
 4166SOL     OW24130   3.941   2.028  14.766 -0.1289  0.4992  0.4755
 4166SOL    HW124131   3.956   2.106  14.712  0.4314  1.4742  2.0432
 4166SOL    HW224132   3.902   1.980  14.692  1.2936  1.2779 -0.7788
 4167SOL     OW24133   0.960   1.973  11.827 -0.1846  0.5383 -0.5309
 4167SOL    HW124134   1.054   1.983  11.813  0.3387  0.8129  3.3466
 4167SOL    HW224135   0.924   2.057  11.798 -1.5811  0.5436  1.2339
 4168SOL     OW24136   4.535   0.957   5.803  0.3078  0.3263  0.5271
 4168SOL    HW124137   4.539   0.894   5.875  0.0549 -1.1215 -0.7177
 4168SOL    HW224138   4.458   1.009   5.824 -0.0046  0.9179 -2.0457
 4169SOL     OW24139   1.448   2.071   1.396 -0.2514 -0.3118 -0.6059
 4169SOL    HW124140   1.382   2.052   1.462  0.6528 -1.6216 -0.0829
 4169SOL    HW224141   1.530   2.046   1.438 -0.3129  1.2316  0.4029
 4170SOL     OW24142   2.819   2.641   8.267 -0.2494  0.7074 -0.5619
 4170SOL    HW124143   2.886   2.574   8.274 -0.8052  0.0202 -1.9122
 4170SOL    HW224144   2.742   2.595   8.299  1.1418 -0.2605  1.4050
 4171SOL     OW24145   1.633   4.334  17.023 -0.0056  0.2658 -0.3935
 4171SOL    HW124146   1.554   4.309  17.071  0.3836  2.3439  1.3510
 4171SOL    HW224147   1.683   4.386  17.087 -2.0743  2.0289 -0.2110
 4172SOL     OW24148   2.320   4.196   9.086  0.7801  0.3135  0.4034
 4172SOL    HW124149   2.339   4.271   9.029  0.8488 -2.1962 -2.9075
 4172SOL    HW224150   2.387   4.202   9.154 -1.6633 -3.5917  3.1226
 4173SOL     OW24151   0.453   1.572   5.351 -0.1612 -0.3762  0.0493
 4173SOL    HW124152   0.433   1.617   5.433 -1.4434  1.4788 -1.2907
 4173SOL    HW224153   0.397   1.609   5.283 -0.3038  2.9717  1.9689
 4174SOL     OW24154   0.804   0.075  14.770 -0.1369  0.5769  0.4754
 4174SOL    HW124155   0.729   0.016  14.784 -0.6540  1.0614 -0.2740
 4174SOL    HW224156   0.777   0.115  14.688 -1.4235 -1.7144 -0.2228
 4175SOL     OW24157   4.557   1.405  10.116  0.1230  0.3482 -0.1263
 4175SOL    HW124158   4.604   1.454  10.182  0.4880  0.3651 -0.3995
 4175SOL    HW224159   4.480   1.380  10.168  0.7683  0.7360  1.0096
 4176SOL     OW24160   4.198   0.905   6.054  0.0955 -0.3198  0.0582
 4176SOL    HW124161   4.127   0.926   6.115 -0.7262 -2.2975 -0.2365
 4176SOL    HW224162   4.209   0.819   6.095  2.4334 -0.6272 -1.1990
 4177SOL     OW24163   1.696   3.398   6.805  0.1693 -0.0750 -0.3076
 4177SOL    HW124164   1.774   3.387   6.860  1.2791  2.3773 -1.3881
 4177SOL    HW224165   1.712   3.335   6.735 -0.0884 -1.2342  0.6776
 4178SOL     OW24166   4.006   3.973  10.919 -0.3462  0.4302 -0.3056
 4178SOL    HW124167   4.019   3.917  10.995  2.0362 -0.5611 -1.4376
 4178SOL    HW224168   4.039   4.058  10.949  1.0811  0.6628 -2.5151
 4179SOL     OW24169   4.303   3.742  12.142  0.0229 -0.3120 -0.0992
 4179SOL    HW124170   4.232   3.791  12.184 -0.9979  0.2616 -2.4919
 4179SOL    HW224171   4.249   3.663  12.136 -0.4544  0.1079 -1.3122
 4180SOL     OW24172   2.557   2.760   2.989  0.1713  0.1688  0.5078
 4180SOL    HW124173   2.579   2.744   3.081  1.5053  2.3597  0.5593
 4180SOL    HW224174   2.531   2.852   2.988 -0.1820  0.0403 -1.3039
 4181SOL     OW24175   4.256   0.624   4.391  0.3706  0.0898  0.3558
 4181SOL    HW124176   4.190   0.684   4.425  2.0831  1.2616  1.5513
 4181SOL    HW224177   4.202   0.545   4.384 -0.7828  0.9220 -0.2387
 4182SOL     OW24178   0.935   2.287   1.947  0.4337  0.4699  0.5600
 4182SOL    HW124179   0.963   2.363   1.897  0.4024  0.1764  0.0995
 4182SOL    HW224180   1.018   2.241   1.947 -0.1289 -0.5256 -1.7766
 4183SOL     OW24181   1.889   3.958   7.898  0.2920 -0.4609  0.0546
 4183SOL    HW124182   1.924   3.873   7.872 -0.7442 -1.1850  1.0258
 4183SOL    HW224183   1.963   3.989   7.950 -0.6142 -2.0254  2.2344
 4184SOL     OW24184   1.047   3.770   7.728 -0.0746 -0.2941  0.4514
 4184SOL    HW124185   1.047   3.794   7.821  0.1863  1.6461 -0.0518
 4184SOL    HW224186   1.140   3.776   7.706  0.3621 -1.1832  2.0410
 4185SOL     OW24187   1.250   3.710  12.142  0.7324  0.4111  0.3890
 4185SOL    HW124188   1.319   3.667  12.091  0.4809  0.1867  0.2355
 4185SOL    HW224189   1.218   3.783  12.090 -0.4656  1.1146  2.1235
 4186SOL     OW24190   1.779   4.293   5.820 -0.0934 -0.4833  0.1146
 4186SOL    HW124191   1.728   4.264   5.745  0.8949 -1.7207 -0.0937
 4186SOL    HW224192   1.809   4.209   5.855 -0.6124 -0.6825  0.0740
 4187SOL     OW24193   0.752   0.827  16.408 -0.2256  0.0776  0.6698
 4187SOL    HW124194   0.731   0.777  16.329 -0.2859 -0.7354  1.2122
 4187SOL    HW224195   0.682   0.893  16.398  0.6875  0.7320 -1.4380
 4188SOL     OW24196   3.859   0.191  14.064 -0.4906 -0.2759  0.7238
 4188SOL    HW124197   3.823   0.278  14.043  1.6137 -0.4293 -3.4846
 4188SOL    HW224198   3.952   0.207  14.078 -0.6129  0.3393  0.8350
 4189SOL     OW24199   0.721   0.949   8.206  0.2325 -0.1386  0.5512
 4189SOL    HW124200   0.644   0.900   8.176 -0.3736 -0.6508  2.9540
 4189SOL    HW224201   0.689   1.039   8.195 -0.8364 -0.5102  0.5615
 4190SOL     OW24202   3.592   1.838   5.007  0.2539  0.2101  0.3931
 4190SOL    HW124203   3.676   1.874   4.977  0.8576 -0.8068  0.8437
 4190SOL    HW224204   3.563   1.800   4.924 -0.8661  0.3211  0.7371
 4191SOL     OW24205   4.654   0.296  14.692 -0.3602 -0.1544 -0.4250
 4191SOL    HW124206   4.572   0.286  14.644 -1.3328 -2.2377  1.6938
 4191SOL    HW224207   4.626   0.263  14.777  1.1131  0.5066  0.3243
 4192SOL     OW24208   3.996   0.731  13.491  0.2245  0.3936 -0.4067
 4192SOL    HW124209   4.014   0.751  13.583  1.8309 -0.7568 -0.4706
 4192SOL    HW224210   4.014   0.637  13.493  1.3106  0.6304  1.4678
 4193SOL     OW24211   4.502   3.598   2.185  0.4590 -0.2776  1.0030
 4193SOL    HW124212   4.521   3.504   2.190 -0.0315 -0.3815  0.9608
 4193SOL    HW224213   4.414   3.594   2.224 -0.1884 -2.0926 -0.6801
 4194SOL     OW24214   0.235   3.575   3.606 -0.5691  0.1187  0.0736
 4194SOL    HW124215   0.196   3.530   3.531  0.6019 -1.2106  0.2544
 4194SOL    HW224216   0.289   3.504   3.641  0.6758  0.4785 -1.1431
 4195SOL     OW24217   0.870   0.901   7.264  0.2424  0.3060 -0.4350
 4195SOL    HW124218   0.822   0.856   7.193 -0.8971  0.4531  0.2362
 4195SOL    HW224219   0.856   0.847   7.342 -2.2443  0.8333 -0.4982
 4196SOL     OW24220   0.709   1.194   4.400  0.4276 -0.5347 -0.0252
 4196SOL    HW124221   0.715   1.236   4.486 -0.6986  1.2153 -0.7838
 4196SOL    HW224222   0.775   1.126   4.402  0.4147 -0.5015  1.1607
 4197SOL     OW24223   2.889   2.833  13.341  0.5285  0.4590 -0.0750
 4197SOL    HW124224   2.810   2.811  13.292  0.3622  1.3774 -0.2109
 4197SOL    HW224225   2.949   2.816  13.268 -2.9355 -1.3855 -2.4806
 4198SOL     OW24226   2.408   2.743  11.492  0.7261  0.2002 -0.1257
 4198SOL    HW124227   2.419   2.836  11.511 -1.7066  0.5808 -0.5437
 4198SOL    HW224228   2.342   2.748  11.423 -1.4836  0.3739  1.9939
 4199SOL     OW24229   1.757   3.948  10.724 -0.0026 -0.1971  0.3463
 4199SOL    HW124230   1.662   3.932  10.723 -0.3947  1.8728  2.4819
 4199SOL    HW224231   1.798   3.902  10.651  0.3053  0.6322 -0.0095
 4200SOL     OW24232   3.005   4.007  15.551 -0.3133 -0.1116 -0.2015
 4200SOL    HW124233   2.977   4.092  15.586  2.4580  0.4729  0.6737
 4200SOL    HW224234   2.963   3.954  15.618  0.1252  2.2719  1.9558
 4201SOL     OW24235   2.849   4.564   9.470 -0.0954  0.3000  0.8578
 4201SOL    HW124236   2.836   4.472   9.493  1.4633  0.1656  1.2603
 4201SOL    HW224237   2.944   4.561   9.453 -0.1011  3.5124  0.2011
 4202SOL     OW24238   3.433   0.553   4.034  0.4177 -0.4430 -0.3170
 4202SOL    HW124239   3.455   0.489   3.967  0.5010 -1.1075  0.3574
 4202SOL    HW224240   3.506   0.615   4.031 -0.7934  1.1125  2.5762
 4203SOL     OW24241   0.232   2.011   7.286  0.6327  0.0042 -0.4492
 4203SOL    HW124242   0.311   1.966   7.255  1.7980  0.8753  1.2791
 4203SOL    HW224243   0.191   1.954   7.351  1.0618  0.3638  0.1335
 4204SOL     OW24244   1.184   1.983  13.177  0.5437 -0.6980  0.1242
 4204SOL    HW124245   1.148   1.938  13.253  0.1609 -0.0065  0.3557
 4204SOL    HW224246   1.115   1.981  13.111  0.1380  1.1708  0.4892
 4205SOL     OW24247   1.055   3.178   9.822 -0.1922 -0.2255  0.4179
 4205SOL    HW124248   1.097   3.251   9.777 -0.1883 -0.3823  0.1665
 4205SOL    HW224249   1.065   3.118   9.748  3.3519 -0.9841  1.5103
 4206SOL     OW24250   0.001   1.638  17.681  0.4195 -0.2315 -0.4832
 4206SOL    HW124251   0.013   1.546  17.659 -1.2079 -0.5316 -0.1035
 4206SOL    HW224252   0.033   1.623   0.042 -1.1030 -1.5938 -0.1732
 4207SOL     OW24253   4.711   4.362  11.916 -0.3260 -0.5743 -0.2943
 4207SOL    HW124254   4.633   4.418  11.919 -0.2718 -0.5655  0.8672
 4207SOL    HW224255   4.677   4.275  11.937 -0.0682  0.0083  2.4513
 4208SOL     OW24256   3.805   3.197   7.537 -0.1842 -0.2992 -0.3115
 4208SOL    HW124257   3.846   3.116   7.508  1.9013  0.4927  0.3917
 4208SOL    HW224258   3.884   3.252   7.537 -0.8886  0.7135 -0.2711
 4209SOL     OW24259   2.791   2.445  11.970 -0.2971 -0.4430 -0.2194
 4209SOL    HW124260   2.763   2.357  11.996 -1.8260  0.5207  1.3858
 4209SOL    HW224261   2.719   2.484  11.921  0.1076 -1.3917 -1.5931
 4210SOL     OW24262   0.670   0.201   7.906 -1.0523 -0.6276 -0.7519
 4210SOL    HW124263   0.652   0.132   7.842  0.3425 -1.0409 -0.6952
 4210SOL    HW224264   0.726   0.267   7.863  0.1245 -0.7572  0.5773
 4211SOL     OW24265   1.816   3.018   6.997  0.7425 -0.0958  0.0195
 4211SOL    HW124266   1.837   3.011   7.090 -0.9634  2.4158  0.5922
 4211SOL    HW224267   1.720   3.013   7.002  0.9511 -2.2651  1.8707
 4212SOL     OW24268   0.648   4.044   7.213 -0.6013 -0.2946 -0.1052
 4212SOL    HW124269   0.561   4.077   7.193 -0.9827 -0.2580  1.5726
 4212SOL    HW224270   0.633   4.018   7.304  0.4873 -0.2846  0.0871
 4213SOL     OW24271   3.608   1.310   7.328  0.3112 -0.0070  0.1832
 4213SOL    HW124272   3.595   1.313   7.423 -1.3748 -0.7904 -0.0135
 4213SOL    HW224273   3.524   1.279   7.295  0.4928  0.1411 -0.4134
 4214SOL     OW24274   0.789   0.469   1.860 -0.7682  0.2796  0.3500
 4214SOL    HW124275   0.708   0.459   1.811 -0.1706 -0.6545 -0.4627
 4214SOL    HW224276   0.819   0.378   1.858 -0.8941  0.2209  1.4878
 4215SOL     OW24277   0.323   1.241   8.187  0.2307  0.5933 -0.1535
 4215SOL    HW124278   0.310   1.164   8.242  0.7763  0.5600 -0.0756
 4215SOL    HW224279   0.396   1.208   8.135 -0.5177  0.6317 -1.2420
 4216SOL     OW24280   0.794   3.721  13.066  0.0313 -0.6392 -0.9278
 4216SOL    HW124281   0.836   3.634  13.064 -0.8065 -1.0985  1.3904
 4216SOL    HW224282   0.712   3.688  13.102  0.4244  0.0968  0.6031
 4217SOL     OW24283   1.809   3.550   3.078  0.2650 -0.4146 -0.1441
 4217SOL    HW124284   1.778   3.460   3.092  0.4255 -0.1409  1.9773
 4217SOL    HW224285   1.744   3.593   3.133 -0.0325  0.9025 -1.5277
 4218SOL     OW24286   2.798   3.657  13.627  0.3858 -0.2214  0.3442
 4218SOL    HW124287   2.804   3.722  13.556  1.5599 -2.4605 -1.6118
 4218SOL    HW224288   2.725   3.692  13.677 -0.6468  0.5475 -1.6688
 4219SOL     OW24289   4.123   2.881  14.518 -0.1466 -0.0109  0.4449
 4219SOL    HW124290   4.055   2.854  14.579 -0.9680 -1.5788 -1.1730
 4219SOL    HW224291   4.174   2.805  14.492  1.1410  1.4002 -1.2170
 4220SOL     OW24292   0.108   4.654   2.032 -0.4041  0.1959  0.0819
 4220SOL    HW124293   0.030   4.662   2.087 -0.5011  2.2327 -0.3779
 4220SOL    HW224294   0.083   4.712   1.961  2.4991  1.7322  0.3264
 4221SOL     OW24295   2.218   2.067   7.854 -0.0506  0.5103  0.3431
 4221SOL    HW124296   2.128   2.074   7.822  0.0985  1.4858  0.1197
 4221SOL    HW224297   2.258   2.125   7.789 -1.8568 -1.6994 -2.7816
 4222SOL     OW24298   2.341   2.763   6.078 -0.0696  0.5063 -0.0188
 4222SOL    HW124299   2.430   2.738   6.104  0.1529 -0.4280 -1.6520
 4222SOL    HW224300   2.315   2.817   6.152 -0.8139 -0.1153  0.1722
 4223SOL     OW24301   1.804   2.947   4.842 -0.3156  0.5190 -0.1432
 4223SOL    HW124302   1.794   2.852   4.837  2.5062  0.2793 -0.9360
 4223SOL    HW224303   1.760   2.981   4.920  1.2230  1.7272  0.1751
 4224SOL     OW24304   2.908   4.087   7.323  0.4418  0.4237 -0.6195
 4224SOL    HW124305   2.917   4.043   7.407 -1.5531  1.5686  0.1993
 4224SOL    HW224306   2.945   4.020   7.265 -0.4840  0.5646 -1.3725
 4225SOL     OW24307   0.791   2.794  10.241 -0.1883  0.1769  0.1115
 4225SOL    HW124308   0.710   2.785  10.292  0.2431 -1.4636  0.5010
 4225SOL    HW224309   0.796   2.881  10.281  0.2310  0.6596 -0.9905
 4226SOL     OW24310   4.224   0.821   2.613 -0.0363  0.1224 -0.8003
 4226SOL    HW124311   4.190   0.817   2.523 -0.8021  2.1093 -0.5925
 4226SOL    HW224312   4.227   0.915   2.633 -0.7299  0.2458 -1.2832
 4227SOL     OW24313   0.173   1.966   6.121 -0.1915  0.3566 -0.0419
 4227SOL    HW124314   0.088   1.931   6.147 -0.2840 -0.6116 -1.6316
 4227SOL    HW224315   0.197   1.942   6.032 -1.8130 -3.4125  0.5522
 4228SOL     OW24316   4.514   4.600   4.422 -0.5916  0.2293 -0.4276
 4228SOL    HW124317   4.448   4.532   4.407  0.4663 -0.9818  0.4195
 4228SOL    HW224318   4.582   4.559   4.475  1.4250  2.2192 -1.4925
 4229SOL     OW24319   0.255   4.039   9.037 -0.8331  0.2100 -0.9455
 4229SOL    HW124320   0.190   4.109   9.029  0.3883  1.4256 -0.2743
 4229SOL    HW224321   0.227   4.004   9.121  2.9522  1.3959  0.8289
 4230SOL     OW24322   1.023   3.219   0.079 -0.0957 -0.2684  0.2025
 4230SOL    HW124323   1.109   3.235   0.040  0.9147  0.1791  2.6370
 4230SOL    HW224324   0.975   3.160   0.021  1.3746 -2.6601  1.4577
 4231SOL     OW24325   2.056   3.848   4.871 -0.6372  0.6237  0.0117
 4231SOL    HW124326   2.070   3.852   4.776  0.2621  0.6962  0.1484
 4231SOL    HW224327   2.019   3.936   4.881 -0.2121  0.7093  0.7661
 4232SOL     OW24328   1.635   2.587   3.084  1.1767 -0.7490  0.4540
 4232SOL    HW124329   1.592   2.504   3.064  1.9448 -1.1549  0.4973
 4232SOL    HW224330   1.695   2.556   3.152 -1.2250  1.8269  3.7669
 4233SOL     OW24331   1.581   2.456   5.105  0.0981  0.4429 -0.6298
 4233SOL    HW124332   1.507   2.507   5.073 -0.6063 -0.3714 -0.2807
 4233SOL    HW224333   1.635   2.531   5.131 -0.3963 -0.1256  2.0056
 4234SOL     OW24334   1.471   2.104   5.070  0.4514  0.3257 -0.2757
 4234SOL    HW124335   1.385   2.070   5.046 -1.0685  2.1833  2.4789
 4234SOL    HW224336   1.502   2.128   4.983 -0.1996  0.6378 -0.4243
 4235SOL     OW24337   0.658   3.626   8.368 -0.3861 -0.0262  0.0077
 4235SOL    HW124338   0.646   3.640   8.274 -1.6863  2.7289  0.6080
 4235SOL    HW224339   0.579   3.671   8.397 -0.6584 -0.3174 -0.2786
 4236SOL     OW24340   1.970   0.952   2.777 -0.1020  0.0097  0.1065
 4236SOL    HW124341   1.912   0.904   2.717 -0.6282  3.3335 -2.0545
 4236SOL    HW224342   2.039   0.982   2.719  0.3173  0.9368  1.0883
 4237SOL     OW24343   0.220   2.860   9.190  0.4023 -0.5048 -0.1172
 4237SOL    HW124344   0.133   2.899   9.196  1.0302  0.6598  1.2809
 4237SOL    HW224345   0.231   2.871   9.096  0.4075 -1.1544 -0.1973
 4238SOL     OW24346   1.044   2.237  13.272  0.0816  0.0837  0.0673
 4238SOL    HW124347   1.130   2.279  13.270  0.0830  0.0605 -0.3241
 4238SOL    HW224348   1.026   2.199  13.186  3.4708  0.6458 -0.8677
 4239SOL     OW24349   0.070   3.962  14.251  0.6749  0.7069  0.0145
 4239SOL    HW124350   0.125   4.039  14.268  0.0573  1.0752  0.3540
 4239SOL    HW224351   0.131   3.902  14.293 -1.2041 -1.2584 -0.1024
 4240SOL     OW24352   4.589   2.311   7.370 -0.5290 -0.2696  0.3617
 4240SOL    HW124353   4.507   2.332   7.324  1.0662  2.4782 -1.2293
 4240SOL    HW224354   4.552   2.246   7.429 -0.3034  0.2293  1.0496
 4241SOL     OW24355   1.406   1.960   3.147 -0.6219  0.5203  0.2101
 4241SOL    HW124356   1.441   1.898   3.211  0.1658 -0.1531 -0.8651
 4241SOL    HW224357   1.375   2.026   3.209  0.4085 -0.9037  2.2248
 4242SOL     OW24358   4.438   0.350   7.893 -0.1938  0.3914  0.4988
 4242SOL    HW124359   4.457   0.257   7.891  1.5957  0.7102  2.5194
 4242SOL    HW224360   4.421   0.355   7.987 -2.0388 -0.7790  0.2184
 4243SOL     OW24361   1.378   4.047   0.474  0.1654  0.0185  0.4470
 4243SOL    HW124362   1.385   4.142   0.462 -2.8842  0.0951 -0.7641
 4243SOL    HW224363   1.318   4.031   0.401 -1.1289  0.3256  1.4282
 4244SOL     OW24364   0.717   2.035  11.410 -0.3451  0.0509  0.5687
 4244SOL    HW124365   0.660   2.017  11.336 -1.6531 -0.0873  1.6149
 4244SOL    HW224366   0.791   1.976  11.395 -0.0961 -0.0244  2.0988
 4245SOL     OW24367   0.768   2.892   4.109  0.2075  0.1924  0.2394
 4245SOL    HW124368   0.728   2.964   4.060  1.6005 -0.9553 -2.5776
 4245SOL    HW224369   0.834   2.864   4.046  0.2294  0.5132  0.1198
 4246SOL     OW24370   4.309   2.159  12.634  0.5597 -0.0598  0.6037
 4246SOL    HW124371   4.224   2.165  12.678 -0.1990 -0.6840 -0.7846
 4246SOL    HW224372   4.338   2.068  12.643  1.9979  0.2370 -1.1171
 4247SOL     OW24373   1.136   0.838   0.185  0.2629  0.1989 -0.1153
 4247SOL    HW124374   1.080   0.911   0.161  2.1533  2.0823  1.2004
 4247SOL    HW224375   1.078   0.767   0.157 -0.0659  0.1618  0.6398
 4248SOL     OW24376   1.249   0.338   5.215  0.2519  0.3715  0.1162
 4248SOL    HW124377   1.237   0.342   5.310 -0.1752  1.2478  0.0307
 4248SOL    HW224378   1.222   0.251   5.187  2.1944  0.3815 -1.7127
 4249SOL     OW24379   2.368   4.590   4.731 -0.1967 -0.1521  0.0650
 4249SOL    HW124380   2.397   4.523   4.669  1.7477 -0.6534  1.5223
 4249SOL    HW224381   2.393   4.671   4.686  1.9079 -2.0872 -2.2202
 4250SOL     OW24382   2.161   0.132  12.519 -0.0857 -0.4347  0.2303
 4250SOL    HW124383   2.229   0.145  12.453  1.3548 -1.6977  1.4472
 4250SOL    HW224384   2.208   0.176  12.589 -1.5586 -0.6112  1.3315
 4251SOL     OW24385   2.261   2.529   1.914 -0.4168  0.1012 -0.6261
 4251SOL    HW124386   2.241   2.444   1.875 -2.0175  0.2378 -0.1273
 4251SOL    HW224387   2.355   2.534   1.899  0.1810  2.7684  4.0104
 4252SOL     OW24388   1.573   2.927   9.629 -0.3570  0.6720 -0.3108
 4252SOL    HW124389   1.571   2.850   9.572  1.1503 -0.3152  0.9573
 4252SOL    HW224390   1.523   2.896   9.705 -1.4407  0.3805 -1.1496
 4253SOL     OW24391   4.699   0.770  12.600  0.2258 -0.2753 -0.5938
 4253SOL    HW124392   0.045   0.824  12.612 -0.9371  1.3924 -0.5313
 4253SOL    HW224393   4.731   0.695  12.651  2.1264  1.6921  1.1062
 4254SOL     OW24394   4.565   2.781   4.595  0.0417 -0.6900  0.5929
 4254SOL    HW124395   4.585   2.826   4.513  1.3711 -3.5561 -0.6452
 4254SOL    HW224396   4.507   2.710   4.568  1.8667 -2.5781  1.6097
 4255SOL     OW24397   0.021   4.610   4.132  0.3835 -0.1107 -0.2447
 4255SOL    HW124398   0.059   4.555   4.063  1.4980  0.2310  0.0988
 4255SOL    HW224399   4.663   4.577   4.138  0.6044 -0.6756  0.0054
 4256SOL     OW24400   3.456   1.371   7.561 -0.2824  0.0403  0.1266
 4256SOL    HW124401   3.484   1.350   7.650  0.0439  3.1197  0.7398
 4256SOL    HW224402   3.487   1.461   7.550 -0.5062 -0.0231 -1.0647
 4257SOL     OW24403   1.687   4.524   3.282 -0.6379  0.2760 -0.4210
 4257SOL    HW124404   1.642   4.492   3.360  1.6933  1.6845  1.5046
 4257SOL    HW224405   1.762   4.465   3.278  0.7438  1.9630  0.5876
 4258SOL     OW24406   3.176   2.018   5.655 -0.2687 -0.6073  0.1085
 4258SOL    HW124407   3.212   2.045   5.740 -1.3629  0.9114  0.0867
 4258SOL    HW224408   3.215   2.090   5.606  0.0546 -1.2058 -0.5224
 4259SOL     OW24409   3.493   1.146  12.951 -0.0778  0.6682 -0.4501
 4259SOL    HW124410   3.449   1.135  12.867 -1.8451 -2.1595  0.8382
 4259SOL    HW224411   3.484   1.058  12.989  0.5426  0.3085 -1.1537
 4260SOL     OW24412   2.496   3.556   3.662 -0.0929 -0.0746  0.0361
 4260SOL    HW124413   2.423   3.618   3.666 -0.7912 -0.6992 -3.5824
 4260SOL    HW224414   2.549   3.584   3.587  3.6787  1.5090  3.2713
 4261SOL     OW24415   4.598   1.571   4.617 -0.4049 -0.3335  0.3082
 4261SOL    HW124416   4.566   1.483   4.594  1.2409 -1.4450  2.2822
 4261SOL    HW224417   4.685   1.571   4.577 -0.9509 -2.8272 -0.9074
 4262SOL     OW24418   2.107   1.077   5.358  0.0177 -0.3218  0.3318
 4262SOL    HW124419   2.150   1.059   5.442 -1.2452  3.1254  1.6847
 4262SOL    HW224420   2.069   1.161   5.382  2.1272  0.2825  1.5954
 4263SOL     OW24421   1.357   2.605   5.046  0.0301 -0.3133 -0.2136
 4263SOL    HW124422   1.276   2.567   5.014 -0.2154  0.0164  0.0108
 4263SOL    HW224423   1.326   2.655   5.122 -2.1324 -1.0112 -0.6323
 4264SOL     OW24424   4.579   0.377  17.377 -0.0807 -0.3900 -0.3890
 4264SOL    HW124425   4.509   0.443  17.374  0.2997 -0.1284 -3.9829
 4264SOL    HW224426   4.559   0.333  17.459  2.9216 -0.0288  0.4958
 4265SOL     OW24427   3.976   0.566  10.321  0.4253  0.0417  0.7692
 4265SOL    HW124428   3.980   0.640  10.261  0.4778 -0.6482 -0.0666
 4265SOL    HW224429   3.896   0.523  10.293  0.6358 -1.9338  3.2105
 4266SOL     OW24430   2.113   4.504   8.166 -0.5985  0.1887 -0.0612
 4266SOL    HW124431   2.022   4.500   8.196 -0.9884 -1.0896 -1.3841
 4266SOL    HW224432   2.131   4.594   8.139 -1.4768  0.6314  0.8129
 4267SOL     OW24433   3.467   4.169   7.306 -0.1120 -0.0720  0.8794
 4267SOL    HW124434   3.402   4.165   7.235  2.8912 -0.1587 -1.8518
 4267SOL    HW224435   3.434   4.246   7.354 -0.3011  0.3942  0.0076
 4268SOL     OW24436   0.874   1.858   1.829  0.3453 -0.7628 -0.1446
 4268SOL    HW124437   0.838   1.849   1.740  1.0731  0.6810 -0.5720
 4268SOL    HW224438   0.844   1.773   1.863 -2.9795  0.1036 -0.8737
 4269SOL     OW24439   2.164   0.314  14.301  0.3668  0.2953  0.1540
 4269SOL    HW124440   2.248   0.348  14.329  0.0756  0.2816  1.0475
 4269SOL    HW224441   2.149   0.361  14.220  0.5350 -1.5269 -0.9415
 4270SOL     OW24442   3.369   3.042   8.413 -0.0511 -0.3601  0.0274
 4270SOL    HW124443   3.313   3.092   8.472 -0.5280 -0.3250 -0.4615
 4270SOL    HW224444   3.342   3.073   8.327  0.8072  2.1232  0.6771
 4271SOL     OW24445   3.477   2.554   6.100 -0.0057  0.7020 -0.0019
 4271SOL    HW124446   3.525   2.472   6.087 -1.4327  0.2188 -2.1715
 4271SOL    HW224447   3.457   2.566   6.007  1.2309  1.8199 -0.1259
 4272SOL     OW24448   0.951   3.033   8.833 -0.2797  0.2069 -0.3037
 4272SOL    HW124449   0.879   3.091   8.810 -1.1160 -0.5484  0.4070
 4272SOL    HW224450   0.995   3.077   8.905  0.6331 -0.9424 -0.1482
 4273SOL     OW24451   1.017   3.142   3.768  0.4541 -0.0001 -0.0017
 4273SOL    HW124452   0.924   3.146   3.746  0.4809 -0.4297 -0.2125
 4273SOL    HW224453   1.025   3.050   3.794 -2.2589  0.6413  3.1422
 4274SOL     OW24454   3.878   2.322  10.435 -0.2375 -0.1300  0.1568
 4274SOL    HW124455   3.905   2.240  10.475 -1.9576 -1.7037 -1.9071
 4274SOL    HW224456   3.792   2.290  10.407  0.7792 -1.4035 -1.4879
 4275SOL     OW24457   1.409   3.028   1.401 -0.3530 -0.2208  0.6202
 4275SOL    HW124458   1.427   3.119   1.376 -2.0690 -0.0854 -0.1436
 4275SOL    HW224459   1.362   3.053   1.481  4.0096 -0.2194  3.1981
 4276SOL     OW24460   1.781   0.599  12.210  0.1618  0.0250  0.0404
 4276SOL    HW124461   1.775   0.505  12.224 -1.0631  0.1783  0.4912
 4276SOL    HW224462   1.876   0.607  12.214  0.1377  0.4604 -0.1675
 4277SOL     OW24463   4.532   3.601   6.423  0.2648  0.6267  0.1264
 4277SOL    HW124464   4.530   3.598   6.519  1.1806 -1.9086  0.0602
 4277SOL    HW224465   4.507   3.690   6.399 -2.9033 -0.2814  0.0068
 4278SOL     OW24466   2.493   4.160  12.642 -0.0215 -0.0841  0.3614
 4278SOL    HW124467   2.520   4.193  12.557  1.9406 -1.4906  0.4534
 4278SOL    HW224468   2.578   4.128  12.671  1.1028  1.8504 -0.8756
 4279SOL     OW24469   1.043   0.986   4.468  0.3064  0.2328 -0.2719
 4279SOL    HW124470   1.050   0.926   4.394  0.6427  0.8252 -0.7243
 4279SOL    HW224471   0.949   0.972   4.482  0.3889  0.2346  0.2900
 4280SOL     OW24472   1.953   0.878   9.418  0.3166 -0.0432 -0.3329
 4280SOL    HW124473   1.927   0.807   9.359  0.3562 -0.1454 -0.2269
 4280SOL    HW224474   1.990   0.831   9.492  1.9379  0.3023 -0.9206
 4281SOL     OW24475   0.538   0.671  14.850  0.0117  0.1946 -0.2110
 4281SOL    HW124476   0.448   0.696  14.868 -0.1736 -1.3457  0.9589
 4281SOL    HW224477   0.542   0.583  14.889 -0.8032  0.5851  0.7410
 4282SOL     OW24478   3.558   1.428  16.632 -0.1654 -0.2626  0.0100
 4282SOL    HW124479   3.502   1.353  16.653  0.2757  0.0339  2.2087
 4282SOL    HW224480   3.600   1.408  16.548 -0.5204 -0.0033 -0.2299
 4283SOL     OW24481   4.220   1.332   1.994  0.0866  0.8170 -0.1357
 4283SOL    HW124482   4.308   1.334   2.032 -0.2038 -0.9761  0.6410
 4283SOL    HW224483   4.245   1.340   1.902 -1.0310 -3.6074 -0.8471
 4284SOL     OW24484   2.140   1.654   2.855  0.3159 -0.2188 -0.1251
 4284SOL    HW124485   2.125   1.606   2.936  2.0966 -1.2097 -0.3863
 4284SOL    HW224486   2.047   1.672   2.845  0.5741  0.6253 -1.0935
 4285SOL     OW24487   4.108   2.729  14.825  0.7558 -0.2115 -0.6491
 4285SOL    HW124488   4.096   2.803  14.884 -1.9776 -0.5079 -0.8361
 4285SOL    HW224489   4.034   2.752  14.767  1.4718 -0.4965 -1.6805
 4286SOL     OW24490   4.682   2.822  10.563 -0.1683  0.0661  0.6951
 4286SOL    HW124491   4.660   2.901  10.611  1.3538 -0.2542  1.9406
 4286SOL    HW224492   4.630   2.760  10.613 -0.0359 -0.7341 -0.1433
 4287SOL     OW24493   2.116   1.787   3.618  0.3000  0.0740  0.1479
 4287SOL    HW124494   2.072   1.709   3.586  3.0245 -1.2342 -0.4063
 4287SOL    HW224495   2.098   1.792   3.712  0.0769  1.0381  0.0620
 4288SOL     OW24496   0.585   0.843   8.480 -0.1171  0.1162 -0.3239
 4288SOL    HW124497   0.632   0.819   8.560 -0.2529 -3.1363 -1.2102
 4288SOL    HW224498   0.654   0.846   8.413 -0.2259 -0.3314 -0.4573
 4289SOL     OW24499   2.046   1.356   9.168  0.0109 -0.0943 -0.3475
 4289SOL    HW124500   2.018   1.328   9.255  0.7896 -2.0628 -0.7149
 4289SOL    HW224501   1.978   1.322   9.111  0.2759 -0.4423 -0.4613
 4290SOL     OW24502   3.460   3.049   8.060 -0.3186  0.2475 -0.1002
 4290SOL    HW124503   3.437   2.983   7.995 -1.4851  0.5878 -0.0363
 4290SOL    HW224504   3.500   3.111   8.000  2.4728 -0.7163  0.7498
 4291SOL     OW24505   1.814   1.934   5.710  0.4778  0.0108 -0.4756
 4291SOL    HW124506   1.759   1.856   5.717 -0.5291  0.9383  1.8707
 4291SOL    HW224507   1.751   2.003   5.732 -1.0282 -3.0824  4.8410
 4292SOL     OW24508   3.615   0.295   1.390  0.1177  0.5535  0.0630
 4292SOL    HW124509   3.575   0.301   1.303  0.0938  2.0004  0.1767
 4292SOL    HW224510   3.611   0.388   1.414  0.3431  0.3537  0.8758
 4293SOL     OW24511   0.114   0.444   2.955 -0.2948 -0.3793  0.3968
 4293SOL    HW124512   0.068   0.510   2.903  0.3843 -0.8993 -0.8509
 4293SOL    HW224513   0.079   0.366   2.912  1.0602 -1.7952  1.8820
 4294SOL     OW24514   0.800   4.273   8.184 -0.2304  0.3362 -0.1420
 4294SOL    HW124515   0.851   4.303   8.108 -0.9590  1.1126 -0.3219
 4294SOL    HW224516   0.841   4.334   8.245  0.6579 -2.3811  1.9809
 4295SOL     OW24517   3.774   2.921  16.564 -0.1870  0.1138 -0.0062
 4295SOL    HW124518   3.870   2.918  16.563 -0.1704  0.4740  0.4182
 4295SOL    HW224519   3.750   2.833  16.535  1.1537 -0.7453  1.4107
 4296SOL     OW24520   1.765   2.789   9.288  0.5754  0.1654 -0.3954
 4296SOL    HW124521   1.824   2.751   9.222 -1.4018  0.0531 -2.0825
 4296SOL    HW224522   1.813   2.790   9.371 -1.7844 -0.7966  0.9449
 4297SOL     OW24523   3.342   4.630   6.571 -0.7058  0.2429  0.4591
 4297SOL    HW124524   3.287   4.587   6.506 -3.7017  0.5832  2.7675
 4297SOL    HW224525   3.425   4.598   6.536 -0.5048  0.1801  0.9927
 4298SOL     OW24526   0.232   2.704   7.009  0.9316  0.0271 -0.4997
 4298SOL    HW124527   0.311   2.689   7.060  0.8653  2.1921  0.2131
 4298SOL    HW224528   0.259   2.662   6.927  1.0590 -1.9251  0.5281
 4299SOL     OW24529   1.940   3.879   5.469 -0.0072  0.8008  0.0236
 4299SOL    HW124530   1.863   3.882   5.526  0.7496 -1.0417  1.1280
 4299SOL    HW224531   1.905   3.829   5.395 -0.1427  1.9309 -0.6745
 4300SOL     OW24532   3.835   4.333   4.298  0.3284  0.7542  0.3052
 4300SOL    HW124533   3.802   4.359   4.212 -2.0591 -2.2121  0.3353
 4300SOL    HW224534   3.809   4.413   4.343 -0.2195  0.8721 -0.2107
 4301SOL     OW24535   4.117   1.677   3.235 -0.3206 -0.0803 -0.5292
 4301SOL    HW124536   4.162   1.651   3.155 -4.1485 -1.7491 -2.1528
 4301SOL    HW224537   4.134   1.770   3.246 -0.0308  0.0197 -1.8399
 4302SOL     OW24538   2.810   2.131   7.150 -0.0881 -0.2051 -0.0715
 4302SOL    HW124539   2.788   2.224   7.159  0.9201  0.1902 -1.7352
 4302SOL    HW224540   2.782   2.088   7.231  1.1670  0.8145  0.9047
 4303SOL     OW24541   0.260   3.053   5.873 -0.2127  0.0099 -0.0794
 4303SOL    HW124542   0.310   3.134   5.890 -0.8124  0.2361  0.6398
 4303SOL    HW224543   0.215   3.037   5.956  0.8687 -0.1538  0.4744
 4304SOL     OW24544   0.373   0.483  15.969  0.8323  0.3819  0.2975
 4304SOL    HW124545   0.357   0.464  16.062 -1.4191 -0.6358 -0.3043
 4304SOL    HW224546   0.317   0.560  15.980 -0.3875 -0.3973 -0.4569
 4305SOL     OW24547   1.711   3.127  17.268  0.1985  0.0755  0.3248
 4305SOL    HW124548   1.670   3.058  17.216 -1.8529 -0.4125  2.6400
 4305SOL    HW224549   1.691   3.097  17.356 -0.9606  0.8680  0.3380
 4306SOL     OW24550   4.683   0.312   4.488 -0.5036 -0.1937  0.1301
 4306SOL    HW124551   4.725   0.351   4.411 -2.0337  0.4526 -0.3674
 4306SOL    HW224552   0.032   0.289   4.533 -0.7289 -0.5353  0.3641
 4307SOL     OW24553   2.460   2.766   7.291 -0.4168  0.0331  0.5103
 4307SOL    HW124554   2.545   2.792   7.328 -0.5644  0.8105  0.3033
 4307SOL    HW224555   2.415   2.717   7.361 -2.1642  0.0831 -0.5846
 4308SOL     OW24556   2.808   2.556  17.444  0.0152  0.0378  0.9664
 4308SOL    HW124557   2.817   2.650  17.458 -0.4932  0.5936 -2.4735
 4308SOL    HW224558   2.716   2.544  17.418 -0.0431  1.3915  0.5454
 4309SOL     OW24559   2.335   1.837   2.071  0.8137 -0.6870 -0.4721
 4309SOL    HW124560   2.274   1.847   2.144  1.9470 -1.3769  0.5925
 4309SOL    HW224561   2.292   1.909   2.026 -0.6945 -1.6613 -0.6148
 4310SOL     OW24562   1.861   4.014  16.855  0.1452 -0.1534 -0.4999
 4310SOL    HW124563   1.769   4.018  16.883  0.0678 -2.7866 -0.3858
 4310SOL    HW224564   1.903   4.028  16.940 -1.1856  1.1662 -0.0542
 4311SOL     OW24565   3.156   0.860   5.228  0.4839 -0.1108  0.0368
 4311SOL    HW124566   3.103   0.868   5.149 -1.6016  0.5770  1.5015
 4311SOL    HW224567   3.093   0.833   5.296  1.2735  0.6684  1.0882
 4312SOL     OW24568   3.316   3.173   7.076 -0.9446  0.0297 -0.4334
 4312SOL    HW124569   3.275   3.173   7.163  0.8614 -3.3931  0.4087
 4312SOL    HW224570   3.318   3.266   7.056  4.6116  0.7750  3.4250
 4313SOL     OW24571   4.647   1.821   1.797  0.2931  0.1078  0.1360
 4313SOL    HW124572   4.647   1.900   1.851  0.6732  2.0568 -2.6842
 4313SOL    HW224573   4.559   1.786   1.811 -0.6470  2.9638  1.2803
 4314SOL     OW24574   0.759   1.501  11.244  0.1790  0.2184  0.1020
 4314SOL    HW124575   0.822   1.570  11.223  1.5674 -1.3959 -1.1617
 4314SOL    HW224576   0.807   1.424  11.213  0.6761  0.1602  1.0107
 4315SOL     OW24577   0.880   2.136   6.606 -0.4159  0.3417  0.7018
 4315SOL    HW124578   0.849   2.050   6.579 -0.8477  0.0759  2.0768
 4315SOL    HW224579   0.919   2.116   6.691 -0.8393  1.0231  1.0563
 4316SOL     OW24580   1.093   0.325   3.741 -0.0854 -0.2202  0.1904
 4316SOL    HW124581   1.144   0.388   3.794 -2.2754  2.1787 -0.5528
 4316SOL    HW224582   1.149   0.319   3.664  0.1445  0.1504  0.3259
 4317SOL     OW24583   0.984   0.145   5.689 -0.1394  0.6332  0.0410
 4317SOL    HW124584   0.987   0.156   5.594 -1.8265  2.0553  0.1613
 4317SOL    HW224585   1.049   0.209   5.717  1.6320 -1.4901  0.7902
 4318SOL     OW24586   3.730   1.252   2.527 -0.0536  0.0924  0.4531
 4318SOL    HW124587   3.763   1.235   2.615 -1.6827 -0.4216  0.9632
 4318SOL    HW224588   3.638   1.240   2.549 -0.7271 -1.0711 -2.9748
 4319SOL     OW24589   2.004   4.145   8.457  0.0397 -0.1026  0.8851
 4319SOL    HW124590   2.052   4.071   8.419 -1.5397 -0.2118 -0.8965
 4319SOL    HW224591   2.072   4.202   8.492 -0.9177  2.4977 -1.4755
 4320SOL     OW24592   2.293   2.953   0.001 -0.3743  0.1036  0.0937
 4320SOL    HW124593   2.217   2.923   0.050 -1.0801  1.8355  0.0649
 4320SOL    HW224594   2.364   2.967   0.064  0.9247  0.0320 -1.3640
 4321SOL     OW24595   4.592   1.753  12.064  0.8485  0.1730 -0.2052
 4321SOL    HW124596   4.539   1.830  12.086 -0.5784 -0.7485 -0.4485
 4321SOL    HW224597   4.675   1.771  12.110  0.1565 -0.8096  1.4072
 4322SOL     OW24598   3.285   2.339   0.432  0.2750 -0.3943  0.1278
 4322SOL    HW124599   3.311   2.429   0.413 -0.2413 -0.3214 -0.2392
 4322SOL    HW224600   3.240   2.310   0.353  1.0638 -0.4670 -0.2926
 4323SOL     OW24601   1.402   0.164  13.614  0.3434  0.2100  0.1027
 4323SOL    HW124602   1.437   0.176  13.702  0.7707 -0.2995  0.0066
 4323SOL    HW224603   1.326   0.119  13.651 -0.8962  1.8527 -0.4430
 4324SOL     OW24604   0.382   4.475   8.393 -0.3780 -0.2162  0.3507
 4324SOL    HW124605   0.298   4.459   8.349 -0.7375 -1.6732  1.5795
 4324SOL    HW224606   0.444   4.464   8.321  0.1337 -0.0486  0.7610
 4325SOL     OW24607   3.098   2.593   2.210 -0.3054  0.1721 -0.0415
 4325SOL    HW124608   3.092   2.523   2.145 -0.6923 -0.9252  1.1841
 4325SOL    HW224609   3.059   2.562   2.292  1.2984 -0.0080  0.6527
 4326SOL     OW24610   3.127   0.415  10.524 -0.1555  0.4327 -0.0772
 4326SOL    HW124611   3.219   0.443  10.517  0.5750 -2.3143 -1.3445
 4326SOL    HW224612   3.110   0.471  10.600  0.2865  0.7268 -0.1921
 4327SOL     OW24613   2.437   2.844   4.036 -0.2759  0.2406 -0.0836
 4327SOL    HW124614   2.525   2.874   4.015 -0.4615  1.2703  0.5467
 4327SOL    HW224615   2.447   2.753   4.061 -2.7902 -0.0616 -0.1366
 4328SOL     OW24616   2.236   1.344   8.922 -0.4974  0.1831  0.0812
 4328SOL    HW124617   2.282   1.397   8.987 -1.0891  0.3694  0.3483
 4328SOL    HW224618   2.150   1.385   8.918  0.0093  1.0657 -2.0248
 4329SOL     OW24619   3.763   0.693   6.447 -0.1983  0.1301 -0.4021
 4329SOL    HW124620   3.753   0.598   6.436 -1.1304  0.1945 -0.1270
 4329SOL    HW224621   3.671   0.720   6.448 -0.0581  0.5777 -0.0344
 4330SOL     OW24622   2.089   1.909   5.265  0.1018  0.1349  0.1042
 4330SOL    HW124623   2.026   1.907   5.193  0.5593  2.2014 -0.3535
 4330SOL    HW224624   2.028   1.903   5.338 -0.7826 -0.2840 -0.6661
 4331SOL     OW24625   1.305   3.655  15.133  0.0717 -0.0551 -0.1552
 4331SOL    HW124626   1.384   3.600  15.140  0.0716  0.0001  0.3119
 4331SOL    HW224627   1.330   3.725  15.194  0.1321 -1.8049  1.8367
 4332SOL     OW24628   0.976   1.904  13.011 -0.2224  0.4986 -0.3080
 4332SOL    HW124629   0.955   1.983  12.961  2.6179 -0.3386 -2.7828
 4332SOL    HW224630   0.988   1.847  12.936 -0.7290  0.4762 -0.3715
 4333SOL     OW24631   0.117   3.591   8.360  0.0858  0.1164  0.0632
 4333SOL    HW124632   0.123   3.612   8.453  0.3775  1.8400 -0.3319
 4333SOL    HW224633   0.059   3.660   8.327  1.8857  1.6386  0.0495
 4334SOL     OW24634   4.553   0.283  10.462  0.1280  0.1500 -0.0121
 4334SOL    HW124635   4.540   0.349  10.530 -0.5641 -0.1660  0.1642
 4334SOL    HW224636   4.558   0.339  10.384 -2.0168 -3.6790 -2.9176
 4335SOL     OW24637   1.049   4.639   5.787 -0.1078  0.4239  0.4243
 4335SOL    HW124638   1.012   4.723   5.758  0.6602  0.5257 -0.2270
 4335SOL    HW224639   1.018   4.642   5.878  0.3744  1.2575  0.5668
 4336SOL     OW24640   1.491   4.640   2.548 -0.1130 -0.1747 -0.1021
 4336SOL    HW124641   1.456   4.644   2.459 -1.4538  0.7662  0.4638
 4336SOL    HW224642   1.450   4.711   2.597  1.4086  0.9068 -0.4082
 4337SOL     OW24643   4.423   0.471   8.142  0.3029  0.4326  0.1836
 4337SOL    HW124644   4.402   0.502   8.230  0.9255 -0.6392  0.7187
 4337SOL    HW224645   4.486   0.527   8.098  0.7431  0.0685  0.3510
 4338SOL     OW24646   1.922   3.604   2.133  0.2562 -0.2237  0.3916
 4338SOL    HW124647   2.002   3.606   2.081  0.5299 -0.8060  0.7855
 4338SOL    HW224648   1.867   3.660   2.079  0.8799 -2.3472 -2.4062
 4339SOL     OW24649   3.650   4.365   4.594  0.3451  0.3791  0.0807
 4339SOL    HW124650   3.666   4.433   4.528  0.0335  1.1828  0.8277
 4339SOL    HW224651   3.673   4.409   4.676 -0.3241 -1.2867  1.1552
 4340SOL     OW24652   2.213   3.722  13.782  0.0847  0.0754  0.1612
 4340SOL    HW124653   2.268   3.666  13.726  1.4269  2.5225 -0.9566
 4340SOL    HW224654   2.257   3.689  13.860  2.4023  0.8725 -0.7977
 4341SOL     OW24655   3.925   3.950   9.667  1.0779 -0.3627 -0.1558
 4341SOL    HW124656   3.845   3.914   9.628  0.3334  1.7342 -0.5270
 4341SOL    HW224657   3.941   4.036   9.628  1.1898 -0.8170 -1.1263
 4342SOL     OW24658   4.597   3.984   8.100  0.3332 -0.1972 -0.3921
 4342SOL    HW124659   4.552   4.020   8.024  1.8550 -0.6962 -1.5213
 4342SOL    HW224660   4.556   4.036   8.170  1.0743  0.9047 -0.7738
 4343SOL     OW24661   0.353   0.760   4.861 -0.5431  0.0473  0.1976
 4343SOL    HW124662   0.283   0.791   4.802 -0.0727 -0.0807 -0.4235
 4343SOL    HW224663   0.312   0.685   4.904  0.8537  1.4754  4.0386
 4344SOL     OW24664   3.753   4.460   4.077  0.1370  0.6253  0.2498
 4344SOL    HW124665   3.820   4.427   4.017 -1.2057  0.3407 -1.0918
 4344SOL    HW224666   3.675   4.458   4.022  1.2738  0.2176 -1.3537
 4345SOL     OW24667   3.487   0.176   5.510  0.1442  0.4860 -0.5905
 4345SOL    HW124668   3.557   0.128   5.552 -1.8777 -0.9221  1.1524
 4345SOL    HW224669   3.532   0.184   5.426 -1.0187  1.0421 -1.1628
 4346SOL     OW24670   1.090   4.228   1.698 -0.0276 -0.5676 -0.1893
 4346SOL    HW124671   1.006   4.184   1.711 -0.0036  0.4901  3.6392
 4346SOL    HW224672   1.139   4.199   1.775  2.4917  1.5637 -1.0013
 4347SOL     OW24673   4.095   3.844   5.331  0.3762  0.4910 -0.0592
 4347SOL    HW124674   4.139   3.889   5.259  0.3421 -0.1504 -0.4807
 4347SOL    HW224675   4.092   3.911   5.400  0.0420 -1.3457  1.7001
 4348SOL     OW24676   3.469   2.012   7.931  0.0285 -0.1281 -0.1471
 4348SOL    HW124677   3.426   1.928   7.949 -0.4572  0.6633  2.2991
 4348SOL    HW224678   3.544   2.002   7.990  1.3841  3.1218 -1.3297
 4349SOL     OW24679   3.894   4.161   4.990  0.2835  0.3365 -0.8985
 4349SOL    HW124680   3.989   4.167   4.986  0.4043  0.1313  1.5100
 4349SOL    HW224681   3.860   4.085   4.943 -0.1645  0.1422 -0.2583
 4350SOL     OW24682   1.288   3.449   4.499 -0.1600 -0.4775  0.0022
 4350SOL    HW124683   1.368   3.410   4.535 -0.3891 -1.9348 -1.0949
 4350SOL    HW224684   1.217   3.385   4.512 -1.4593  0.4052 -2.7799
 4351SOL     OW24685   2.657   3.785   2.538  0.5646  0.0081 -0.3035
 4351SOL    HW124686   2.649   3.690   2.528  1.8777 -0.0149 -1.1465
 4351SOL    HW224687   2.570   3.816   2.515  0.5577  0.9260  0.9820
 4352SOL     OW24688   2.585   1.091   2.693 -0.5327 -0.1935 -0.3625
 4352SOL    HW124689   2.611   1.084   2.601  1.1721  0.0641  0.1067
 4352SOL    HW224690   2.667   1.069   2.738 -2.3110 -3.1273  1.4623
 4353SOL     OW24691   0.265   0.187  15.988  0.0423 -0.1037 -0.4297
 4353SOL    HW124692   0.327   0.254  15.960 -0.5415  1.1512  1.3525
 4353SOL    HW224693   0.308   0.107  15.957 -0.3190 -1.0252  1.4207
 4354SOL     OW24694   1.586   3.326   1.574 -0.0549  0.3745 -0.0002
 4354SOL    HW124695   1.527   3.321   1.649 -0.4498  0.7940 -0.2823
 4354SOL    HW224696   1.643   3.396   1.608  2.3677 -1.8677  0.5584
 4355SOL     OW24697   2.117   3.708  14.886  1.0202 -0.1574 -0.3198
 4355SOL    HW124698   2.201   3.745  14.858  0.5869 -0.8084 -2.4527
 4355SOL    HW224699   2.067   3.779  14.924  0.2899 -0.3422 -0.9370
 4356SOL     OW24700   2.871   4.405  11.561  0.2531  0.4623  0.2362
 4356SOL    HW124701   2.868   4.345  11.487  1.8457  0.4351  0.1892
 4356SOL    HW224702   2.825   4.481  11.527 -0.0950  0.4813  0.7499
 4357SOL     OW24703   4.283   0.436   4.647 -0.0406  0.5502 -0.3789
 4357SOL    HW124704   4.273   0.519   4.601 -1.8500 -0.4459 -1.7744
 4357SOL    HW224705   4.350   0.461   4.711 -0.2734  0.0838  0.0399
 4358SOL     OW24706   1.814   0.231   3.700  0.4312 -0.4220  0.3602
 4358SOL    HW124707   1.728   0.197   3.722 -0.0270  0.7501  0.3943
 4358SOL    HW224708   1.842   0.284   3.776  1.1324 -0.6627  0.2754
 4359SOL     OW24709   3.609   1.471   0.117 -0.1293  0.2816 -0.5205
 4359SOL    HW124710   3.667   1.425   0.177 -0.8186  1.4993  1.0785
 4359SOL    HW224711   3.669   1.535   0.079 -1.3198 -0.1908 -3.2271
 4360SOL     OW24712   0.113   0.657   1.431  0.0770  0.1492 -0.5480
 4360SOL    HW124713   0.136   0.744   1.463 -1.5071  0.6131 -0.7121
 4360SOL    HW224714   0.022   0.647   1.459  0.5354  1.7047  1.4615
 4361SOL     OW24715   2.570   0.043   3.512 -0.3234 -0.3812  0.5054
 4361SOL    HW124716   2.580   4.694   3.462  0.0220 -0.5798  0.8860
 4361SOL    HW224717   2.595   0.103   3.442 -1.3556 -0.9649 -0.3644
 4362SOL     OW24718   1.219   0.232   8.290  0.3093  0.3950 -0.1330
 4362SOL    HW124719   1.267   0.282   8.356  1.5104 -0.9885  0.0310
 4362SOL    HW224720   1.288   0.196   8.235 -0.9162  0.8528 -1.9763
 4363SOL     OW24721   1.652   0.728   9.064  0.1346 -0.1603  0.5340
 4363SOL    HW124722   1.648   0.697   8.973  0.7849  2.2142 -0.2909
 4363SOL    HW224723   1.562   0.712   9.092 -0.0049  1.7135  1.1334
 4364SOL     OW24724   3.386   2.687  16.649  0.0259 -0.2344 -0.4688
 4364SOL    HW124725   3.386   2.657  16.740  0.8356  1.8434  0.2150
 4364SOL    HW224726   3.464   2.642  16.617  1.1495  0.4789  1.2878
 4365SOL     OW24727   2.839   0.027   3.726  0.2472 -0.6384  0.2461
 4365SOL    HW124728   2.768   4.702   3.754 -1.0708  0.6184 -0.5438
 4365SOL    HW224729   2.801   0.109   3.756 -3.3277 -2.3615  0.4241
 4366SOL     OW24730   4.108   4.106   6.691 -0.5370 -0.0879  0.0181
 4366SOL    HW124731   4.069   4.021   6.673 -0.7365  0.0201 -0.0588
 4366SOL    HW224732   4.163   4.078   6.764  0.1944  1.3693  0.0237
 4367SOL     OW24733   4.618   1.120  10.840 -0.1894 -0.2973  0.7304
 4367SOL    HW124734   4.578   1.126  10.753 -3.2084  0.5849  2.1492
 4367SOL    HW224735   4.704   1.155  10.819 -0.4336  0.9981  1.8663
 4368SOL     OW24736   2.223   0.043   9.307  0.2829  0.5429  0.9136
 4368SOL    HW124737   2.316   0.061   9.321 -0.0223  2.0130  1.0242
 4368SOL    HW224738   2.192   0.036   9.398  0.6044 -1.9439  0.8254
 4369SOL     OW24739   3.485   4.080   1.591  0.6857 -0.4266  0.0637
 4369SOL    HW124740   3.479   4.167   1.551  1.3991 -0.5534 -0.3196
 4369SOL    HW224741   3.577   4.070   1.566  1.3501  1.1302  1.8727
 4370SOL     OW24742   0.505   4.104   3.130 -0.0449 -0.0921  0.0284
 4370SOL    HW124743   0.458   4.167   3.076  2.1929  0.6611 -1.0384
 4370SOL    HW224744   0.598   4.122   3.112 -0.3136  1.3193  0.0692
 4371SOL     OW24745   3.749   2.421   4.833  0.1556  0.2389  0.2875
 4371SOL    HW124746   3.813   2.429   4.904 -0.8464 -0.1811  1.2363
 4371SOL    HW224747   3.793   2.448   4.752  0.9092 -0.6390  0.4073
 4372SOL     OW24748   2.594   3.855   9.426 -0.1880  0.3553 -0.1885
 4372SOL    HW124749   2.675   3.807   9.410 -1.2126 -0.7336 -2.2240
 4372SOL    HW224750   2.623   3.903   9.503 -1.0697 -2.3176  1.8237
 4373SOL     OW24751   4.545   0.604   1.731  0.0052  0.3128 -0.1842
 4373SOL    HW124752   4.548   0.650   1.647  2.8409 -1.3901 -1.0043
 4373SOL    HW224753   4.637   0.607   1.759  0.1767  0.1276 -0.7272
 4374SOL     OW24754   3.396   0.623   8.836 -0.9716 -0.6361  0.1587
 4374SOL    HW124755   3.479   0.672   8.835 -1.3569 -0.0202 -1.1721
 4374SOL    HW224756   3.344   0.698   8.866 -2.7418 -1.4589 -0.9239
 4375SOL     OW24757   1.912   3.907   2.647  0.0101  0.2649  0.0838
 4375SOL    HW124758   1.979   3.930   2.583  0.6142 -1.1759  0.1836
 4375SOL    HW224759   1.946   3.960   2.718 -2.2141  1.2707  0.3952
 4376SOL     OW24760   1.491   1.096   4.820 -0.6008  0.1126  0.2850
 4376SOL    HW124761   1.467   1.037   4.749  0.7608 -0.4010  0.2441
 4376SOL    HW224762   1.553   1.151   4.772  0.5923 -1.5399 -0.0607
 4377SOL     OW24763   1.141   3.889   4.333  0.2857  0.0787 -0.3808
 4377SOL    HW124764   1.105   3.801   4.347  0.6874 -0.0310 -0.0495
 4377SOL    HW224765   1.232   3.867   4.353  0.2061 -1.9927 -2.3262
 4378SOL     OW24766   0.721   3.565  14.758  0.1662  0.1676  0.0484
 4378SOL    HW124767   0.707   3.569  14.853 -1.5459  0.9841 -0.2529
 4378SOL    HW224768   0.634   3.580  14.721 -0.1450 -0.7206  0.4160
 4379SOL     OW24769   4.141   3.620  15.088  0.1447 -0.0013 -0.2617
 4379SOL    HW124770   4.090   3.586  15.016 -1.1128 -0.1576  0.7082
 4379SOL    HW224771   4.139   3.716  15.086  0.2510  0.0171  0.2962
 4380SOL     OW24772   3.587   0.005   9.241  0.2511  0.2110  0.3249
 4380SOL    HW124773   3.666   0.002   9.294  0.3194 -1.7846  0.1043
 4380SOL    HW224774   3.620   0.002   9.151  0.9246 -0.3777  0.5964
 4381SOL     OW24775   4.210   0.085  12.911 -0.0909  0.1191 -0.3370
 4381SOL    HW124776   4.275   0.017  12.897  1.3275  1.3661  0.2077
 4381SOL    HW224777   4.127   0.041  12.892 -0.6618  0.9831  0.1495
 4382SOL     OW24778   0.931   2.888   3.200 -0.0129 -0.6240  0.3613
 4382SOL    HW124779   0.883   2.806   3.187 -1.3016  0.0468  0.9496
 4382SOL    HW224780   0.879   2.929   3.131  1.2447 -2.4910 -1.7200
 4383SOL     OW24781   4.343   2.801   8.818  0.0346  0.2227  0.0820
 4383SOL    HW124782   4.314   2.841   8.736  0.2258  0.4473  0.1245
 4383SOL    HW224783   4.434   2.796   8.789 -0.7885 -0.9127 -2.3495
 4384SOL     OW24784   2.255   2.642   8.048  0.4179 -0.4490  0.4290
 4384SOL    HW124785   2.201   2.571   8.082 -0.2987 -0.6317 -1.1171
 4384SOL    HW224786   2.195   2.671   7.980 -1.1963 -2.9275  0.8283
 4385SOL     OW24787   0.473   2.672   7.134  0.2623  0.4466 -0.4182
 4385SOL    HW124788   0.499   2.587   7.100 -1.2525 -0.0308 -0.3616
 4385SOL    HW224789   0.477   2.654   7.228  0.5178 -0.5691 -0.6274
 4386SOL     OW24790   0.424   3.250   4.640 -0.5316  0.4603  0.0063
 4386SOL    HW124791   0.456   3.198   4.566 -0.8115  1.1918 -0.6288
 4386SOL    HW224792   0.448   3.204   4.720  0.4947 -0.1171 -0.6293
 4387SOL     OW24793   3.542   1.594   2.889 -0.3934 -0.3153  0.1267
 4387SOL    HW124794   3.488   1.606   2.967 -1.4543 -2.9176 -0.2177
 4387SOL    HW224795   3.551   1.687   2.865 -0.6267 -0.5842 -1.0046
 4388SOL     OW24796   0.640   1.512   2.562  0.1948 -0.0982  0.0354
 4388SOL    HW124797   0.547   1.496   2.580  0.0728  2.0795  1.2620
 4388SOL    HW224798   0.665   1.447   2.496 -1.6540 -1.4157  0.6259
 4389SOL     OW24799   0.070   3.842   4.363  0.3324 -0.3375  0.4445
 4389SOL    HW124800   4.712   3.844   4.332  0.7542  3.2347 -0.5463
 4389SOL    HW224801   0.052   3.810   4.452  0.7794 -0.9343  0.3123
 4390SOL     OW24802   1.200   0.146   9.885  0.2717  0.1147  0.3196
 4390SOL    HW124803   1.262   0.144   9.813  0.9585 -1.4680  0.9337
 4390SOL    HW224804   1.229   0.066   9.930 -1.7758 -0.7573  0.0925
 4391SOL     OW24805   0.291   1.090  13.097  0.0023  0.3102  0.3491
 4391SOL    HW124806   0.309   1.117  13.007 -0.0165  0.0190  0.2596
 4391SOL    HW224807   0.378   1.052  13.112 -0.0742  0.1089  0.2756
 4392SOL     OW24808   3.496   0.333   4.437 -0.2741  0.3685  0.0348
 4392SOL    HW124809   3.481   0.344   4.531 -0.6509 -2.1465  0.2889
 4392SOL    HW224810   3.592   0.325   4.431  0.0554  3.2924  1.2803
 4393SOL     OW24811   3.495   0.252   3.164  0.3224 -0.0418  0.0367
 4393SOL    HW124812   3.578   0.204   3.167 -0.8222 -1.9158  1.4385
 4393SOL    HW224813   3.520   0.344   3.167  1.6159 -0.4372  1.5671
 4394SOL     OW24814   2.697   1.238   4.446 -0.3117 -0.1468  0.2798
 4394SOL    HW124815   2.606   1.210   4.455  0.0153 -0.8736  1.4254
 4394SOL    HW224816   2.700   1.323   4.490  1.5535 -0.9285  1.6884
 4395SOL     OW24817   2.106   3.429   1.059  0.1049 -0.5235  0.5146
 4395SOL    HW124818   2.163   3.354   1.047  1.0801  0.4143 -0.7503
 4395SOL    HW224819   2.018   3.392   1.055 -0.0344 -0.2575  1.1935
 4396SOL     OW24820   0.901   3.640   7.546 -0.0003  0.4962  0.7003
 4396SOL    HW124821   0.894   3.711   7.482 -3.5897  0.9288  1.5805
 4396SOL    HW224822   0.933   3.684   7.624  2.5695 -0.8288  0.4052
 4397SOL     OW24823   0.564   2.023   9.981 -0.1042  0.0352  0.5184
 4397SOL    HW124824   0.643   2.004  10.031  0.4072  2.4580  0.6025
 4397SOL    HW224825   0.510   1.949  10.011 -0.6317 -0.4269 -1.5204
 4398SOL     OW24826   1.907   0.283   9.391 -0.4557  0.6253  0.0488
 4398SOL    HW124827   1.881   0.270   9.482  0.5656 -1.0300  0.1109
 4398SOL    HW224828   1.834   0.341   9.368 -0.4135  0.1204 -1.3429
 4399SOL     OW24829   4.492   1.874   0.922 -0.1910  1.1470  0.3055
 4399SOL    HW124830   4.469   1.872   0.829  0.2326 -0.1733  0.2223
 4399SOL    HW224831   4.583   1.898   0.910 -0.2566  1.9157  1.3270
 4400SOL     OW24832   4.200   4.164   2.444 -0.2463 -0.4223  0.3592
 4400SOL    HW124833   4.183   4.079   2.483 -1.4137  0.0566  0.9005
 4400SOL    HW224834   4.278   4.147   2.392 -1.5223  0.3638 -1.7791
 4401SOL     OW24835   2.888   3.759   4.929 -0.7973  0.3786  0.0700
 4401SOL    HW124836   2.896   3.693   4.997 -0.2711  1.1922  0.7888
 4401SOL    HW224837   2.799   3.746   4.897 -0.2937 -2.7449 -0.0273
 4402SOL     OW24838   0.003   2.768  16.370  0.3936  0.0299  0.1444
 4402SOL    HW124839   4.669   2.754  16.302  2.9528 -1.4331 -2.0552
 4402SOL    HW224840   0.068   2.820  16.324  0.6900 -1.0827 -0.7168
 4403SOL     OW24841   3.492   3.137  12.945 -0.7232  0.2928 -0.0849
 4403SOL    HW124842   3.479   3.070  12.877  0.1314 -0.8654  0.8895
 4403SOL    HW224843   3.556   3.200  12.911 -1.0114  1.4147  1.4401
 4404SOL     OW24844   3.230   1.049   5.567 -0.0051  0.0794 -0.2154
 4404SOL    HW124845   3.307   1.065   5.621  0.9256  0.2885 -1.5775
 4404SOL    HW224846   3.274   1.026   5.484 -0.2594 -1.3644  0.0546
 4405SOL     OW24847   0.840   4.320   3.844 -0.1720 -0.2899 -0.6431
 4405SOL    HW124848   0.813   4.239   3.801  1.1923 -0.0916 -1.8744
 4405SOL    HW224849   0.935   4.326   3.832  0.0813  0.0071  1.4906
 4406SOL     OW24850   1.911   1.050   8.639 -0.1408  0.0236  0.3142
 4406SOL    HW124851   1.921   0.995   8.717  2.0220 -0.6459 -0.4418
 4406SOL    HW224852   1.980   1.007   8.589  1.0503  0.6723  1.4188
 4407SOL     OW24853   1.955   0.159  11.782  0.8607 -0.8500  0.3073
 4407SOL    HW124854   1.953   0.098  11.856  1.4670  0.0760  1.0664
 4407SOL    HW224855   1.944   0.245  11.822 -1.0685 -1.6526  1.5252
 4408SOL     OW24856   4.357   1.379   5.730  0.0286  0.4050 -0.1297
 4408SOL    HW124857   4.421   1.318   5.693 -1.8698 -0.5584 -1.8602
 4408SOL    HW224858   4.284   1.378   5.667  0.0175 -0.3028 -0.0962
 4409SOL     OW24859   0.233   2.793   6.648 -0.4566  0.1732 -0.3315
 4409SOL    HW124860   0.275   2.835   6.723  0.7825 -0.5005 -0.6503
 4409SOL    HW224861   0.277   2.828   6.572 -2.2151  2.0051 -0.5126
 4410SOL     OW24862   1.240   1.911   0.680  0.4112 -0.3558 -0.2455
 4410SOL    HW124863   1.213   1.976   0.616  0.9900 -2.6406 -2.8032
 4410SOL    HW224864   1.158   1.895   0.727  0.7936 -1.5924  0.0139
 4411SOL     OW24865   2.580   2.473   8.266 -0.3910  0.3046  0.1029
 4411SOL    HW124866   2.587   2.458   8.172  0.5577  1.1376  0.0341
 4411SOL    HW224867   2.526   2.397   8.285 -1.1426  0.4299 -1.5468
 4412SOL     OW24868   0.952   1.880  11.382 -0.2017  0.4536 -0.3869
 4412SOL    HW124869   0.936   1.813  11.315 -1.0317  0.4022 -0.1400
 4412SOL    HW224870   1.001   1.825  11.442 -1.1613  1.4582  1.3136
 4413SOL     OW24871   4.451   2.140   7.531 -0.0513  0.2589 -0.4004
 4413SOL    HW124872   4.387   2.075   7.503  0.5971 -0.7409  0.4330
 4413SOL    HW224873   4.524   2.096   7.574 -0.6941 -0.1840  0.2326
 4414SOL     OW24874   0.862   2.620   3.171  0.8772  0.3773 -0.1597
 4414SOL    HW124875   0.933   2.597   3.231 -0.9436  1.1552  2.3030
 4414SOL    HW224876   0.832   2.532   3.147  1.9183  0.3457 -1.3989
 4415SOL     OW24877   1.999   2.650   3.062 -0.3905  0.1172  0.0123
 4415SOL    HW124878   1.939   2.583   3.095  0.3804 -0.6988 -0.2408
 4415SOL    HW224879   2.077   2.599   3.040 -0.3258  0.0877  0.3132
 4416SOL     OW24880   0.820   3.971   7.679 -0.1005  0.4375  0.5553
 4416SOL    HW124881   0.736   3.925   7.681 -0.6666  1.5208  2.6405
 4416SOL    HW224882   0.874   3.907   7.725  0.0110 -1.6128 -2.4441
 4417SOL     OW24883   3.491   1.065   5.753  0.1070 -0.2641 -0.2868
 4417SOL    HW124884   3.485   0.973   5.778  0.1865 -0.3870 -0.7180
 4417SOL    HW224885   3.494   1.096   5.843  2.0427 -0.1212 -0.3971
 4418SOL     OW24886   4.202   3.526   6.312 -0.0269  0.4099  0.1266
 4418SOL    HW124887   4.110   3.504   6.323 -0.1716  1.9004  1.8993
 4418SOL    HW224888   4.218   3.579   6.390  2.6885  0.0964 -0.2030
 4419SOL     OW24889   0.200   1.168   3.279  0.2327  0.0457  0.0939
 4419SOL    HW124890   0.162   1.082   3.261 -0.3658  0.3782 -0.2160
 4419SOL    HW224891   0.229   1.145   3.367 -0.5698 -0.4962  0.2139
 4420SOL     OW24892   1.090   0.622   9.468  0.4357  0.3777  0.5177
 4420SOL    HW124893   1.131   0.705   9.445 -1.5997  0.7263 -1.8756
 4420SOL    HW224894   1.106   0.573   9.387  1.4982  1.5294  0.0375
 4421SOL     OW24895   0.441   2.087  17.464 -0.2840 -0.1937 -0.0514
 4421SOL    HW124896   0.347   2.075  17.472 -0.0864 -1.3365  0.6373
 4421SOL    HW224897   0.444   2.173  17.424  0.3210 -0.8846 -1.4965
 4422SOL     OW24898   2.675   1.432  14.193 -0.2867 -0.0884 -0.4959
 4422SOL    HW124899   2.646   1.475  14.273  0.7043 -2.6926  1.2276
 4422SOL    HW224900   2.606   1.457  14.132 -0.4743  2.1098  0.6171
 4423SOL     OW24901   0.893   3.695  11.171 -0.2183  0.0674  0.0251
 4423SOL    HW124902   0.918   3.654  11.254  0.2349  0.7471  0.2228
 4423SOL    HW224903   0.822   3.753  11.200 -0.2115 -1.9622  4.0331
 4424SOL     OW24904   3.422   4.437  17.219  0.1501  0.2476 -0.4680
 4424SOL    HW124905   3.327   4.445  17.220  0.1957  0.4647  1.2798
 4424SOL    HW224906   3.436   4.345  17.197  2.1198  0.7158 -1.1753
 4425SOL     OW24907   1.253   0.556   3.830 -0.2018  0.4458 -0.0157
 4425SOL    HW124908   1.273   0.649   3.839 -0.6102  0.6625 -1.2803
 4425SOL    HW224909   1.234   0.535   3.921 -0.3213 -0.7227 -0.3114
 4426SOL     OW24910   2.787   4.252   3.124 -0.4182  0.4645 -0.2918
 4426SOL    HW124911   2.821   4.237   3.035 -0.4737  0.6201 -0.3399
 4426SOL    HW224912   2.730   4.327   3.106 -0.0747  0.9230  0.5116
 4427SOL     OW24913   1.629   0.368   3.110  0.1365 -0.1095 -0.6406
 4427SOL    HW124914   1.718   0.384   3.140  0.1307  0.1002 -0.7316
 4427SOL    HW224915   1.656   0.364   3.018  0.3621  1.6672 -0.6571
 4428SOL     OW24916   3.361   2.745   5.742 -0.0618 -0.5213 -0.2684
 4428SOL    HW124917   3.347   2.779   5.654  0.6399  0.5536  0.0445
 4428SOL    HW224918   3.272   2.748   5.778 -0.6800 -1.9175 -1.6434
 4429SOL     OW24919   3.091   3.350   6.896 -0.6743  0.0322 -0.5506
 4429SOL    HW124920   3.063   3.317   6.810 -0.5476  0.0399 -0.5946
 4429SOL    HW224921   3.039   3.294   6.953 -0.7832  1.4305  0.7166
 4430SOL     OW24922   1.811   1.758  11.350  0.5642 -0.5546 -0.0879
 4430SOL    HW124923   1.769   1.673  11.338  0.6486 -1.0377  3.2255
 4430SOL    HW224924   1.761   1.783  11.427 -0.6243  2.0181 -1.6764
 4431SOL     OW24925   0.381   0.417   5.874  0.7970 -0.3155  0.1208
 4431SOL    HW124926   0.295   0.421   5.916  0.0262  1.9239 -1.7270
 4431SOL    HW224927   0.360   0.378   5.789  2.4528 -0.5618 -0.1861
 4432SOL     OW24928   2.613   0.218   8.767  0.0635 -0.0582  0.5659
 4432SOL    HW124929   2.651   0.134   8.740 -3.7618 -1.7602  0.5087
 4432SOL    HW224930   2.600   0.201   8.861 -0.2630 -0.7312  0.3965
 4433SOL     OW24931   4.278   1.702   3.013  0.0633  0.5809  0.1967
 4433SOL    HW124932   4.271   1.771   2.947 -0.3810  0.6657  0.3306
 4433SOL    HW224933   4.371   1.682   3.014  0.0220  0.4572  2.1068
 4434SOL     OW24934   3.927   2.112   4.113  0.0361  0.0266 -0.2140
 4434SOL    HW124935   3.906   2.178   4.178 -0.8299  0.8137 -1.2925
 4434SOL    HW224936   3.989   2.165   4.062  1.1118  0.1877  1.2678
 4435SOL     OW24937   2.718   1.919   5.011  0.2021 -0.1977  0.3690
 4435SOL    HW124938   2.666   1.852   4.968 -0.3253 -0.8040  1.9514
 4435SOL    HW224939   2.753   1.859   5.077  0.4490  0.2757  0.6756
 4436SOL     OW24940   4.305   0.821   8.895 -0.3399  0.0900 -0.0641
 4436SOL    HW124941   4.213   0.838   8.873 -0.0609  0.4812 -0.9079
 4436SOL    HW224942   4.310   0.727   8.877  0.6637  0.3847 -1.2900
 4437SOL     OW24943   0.348   3.516   6.363  0.0566  0.7123 -0.2856
 4437SOL    HW124944   0.418   3.522   6.428 -0.5928  0.4037  0.4358
 4437SOL    HW224945   0.313   3.432   6.390 -0.5002  1.7010  2.0797
 4438SOL     OW24946   3.500   0.790   4.301 -0.3734  0.1421 -0.1797
 4438SOL    HW124947   3.569   0.748   4.351  0.2172  1.6406  0.2707
 4438SOL    HW224948   3.434   0.799   4.370 -0.2296 -2.2806  0.2598
 4439SOL     OW24949   0.405   4.577   7.680 -0.2778  0.0459  0.1641
 4439SOL    HW124950   0.370   4.574   7.591  0.5170 -0.2313 -0.1384
 4439SOL    HW224951   0.388   4.668   7.704  0.0596 -0.4099  2.1178
 4440SOL     OW24952   3.376   0.542   2.866 -0.3340  0.4779  0.4941
 4440SOL    HW124953   3.466   0.556   2.896 -0.0393  1.1737 -0.7438
 4440SOL    HW224954   3.360   0.624   2.819  0.0953  1.4275  1.9898
 4441SOL     OW24955   0.676   3.412   3.849  0.1820 -0.3945 -0.1071
 4441SOL    HW124956   0.766   3.437   3.834  0.0200 -0.7505 -1.6561
 4441SOL    HW224957   0.634   3.452   3.773 -0.2012  0.1418  0.3877
 4442SOL     OW24958   3.583   3.940   3.818 -0.6695 -0.6057 -0.9659
 4442SOL    HW124959   3.524   3.906   3.885 -1.8436  4.8021  0.7683
 4442SOL    HW224960   3.660   3.966   3.869  0.8268 -2.0817 -2.5256
 4443SOL     OW24961   1.302   3.761   8.837 -0.1776  0.7573  0.0810
 4443SOL    HW124962   1.363   3.727   8.772  0.2170  1.5425  0.0470
 4443SOL    HW224963   1.222   3.708   8.829  0.6367 -0.0906 -2.4111
 4444SOL     OW24964   1.257   2.325  14.568 -0.4848  0.0644  0.2853
 4444SOL    HW124965   1.340   2.354  14.531 -1.3859  1.6584 -0.5089
 4444SOL    HW224966   1.252   2.235  14.536 -2.4032 -0.0861  0.9935
 4445SOL     OW24967   0.646   2.217   4.318  0.1212  0.0622  0.0521
 4445SOL    HW124968   0.709   2.225   4.246  1.6451 -0.5658  1.3038
 4445SOL    HW224969   0.647   2.306   4.351 -0.3088 -0.4648  1.4672
 4446SOL     OW24970   4.412   2.531   3.352 -0.0208  0.1631 -0.2048
 4446SOL    HW124971   4.324   2.569   3.350  0.0590  0.2714 -1.5693
 4446SOL    HW224972   4.398   2.442   3.320 -2.3672  0.1466  0.8451
 4447SOL     OW24973   1.802   1.238   2.209  0.2270  0.0182  0.2688
 4447SOL    HW124974   1.806   1.147   2.183 -2.6620  0.4392 -1.6644
 4447SOL    HW224975   1.856   1.249   2.288  1.2755  1.1323 -0.6089
 4448SOL     OW24976   1.807   3.705   2.375  0.2998 -0.1845  0.2980
 4448SOL    HW124977   1.821   3.659   2.293  2.8682  0.9726  0.1020
 4448SOL    HW224978   1.848   3.790   2.360  0.1234  0.1467  1.6384
 4449SOL     OW24979   0.694   3.925   1.769  0.0790  0.1571 -0.3367
 4449SOL    HW124980   0.724   3.874   1.694  3.8446 -0.3626  1.5588
 4449SOL    HW224981   0.599   3.933   1.756 -0.2365  0.7811  2.4300
 4450SOL     OW24982   3.585   2.781   7.306  0.0737  0.0993 -0.2912
 4450SOL    HW124983   3.586   2.837   7.385  0.7372  1.5824 -1.3543
 4450SOL    HW224984   3.679   2.768   7.303  0.1172  0.3914 -0.2590
 4451SOL     OW24985   0.894   4.415   8.825 -0.0048  0.0701 -0.0322
 4451SOL    HW124986   0.977   4.395   8.870  0.6236 -0.4290 -1.4139
 4451SOL    HW224987   0.902   4.388   8.734  0.7593 -2.2777  0.7285
 4452SOL     OW24988   2.286   3.941   7.432  0.1742  0.0970  0.4952
 4452SOL    HW124989   2.356   3.929   7.496  0.6088 -2.2147 -0.4085
 4452SOL    HW224990   2.215   3.897   7.479 -0.5830 -0.2368 -0.9309
 4453SOL     OW24991   2.570   1.854  14.708 -0.0900  0.4731 -0.5774
 4453SOL    HW124992   2.603   1.764  14.711  1.9758  1.1667 -2.5854
 4453SOL    HW224993   2.584   1.890  14.620  0.3129  0.4204 -0.5311
 4454SOL     OW24994   4.433   3.585   5.486 -0.7618  0.0585 -0.1677
 4454SOL    HW124995   4.427   3.503   5.437 -0.9349  0.1060 -0.2240
 4454SOL    HW224996   4.504   3.629   5.439 -0.7789  0.7936  0.4937
 4455SOL     OW24997   2.927   0.441   8.584 -0.0175 -0.5058  0.2777
 4455SOL    HW124998   2.928   0.370   8.521  0.3884 -0.5753  0.3625
 4455SOL    HW224999   2.893   0.403   8.665  0.0099  0.7103  0.8640
 4456SOL     OW25000   2.795   3.843   8.803 -0.3857  0.2177  0.9788
 4456SOL    HW125001   2.794   3.751   8.774 -2.0721  0.2472  0.9753
 4456SOL    HW225002   2.742   3.893   8.742  1.5630 -0.5393 -1.3351
 4457SOL     OW25003   3.728   3.038   2.568 -0.1301 -0.0550 -0.3199
 4457SOL    HW125004   3.656   2.977   2.556 -0.2664  0.1761 -0.6811
 4457SOL    HW225005   3.772   3.026   2.652  2.4267 -0.1121 -1.6809
 4458SOL     OW25006   1.939   3.321   5.293  0.0912  1.0128  0.0691
 4458SOL    HW125007   1.958   3.276   5.211  1.8966  3.4952 -0.8610
 4458SOL    HW225008   1.846   3.299   5.297  0.5757 -0.9889  0.8213
 4459SOL     OW25009   1.107   2.028   1.941 -0.4676 -0.3394 -0.4976
 4459SOL    HW125010   1.039   1.987   1.888 -0.8102 -0.0949 -0.2496
 4459SOL    HW225011   1.190   2.005   1.901 -0.4862 -1.7353  0.2750
 4460SOL     OW25012   0.811   0.686   1.588 -0.1170 -0.1465  0.2921
 4460SOL    HW125013   0.736   0.635   1.617  1.1092 -2.1698 -0.0711
 4460SOL    HW225014   0.852   0.709   1.671 -1.9204 -0.0348  1.1393
 4461SOL     OW25015   3.736   0.512   4.262  0.1595 -0.6611 -0.2971
 4461SOL    HW125016   3.770   0.541   4.177  0.4830 -0.7813 -0.2065
 4461SOL    HW225017   3.715   0.419   4.249 -0.6455 -0.4369 -0.5991
 4462SOL     OW25018   1.381   4.584   4.343 -0.2712  0.0934  0.1274
 4462SOL    HW125019   1.464   4.616   4.307 -1.3745  1.2352 -1.4381
 4462SOL    HW225020   1.322   4.652   4.311 -1.7440 -2.2858 -2.2285
 4463SOL     OW25021   0.547   2.558   7.381 -0.0886 -0.3991  0.3595
 4463SOL    HW125022   0.517   2.510   7.458 -3.2540  1.3595  0.2369
 4463SOL    HW225023   0.643   2.564   7.385 -0.3022  2.9539  0.8080
 4464SOL     OW25024   2.469   1.163   0.326  0.1685  0.1605  0.2475
 4464SOL    HW125025   2.530   1.222   0.371 -0.6304 -0.9243  2.7619
 4464SOL    HW225026   2.529   1.114   0.270 -0.0174  0.8225 -0.5267
 4465SOL     OW25027   4.086   2.074  15.014 -0.9013  0.0048  0.5621
 4465SOL    HW125028   4.051   2.084  14.926 -2.6347  0.8878  1.3483
 4465SOL    HW225029   4.161   2.131  15.004 -0.7315 -0.2022  0.6543
 4466SOL     OW25030   1.950   2.979   7.249 -0.1346 -0.6907 -0.1217
 4466SOL    HW125031   1.976   3.064   7.285 -2.6028  0.0016  0.0243
 4466SOL    HW225032   1.888   2.942   7.312  0.2357 -1.7469 -0.3850
 4467SOL     OW25033   0.037   4.495   6.318 -0.2948 -0.5851  0.0101
 4467SOL    HW125034   4.731   4.552   6.251  0.5806  1.2835  1.1005
 4467SOL    HW225035   0.124   4.532   6.334 -0.5558  0.1592 -0.2997
 4468SOL     OW25036   2.732   0.683   5.140  0.2214  0.1612  0.2075
 4468SOL    HW125037   2.664   0.616   5.146  1.6181 -1.2393  0.3804
 4468SOL    HW225038   2.789   0.636   5.079  0.7034  1.1943 -0.1335
 4469SOL     OW25039   3.316   2.953   5.191 -0.2550 -0.1465  0.0995
 4469SOL    HW125040   3.333   2.885   5.256 -2.6630 -0.9490 -0.0996
 4469SOL    HW225041   3.374   3.019   5.229  0.0809 -0.2362 -0.2628
 4470SOL     OW25042   4.470   0.080   1.858  0.3098 -0.4948 -0.1210
 4470SOL    HW125043   4.441   0.061   1.769  0.2538 -1.6675  0.1503
 4470SOL    HW225044   4.549   0.127   1.833  0.9225 -0.7689  1.2810
 4471SOL     OW25045   0.482   2.858   7.811  0.4899 -0.1071  0.1268
 4471SOL    HW125046   0.428   2.838   7.887  0.5552 -1.3344 -0.1577
 4471SOL    HW225047   0.567   2.816   7.822 -0.8068 -2.7801 -0.1862
 4472SOL     OW25048   0.204   2.534   8.650  0.2167  0.3285 -1.2080
 4472SOL    HW125049   0.229   2.591   8.577  0.5730  0.3431 -1.0714
 4472SOL    HW225050   0.243   2.577   8.726  2.8154  1.4779 -3.2008
 4473SOL     OW25051   4.441   1.319   0.814  0.4356  0.2212 -0.4084
 4473SOL    HW125052   4.490   1.243   0.784 -1.4790 -0.8131 -0.8625
 4473SOL    HW225053   4.412   1.282   0.898  2.0571 -1.6324 -0.6514
 4474SOL     OW25054   4.244   2.005   0.994  0.1574 -0.0626 -0.0546
 4474SOL    HW125055   4.228   2.075   0.931  1.2034  2.0962  2.0773
 4474SOL    HW225056   4.335   1.983   0.975 -0.4174 -0.3048 -2.4431
 4475SOL     OW25057   1.801   1.538   6.337 -0.1590 -0.0706 -0.7756
 4475SOL    HW125058   1.753   1.587   6.403  1.7555  0.9057 -0.1119
 4475SOL    HW225059   1.860   1.486   6.393  1.0073  0.8859 -1.1118
 4476SOL     OW25060   3.170   0.389  14.775  0.1034  0.4643  0.1152
 4476SOL    HW125061   3.091   0.443  14.773 -0.6586 -0.6401 -0.0191
 4476SOL    HW225062   3.236   0.456  14.793  0.8971 -0.5157  0.8742
 4477SOL     OW25063   0.430   3.469   2.598  0.4058 -0.0734  0.2051
 4477SOL    HW125064   0.409   3.399   2.536  1.1710 -0.9641  0.9540
 4477SOL    HW225065   0.487   3.531   2.552 -0.5880  1.4699  1.0458
 4478SOL     OW25066   0.894   3.964  16.705  0.2698 -0.6507 -0.4411
 4478SOL    HW125067   0.878   4.003  16.619  4.1375 -0.5372 -1.0911
 4478SOL    HW225068   0.846   3.882  16.694  0.0788 -0.7995  1.5119
 4479SOL     OW25069   0.039   3.888  11.901  0.5412 -0.2697 -0.2388
 4479SOL    HW125070   0.080   3.927  11.823  1.2837  1.8928  1.2442
 4479SOL    HW225071   0.028   3.797  11.875  0.8038 -0.2745 -0.3437
 4480SOL     OW25072   3.790   1.501   3.757  0.3560 -0.5182  0.5579
 4480SOL    HW125073   3.868   1.445   3.751 -0.2848 -1.5089  1.6072
 4480SOL    HW225074   3.718   1.445   3.728  0.9909 -1.9319  1.7096
 4481SOL     OW25075   4.288   2.261  15.001  0.1698 -0.0078 -0.2153
 4481SOL    HW125076   4.384   2.255  14.996  0.1038 -0.5468 -0.8078
 4481SOL    HW225077   4.271   2.349  14.967 -0.7601 -0.2891 -0.4693
 4482SOL     OW25078   0.727   2.880   6.861 -0.0475 -0.3406  0.5799
 4482SOL    HW125079   0.704   2.840   6.945 -2.3756 -0.0502  0.0657
 4482SOL    HW225080   0.800   2.939   6.880  0.8284 -1.6163  1.1684
 4483SOL     OW25081   2.294   4.488   3.011  0.0066 -0.0216  0.5806
 4483SOL    HW125082   2.306   4.542   3.089  1.5878 -1.6985  1.5344
 4483SOL    HW225083   2.221   4.434   3.040 -1.5713  2.0101  0.3311
 4484SOL     OW25084   0.197   4.186  12.385  0.2823  0.0905  0.7306
 4484SOL    HW125085   0.165   4.135  12.310  0.8474  1.1897 -0.2645
 4484SOL    HW225086   0.161   4.274  12.375  2.7605  1.0511  0.4767
 4485SOL     OW25087   0.066   3.345  11.918  0.4847  0.0646  0.1637
 4485SOL    HW125088   0.082   3.277  11.984 -0.6661  0.7553  1.1432
 4485SOL    HW225089   4.704   3.329  11.913  0.3605  1.2074 -1.0508
 4486SOL     OW25090   2.343   1.891   6.178  0.4454  0.8333 -0.1245
 4486SOL    HW125091   2.314   1.976   6.145  0.4620  0.9096  0.0605
 4486SOL    HW225092   2.268   1.856   6.225  1.3131  0.3517  0.8827
 4487SOL     OW25093   3.822   1.830   2.454  0.5242 -0.1523 -0.2411
 4487SOL    HW125094   3.787   1.839   2.543 -0.8059 -0.6801 -0.7094
 4487SOL    HW225095   3.825   1.735   2.444 -2.4888 -0.1966 -0.7729
 4488SOL     OW25096   4.051   1.301   4.946  0.1851 -1.2878 -0.0103
 4488SOL    HW125097   3.977   1.360   4.962 -0.2902 -2.1288  0.8387
 4488SOL    HW225098   4.054   1.239   5.018 -0.7650  0.5896  1.6480
 4489SOL     OW25099   0.935   3.848   7.334 -0.0862  0.3706  0.1757
 4489SOL    HW125100   1.018   3.807   7.309  1.1900  1.6475  2.3088
 4489SOL    HW225101   0.878   3.828   7.260 -0.7175 -0.2474  0.8275
 4490SOL     OW25102   3.463   4.395   7.733  0.4663  0.5543 -0.4910
 4490SOL    HW125103   3.452   4.365   7.823  0.8182 -2.0284 -1.3051
 4490SOL    HW225104   3.444   4.313   7.687  2.1763 -0.0504 -0.1043
 4491SOL     OW25105   4.241   1.561  12.927 -0.2239  0.3984  0.7641
 4491SOL    HW125106   4.265   1.640  12.976  1.7179 -0.2466  0.8634
 4491SOL    HW225107   4.257   1.609  12.845 -0.1539 -1.6982 -0.4547
 4492SOL     OW25108   1.592   4.607   3.879  0.2107  0.4571  0.5968
 4492SOL    HW125109   1.682   4.589   3.854  0.0778  1.2628 -0.4571
 4492SOL    HW225110   1.599   4.568   3.966 -1.4998 -1.1862 -0.0109
 4493SOL     OW25111   3.869   4.412   9.796  0.2625 -0.5159 -0.2368
 4493SOL    HW125112   3.846   4.481   9.859  2.3677 -0.4912  0.5104
 4493SOL    HW225113   3.896   4.341   9.854 -5.5181 -0.7199  2.2136
 4494SOL     OW25114   1.169   0.968   6.608  0.1585  0.7132 -0.0514
 4494SOL    HW125115   1.101   0.985   6.543  1.3744 -2.1324 -2.0273
 4494SOL    HW225116   1.121   1.003   6.683  0.5608 -2.7517  1.8108
 4495SOL     OW25117   3.454   3.159   8.993  0.1326  0.2960  1.0830
 4495SOL    HW125118   3.418   3.175   9.080 -1.1017  0.7500  0.4891
 4495SOL    HW225119   3.466   3.064   8.999  1.0513  0.0896 -4.1406
 4496SOL     OW25120   4.223   4.051   4.593 -0.8334 -0.4517  0.8815
 4496SOL    HW125121   4.290   3.987   4.617 -1.3790 -0.8691  1.2845
 4496SOL    HW225122   4.142   4.005   4.611 -0.1530 -1.5225  1.1940
 4497SOL     OW25123   1.537   2.143   6.241 -0.1511 -0.5150  0.1210
 4497SOL    HW125124   1.529   2.236   6.218  0.9851  0.2136  2.6288
 4497SOL    HW225125   1.447   2.119   6.260  0.5754 -1.0282  2.9080
 4498SOL     OW25126   0.211   2.285   7.852 -0.5093 -0.0462 -0.5285
 4498SOL    HW125127   0.158   2.330   7.918 -0.6741 -1.0313  0.0101
 4498SOL    HW225128   0.190   2.339   7.776  0.3286  0.8726 -0.0976
 4499SOL     OW25129   3.075   3.641  15.836  0.4285 -0.3387  0.4262
 4499SOL    HW125130   3.087   3.552  15.869  2.2385  0.0955  0.9003
 4499SOL    HW225131   3.014   3.686  15.895  0.0054 -1.3632  0.7697
 4500SOL     OW25132   3.706   4.690   9.636  0.0492  0.0322 -0.3799
 4500SOL    HW125133   3.621   4.722   9.606 -0.3867 -0.0859  0.7193
 4500SOL    HW225134   3.742   4.660   9.552 -0.0514  0.3857 -0.5489
 4501SOL     OW25135   0.018   0.162   4.033  0.5062  0.0965 -0.3813
 4501SOL    HW125136   4.721   0.087   4.085  1.7201 -1.3603 -1.8103
 4501SOL    HW225137   0.073   0.125   3.963  0.4349  1.6810 -1.2753
 4502SOL     OW25138   1.981   2.859  10.959  0.5224 -0.1598  0.2436
 4502SOL    HW125139   1.981   2.955  10.959 -2.3041 -0.1838  1.1872
 4502SOL    HW225140   1.918   2.844  10.889 -0.7132  0.6495  1.1747
 4503SOL     OW25141   2.440   1.730   6.880 -0.4594 -0.3171  0.6762
 4503SOL    HW125142   2.421   1.803   6.940  0.9222  0.5628  0.0443
 4503SOL    HW225143   2.360   1.740   6.829 -0.8772  1.0110  1.5785
 4504SOL     OW25144   1.583   0.653   1.019 -0.2835 -0.0916 -0.0410
 4504SOL    HW125145   1.532   0.600   0.958 -2.2230 -0.5622  1.9570
 4504SOL    HW225146   1.639   0.585   1.055  0.7048  1.9186  2.2444
 4505SOL     OW25147   4.387   2.946   8.393  0.0480  0.0994  0.2136
 4505SOL    HW125148   4.395   2.996   8.311  1.6244 -2.0596 -0.9459
 4505SOL    HW225149   4.472   2.955   8.436 -0.1431  1.0324  0.3974
 4506SOL     OW25150   0.558   1.788   4.153 -0.2719  0.7472  0.0885
 4506SOL    HW125151   0.534   1.848   4.083  0.9699  0.9737 -0.1401
 4506SOL    HW225152   0.575   1.849   4.225  1.0102  1.3651 -0.7364
 4507SOL     OW25153   1.883   0.496  16.458  0.0108 -0.5289 -0.0945
 4507SOL    HW125154   1.864   0.580  16.500 -0.4800 -1.3077  1.2512
 4507SOL    HW225155   1.850   0.512  16.369  0.0647 -2.3493 -0.4345
 4508SOL     OW25156   3.337   3.848   6.320  0.2374 -0.7381  0.1606
 4508SOL    HW125157   3.365   3.939   6.328  1.1179 -0.9777 -0.1443
 4508SOL    HW225158   3.412   3.816   6.269  0.7674 -0.8933  1.0360
 4509SOL     OW25159   1.729   0.784  12.567  0.2238 -0.2032  0.0356
 4509SOL    HW125160   1.806   0.839  12.579  0.7795 -0.4367 -2.5209
 4509SOL    HW225161   1.706   0.754  12.655 -0.0998  1.9768  0.6965
 4510SOL     OW25162   2.715   3.308  15.117  0.0759 -0.1629 -0.0763
 4510SOL    HW125163   2.729   3.309  15.212  1.8204 -1.8536 -0.3283
 4510SOL    HW225164   2.804   3.317  15.081  0.1850 -0.8711  0.0177
 4511SOL     OW25165   2.015   0.323  17.531 -0.1368 -0.0418  0.6980
 4511SOL    HW125166   1.948   0.255  17.542  0.2527 -0.6587 -0.7259
 4511SOL    HW225167   1.961   0.400  17.518  1.9856  1.2840 -0.2695
 4512SOL     OW25168   3.010   0.066   5.499 -0.1567 -0.3796 -0.4235
 4512SOL    HW125169   3.077   0.090   5.563 -0.8587  0.9730 -0.1911
 4512SOL    HW225170   3.030   4.705   5.495  1.1063 -0.0109 -3.2186
 4513SOL     OW25171   1.802   3.640   5.006  0.3792  0.4752  0.6007
 4513SOL    HW125172   1.845   3.711   5.052 -0.4857  1.1693  0.3368
 4513SOL    HW225173   1.768   3.596   5.085  2.6782 -0.3812  1.0978
 4514SOL     OW25174   2.128   1.869   2.267  0.0021  0.0405 -0.2666
 4514SOL    HW125175   2.038   1.841   2.282  0.1070 -1.7346 -2.9522
 4514SOL    HW225176   2.130   1.964   2.278  0.5221  0.1022 -0.9462
 4515SOL     OW25177   0.086   3.214   3.234  0.7805 -0.3215  0.2078
 4515SOL    HW125178   0.147   3.248   3.169  0.7423  1.1581  0.9565
 4515SOL    HW225179   0.060   3.291   3.284  0.2120 -0.1393 -0.3738
 4516SOL     OW25180   1.604   0.084   9.426 -0.3992 -0.1862 -0.6557
 4516SOL    HW125181   1.675   0.021   9.411 -0.5123 -0.9098  1.9889
 4516SOL    HW225182   1.620   0.106   9.517 -2.7052  1.2061 -0.5805
 4517SOL     OW25183   2.234   3.045  13.122 -0.0183 -0.1981  0.1349
 4517SOL    HW125184   2.309   3.098  13.150  0.7610 -0.6452 -1.1049
 4517SOL    HW225185   2.283   2.976  13.077  1.3740  1.1840 -0.4727
 4518SOL     OW25186   0.790   4.560   3.727  0.1933 -0.3087 -1.2268
 4518SOL    HW125187   0.783   4.476   3.772  0.0481 -0.1576 -0.9683
 4518SOL    HW225188   0.700   4.560   3.695 -0.1717  0.4209 -0.2028
 4519SOL     OW25189   3.923   1.539   5.574  0.1072 -0.2862  0.5541
 4519SOL    HW125190   3.942   1.596   5.648 -0.3418 -0.4487  0.7935
 4519SOL    HW225191   3.866   1.592   5.518 -1.7737 -1.4856  1.3315
 4520SOL     OW25192   3.219   1.616   9.378  0.3780  0.4509  0.0049
 4520SOL    HW125193   3.155   1.598   9.309  0.6193 -0.3088 -0.0234
 4520SOL    HW225194   3.262   1.531   9.388 -1.5898 -0.6149 -0.6976
 4521SOL     OW25195   2.976   2.541   8.495 -0.3138 -0.4998 -0.5016
 4521SOL    HW125196   3.000   2.448   8.499  0.1694 -0.4529 -2.2030
 4521SOL    HW225197   3.031   2.563   8.420  1.2708  0.8813  1.0690
 4522SOL     OW25198   4.588   1.505   4.148 -0.0056 -0.0739  0.3135
 4522SOL    HW125199   4.539   1.536   4.071 -0.8978  0.3537  1.0496
 4522SOL    HW225200   4.521   1.466   4.204 -0.1974 -1.0926 -0.6309
 4523SOL     OW25201   3.181   4.628   4.650 -0.0602  0.4663  1.1589
 4523SOL    HW125202   3.270   4.601   4.627 -0.6807  0.5551 -1.3438
 4523SOL    HW225203   3.131   4.567   4.596  1.2901  0.8756 -0.5481
 4524SOL     OW25204   2.070   1.578   5.216  0.4960  0.2927 -0.0063
 4524SOL    HW125205   1.981   1.611   5.206  0.4919  0.3634  0.2647
 4524SOL    HW225206   2.086   1.562   5.123  0.2991 -0.4017  0.0822
 4525SOL     OW25207   1.467   0.687  10.513  1.0115  0.0983  0.1529
 4525SOL    HW125208   1.487   0.652  10.426 -0.6126 -0.3124 -0.0449
 4525SOL    HW225209   1.499   0.777  10.502  1.6034 -0.0561  0.5686
 4526SOL     OW25210   0.461   2.198   7.451 -0.3185 -0.4262 -0.2773
 4526SOL    HW125211   0.373   2.222   7.422 -0.2704 -1.1358 -1.0228
 4526SOL    HW225212   0.472   2.256   7.525 -0.9942 -0.3412 -0.2420
 4527SOL     OW25213   0.585   2.731   6.530 -0.0158  0.0493  1.1953
 4527SOL    HW125214   0.526   2.656   6.516  0.2069  0.2205 -0.6093
 4527SOL    HW225215   0.572   2.754   6.439  0.3784 -2.3852  0.5151
 4528SOL     OW25216   3.402   3.638   5.069  0.2308  0.3889  0.5235
 4528SOL    HW125217   3.389   3.692   4.991 -3.3407 -0.4341  0.5347
 4528SOL    HW225218   3.443   3.560   5.031  2.1770  1.0206  1.3702
 4529SOL     OW25219   3.905   0.739   1.640  0.2501  0.6253  0.3305
 4529SOL    HW125220   3.941   0.786   1.564  1.6929  0.6994  1.0594
 4529SOL    HW225221   3.964   0.766   1.710  2.4147 -0.8311 -0.9330
 4530SOL     OW25222   1.319   1.722  10.792  0.2682 -0.8220 -0.1269
 4530SOL    HW125223   1.343   1.755  10.706  1.6155 -0.0720  0.5311
 4530SOL    HW225224   1.391   1.752  10.848  0.3373  0.8066 -1.1057
 4531SOL     OW25225   0.584   0.277  12.195 -0.7088 -0.3036 -0.0577
 4531SOL    HW125226   0.518   0.222  12.238 -0.3572  0.7415  1.7977
 4531SOL    HW225227   0.532   0.357  12.197  1.2262  1.0077 -4.2849
 4532SOL     OW25228   0.678   4.517  10.075  0.0145 -0.6018  0.0071
 4532SOL    HW125229   0.658   4.484  10.162  0.1251 -1.9147 -0.4632
 4532SOL    HW225230   0.641   4.449  10.018  0.5643 -0.3480 -0.6590
 4533SOL     OW25231   0.725   1.128  14.235  0.2762  0.0430  0.0694
 4533SOL    HW125232   0.632   1.142  14.218 -0.2433 -1.5335  1.6481
 4533SOL    HW225233   0.742   1.196  14.300  3.6598 -0.2065 -0.5083
 4534SOL     OW25234   3.403   0.021   2.037  0.4468  0.1430 -0.5122
 4534SOL    HW125235   3.354   0.103   2.027  0.0452 -0.0784 -0.3269
 4534SOL    HW225236   3.365   4.716   2.116  0.7542 -1.0957 -0.9476
 4535SOL     OW25237   3.286   1.453   3.657  0.0017  0.2582  0.0639
 4535SOL    HW125238   3.262   1.524   3.598  0.7376  0.2628 -0.2365
 4535SOL    HW225239   3.200   1.411   3.655 -0.7547  2.0193 -3.2429
 4536SOL     OW25240   1.788   4.546   1.147 -0.3159 -0.3257  0.2898
 4536SOL    HW125241   1.839   4.548   1.066 -1.6641  0.6419 -0.5538
 4536SOL    HW225242   1.763   4.454   1.154  1.1607 -0.7583 -0.1599
 4537SOL     OW25243   3.877   1.243   5.358 -0.2358  0.2217 -0.1740
 4537SOL    HW125244   3.885   1.208   5.447 -0.7824 -1.5699 -0.8177
 4537SOL    HW225245   3.783   1.258   5.355 -0.6216 -2.1573 -0.1010
 4538SOL     OW25246   0.396   0.197  15.115 -0.2122 -0.0531  0.0733
 4538SOL    HW125247   0.367   0.268  15.057  1.9253 -0.3198 -1.3590
 4538SOL    HW225248   0.490   0.208  15.102 -0.5145  2.2776 -0.2126
 4539SOL     OW25249   3.373   0.311   3.655  0.7185  0.0856  0.4298
 4539SOL    HW125250   3.442   0.299   3.720  0.1648 -1.9666  0.6466
 4539SOL    HW225251   3.328   0.390   3.683  2.2249  1.5408 -1.2403
 4540SOL     OW25252   0.032   1.100   8.442  0.1610 -1.3500 -0.3315
 4540SOL    HW125253   0.019   1.075   8.534 -1.6539  0.7262 -0.0186
 4540SOL    HW225254   4.686   1.154   8.428  0.3010 -1.0324  0.0781
 4541SOL     OW25255   2.456   1.067   7.377  0.0824 -0.4155 -0.0633
 4541SOL    HW125256   2.389   1.063   7.445  3.0849  0.8596  2.9947
 4541SOL    HW225257   2.487   0.976   7.381 -0.8742 -0.7384 -0.0738
 4542SOL     OW25258   3.666   3.236   3.286 -0.7459  0.1367  0.7831
 4542SOL    HW125259   3.702   3.262   3.370 -0.1397  0.1209  0.5261
 4542SOL    HW225260   3.586   3.289   3.294 -1.9866 -1.2251 -2.2633
 4543SOL     OW25261   3.760   2.086   6.068 -0.4817  0.0877 -0.0834
 4543SOL    HW125262   3.848   2.079   6.032  0.2088 -1.2366  1.8361
 4543SOL    HW225263   3.748   2.009   6.124  0.2553  0.4641  0.5922
 4544SOL     OW25264   2.290   3.099  14.936 -0.3754  0.2745  0.3455
 4544SOL    HW125265   2.215   3.115  14.994 -0.2264 -0.0800  0.6339
 4544SOL    HW225266   2.362   3.158  14.959  0.3299 -0.5527  0.2721
 4545SOL     OW25267   2.187   3.179   5.858  0.5729  0.0662 -0.6590
 4545SOL    HW125268   2.160   3.198   5.768 -0.4876 -0.8442 -0.5365
 4545SOL    HW225269   2.274   3.147   5.838  0.2244 -1.4446  0.2587
 4546SOL     OW25270   0.405   2.548   6.811  0.1070 -0.3564  0.6257
 4546SOL    HW125271   0.483   2.582   6.855 -0.0226  1.5777 -0.6545
 4546SOL    HW225272   0.424   2.569   6.719 -1.5334 -3.4137 -0.4203
 4547SOL     OW25273   1.670   2.599   5.964  0.0790  0.6200  0.6265
 4547SOL    HW125274   1.758   2.560   5.962  0.3581  1.3400 -0.6085
 4547SOL    HW225275   1.622   2.520   5.938  0.2289  0.5957  0.4253
 4548SOL     OW25276   0.880   2.731  15.867  0.3620 -0.0313  0.3825
 4548SOL    HW125277   0.838   2.789  15.930  2.3339  0.6311  1.0669
 4548SOL    HW225278   0.847   2.754  15.780  1.7861  1.6275  0.2739
 4549SOL     OW25279   2.732   4.512   9.215 -0.2150 -0.7534  0.0408
 4549SOL    HW125280   2.814   4.472   9.187  1.3882  1.7221  1.2065
 4549SOL    HW225281   2.758   4.555   9.296 -0.4387 -1.3780  0.4460
 4550SOL     OW25282   2.250   1.267  10.839 -0.2287  1.1416  0.3097
 4550SOL    HW125283   2.172   1.287  10.890 -1.3073  1.8636 -1.6215
 4550SOL    HW225284   2.226   1.183  10.798  0.7498  0.0248  2.0225
 4551SOL     OW25285   2.235   4.255   5.799  0.3507  0.1547 -0.0451
 4551SOL    HW125286   2.309   4.238   5.741  0.8874 -1.8979  1.2364
 4551SOL    HW225287   2.173   4.206   5.746  1.2491 -2.6841  1.5306
 4552SOL     OW25288   2.145   3.475   5.177  0.6553 -0.1066  0.1448
 4552SOL    HW125289   2.131   3.543   5.243  0.2043 -0.0138 -0.0412
 4552SOL    HW225290   2.085   3.413   5.220  2.1040 -1.7048 -0.1121
 4553SOL     OW25291   2.444   3.606  13.706 -0.2172  0.2988  0.5224
 4553SOL    HW125292   2.466   3.590  13.798  0.1395  1.0083  0.5597
 4553SOL    HW225293   2.486   3.691  13.707  0.0149  0.1856  0.1893
 4554SOL     OW25294   1.416   1.590   6.496 -0.0761 -0.0117 -0.0984
 4554SOL    HW125295   1.363   1.641   6.557  0.5482 -0.9001  1.1964
 4554SOL    HW225296   1.357   1.518   6.476 -1.1646  0.5450  1.1285
 4555SOL     OW25297   1.826   1.509  15.656  0.0246 -0.0538 -0.6515
 4555SOL    HW125298   1.747   1.493  15.708 -0.4623  1.2085 -0.9962
 4555SOL    HW225299   1.875   1.427  15.651 -1.1599 -0.7953 -0.0866
 4556SOL     OW25300   2.769   4.010   9.601 -0.0286 -0.1268  0.0956
 4556SOL    HW125301   2.695   4.069   9.592  0.5755  0.8588  1.6003
 4556SOL    HW225302   2.763   4.001   9.696  1.6041 -0.4719  0.1740
 4557SOL     OW25303   3.947   0.080   8.836 -0.2907  0.0108  0.1161
 4557SOL    HW125304   4.036   0.105   8.863  0.8940 -1.8723 -2.0133
 4557SOL    HW225305   3.934   0.145   8.767  0.6489  1.4169  1.2543
 4558SOL     OW25306   2.910   1.744  14.723  0.0563 -0.1893 -0.2167
 4558SOL    HW125307   2.892   1.718  14.633 -0.7610  2.4272 -0.8027
 4558SOL    HW225308   3.001   1.773  14.723 -0.1317  0.4063 -3.5971
 4559SOL     OW25309   4.691   1.397   6.099 -0.0317  0.2009 -0.0747
 4559SOL    HW125310   4.627   1.392   6.028 -1.1144 -0.3977  0.9454
 4559SOL    HW225311   4.715   1.305   6.106  2.9081  0.8903 -1.0073
 4560SOL     OW25312   1.653   3.574   5.269 -0.0188 -0.2358 -0.4126
 4560SOL    HW125313   1.578   3.616   5.311  0.1235  1.6372 -2.0449
 4560SOL    HW225314   1.696   3.546   5.350  0.6005 -3.8800 -1.9935
 4561SOL     OW25315   4.492   0.683  12.460  0.0023 -0.0595  0.1472
 4561SOL    HW125316   4.549   0.738  12.513 -0.4851  0.4979  0.0964
 4561SOL    HW225317   4.519   0.711  12.373 -1.8362  0.5601 -0.2220
 4562SOL     OW25318   4.323   3.512   3.279  0.2394 -0.0251 -0.2527
 4562SOL    HW125319   4.299   3.539   3.190 -1.1647  1.0973  0.4632
 4562SOL    HW225320   4.290   3.423   3.287 -2.0063  0.9540  1.7331
 4563SOL     OW25321   2.240   2.321  10.914  0.9200 -0.1406  0.0269
 4563SOL    HW125322   2.293   2.242  10.916  1.0602 -0.0744 -1.4985
 4563SOL    HW225323   2.298   2.381  10.866  1.4133 -1.1998 -0.6884
 4564SOL     OW25324   1.955   2.119  10.503 -0.4617  0.2758 -0.0363
 4564SOL    HW125325   2.018   2.103  10.432  1.0540  3.6540  0.5410
 4564SOL    HW225326   2.007   2.122  10.584  0.6241 -0.2637 -0.7184
 4565SOL     OW25327   3.106   2.886   7.852 -0.0463  0.3396  0.1918
 4565SOL    HW125328   3.020   2.861   7.820 -0.0912  0.4967  0.1945
 4565SOL    HW225329   3.140   2.927   7.773 -3.0920 -0.4080 -1.4672
 4566SOL     OW25330   2.969   0.846   8.528 -0.2603 -0.0248  0.0173
 4566SOL    HW125331   2.904   0.800   8.582  1.4341 -1.3446  0.9270
 4566SOL    HW225332   3.029   0.774   8.511 -0.3816 -0.2487  0.5396
 4567SOL     OW25333   0.156   2.104  11.205 -0.3904  0.0328 -0.1011
 4567SOL    HW125334   0.245   2.137  11.215 -0.8232  0.6266  1.7168
 4567SOL    HW225335   0.141   2.041  11.276  1.3683 -0.6044 -0.2931
 4568SOL     OW25336   1.403   2.495   9.310 -0.1764  0.1816 -0.0755
 4568SOL    HW125337   1.315   2.533   9.309 -0.2758 -0.0500 -0.2031
 4568SOL    HW225338   1.380   2.413   9.354 -1.4550  0.6467  0.1282
 4569SOL     OW25339   1.894   1.950   5.455 -0.6383  0.3720  0.4682
 4569SOL    HW125340   1.848   1.871   5.426 -1.7955  1.2137 -0.0023
 4569SOL    HW225341   1.889   1.953   5.551 -1.4983 -0.6371  0.4533
 4570SOL     OW25342   2.835   1.476   5.105  0.4180  0.8926 -0.1860
 4570SOL    HW125343   2.869   1.469   5.194  0.9640  2.5207 -0.2650
 4570SOL    HW225344   2.910   1.500   5.050 -0.4117 -0.9102 -2.1064
 4571SOL     OW25345   0.138   0.971   0.179 -0.1063 -0.4298 -0.1278
 4571SOL    HW125346   0.129   0.949   0.087  0.4372 -3.5243  0.5395
 4571SOL    HW225347   0.168   0.893   0.225 -2.6893 -0.9817  0.6700
 4572SOL     OW25348   3.445   2.261   6.505  0.5079 -0.1869 -0.3060
 4572SOL    HW125349   3.449   2.166   6.512 -0.8194 -0.1467  1.0012
 4572SOL    HW225350   3.535   2.279   6.534  0.5913 -1.1733  0.0425
 4573SOL     OW25351   4.601   0.234   5.985 -0.6428 -0.2357 -0.0963
 4573SOL    HW125352   4.635   0.191   5.907 -0.0085  2.6430 -1.4066
 4573SOL    HW225353   4.648   0.186   6.053  0.5982 -1.0570 -1.5612
 4574SOL     OW25354   0.429   1.767   1.782  0.1308  0.5133  0.5433
 4574SOL    HW125355   0.457   1.678   1.760  0.2479  1.2882 -2.4986
 4574SOL    HW225356   0.340   1.767   1.746 -0.7746 -0.4181  2.8319
 4575SOL     OW25357   2.983   3.065   4.921  0.0061 -0.2718  0.3292
 4575SOL    HW125358   3.019   3.124   4.988 -0.7385 -0.1264  0.5986
 4575SOL    HW225359   2.890   3.072   4.942 -0.0145  1.4024 -0.3944
 4576SOL     OW25360   0.284   2.404   9.952 -0.4671 -0.2884 -0.4039
 4576SOL    HW125361   0.228   2.327   9.940 -0.2684 -0.3049 -1.1595
 4576SOL    HW225362   0.223   2.469   9.917 -1.2979 -1.5907 -1.3432
 4577SOL     OW25363   4.633   2.147  17.597 -0.1508  0.2504  0.1217
 4577SOL    HW125364   4.637   2.052  17.601 -0.9224  0.2064 -0.2435
 4577SOL    HW225365   4.548   2.146  17.554  0.9246  0.7256 -2.0161
 4578SOL     OW25366   3.155   0.633   2.253  0.2964 -0.1841 -0.3720
 4578SOL    HW125367   3.118   0.546   2.234  0.4835 -0.2349 -0.5003
 4578SOL    HW225368   3.201   0.650   2.172  0.0553  2.5353  0.0714
 4579SOL     OW25369   1.210   2.625   8.854 -0.2960 -0.4768  0.3677
 4579SOL    HW125370   1.133   2.600   8.802 -0.5398  1.9780 -0.4474
 4579SOL    HW225371   1.217   2.568   8.931  1.6350 -1.2257 -0.3732
 4580SOL     OW25372   3.803   1.697   3.938  0.2067 -0.3113 -0.2995
 4580SOL    HW125373   3.887   1.735   3.910  0.6895 -2.7163 -2.1417
 4580SOL    HW225374   3.787   1.627   3.875 -0.0861 -1.4521  1.0533
 4581SOL     OW25375   3.513   3.841   3.585  0.0632 -0.0722  0.4139
 4581SOL    HW125376   3.511   3.888   3.668  1.2198  2.1788 -0.8278
 4581SOL    HW225377   3.517   3.750   3.612 -0.5343  0.4884  2.4098
 4582SOL     OW25378   2.457   4.592   1.406  0.5717  0.8172 -0.2178
 4582SOL    HW125379   2.459   4.666   1.345 -0.1140 -0.1694 -1.4357
 4582SOL    HW225380   2.518   4.620   1.474 -1.2495  3.2971  0.4022
 4583SOL     OW25381   0.935   1.724   2.268 -0.3252 -0.4916 -0.1698
 4583SOL    HW125382   0.994   1.662   2.226 -0.3090 -0.6213  0.0416
 4583SOL    HW225383   0.988   1.762   2.338 -0.3866 -0.1338 -0.3174
 4584SOL     OW25384   4.234   3.584   4.961  0.4989  0.5097 -0.1722
 4584SOL    HW125385   4.198   3.668   4.934 -2.0485 -0.2195  1.0188
 4584SOL    HW225386   4.213   3.582   5.054 -1.0241  0.1432 -0.5351
 4585SOL     OW25387   0.092   0.885   7.084  0.1348  0.1989 -0.2129
 4585SOL    HW125388   0.029   0.849   7.146  0.5598  1.7832  1.1550
 4585SOL    HW225389   0.062   0.861   6.997 -0.2431 -0.9793  0.2505
 4586SOL     OW25390   3.339   2.649  14.041  0.7142  0.0529 -0.6018
 4586SOL    HW125391   3.355   2.738  14.071  0.1682  0.3217 -1.1043
 4586SOL    HW225392   3.258   2.654  13.990 -0.0755 -1.4866  0.5104
 4587SOL     OW25393   2.754   0.402   2.567 -0.5994 -0.2520  0.6575
 4587SOL    HW125394   2.679   0.435   2.519  0.6719  1.1122 -0.3987
 4587SOL    HW225395   2.768   0.474   2.628 -2.1716  0.4834  0.1246
 4588SOL     OW25396   0.229   0.957  14.845  0.2919  0.3059  0.4459
 4588SOL    HW125397   0.269   1.011  14.777 -2.7806 -0.1141 -1.6499
 4588SOL    HW225398   0.218   1.018  14.917 -1.9896  1.6636 -1.0812
 4589SOL     OW25399   1.741   3.714   4.756  0.3062 -0.3803  0.6383
 4589SOL    HW125400   1.831   3.686   4.742 -0.6457 -1.5191 -3.1176
 4589SOL    HW225401   1.732   3.690   4.848 -0.7128  0.4994  0.7734
 4590SOL     OW25402   3.080   3.595  16.160 -0.2613 -0.0178  0.1577
 4590SOL    HW125403   3.022   3.639  16.098 -2.9384 -2.7619  0.6950
 4590SOL    HW225404   3.165   3.637  16.146  0.1085 -0.9700 -0.5459
 4591SOL     OW25405   4.557   4.512  15.218 -0.0297 -0.5795  0.4864
 4591SOL    HW125406   4.481   4.473  15.262  0.6341 -0.8962  1.3668
 4591SOL    HW225407   4.595   4.559  15.293 -1.4416  0.2044  0.6997
 4592SOL     OW25408   3.049   2.965   3.872  0.5752  0.8145 -0.4280
 4592SOL    HW125409   2.973   3.017   3.900 -0.3993 -2.0433  2.3094
 4592SOL    HW225410   3.121   3.019   3.904 -0.0372  1.7018 -0.5477
 4593SOL     OW25411   1.294   4.034   9.412 -0.5682 -0.1608 -0.1446
 4593SOL    HW125412   1.243   3.995   9.340 -0.5071  1.3146 -0.9805
 4593SOL    HW225413   1.259   3.977   9.481 -0.1313 -0.7369 -0.3919
 4594SOL     OW25414   1.341   2.342   3.007  0.3656  0.1440 -0.0414
 4594SOL    HW125415   1.333   2.338   3.103  0.6479 -1.8097 -0.1100
 4594SOL    HW225416   1.250   2.355   2.982  0.4122  1.0702  0.2357
 4595SOL     OW25417   2.354   1.814   8.857 -0.2789  0.2064 -0.0591
 4595SOL    HW125418   2.342   1.730   8.903 -0.6376  0.9376  1.1828
 4595SOL    HW225419   2.427   1.805   8.796  1.7919 -2.2743  2.7421
 4596SOL     OW25420   1.186   4.038   8.722 -0.0466  0.6371  0.9280
 4596SOL    HW125421   1.197   3.950   8.759  2.0558  0.1472 -0.8448
 4596SOL    HW225422   1.172   4.097   8.796 -2.6259  0.6385  0.4145
 4597SOL     OW25423   3.984   4.119  10.650  0.6167 -0.0607  0.5735
 4597SOL    HW125424   4.037   4.173  10.591 -0.4957 -1.2199 -1.4609
 4597SOL    HW225425   4.041   4.067  10.707  0.7348 -0.0009  0.5105
 4598SOL     OW25426   0.299   1.606   3.453 -0.1509  0.2929 -0.1614
 4598SOL    HW125427   0.340   1.686   3.486 -1.1738  0.0962  1.5771
 4598SOL    HW225428   0.278   1.633   3.364 -1.0690 -0.0616 -0.0472
 4599SOL     OW25429   0.929   0.926   0.463  0.8242  0.2324 -0.2290
 4599SOL    HW125430   0.870   1.000   0.457 -1.1371 -1.3388 -0.3366
 4599SOL    HW225431   0.998   0.959   0.520  1.6426 -1.2975 -0.3242
 4600SOL     OW25432   0.184   4.361   8.071 -0.1280 -0.2620 -0.4849
 4600SOL    HW125433   0.093   4.389   8.082  0.2933 -0.4521  3.6847
 4600SOL    HW225434   0.229   4.424   8.127 -0.4971 -1.3686  1.0743
 4601SOL     OW25435   0.635   0.315   9.034  0.2945  0.3562  0.4653
 4601SOL    HW125436   0.568   0.281   9.094  0.5577  2.0812  1.7551
 4601SOL    HW225437   0.717   0.327   9.082  0.5395 -0.9371  0.3558
 4602SOL     OW25438   3.580   4.560   6.466 -0.5327 -0.5100 -0.0686
 4602SOL    HW125439   3.645   4.499   6.502 -1.1436 -1.5762 -0.7589
 4602SOL    HW225440   3.619   4.574   6.380 -2.7901 -2.2503 -1.3968
 4603SOL     OW25441   2.386   3.187   4.193 -0.1431 -0.1799  0.4574
 4603SOL    HW125442   2.345   3.163   4.110 -0.0928  0.7257  0.1672
 4603SOL    HW225443   2.377   3.282   4.183  0.8020  0.1867  3.1489
 4604SOL     OW25444   1.923   4.336   2.698  0.3500  0.4445  0.1134
 4604SOL    HW125445   1.955   4.284   2.772 -0.7311  1.8288  1.5535
 4604SOL    HW225446   1.892   4.417   2.739  2.5682  1.8230 -0.9147
 4605SOL     OW25447   3.112   4.253   6.768 -0.2580 -0.0269  0.2294
 4605SOL    HW125448   3.049   4.258   6.839  1.9827  0.5709  2.1787
 4605SOL    HW225449   3.066   4.312   6.708  0.1426  0.3757  0.3174
 4606SOL     OW25450   3.346   0.732   2.019 -0.1738 -0.1902  0.5439
 4606SOL    HW125451   3.379   0.797   1.957  2.3791  0.7515  2.9066
 4606SOL    HW225452   3.424   0.714   2.072 -1.1355 -0.7997  1.7549
 4607SOL     OW25453   0.938   1.006   5.409  0.3917  0.0832 -0.3104
 4607SOL    HW125454   0.976   1.072   5.351  1.8471 -1.1038 -0.7186
 4607SOL    HW225455   0.945   1.054   5.491  0.8284 -0.0193 -0.2902
 4608SOL     OW25456   2.744   0.035   5.707  0.3023 -0.6947  0.4498
 4608SOL    HW125457   2.688   0.082   5.644  0.5752  2.0563  2.2539
 4608SOL    HW225458   2.786   4.700   5.654 -2.6508 -2.2627  0.1010
 4609SOL     OW25459   3.238   3.555   0.218  0.1885 -0.2038  0.3782
 4609SOL    HW125460   3.321   3.585   0.257  0.0756 -2.0437  2.0554
 4609SOL    HW225461   3.246   3.589   0.129  0.2299  0.9886  0.8438
 4610SOL     OW25462   0.157   2.994   2.806 -0.1193  0.5501 -0.0665
 4610SOL    HW125463   0.246   2.970   2.779  0.5247 -0.9031  3.3928
 4610SOL    HW225464   0.124   2.909   2.834  0.3699  0.7140  1.0024
 4611SOL     OW25465   0.213   4.254   2.826  0.1712  0.2814  0.4779
 4611SOL    HW125466   0.212   4.300   2.742  0.4924  0.9001  0.8118
 4611SOL    HW225467   0.132   4.295   2.855 -1.2423 -1.9563 -0.2932
 4612SOL     OW25468   0.805   0.439   7.244  0.3066 -0.5371  0.0167
 4612SOL    HW125469   0.893   0.404   7.227 -0.0047 -2.0172  1.3836
 4612SOL    HW225470   0.806   0.508   7.179  1.0794  2.8736  3.6290
 4613SOL     OW25471   2.408   1.083   6.638  0.4133 -0.1888  0.4643
 4613SOL    HW125472   2.488   1.134   6.631 -0.3283  0.7723 -1.0062
 4613SOL    HW225473   2.350   1.133   6.696  0.5956  0.8017 -0.2256
 4614SOL     OW25474   2.964   1.539   5.363 -0.5057  0.0245  0.1882
 4614SOL    HW125475   3.043   1.495   5.394 -1.2765  0.8264  3.3088
 4614SOL    HW225476   2.909   1.548   5.440 -1.6801 -1.1145 -0.5141
 4615SOL     OW25477   4.063   1.781  15.030 -0.2008  0.1025 -0.1977
 4615SOL    HW125478   4.069   1.874  15.007  0.0113 -0.2361 -1.4976
 4615SOL    HW225479   3.974   1.761  15.001 -0.5305  1.6183 -0.2244
 4616SOL     OW25480   1.000   3.598  10.581 -0.5807 -0.4847 -0.2018
 4616SOL    HW125481   0.921   3.548  10.562  0.3191 -1.5174 -1.2724
 4616SOL    HW225482   1.027   3.555  10.662  1.6675 -0.5109 -0.9604
 4617SOL     OW25483   2.048   3.652   7.258 -0.2670 -0.1202  0.0726
 4617SOL    HW125484   1.987   3.674   7.188 -0.2643 -0.0944  0.0782
 4617SOL    HW225485   2.003   3.662   7.342 -1.4530  1.7582 -0.7864
 4618SOL     OW25486   2.096   1.649   8.639  0.2484  0.2628  0.5043
 4618SOL    HW125487   2.043   1.686   8.569  1.2504  0.1488 -0.3043
 4618SOL    HW225488   2.176   1.628   8.592 -1.5820 -1.0884 -2.0292
 4619SOL     OW25489   3.813   0.361   8.847 -0.2568 -0.4292  0.0026
 4619SOL    HW125490   3.799   0.428   8.914 -2.0908 -0.6775 -0.1436
 4619SOL    HW225491   3.738   0.306   8.869  0.6761 -1.4928  0.5368
 4620SOL     OW25492   2.118   3.273  16.872 -0.4043 -0.5401  0.5509
 4620SOL    HW125493   2.037   3.275  16.821  1.7603  1.5699 -2.7693
 4620SOL    HW225494   2.091   3.248  16.961 -2.6727  1.0613  0.2914
 4621SOL     OW25495   0.589   2.713  10.729 -0.3601 -0.7429 -0.4046
 4621SOL    HW125496   0.540   2.631  10.730  0.5706 -1.2778  0.4715
 4621SOL    HW225497   0.606   2.726  10.823 -1.7740 -1.0114 -0.1105
 4622SOL     OW25498   0.508   1.870   5.231  0.1691 -0.0932 -0.4134
 4622SOL    HW125499   0.566   1.872   5.307 -0.5818 -1.2867  0.2064
 4622SOL    HW225500   0.555   1.805   5.178  2.2266  1.5180 -0.5271
 4623SOL     OW25501   3.641   0.859   5.393 -0.6873 -0.4530  0.0078
 4623SOL    HW125502   3.620   0.935   5.446  1.3865  0.9455 -1.1551
 4623SOL    HW225503   3.735   0.844   5.408 -0.8067 -1.5245 -0.2873
 4624SOL     OW25504   2.180   2.061  17.350 -0.8856  0.2702 -0.1004
 4624SOL    HW125505   2.159   2.147  17.313  1.2104 -0.1079 -2.1684
 4624SOL    HW225506   2.230   2.080  17.429 -0.1220  0.4868 -0.6266
 4625SOL     OW25507   0.871   1.716   8.707 -0.1027 -0.0558  0.5674
 4625SOL    HW125508   0.807   1.780   8.676 -1.6143 -1.0285  1.7251
 4625SOL    HW225509   0.880   1.728   8.802 -0.3317  1.5423  0.3981
 4626SOL     OW25510   3.669   3.759   8.767  0.4622  0.7865  0.3282
 4626SOL    HW125511   3.753   3.751   8.811 -0.2657 -1.2406  1.3386
 4626SOL    HW225512   3.703   3.827   8.708 -1.9925 -0.9766 -3.1131
 4627SOL     OW25513   1.132   1.318  17.263  0.9184  0.3099  0.5137
 4627SOL    HW125514   1.079   1.368  17.201  1.2171 -0.1017 -0.0799
 4627SOL    HW225515   1.194   1.273  17.204 -1.6394  1.4652 -3.0194
 4628SOL     OW25516   4.472   0.472   5.951 -0.5624  0.0722 -0.5040
 4628SOL    HW125517   4.536   0.402   5.964  0.8738  0.9788 -2.6953
 4628SOL    HW225518   4.508   0.527   6.020 -0.3672 -0.8589  0.1411
 4629SOL     OW25519   0.519   1.241   1.925 -0.1168  0.6636 -0.1331
 4629SOL    HW125520   0.609   1.214   1.906 -0.9851  0.6638 -4.2975
 4629SOL    HW225521   0.503   1.185   2.001  3.5177 -1.6401 -1.0161
 4630SOL     OW25522   2.546   3.084  11.896 -0.2114 -0.0672 -0.7142
 4630SOL    HW125523   2.641   3.091  11.909 -0.1687 -0.3070 -0.8993
 4630SOL    HW225524   2.523   3.164  11.849  1.1123  1.1771  0.7106
 4631SOL     OW25525   1.665   3.044  12.688 -0.5914 -0.3524 -1.1203
 4631SOL    HW125526   1.669   3.139  12.674  1.2880 -0.2889 -0.2566
 4631SOL    HW225527   1.662   3.039  12.783 -1.3874  0.0635 -1.1275
 4632SOL     OW25528   0.636   2.938   3.091  0.6538 -0.2162  0.0626
 4632SOL    HW125529   0.599   3.026   3.088  0.8436 -0.1402 -0.0454
 4632SOL    HW225530   0.692   2.931   3.014 -0.5407 -1.8475 -0.6685
 4633SOL     OW25531   4.131   0.987  17.360  0.2339  0.4487 -0.3121
 4633SOL    HW125532   4.148   0.997  17.453 -0.9110 -0.5835  0.0131
 4633SOL    HW225533   4.215   1.005  17.317  0.4539 -0.6562 -0.3420
 4634SOL     OW25534   4.594   3.322   6.971  0.0546 -0.3618  0.3620
 4634SOL    HW125535   4.635   3.238   6.952  1.9231  0.8523 -0.9628
 4634SOL    HW225536   4.558   3.341   6.885  1.0047 -0.9275 -0.1581
 4635SOL     OW25537   0.505   4.508   8.958 -0.2474 -0.2206 -0.5623
 4635SOL    HW125538   0.480   4.500   8.866  3.1315 -0.0218 -1.4819
 4635SOL    HW225539   0.458   4.588   8.981  0.5779  0.2481 -0.5035
 4636SOL     OW25540   1.171   2.685   1.133 -0.2107 -0.3365  0.0139
 4636SOL    HW125541   1.176   2.631   1.212  2.6392 -1.3918 -0.8827
 4636SOL    HW225542   1.199   2.620   1.068  0.8619  0.5186 -0.3761
 4637SOL     OW25543   1.918   1.019   6.831 -0.2551  0.5850 -0.2832
 4637SOL    HW125544   1.834   1.065   6.839 -1.2917 -1.4711  0.5381
 4637SOL    HW225545   1.958   1.066   6.904 -3.7015  0.1709  1.9047
 4638SOL     OW25546   1.954   3.051  10.188 -0.1215  0.1949 -0.1526
 4638SOL    HW125547   1.982   3.142  10.176  0.6693 -0.2223 -1.5412
 4638SOL    HW225548   1.994   3.006  10.114 -1.8728 -1.4071 -0.1105
 4639SOL     OW25549   4.101   4.463   3.764  0.0367 -0.2134 -0.2331
 4639SOL    HW125550   4.148   4.541   3.792  1.2397 -0.6565 -1.0307
 4639SOL    HW225551   4.163   4.433   3.698  1.6136  0.5438  0.9231
 4640SOL     OW25552   1.937   2.419  12.338  0.3202 -0.1407 -0.4249
 4640SOL    HW125553   1.989   2.497  12.319 -0.3971  0.1726 -1.1055
 4640SOL    HW225554   1.854   2.457  12.367 -0.8262 -2.3235 -0.7904
 4641SOL     OW25555   3.461   1.811   7.620  0.0041 -0.1241 -0.1482
 4641SOL    HW125556   3.528   1.864   7.664 -0.1693  0.1192 -0.1744
 4641SOL    HW225557   3.508   1.729   7.630  0.3588  0.3827  2.2054
 4642SOL     OW25558   3.079   3.456   2.577  0.0015  0.3048 -0.3806
 4642SOL    HW125559   3.117   3.435   2.492 -0.8903  2.4653 -1.3344
 4642SOL    HW225560   3.138   3.426   2.646  1.1010  0.9193 -1.0558
 4643SOL     OW25561   0.194   2.989  15.930  0.1950 -0.1328 -0.5517
 4643SOL    HW125562   0.288   2.992  15.910  0.4998  1.0231  0.9975
 4643SOL    HW225563   0.167   2.919  15.872  0.6381 -1.2157  0.5389
 4644SOL     OW25564   2.845   4.181   1.115  0.1475  0.2664  0.0887
 4644SOL    HW125565   2.891   4.156   1.196  1.5329  1.1837 -0.4229
 4644SOL    HW225566   2.909   4.220   1.056  0.4498 -1.4493 -0.7118
 4645SOL     OW25567   0.302   0.610   6.711  0.3671  0.3106 -0.0807
 4645SOL    HW125568   0.244   0.648   6.777 -0.8044 -0.3068 -0.7610
 4645SOL    HW225569   0.290   0.681   6.648  3.4332  0.0268 -0.9933
 4646SOL     OW25570   0.853   3.623  16.451 -0.8551 -0.1126 -0.1312
 4646SOL    HW125571   0.884   3.599  16.364 -0.4194 -2.0933  0.5747
 4646SOL    HW225572   0.941   3.619  16.489 -0.1425  0.1713 -1.7423
 4647SOL     OW25573   0.180   4.399   2.112 -0.1570  0.0986 -0.2244
 4647SOL    HW125574   0.153   4.488   2.090  1.3874  0.7722  0.6632
 4647SOL    HW225575   0.210   4.414   2.202 -4.3032 -0.4899  1.2873
 4648SOL     OW25576   1.842   3.754   3.636  0.4912 -0.0508 -0.3424
 4648SOL    HW125577   1.902   3.829   3.645  1.1351 -0.9743  3.1925
 4648SOL    HW225578   1.859   3.710   3.719 -0.3402  0.2671 -0.0100
 4649SOL     OW25579   1.989   0.406   3.852 -0.3853  0.2293 -0.0708
 4649SOL    HW125580   2.056   0.440   3.792 -0.0338  0.1162  0.2612
 4649SOL    HW225581   2.045   0.346   3.900 -2.5796 -1.6281  0.1912
 4650SOL     OW25582   2.898   4.318   3.790  0.2090  0.1560 -0.7213
 4650SOL    HW125583   2.980   4.328   3.743  2.0647  0.0098  2.5180
 4650SOL    HW225584   2.867   4.229   3.770 -0.4621  0.3142 -0.4029
 4651SOL     OW25585   2.064   2.152  10.752  0.1138  0.2160  0.4784
 4651SOL    HW125586   2.118   2.080  10.784 -2.7982 -0.7677  3.1741
 4651SOL    HW225587   2.106   2.214  10.812 -0.4972 -0.1764  1.3166
 4652SOL     OW25588   2.094   3.726  12.630 -0.0920 -0.3611  0.1389
 4652SOL    HW125589   2.049   3.811  12.634  2.3449  0.9733 -1.0332
 4652SOL    HW225590   2.119   3.728  12.722  0.0796 -2.0532  0.1364
 4653SOL     OW25591   2.032   4.353   5.949  0.3564 -0.1036 -0.1366
 4653SOL    HW125592   2.100   4.334   5.884 -1.3915 -2.1629 -1.3423
 4653SOL    HW225593   1.957   4.316   5.903  0.5366 -0.1682 -0.3760
 4654SOL     OW25594   1.539   4.721   5.459  0.7066 -0.1238  0.4981
 4654SOL    HW125595   1.453   4.687   5.435 -0.2883  0.8829  2.5953
 4654SOL    HW225596   1.520   0.071   5.503 -0.8597 -0.2233 -0.0184
 4655SOL     OW25597   0.708   2.726   2.445  0.5600  0.1406  0.0391
 4655SOL    HW125598   0.668   2.783   2.511 -0.9975  0.7931 -1.4873
 4655SOL    HW225599   0.710   2.640   2.488 -0.1695  0.0754 -0.0578
 4656SOL     OW25600   0.388   0.489   3.022 -0.7270  0.0873  1.1782
 4656SOL    HW125601   0.444   0.565   3.003  0.1459 -0.5574  1.1642
 4656SOL    HW225602   0.308   0.525   2.984  0.8801  0.7360 -1.6148
 4657SOL     OW25603   1.106   3.442  12.794  0.1136 -0.1206  0.2642
 4657SOL    HW125604   1.174   3.388  12.834 -0.5728 -1.2513 -0.1179
 4657SOL    HW225605   1.145   3.525  12.823 -3.0507  1.1786  0.8240
 4658SOL     OW25606   0.319   3.680  11.968 -0.2116 -0.0260  0.2516
 4658SOL    HW125607   0.239   3.657  11.920  1.2389 -2.9718 -0.8226
 4658SOL    HW225608   0.378   3.615  11.929 -1.8356 -2.1021  1.2235
 4659SOL     OW25609   2.847   4.031   7.053  0.4130  0.0050  0.7220
 4659SOL    HW125610   2.785   4.043   6.981  0.7231  1.7110  0.7424
 4659SOL    HW225611   2.789   3.990   7.116 -0.6125 -0.1201 -0.3054
 4660SOL     OW25612   1.884   0.095   5.069 -0.0946 -0.4387  0.2079
 4660SOL    HW125613   1.845   0.116   5.154  1.8891 -0.7485  1.1729
 4660SOL    HW225614   1.970   0.129   5.091 -0.2953  0.4318 -0.3500
 4661SOL     OW25615   3.963   1.802  10.957 -0.2886 -0.5838  0.1120
 4661SOL    HW125616   3.923   1.824  11.041  0.9818  0.5088  0.4489
 4661SOL    HW225617   4.045   1.850  10.971 -1.3721  1.1402  0.6313
 4662SOL     OW25618   1.760   2.988   3.612 -0.0446 -0.7250 -0.0613
 4662SOL    HW125619   1.821   3.033   3.670 -0.2207  2.2386 -2.2081
 4662SOL    HW225620   1.692   3.052   3.591  1.1745  1.1795  1.7713
 4663SOL     OW25621   0.169   1.084  17.486 -0.7486 -0.3594 -0.2098
 4663SOL    HW125622   0.239   1.127  17.438  0.4151 -4.0104 -1.7958
 4663SOL    HW225623   0.099   1.121  17.432 -3.3985 -2.9094  1.4770
 4664SOL     OW25624   2.679   4.348   7.749  0.0387  0.1366 -0.1491
 4664SOL    HW125625   2.690   4.432   7.704  0.0739  0.4104  0.3724
 4664SOL    HW225626   2.621   4.362   7.823  0.6956 -0.2524  0.4398
 4665SOL     OW25627   2.009   3.325   8.792  0.2825 -0.4490  0.4623
 4665SOL    HW125628   1.941   3.276   8.747 -0.3999  0.8648  0.0572
 4665SOL    HW225629   2.037   3.377   8.717  0.7475  0.3588  1.1946
 4666SOL     OW25630   1.101   2.624  10.517  0.1092 -0.5200 -0.2447
 4666SOL    HW125631   1.069   2.688  10.581 -0.3990  0.7112 -1.7418
 4666SOL    HW225632   1.040   2.551  10.529 -0.9843  0.1958 -1.5367
 4667SOL     OW25633   1.427   0.820  17.621 -0.7670 -0.4804 -0.0994
 4667SOL    HW125634   1.471   0.888  17.672 -0.3343 -1.1465  0.4308
 4667SOL    HW225635   1.358   0.874  17.584  1.2637  1.0587 -1.5852
 4668SOL     OW25636   3.984   3.336   6.039 -0.2271 -0.1595  0.1066
 4668SOL    HW125637   4.019   3.403   5.980  0.6789 -0.6407  0.0961
 4668SOL    HW225638   4.018   3.265   5.984  1.0625 -0.3898  1.2036
 4669SOL     OW25639   4.048   2.917   6.112 -0.2964 -0.2433  0.7448
 4669SOL    HW125640   4.038   2.822   6.100  0.3009 -0.4595  1.9176
 4669SOL    HW225641   3.973   2.956   6.067  1.7584  2.9000  0.0770
 4670SOL     OW25642   1.118   3.985   9.669 -0.1127 -0.2673 -0.0510
 4670SOL    HW125643   1.113   3.968   9.764  0.1205  0.3433  0.0687
 4670SOL    HW225644   1.119   3.894   9.639  2.6711  0.2000 -1.2831
 4671SOL     OW25645   3.405   2.883   5.509 -0.1224  0.0681  0.0947
 4671SOL    HW125646   3.474   2.938   5.546  0.5245 -0.1888 -0.7210
 4671SOL    HW225647   3.329   2.938   5.524  0.3996  1.0707 -0.9346
 4672SOL     OW25648   0.932   3.744  10.354  0.1496 -0.5412 -0.5995
 4672SOL    HW125649   0.957   3.715  10.266  1.5892 -0.5760 -0.1727
 4672SOL    HW225650   0.993   3.693  10.407  0.4298  1.3264  0.8580
 4673SOL     OW25651   4.281   0.979   4.321 -0.4610 -0.1694  0.5929
 4673SOL    HW125652   4.194   0.945   4.300 -0.4757  0.8648 -0.9881
 4673SOL    HW225653   4.274   1.009   4.411  1.9981 -2.0166  1.4288
 4674SOL     OW25654   2.736   2.202   4.343  0.0870  0.1008 -0.1801
 4674SOL    HW125655   2.807   2.245   4.391  0.2318  0.8624 -1.0633
 4674SOL    HW225656   2.766   2.111   4.344 -0.3363 -0.0450 -2.4871
 4675SOL     OW25657   0.904   4.065  11.986 -0.5291 -0.4115  0.3906
 4675SOL    HW125658   0.817   4.061  12.024 -0.4276  0.9970  0.7555
 4675SOL    HW225659   0.913   4.160  11.982 -1.9048 -0.3172 -0.5200
 4676SOL     OW25660   0.713   0.329   8.529 -1.1816  0.8376  0.3683
 4676SOL    HW125661   0.673   0.345   8.615 -1.2534 -2.4974  0.9580
 4676SOL    HW225662   0.794   0.378   8.539 -0.9385  1.0213 -2.5544
 4677SOL     OW25663   3.854   4.240  14.027 -0.0677 -0.2945 -0.1088
 4677SOL    HW125664   3.947   4.240  14.049 -0.6236 -1.6573  2.1623
 4677SOL    HW225665   3.870   4.203  13.940 -2.2402 -1.2979 -0.0899
 4678SOL     OW25666   0.235   1.233   4.887  0.1915 -0.3071  0.0472
 4678SOL    HW125667   0.218   1.296   4.817 -0.3428 -3.0357 -2.2378
 4678SOL    HW225668   0.228   1.151   4.839  2.7535 -0.4471 -0.1154
 4679SOL     OW25669   1.672   3.944  12.782 -0.1063  0.3191 -0.3342
 4679SOL    HW125670   1.586   3.984  12.766 -1.4664 -2.1945  0.7344
 4679SOL    HW225671   1.656   3.902  12.867  0.8612 -2.8654 -1.7505
 4680SOL     OW25672   2.442   4.607  13.203 -0.1647 -0.2378 -0.1461
 4680SOL    HW125673   2.501   4.660  13.256 -1.2036  2.8791 -2.0540
 4680SOL    HW225674   2.488   4.594  13.120 -1.1732  0.9446 -0.8987
 4681SOL     OW25675   4.354   3.014   5.583  0.2801  0.1076  0.0190
 4681SOL    HW125676   4.282   2.996   5.644  1.0573  0.9637  1.2078
 4681SOL    HW225677   4.412   2.939   5.597  0.6179  0.6429  1.6115
 4682SOL     OW25678   3.547   3.317   3.914  0.3040  0.0287  0.5514
 4682SOL    HW125679   3.461   3.348   3.884  0.0248 -1.7970 -0.4950
 4682SOL    HW225680   3.532   3.226   3.938  2.9856 -0.5201  0.1145
 4683SOL     OW25681   1.272   4.423  10.092  0.2533 -0.3973  0.0381
 4683SOL    HW125682   1.240   4.418  10.002  0.1666  1.6370 -0.0344
 4683SOL    HW225683   1.209   4.481  10.134  0.7100  1.3632 -1.7340
 4684SOL     OW25684   2.034   4.162   6.215 -0.4346 -0.0346  0.4095
 4684SOL    HW125685   1.939   4.169   6.218 -0.3502  0.2471  2.6141
 4684SOL    HW225686   2.049   4.226   6.285 -0.1260 -0.4041  0.6781
 4685SOL     OW25687   0.502   4.307  15.304 -0.2688 -0.1030 -0.1017
 4685SOL    HW125688   0.455   4.273  15.228 -1.0614  1.3107 -0.2550
 4685SOL    HW225689   0.588   4.265  15.303 -0.0359  0.2375  3.0087
 4686SOL     OW25690   2.457   3.919   7.637 -0.1898 -0.4261 -0.1143
 4686SOL    HW125691   2.522   3.851   7.620  1.5390  1.3833 -0.6613
 4686SOL    HW225692   2.514   3.984   7.678 -0.9068  0.9871 -1.3990
 4687SOL     OW25693   1.680   2.763  11.575 -0.4258  0.2994 -0.0689
 4687SOL    HW125694   1.724   2.840  11.540  1.3580 -1.4407 -1.7023
 4687SOL    HW225695   1.693   2.773  11.669  1.8877  2.5034 -0.6045
 4688SOL     OW25696   1.785   2.494   8.391 -0.1283 -0.4760  0.1496
 4688SOL    HW125697   1.835   2.548   8.453  0.2958  0.1593 -0.7553
 4688SOL    HW225698   1.814   2.533   8.309 -2.3758 -0.9094 -0.8475
 4689SOL     OW25699   3.226   1.846   4.279  0.3003  0.0575  0.4899
 4689SOL    HW125700   3.154   1.865   4.219 -0.5542 -0.3584  1.3727
 4689SOL    HW225701   3.280   1.790   4.225 -0.5912  0.0922 -0.4395
 4690SOL     OW25702   2.082   2.160   5.179  0.0059 -0.0846  0.2723
 4690SOL    HW125703   2.027   2.093   5.139 -1.5471  0.1291  2.0594
 4690SOL    HW225704   2.135   2.099   5.232 -0.6760 -2.9316 -2.3180
 4691SOL     OW25705   2.681   0.692   1.981 -0.0154  0.0356  0.2355
 4691SOL    HW125706   2.731   0.681   2.061 -0.9108 -0.0497  0.7873
 4691SOL    HW225707   2.604   0.652   2.020  2.2218 -1.1424  3.4064
 4692SOL     OW25708   4.554   0.071   4.979 -0.4205 -0.1775  0.3281
 4692SOL    HW125709   4.564   0.054   5.073  1.1932  0.2222  0.2262
 4692SOL    HW225710   4.493   4.732   4.961  0.3267 -1.0208  1.0989
 4693SOL     OW25711   2.088   3.571   9.266  0.4938 -0.1641  0.4362
 4693SOL    HW125712   2.057   3.558   9.177  0.7439  1.8434  0.0513
 4693SOL    HW225713   2.146   3.495   9.268  0.3560 -0.2520  1.4732
 4694SOL     OW25714   3.993   0.554   7.322  0.1098  0.4927  0.2635
 4694SOL    HW125715   4.030   0.470   7.349 -0.4312  0.3595  0.5704
 4694SOL    HW225716   4.049   0.604   7.381 -0.5040  0.0993  1.1814
 4695SOL     OW25717   4.103   2.497   6.375 -0.0716 -0.2702  0.4008
 4695SOL    HW125718   4.080   2.468   6.463 -1.7754  2.4158  0.8430
 4695SOL    HW225719   4.035   2.454   6.324 -0.0869 -0.9083  0.9644
 4696SOL     OW25720   2.890   0.332  17.582  0.7155 -0.0464 -0.4222
 4696SOL    HW125721   2.937   0.415  17.583  0.7566 -0.0800  0.4609
 4696SOL    HW225722   2.803   0.356  17.613  0.9136  0.7018 -0.4523
 4697SOL     OW25723   3.073   4.719   2.513  0.4035  0.0475 -0.0938
 4697SOL    HW125724   3.063   4.643   2.570  3.2604 -1.9444 -2.2927
 4697SOL    HW225725   3.024   4.690   2.437  0.3293  1.5845 -0.6397
 4698SOL     OW25726   2.148   1.046   5.638  0.3340 -0.3826 -0.1909
 4698SOL    HW125727   2.160   0.976   5.702  0.9382  1.3440  1.5471
 4698SOL    HW225728   2.065   1.079   5.671 -0.4702  0.4093 -2.9909
 4699SOL     OW25729   0.011   4.139   7.204 -0.3635 -0.3702  0.1945
 4699SOL    HW125730   4.674   4.126   7.269  0.6076  0.0167  1.3033
 4699SOL    HW225731   0.056   4.055   7.210  0.6354  0.2702  1.6246
 4700SOL     OW25732   3.749   0.860   6.745 -0.1125  0.0533  0.3227
 4700SOL    HW125733   3.732   0.954   6.736  0.7667  0.0327 -1.6896
 4700SOL    HW225734   3.774   0.831   6.657  1.8132  0.6450  0.6851
 4701SOL     OW25735   2.988   0.439   8.178  0.6062  0.1412  0.2541
 4701SOL    HW125736   2.984   0.373   8.248  2.9493  0.0618  0.2932
 4701SOL    HW225737   2.892   0.449   8.179  0.5427 -0.6722  2.6470
 4702SOL     OW25738   0.701   2.276   7.310 -0.4324  0.2866  0.7050
 4702SOL    HW125739   0.627   2.255   7.367  1.3117 -1.5863  2.3165
 4702SOL    HW225740   0.749   2.352   7.344  0.9775 -0.0532 -0.5339
 4703SOL     OW25741   4.530   1.216  14.128  0.0295  0.4472  0.0425
 4703SOL    HW125742   4.534   1.174  14.042  0.1653  3.6683 -1.5334
 4703SOL    HW225743   4.438   1.223  14.150 -1.0576 -0.6510 -4.2308
 4704SOL     OW25744   3.088   3.406   8.666  0.1401 -0.2391  0.0540
 4704SOL    HW125745   3.073   3.314   8.686 -1.3141 -0.2819 -1.2760
 4704SOL    HW225746   3.184   3.405   8.661  0.0287  0.2960 -2.3329
 4705SOL     OW25747   0.174   2.080  15.188  0.1305 -0.4219  0.1796
 4705SOL    HW125748   0.191   2.114  15.277 -1.6532 -1.2501  0.8354
 4705SOL    HW225749   0.117   2.012  15.223 -0.7893 -1.1114 -2.7539
 4706SOL     OW25750   2.897   1.161   5.979 -0.1194  0.1144 -0.7506
 4706SOL    HW125751   2.944   1.104   5.918 -1.7713  0.7127 -2.5621
 4706SOL    HW225752   2.964   1.183   6.043  0.0576  2.0187 -1.6040
 4707SOL     OW25753   3.221   0.942  16.315  0.2666 -0.2684 -0.2097
 4707SOL    HW125754   3.292   1.002  16.291 -0.5635 -0.0274 -2.0607
 4707SOL    HW225755   3.243   0.919  16.405  0.2582 -0.5276 -0.2740
 4708SOL     OW25756   1.971   0.988   6.399  0.0766 -0.4457  0.1627
 4708SOL    HW125757   2.019   1.066   6.371  2.1626 -1.8764 -0.2443
 4708SOL    HW225758   1.895   1.037   6.430 -0.5031  0.7508 -3.1001
 4709SOL     OW25759   2.873   2.208   8.275 -0.3832 -0.1692 -0.2647
 4709SOL    HW125760   2.925   2.187   8.198 -0.0414 -0.6993  0.1104
 4709SOL    HW225761   2.914   2.291   8.300  1.4555 -1.2742  0.3326
 4710SOL     OW25762   1.168   0.969   3.998 -0.4792 -0.0398  0.2155
 4710SOL    HW125763   1.135   1.053   3.965 -1.8181 -0.5055  0.3878
 4710SOL    HW225764   1.089   0.918   4.011 -0.0308 -1.1689 -1.6073
 4711SOL     OW25765   1.472   4.600   6.644  0.4403  0.1594 -1.1323
 4711SOL    HW125766   1.400   4.572   6.700  0.7977  3.1417  0.8108
 4711SOL    HW225767   1.527   4.653   6.702 -0.0444 -0.6935  0.0956
 4712SOL     OW25768   2.375   2.828   5.447 -0.3707 -0.0176 -0.0791
 4712SOL    HW125769   2.320   2.787   5.380 -0.5763 -2.9860  1.8954
 4712SOL    HW225770   2.458   2.792   5.413 -0.5585  0.5691 -1.1739
 4713SOL     OW25771   2.746   0.130   5.355  0.8347  0.7536  0.3892
 4713SOL    HW125772   2.775   0.183   5.281 -3.2717 -0.9235 -2.3892
 4713SOL    HW225773   2.826   0.116   5.404  0.9701  0.6586  0.1393
 4714SOL     OW25774   1.108   0.653   8.955  0.3582  0.8598 -0.6135
 4714SOL    HW125775   1.066   0.730   8.918 -0.9758 -0.7869 -2.5194
 4714SOL    HW225776   1.148   0.623   8.873  1.7965 -0.1518  0.4582
 4715SOL     OW25777   4.429   3.952   1.829  0.3161 -0.5670  0.1420
 4715SOL    HW125778   4.460   3.861   1.828  0.7921 -0.4119  0.8028
 4715SOL    HW225779   4.391   3.959   1.741  0.9782  0.2545 -0.0795
 4716SOL     OW25780   2.013   4.366   8.823  0.1012  0.3724 -0.6377
 4716SOL    HW125781   1.945   4.402   8.881  0.2820 -2.2280  1.1548
 4716SOL    HW225782   1.953   4.324   8.760  0.8565 -1.0429 -0.4001
 4717SOL     OW25783   3.860   0.999   1.089 -0.3200 -0.6604  0.2152
 4717SOL    HW125784   3.866   1.076   1.032  1.2009 -0.6909  0.3175
 4717SOL    HW225785   3.921   0.934   1.054 -2.2793 -1.8168 -1.0342
 4718SOL     OW25786   2.203   0.906   4.733 -0.2276  0.1331  0.2014
 4718SOL    HW125787   2.267   0.886   4.801  1.9615  2.2313 -1.2776
 4718SOL    HW225788   2.175   0.817   4.715  0.3922  0.1401 -0.7365
 4719SOL     OW25789   1.365   2.284  17.076  0.0650  0.4183 -0.5505
 4719SOL    HW125790   1.419   2.315  17.003 -2.6138  2.8363 -1.5030
 4719SOL    HW225791   1.409   2.203  17.098 -0.0522  0.8648  1.3027
 4720SOL     OW25792   1.991   3.633  16.543  0.7559  0.8703 -0.2714
 4720SOL    HW125793   1.950   3.674  16.619 -0.2762 -1.5374  0.4714
 4720SOL    HW225794   2.076   3.613  16.584 -0.0527  0.3186  1.1332
 4721SOL     OW25795   0.740   4.305   2.783  0.4261  0.0032  0.0600
 4721SOL    HW125796   0.740   4.401   2.779 -0.5115  0.0334  0.8912
 4721SOL    HW225797   0.666   4.302   2.844  1.1120 -0.2112  0.8847
 4722SOL     OW25798   3.926   3.796  12.757 -0.6874 -0.4404  0.0226
 4722SOL    HW125799   3.902   3.884  12.730  1.1588 -0.0568 -0.3757
 4722SOL    HW225800   3.960   3.821  12.843  0.1660  1.2499 -0.8003
 4723SOL     OW25801   2.036   4.033  14.204 -0.3187 -0.3542  0.2699
 4723SOL    HW125802   2.004   4.123  14.218  0.1676 -0.2328  0.5869
 4723SOL    HW225803   2.082   4.053  14.123  1.9505  0.2323  1.7012
 4724SOL     OW25804   4.150   1.401   3.331 -0.0664 -0.4136  0.2116
 4724SOL    HW125805   4.136   1.495   3.341  2.3009 -0.1614  1.0773
 4724SOL    HW225806   4.080   1.380   3.269 -0.7595  2.0091  0.1639
 4725SOL     OW25807   1.466   3.352   6.193 -0.0648 -0.1259  0.8119
 4725SOL    HW125808   1.407   3.376   6.264 -2.0652  1.0732 -1.2729
 4725SOL    HW225809   1.433   3.420   6.136 -4.3130 -1.6388  1.4589
 4726SOL     OW25810   3.499   0.014   7.046  0.0670 -0.7762 -0.2622
 4726SOL    HW125811   3.524   0.106   7.037 -0.2967 -0.6506  0.0403
 4726SOL    HW225812   3.524   4.719   7.134  2.0623 -1.2313 -0.9570
 4727SOL     OW25813   1.248   0.631  11.808 -0.2124  0.6224 -0.0834
 4727SOL    HW125814   1.217   0.713  11.847 -1.7986  0.8174 -1.7521
 4727SOL    HW225815   1.251   0.571  11.882  0.4816  2.2304  1.2034
 4728SOL     OW25816   2.619   0.988   3.834 -0.2875  0.3034 -0.1195
 4728SOL    HW125817   2.643   0.896   3.819  1.8048  0.7625  0.4177
 4728SOL    HW225818   2.571   0.966   3.913 -0.6339 -1.8177 -0.8919
 4729SOL     OW25819   4.013   0.873   3.415  0.5517 -0.2991  0.5528
 4729SOL    HW125820   4.005   0.779   3.433  0.3388 -0.6626 -1.3724
 4729SOL    HW225821   4.033   0.908   3.502  1.2836  0.8462 -0.0779
 4730SOL     OW25822   1.901   3.435   6.553 -0.3355  0.8808 -0.1416
 4730SOL    HW125823   1.992   3.460   6.535 -0.2594  1.0938  0.5244
 4730SOL    HW225824   1.907   3.345   6.521 -0.9410  0.5294  0.7459
 4731SOL     OW25825   3.208   1.419   7.284 -0.4395  0.0012  0.2263
 4731SOL    HW125826   3.203   1.488   7.350  0.5043  0.9918 -0.7303
 4731SOL    HW225827   3.147   1.454   7.220 -0.8286  0.8298  1.0456
 4732SOL     OW25828   2.151   0.403   1.497  0.0857 -0.3657 -0.2701
 4732SOL    HW125829   2.101   0.485   1.495 -2.3342 -1.8550 -0.5071
 4732SOL    HW225830   2.241   0.435   1.483 -1.0596  1.6129 -3.0743
 4733SOL     OW25831   0.460   3.384   7.822  0.2743  0.0510 -0.1755
 4733SOL    HW125832   0.426   3.361   7.909 -0.1231  1.5685  0.0698
 4733SOL    HW225833   0.533   3.434   7.858 -0.0156 -1.2191  2.1914
 4734SOL     OW25834   4.561   2.823   3.492  0.1419  0.2397  0.6100
 4734SOL    HW125835   4.605   2.745   3.460  0.6624  1.2020 -1.0058
 4734SOL    HW225836   4.633   2.885   3.504 -0.2600  0.9909 -0.8985
 4735SOL     OW25837   3.371   4.163   3.888 -0.4613  0.5436  0.4439
 4735SOL    HW125838   3.432   4.160   3.962  1.7877  0.6132 -1.4256
 4735SOL    HW225839   3.410   4.109   3.820 -0.3768  0.0111  0.9191
 4736SOL     OW25840   4.184   2.043   2.297 -0.0351 -0.1971  0.4764
 4736SOL    HW125841   4.143   2.115   2.345  0.4954  2.2605 -2.7684
 4736SOL    HW225842   4.106   2.036   2.242  1.2889 -3.3686 -1.0058
 4737SOL     OW25843   3.172   0.266   6.197 -0.1558 -0.0504  0.6160
 4737SOL    HW125844   3.086   0.302   6.219  0.2656  2.1143 -1.2908
 4737SOL    HW225845   3.198   0.236   6.284  0.1168  1.2503  0.9843
 4738SOL     OW25846   2.942   0.254  10.980  0.4799 -0.5635  0.0164
 4738SOL    HW125847   2.955   0.163  10.952  1.9866 -0.6228  0.9191
 4738SOL    HW225848   2.879   0.273  10.911  1.0964 -0.3505 -0.4921
 4739SOL     OW25849   0.184   0.913  10.729 -0.2173  0.1659  0.4032
 4739SOL    HW125850   0.112   0.920  10.666 -1.8299 -0.5896  2.1659
 4739SOL    HW225851   0.252   0.871  10.676  0.1566 -0.7145  1.5609
 4740SOL     OW25852   0.332   4.600   7.402  0.2135 -0.0107  0.3480
 4740SOL    HW125853   0.413   4.615   7.353  1.2683  3.3223  3.0455
 4740SOL    HW225854   0.271   4.626   7.334  0.8808 -0.8574 -0.5649
 4741SOL     OW25855   1.873   1.955   3.939  0.3779 -0.2538 -0.4066
 4741SOL    HW125856   1.888   1.869   3.899  0.8201 -1.0169  1.4183
 4741SOL    HW225857   1.777   1.957   3.938  0.4106  2.5357  0.7959
 4742SOL     OW25858   1.763   1.720   7.414 -0.2322 -0.3015  0.1576
 4742SOL    HW125859   1.771   1.627   7.433  0.3749  0.1657  2.1692
 4742SOL    HW225860   1.669   1.728   7.396 -0.4768  1.1397  2.0983
 4743SOL     OW25861   4.030   2.843   9.569 -0.0354  0.2295  0.3597
 4743SOL    HW125862   4.101   2.781   9.586 -0.9787 -0.5569  1.4347
 4743SOL    HW225863   3.987   2.800   9.495 -0.1712 -2.4019  1.9642
 4744SOL     OW25864   4.222   2.917   8.595  0.0302  0.7820 -0.2691
 4744SOL    HW125865   4.260   2.922   8.508  3.7477  0.6300  1.3102
 4744SOL    HW225866   4.134   2.950   8.581 -0.0621  0.0387 -1.4581
 4745SOL     OW25867   2.912   4.530   3.090 -0.7737 -0.3794 -0.5416
 4745SOL    HW125868   2.969   4.599   3.056  1.1719 -1.9094 -0.4031
 4745SOL    HW225869   2.838   4.581   3.123 -1.4461 -2.6000  1.3797
 4746SOL     OW25870   1.413   2.804   8.531 -0.1460 -0.6530 -0.4604
 4746SOL    HW125871   1.447   2.872   8.473  1.2837 -0.9354  0.0236
 4746SOL    HW225872   1.470   2.820   8.606 -1.8258  0.8497  0.4827
 4747SOL     OW25873   4.676   3.254   4.228 -0.2291  0.2377  0.9297
 4747SOL    HW125874   4.701   3.346   4.237  1.6442 -0.2312  0.4084
 4747SOL    HW225875   4.606   3.268   4.163  1.2949  0.4162 -0.6848
 4748SOL     OW25876   0.670   1.221   9.285  0.3067  0.5552  0.7917
 4748SOL    HW125877   0.607   1.289   9.309 -0.1194  1.0645 -1.7980
 4748SOL    HW225878   0.724   1.222   9.365 -1.1151 -0.0158  1.7634
 4749SOL     OW25879   0.065   3.634  16.185 -0.0706 -0.4679 -0.6065
 4749SOL    HW125880   0.121   3.569  16.144  0.8874  0.2199 -0.3814
 4749SOL    HW225881   0.097   3.718  16.152  0.5820 -1.2390 -1.9237
 4750SOL     OW25882   4.725   0.351   7.830  0.1951  0.0614 -0.1654
 4750SOL    HW125883   0.023   0.374   7.741 -0.2748 -0.8052 -0.5437
 4750SOL    HW225884   4.634   0.379   7.818  0.5685  1.9220  1.3163
 4751SOL     OW25885   2.433   1.127   4.434  0.2441 -0.2150 -0.1888
 4751SOL    HW125886   2.421   1.041   4.394  2.2022  0.0441 -1.3192
 4751SOL    HW225887   2.342   1.157   4.422  0.2339 -1.3274 -2.8508
 4752SOL     OW25888   1.551   2.972   8.725 -0.1245  0.0872  0.0757
 4752SOL    HW125889   1.475   2.931   8.766 -0.0677 -2.5296 -2.4210
 4752SOL    HW225890   1.512   3.057   8.704 -1.4075 -0.0966  1.7050
 4753SOL     OW25891   2.591   3.458  13.188  0.2684 -0.1185  0.6167
 4753SOL    HW125892   2.680   3.488  13.210  0.6091  1.8156 -3.3717
 4753SOL    HW225893   2.602   3.364  13.173  0.7508 -0.4326  2.8663
 4754SOL     OW25894   2.157   1.942   1.703  0.2916  0.5810 -0.3882
 4754SOL    HW125895   2.160   1.964   1.796  2.7116 -0.6309 -0.1846
 4754SOL    HW225896   2.088   1.996   1.664 -0.5356 -0.4361 -0.3284
 4755SOL     OW25897   3.832   2.648   0.204 -0.0453  0.1175  0.2075
 4755SOL    HW125898   3.772   2.722   0.197  0.4427  0.4393 -0.6277
 4755SOL    HW225899   3.830   2.610   0.116  2.1881 -1.2898  0.7656
 4756SOL     OW25900   0.933   1.293   7.898 -0.1931 -0.4942  0.2318
 4756SOL    HW125901   1.001   1.304   7.964 -0.1969 -1.6336  0.4315
 4756SOL    HW225902   0.898   1.205   7.916 -3.0244  0.4752 -0.5240
 4757SOL     OW25903   3.600   1.421   5.105 -0.1199 -0.4699 -0.2634
 4757SOL    HW125904   3.581   1.401   5.196  3.6956 -2.8085  0.0165
 4757SOL    HW225905   3.522   1.394   5.056  0.6811 -1.1805 -1.1619
 4758SOL     OW25906   2.309   3.886   5.703 -0.8398 -0.6531  0.2292
 4758SOL    HW125907   2.279   3.892   5.794  0.1601 -0.9149  0.5809
 4758SOL    HW225908   2.338   3.795   5.699 -3.5294 -1.4935 -0.0836
 4759SOL     OW25909   2.056   0.568   4.483 -0.3067  0.0255  0.2380
 4759SOL    HW125910   1.987   0.634   4.483  1.6054  2.0104  2.8701
 4759SOL    HW225911   2.046   0.536   4.393 -0.8877 -0.8650  0.6250
 4760SOL     OW25912   4.180   4.406   3.081  0.0747 -0.0203 -0.6661
 4760SOL    HW125913   4.270   4.438   3.082  0.1818 -0.3957  1.7308
 4760SOL    HW225914   4.178   4.382   2.988 -1.0449 -0.0472 -0.6390
 4761SOL     OW25915   1.812   4.393   9.697  0.1181 -0.1848 -0.4880
 4761SOL    HW125916   1.841   4.310   9.659 -1.1502 -0.2001 -1.4382
 4761SOL    HW225917   1.821   4.379   9.791 -1.9443 -1.5041 -0.4911
 4762SOL     OW25918   1.553   3.407   3.634  0.4516 -0.5578  0.1644
 4762SOL    HW125919   1.562   3.314   3.612  0.3979 -0.2961 -0.9557
 4762SOL    HW225920   1.462   3.427   3.614  0.3214 -1.9493 -0.6606
 4763SOL     OW25921   0.582   4.267  13.945  0.4877 -0.2889 -0.4491
 4763SOL    HW125922   0.522   4.342  13.948  1.5327  0.6597 -2.9493
 4763SOL    HW225923   0.638   4.301  13.875  1.4895 -0.0960  0.4533
 4764SOL     OW25924   4.386   3.330   7.956 -0.2243  0.6194 -0.6133
 4764SOL    HW125925   4.395   3.263   7.888 -1.1185 -2.0136  1.8581
 4764SOL    HW225926   4.382   3.412   7.906 -0.3105 -0.3145 -2.1609
 4765SOL     OW25927   0.497   2.994  13.439 -0.3116  0.1361  0.0136
 4765SOL    HW125928   0.410   3.013  13.405  0.1306 -1.5089 -1.9998
 4765SOL    HW225929   0.522   2.934  13.369  0.3667  1.7465 -1.1306
 4766SOL     OW25930   4.724   3.465   0.250  0.2421 -0.0287  0.2420
 4766SOL    HW125931   4.702   3.378   0.283 -0.2963  0.3473  0.8708
 4766SOL    HW225932   4.643   3.513   0.267  0.6147  0.3175  1.0592
 4767SOL     OW25933   1.726   2.091   8.145 -0.0349  0.4723  0.7784
 4767SOL    HW125934   1.733   2.147   8.067 -0.8818  0.2150  0.5201
 4767SOL    HW225935   1.650   2.126   8.191 -0.6992  1.7600 -1.3075
 4768SOL     OW25936   2.204   1.787  13.905 -0.0662  0.4658 -1.0219
 4768SOL    HW125937   2.279   1.795  13.845  0.5821  0.2296 -0.2343
 4768SOL    HW225938   2.225   1.856  13.968 -0.7973  0.2284 -0.5187
 4769SOL     OW25939   4.217   0.218   7.648  0.1072  0.2945 -0.8164
 4769SOL    HW125940   4.146   0.215   7.712  0.5648 -0.4900 -0.3440
 4769SOL    HW225941   4.269   0.143   7.678 -0.1797  1.0927  1.6028
 4770SOL     OW25942   1.813   3.043   6.151  0.4399  0.3834 -0.1095
 4770SOL    HW125943   1.898   3.060   6.110  1.4238 -2.2674  0.8436
 4770SOL    HW225944   1.768   3.012   6.072 -0.5961 -0.3201  0.7664
 4771SOL     OW25945   4.054   0.156   6.638 -0.1519  0.0006 -0.2562
 4771SOL    HW125946   4.147   0.141   6.619 -0.5959 -1.0439 -1.6390
 4771SOL    HW225947   4.033   0.188   6.550 -1.0814  0.0751 -0.0058
 4772SOL     OW25948   3.336   1.020   8.415 -0.5324  0.2599  0.1777
 4772SOL    HW125949   3.364   1.111   8.421  0.0678  0.1178 -0.4080
 4772SOL    HW225950   3.415   0.991   8.368 -0.4273  0.0146  0.5029
 4773SOL     OW25951   2.663   0.854   6.676 -0.5602  0.0057  0.2541
 4773SOL    HW125952   2.571   0.866   6.652 -0.8588 -0.0334  1.3996
 4773SOL    HW225953   2.695   0.943   6.693  1.3862 -0.1855 -2.3646
 4774SOL     OW25954   0.797   1.951   3.333 -0.1348  0.3812 -0.9025
 4774SOL    HW125955   0.811   1.953   3.238  0.4015 -1.6836 -0.8662
 4774SOL    HW225956   0.847   1.873   3.359  0.1769  0.5674 -0.9447
 4775SOL     OW25957   3.355   0.708   0.175 -0.3891  0.3160 -0.5785
 4775SOL    HW125958   3.443   0.719   0.211  1.3566 -1.3331 -4.3196
 4775SOL    HW225959   3.372   0.671   0.088  1.5460  0.3005 -0.1959
 4776SOL     OW25960   1.619   4.016   5.278  0.0285 -0.0329  0.4886
 4776SOL    HW125961   1.585   4.020   5.368  1.8445  2.0252  1.0881
 4776SOL    HW225962   1.558   3.948   5.248 -1.8619  2.4431 -1.1955
 4777SOL     OW25963   0.183   2.312  17.345  0.4187 -0.6137 -0.0733
 4777SOL    HW125964   0.144   2.268  17.420  1.0862 -2.2043 -0.6359
 4777SOL    HW225965   0.166   2.403  17.368 -2.4295 -1.4094  0.9756
 4778SOL     OW25966   1.544   4.515  10.108  0.4688  0.5496 -0.1284
 4778SOL    HW125967   1.459   4.481  10.082  1.4009 -0.5985 -1.6354
 4778SOL    HW225968   1.520   4.604  10.136 -1.4704  0.4697 -1.5284
 4779SOL     OW25969   0.469   2.108  11.590 -0.4541  0.3743  0.7394
 4779SOL    HW125970   0.452   2.018  11.563 -0.2823  0.2772  0.9606
 4779SOL    HW225971   0.564   2.114  11.592 -0.3075 -2.1917  1.0734
 4780SOL     OW25972   1.335   1.442   7.800 -0.4950  0.2277 -0.4673
 4780SOL    HW125973   1.376   1.407   7.879 -0.6164  0.9760 -0.0708
 4780SOL    HW225974   1.275   1.512   7.828  0.4102  0.5734  0.6498
 4781SOL     OW25975   1.490   1.385   2.810  0.1124  0.2149 -0.9674
 4781SOL    HW125976   1.565   1.431   2.773  0.1437  0.5616 -0.4774
 4781SOL    HW225977   1.428   1.456   2.793 -0.5098  0.0612  0.5985
 4782SOL     OW25978   4.464   4.487   1.542 -0.1338 -0.0595 -0.2370
 4782SOL    HW125979   4.542   4.447   1.581  1.1297  1.8841 -0.7393
 4782SOL    HW225980   4.454   4.426   1.469  0.0989  1.9947 -1.9875
 4783SOL     OW25981   0.761   3.971   9.315 -0.2447 -0.6624 -0.0647
 4783SOL    HW125982   0.770   4.055   9.360 -0.1194 -2.4440  3.2427
 4783SOL    HW225983   0.673   3.995   9.287  0.5735 -0.2998 -2.2802
 4784SOL     OW25984   0.536   4.046   7.461 -0.6361 -0.5806 -0.1412
 4784SOL    HW125985   0.537   3.962   7.506 -0.2733 -0.3201  0.3432
 4784SOL    HW225986   0.472   4.108   7.496  1.9755  1.4941  1.0730
 4785SOL     OW25987   3.855   0.273   9.347  0.7340 -0.0548 -0.2361
 4785SOL    HW125988   3.772   0.281   9.300  1.0149 -0.1514 -0.7506
 4785SOL    HW225989   3.825   0.248   9.434 -0.0743  2.0632  0.0917
 4786SOL     OW25990   1.993   0.632  11.963 -0.8485 -0.8293 -0.0822
 4786SOL    HW125991   1.927   0.697  11.988  0.2324  0.1475  0.1730
 4786SOL    HW225992   2.025   0.653  11.876 -1.9801  1.0307 -0.0601
 4787SOL     OW25993   1.998   1.342   5.408  0.7450 -0.2567 -0.3427
 4787SOL    HW125994   2.023   1.363   5.498 -1.6303  0.4757  0.1488
 4787SOL    HW225995   2.042   1.394   5.341 -0.2454 -0.7797 -1.4072
 4788SOL     OW25996   2.997   3.598   5.632 -0.3825  0.5808 -0.1789
 4788SOL    HW125997   2.943   3.551   5.569 -2.6588  0.6700  1.7074
 4788SOL    HW225998   2.934   3.609   5.703 -0.7137  1.6289 -0.6484
 4789SOL     OW25999   4.647   1.667  12.356  0.1022  0.5367  0.1759
 4789SOL    HW126000   4.599   1.661  12.439  0.2536  0.7014  0.2745
 4789SOL    HW226001   4.657   1.757  12.326 -0.1140  0.6367  0.4012
 4790SOL     OW26002   3.452   3.366   4.643 -0.5649 -0.0536 -0.2687
 4790SOL    HW126003   3.527   3.404   4.599  0.0906 -1.2179 -0.1762
 4790SOL    HW226004   3.466   3.272   4.631 -0.9940 -0.0766 -0.5827
 4791SOL     OW26005   0.322   0.730   4.397 -0.6307  0.0300 -0.0542
 4791SOL    HW126006   0.360   0.651   4.358 -0.3872 -0.1156  0.4822
 4791SOL    HW226007   0.256   0.690   4.453 -1.2399  1.9396  0.5763
 4792SOL     OW26008   0.090   0.227  13.627  0.4930  0.3106  0.5994
 4792SOL    HW126009   4.731   0.204  13.609  0.9525 -1.3527  0.4312
 4792SOL    HW226010   0.096   0.189  13.714 -3.8944 -1.8280 -0.0519
 4793SOL     OW26011   3.860   0.644   0.639  0.5761 -0.4290 -0.5649
 4793SOL    HW126012   3.784   0.634   0.581 -0.7547 -1.9253  1.3885
 4793SOL    HW226013   3.904   0.560   0.626  0.2903 -0.6439 -0.1685
 4794SOL     OW26014   1.099   0.778   4.320 -0.0495  0.5101 -0.0028
 4794SOL    HW126015   1.173   0.755   4.265  0.8558  2.2308  0.4709
 4794SOL    HW226016   1.038   0.714   4.284  1.3968 -1.3263  0.8560
 4795SOL     OW26017   1.833   0.544   7.720 -0.0193 -0.0958  0.6039
 4795SOL    HW126018   1.797   0.535   7.632 -0.9126  0.2636  0.9334
 4795SOL    HW226019   1.774   0.485   7.768  1.6596 -1.4130  1.0860
 4796SOL     OW26020   1.627   2.942  14.133  0.3694 -0.0173  0.5065
 4796SOL    HW126021   1.601   3.000  14.062  3.1347  0.8991  0.2501
 4796SOL    HW226022   1.664   3.004  14.195  2.0899 -0.3222 -0.2375
 4797SOL     OW26023   4.234   3.966   9.352 -0.0115  0.0526 -0.2314
 4797SOL    HW126024   4.201   3.895   9.407  0.0438  0.7325  0.6907
 4797SOL    HW226025   4.327   3.947   9.359  0.0834  0.5892 -0.0810
 4798SOL     OW26026   2.185   2.380   8.117  0.5025 -0.8326 -0.6322
 4798SOL    HW126027   2.266   2.380   8.168  1.4673 -3.4900 -2.1560
 4798SOL    HW226028   2.126   2.322   8.166  1.1369 -0.2679  0.8026
 4799SOL     OW26029   3.971   1.140  15.153 -0.0758  0.3376 -0.3657
 4799SOL    HW126030   3.998   1.062  15.104  0.3409 -0.1228  0.6087
 4799SOL    HW226031   4.059   1.177  15.151  0.7622 -1.5710  1.4128
 4800SOL     OW26032   1.040   4.173   3.650 -0.2226  0.4277 -1.0457
 4800SOL    HW126033   1.067   4.206   3.736 -2.4825  0.1533 -0.2454
 4800SOL    HW226034   1.100   4.098   3.643 -0.2174  0.2236  1.1653
 4801SOL     OW26035   0.137   2.948   4.921 -0.6238 -0.3273  0.4239
 4801SOL    HW126036   0.123   3.027   4.870 -1.1137 -1.4144 -1.1129
 4801SOL    HW226037   0.193   2.991   4.985 -1.2368 -0.5163  1.0880
 4802SOL     OW26038   2.241   3.014   2.605 -0.2104  0.2267 -0.3807
 4802SOL    HW126039   2.268   2.955   2.534  0.0689  0.4797 -0.4832
 4802SOL    HW226040   2.324   3.011   2.652  0.5929 -1.6614 -1.8986
 4803SOL     OW26041   1.789   0.745   1.503 -0.1390  0.3063  0.4815
 4803SOL    HW126042   1.861   0.808   1.498  0.6600 -0.8135 -1.7619
 4803SOL    HW226043   1.810   0.695   1.425  1.9743 -1.7131  2.3408
 4804SOL     OW26044   1.523   4.640   6.381 -0.2162  0.0742  0.2208
 4804SOL    HW126045   1.552   4.629   6.472  2.3817  0.8005 -0.5102
 4804SOL    HW226046   1.588   4.579   6.347 -0.1363 -0.2929  1.0200
 4805SOL     OW26047   4.294   1.665   1.479 -0.4201 -0.3015 -0.3460
 4805SOL    HW126048   4.327   1.687   1.566 -1.1184 -0.9725  0.0822
 4805SOL    HW226049   4.219   1.607   1.490 -1.3421  0.9396 -0.0556
 4806SOL     OW26050   4.067   1.687   3.783  0.0365  0.4780 -0.2331
 4806SOL    HW126051   4.091   1.658   3.695 -0.3005  0.2262 -0.2425
 4806SOL    HW226052   4.054   1.781   3.770  0.8211  0.3372 -2.0285
 4807SOL     OW26053   0.218   3.852  16.086 -0.8130 -0.5324  0.8236
 4807SOL    HW126054   0.223   3.932  16.138 -1.4094  1.1951 -1.7880
 4807SOL    HW226055   0.311   3.830  16.088 -0.8491 -0.6012  2.0974
 4808SOL     OW26056   1.955   1.942   3.409 -0.0733 -0.3515 -0.3403
 4808SOL    HW126057   1.968   1.849   3.391  1.4006 -0.1987 -0.0062
 4808SOL    HW226058   1.975   1.939   3.502  1.0790 -2.8705 -0.6735
 4809SOL     OW26059   4.238   1.663   6.247  0.3993 -0.2224  0.2576
 4809SOL    HW126060   4.251   1.724   6.174 -0.4635 -0.0613  0.2487
 4809SOL    HW226061   4.323   1.620   6.236  0.1826 -1.1227  2.1706
 4810SOL     OW26062   0.447   2.182   7.144  0.4328  0.4215 -0.1287
 4810SOL    HW126063   0.488   2.268   7.142 -1.3134  1.3221  2.6054
 4810SOL    HW226064   0.453   2.173   7.239 -2.4616 -0.3898 -0.0253
 4811SOL     OW26065   2.888   3.545   2.748 -0.5204  0.3516  0.0111
 4811SOL    HW126066   2.823   3.481   2.776  1.1950 -1.0288  0.8130
 4811SOL    HW226067   2.934   3.498   2.679 -1.0203 -0.1198 -0.0007
 4812SOL     OW26068   0.855   0.098   7.040  0.3560 -0.3124 -0.4791
 4812SOL    HW126069   0.898   0.162   6.983  0.9450  1.0937  1.5659
 4812SOL    HW226070   0.902   0.111   7.122 -2.1801  1.2467  0.7277
 4813SOL     OW26071   1.956   4.298   4.705 -0.1921  0.7174  0.0504
 4813SOL    HW126072   1.997   4.378   4.672  1.1346 -0.6656 -1.6352
 4813SOL    HW226073   2.008   4.227   4.669  0.6510  1.8489 -0.9613
 4814SOL     OW26074   1.106   3.236   2.265 -0.3830 -0.2778 -0.2281
 4814SOL    HW126075   1.035   3.205   2.322 -0.5063 -0.3398 -0.4151
 4814SOL    HW226076   1.180   3.194   2.309 -0.5297 -1.0651 -0.7472
 4815SOL     OW26077   1.354   3.552   6.059  0.0090 -0.1009  0.2187
 4815SOL    HW126078   1.351   3.598   5.975 -0.8303 -2.1596 -0.8790
 4815SOL    HW226079   1.284   3.591   6.110 -1.9037  0.1358 -2.5903
 4816SOL     OW26080   2.432   3.110   5.737 -0.3323 -0.0266  0.5101
 4816SOL    HW126081   2.412   3.155   5.655 -2.8651  3.1800  2.8984
 4816SOL    HW226082   2.476   3.038   5.691  0.9871  0.9824  0.1914
 4817SOL     OW26083   3.894   3.797   7.242 -0.1618 -0.2427  0.5831
 4817SOL    HW126084   3.878   3.834   7.156  0.4981 -0.4395  0.3726
 4817SOL    HW226085   3.889   3.702   7.231 -0.8223 -0.2823  1.2228
 4818SOL     OW26086   0.241   4.461   2.611  0.4472  0.4923  0.3334
 4818SOL    HW126087   0.262   4.465   2.518 -2.8979  0.6299 -0.4447
 4818SOL    HW226088   0.284   4.534   2.655  1.3842  0.4694 -0.5375
 4819SOL     OW26089   3.834   0.984  17.512  0.0224 -0.3748 -0.1333
 4819SOL    HW126090   3.856   0.904  17.559 -0.9505 -1.7128 -1.9747
 4819SOL    HW226091   3.866   1.044  17.580 -1.3139  0.4848 -0.2587
 4820SOL     OW26092   0.897   2.028   7.970 -0.0556 -0.0701  0.2852
 4820SOL    HW126093   0.822   1.994   8.018  0.1814  0.7629  1.2192
 4820SOL    HW226094   0.853   2.054   7.888 -1.2025 -0.7579  0.6766
 4821SOL     OW26095   1.245   0.010  12.557 -0.5575  0.3291 -0.0810
 4821SOL    HW126096   1.170   4.712  12.608  1.4620  0.4047  2.9296
 4821SOL    HW226097   1.209   0.093  12.525  1.7438  1.0560 -0.7594
 4822SOL     OW26098   4.655   1.630  15.852 -0.3213  0.5273  0.4224
 4822SOL    HW126099   4.607   1.668  15.779 -0.3025  0.9459  0.6323
 4822SOL    HW226100   0.014   1.654  15.835  0.4659 -2.4983  0.3311
 4823SOL     OW26101   2.383   2.520   5.336  0.1846  0.2805  0.2241
 4823SOL    HW126102   2.412   2.502   5.425 -0.1896  2.2863  0.7440
 4823SOL    HW226103   2.423   2.447   5.289 -1.5085 -1.1104  0.9183
 4824SOL     OW26104   3.860   4.538  11.547  0.4437 -0.0673 -0.1658
 4824SOL    HW126105   3.770   4.508  11.539  0.3202  0.1536  0.3855
 4824SOL    HW226106   3.876   4.549  11.453  1.2302  2.7891  0.3050
 4825SOL     OW26107   4.535   0.199  10.797 -0.5332 -0.4655 -0.1457
 4825SOL    HW126108   4.443   0.185  10.821 -0.8135  0.1801 -0.8497
 4825SOL    HW226109   4.579   0.222  10.879 -0.6888 -1.1386  0.1249
 4826SOL     OW26110   0.254   1.187   7.781  0.3754  0.3450 -0.0941
 4826SOL    HW126111   0.260   1.270   7.733 -0.2952  0.1133 -0.5775
 4826SOL    HW226112   0.202   1.215   7.857  1.3969 -0.6086  0.9419
 4827SOL     OW26113   0.116   2.066   9.414 -0.1237  0.0699  0.4568
 4827SOL    HW126114   0.070   2.137   9.459 -0.3604 -0.0206  0.3599
 4827SOL    HW226115   0.199   2.083   9.457  0.4032  2.1546 -1.3799
 4828SOL     OW26116   0.027   3.858  12.370  0.6406  0.4715  0.7758
 4828SOL    HW126117   0.113   3.894  12.391  0.5425  1.2951 -0.2550
 4828SOL    HW226118   0.047   3.776  12.326 -2.3474 -0.0944  0.4983
 4829SOL     OW26119   4.446   1.019  10.058  0.1576  0.7972  0.3851
 4829SOL    HW126120   4.515   0.962  10.093  1.1293  1.2165 -0.8539
 4829SOL    HW226121   4.496   1.085  10.010 -1.9257  1.6976 -0.5596
 4830SOL     OW26122   1.678   1.573   2.461  0.1668  0.1955 -0.0988
 4830SOL    HW126123   1.689   1.543   2.551  0.3591  0.3471 -0.0707
 4830SOL    HW226124   1.614   1.642   2.481 -1.5489 -2.1236  2.4860
 4831SOL     OW26125   0.090   2.076  17.056  0.0886 -0.5182 -0.1112
 4831SOL    HW126126   0.036   2.141  17.101  1.4535  2.0446 -2.1890
 4831SOL    HW226127   0.163   2.132  17.029  0.8347 -0.1843  2.5543
 4832SOL     OW26128   1.692   2.245   7.932  0.2977 -0.0804  0.1520
 4832SOL    HW126129   1.606   2.241   7.889  1.4234  3.0498 -2.4167
 4832SOL    HW226130   1.713   2.338   7.939 -0.8661  0.3560 -2.0617
 4833SOL     OW26131   1.920   3.001   4.021  0.3003  0.0897 -0.2123
 4833SOL    HW126132   1.956   3.047   4.097  1.5768 -0.1729 -0.6552
 4833SOL    HW226133   1.940   2.913   4.052 -0.5842 -0.2859 -0.6905
 4834SOL     OW26134   2.565   0.545   6.672 -0.4952 -0.3476  0.0084
 4834SOL    HW126135   2.504   0.535   6.746  2.4311 -2.1603  2.1933
 4834SOL    HW226136   2.555   0.639   6.654 -2.0093  0.0890  3.0866
 4835SOL     OW26137   3.097   0.138   1.991 -0.3286 -0.1426 -0.2819
 4835SOL    HW126138   3.169   0.188   2.030 -1.1959 -1.2527  2.7726
 4835SOL    HW226139   3.073   0.081   2.064 -0.1324 -3.7032 -2.9989
 4836SOL     OW26140   1.521   3.010   4.519  0.0247  0.0909  0.7858
 4836SOL    HW126141   1.586   2.941   4.527 -1.6270 -1.7107 -1.4869
 4836SOL    HW226142   1.506   3.030   4.611 -0.0180  2.3369  0.2972
 4837SOL     OW26143   4.060   3.853   7.901 -0.0254 -0.5011 -0.2903
 4837SOL    HW126144   4.029   3.873   7.990 -1.8925 -1.3765 -0.7240
 4837SOL    HW226145   4.121   3.780   7.911  2.7635  2.0029  0.8278
 4838SOL     OW26146   3.601   1.616   7.768 -0.0056 -0.0589  0.0850
 4838SOL    HW126147   3.561   1.549   7.824 -0.9661  2.0793  1.9722
 4838SOL    HW226148   3.690   1.615   7.803 -0.6505  0.1253  1.7500
 4839SOL     OW26149   0.615   0.657   4.774  0.3113  0.4301  0.5525
 4839SOL    HW126150   0.541   0.702   4.815  0.0863  0.7876 -0.2409
 4839SOL    HW226151   0.583   0.584   4.721  0.9771 -0.9280  2.0066
 4840SOL     OW26152   4.336   1.332   2.351  0.3330 -0.4108 -0.3194
 4840SOL    HW126153   4.243   1.357   2.357  0.7232  0.9679 -0.0002
 4840SOL    HW226154   4.381   1.413   2.375 -1.3840 -0.9371  4.6607
 4841SOL     OW26155   3.927   1.117   1.340  0.2631  0.2247 -0.2196
 4841SOL    HW126156   3.881   1.198   1.320 -3.4326 -2.4161 -2.4755
 4841SOL    HW226157   3.930   1.088   1.249  0.8346  1.0167 -0.4540
 4842SOL     OW26158   3.670   0.715   1.029  0.4669 -0.5585 -0.0278
 4842SOL    HW126159   3.657   0.734   0.936  1.9737  0.1070 -0.1033
 4842SOL    HW226160   3.627   0.790   1.069  1.6626 -0.5365  1.2034
 4843SOL     OW26161   1.221   2.637  15.616 -0.2039 -0.0265 -0.3701
 4843SOL    HW126162   1.290   2.590  15.569 -0.6288 -0.1464 -0.8730
 4843SOL    HW226163   1.179   2.682  15.543 -0.4721 -0.4111 -0.4508
 4844SOL     OW26164   4.383   1.691   1.776  0.3059 -0.0112 -0.1368
 4844SOL    HW126165   4.296   1.667   1.806 -0.3227 -0.3285 -2.2446
 4844SOL    HW226166   4.432   1.609   1.790 -0.0965 -0.1747  0.3091
 4845SOL     OW26167   0.796   3.258   3.102 -0.1479 -0.1916  0.3248
 4845SOL    HW126168   0.813   3.180   3.049 -0.5119 -0.5069  0.6759
 4845SOL    HW226169   0.701   3.260   3.110  0.0364  1.9827  1.9501
 4846SOL     OW26170   3.924   0.665   9.488 -0.5605 -0.7317 -0.2451
 4846SOL    HW126171   3.930   0.737   9.551 -0.5160 -0.6084 -0.3909
 4846SOL    HW226172   3.914   0.587   9.542 -2.1922 -1.3390 -1.4346
 4847SOL     OW26173   1.177   3.409  13.210  0.2534 -0.2558 -0.8045
 4847SOL    HW126174   1.257   3.379  13.251 -0.1804  0.4408  0.5508
 4847SOL    HW226175   1.209   3.489  13.168 -1.5540  0.0894 -1.5279
 4848SOL     OW26176   1.376   3.022   3.021 -0.2985  0.0519 -0.3013
 4848SOL    HW126177   1.452   2.972   3.050 -0.9794 -2.0203 -2.0896
 4848SOL    HW226178   1.388   3.020   2.926  0.8937  0.2305 -0.1508
 4849SOL     OW26179   3.175   1.582  11.303 -0.2040  0.1078 -0.0053
 4849SOL    HW126180   3.231   1.650  11.341  0.7251 -0.6260 -0.0417
 4849SOL    HW226181   3.162   1.522  11.377 -4.6230  0.4690 -0.5015
 4850SOL     OW26182   2.235   2.473  13.923 -0.0683  0.3093  0.6505
 4850SOL    HW126183   2.261   2.540  13.985  0.6864  0.2055  0.4452
 4850SOL    HW226184   2.148   2.508  13.902 -0.4383 -0.6382  0.5751
 4851SOL     OW26185   3.992   0.006   0.835  0.2710 -0.3755 -0.0386
 4851SOL    HW126186   4.021   0.050   0.914 -1.2119  0.7586 -0.1414
 4851SOL    HW226187   3.897   0.003   0.845  0.3385  1.8809  1.0845
 4852SOL     OW26188   2.586   1.730   5.517 -0.2648  0.0677  0.8309
 4852SOL    HW126189   2.595   1.652   5.463  0.5863  0.8440 -0.1580
 4852SOL    HW226190   2.493   1.752   5.512 -0.2159  0.2405  0.6910
 4853SOL     OW26191   4.069   3.272   9.889  0.0884 -0.8503  0.1929
 4853SOL    HW126192   4.071   3.177   9.896 -0.3649 -0.4466  5.5102
 4853SOL    HW226193   3.996   3.278   9.951 -0.2693  0.3270 -0.3386
 4854SOL     OW26194   0.749   3.231   5.381 -0.1590  0.2058 -0.7594
 4854SOL    HW126195   0.768   3.138   5.384 -0.7722  0.1592  1.3935
 4854SOL    HW226196   0.800   3.258   5.304 -0.0314 -0.3224 -0.8602
 4855SOL     OW26197   1.331   0.959   3.076 -0.5344  0.7546 -0.8888
 4855SOL    HW126198   1.347   1.005   3.159  0.7648 -1.4808  0.1013
 4855SOL    HW226199   1.304   0.868   3.089  1.3533  0.4222  0.6996
 4856SOL     OW26200   3.764   2.008   6.922 -0.1905 -0.2202 -0.5838
 4856SOL    HW126201   3.834   1.942   6.923 -0.6882 -0.7416  1.7147
 4856SOL    HW226202   3.704   1.967   6.985  1.2283 -1.6720 -0.1652
 4857SOL     OW26203   1.102   2.469  16.917  0.0797  0.0998 -0.0322
 4857SOL    HW126204   1.157   2.459  16.839  0.9394  3.2752  0.1585
 4857SOL    HW226205   1.147   2.404  16.972 -1.7667 -0.0302  1.3198
 4858SOL     OW26206   4.009   0.854   0.727  1.1590  0.0468  0.1102
 4858SOL    HW126207   3.935   0.905   0.759  1.4973  1.0505 -0.7061
 4858SOL    HW226208   3.980   0.763   0.719  0.2703  0.1379  2.3157
 4859SOL     OW26209   1.982   1.283   9.430 -0.1104 -0.6268 -0.7617
 4859SOL    HW126210   2.003   1.306   9.521  4.7037 -0.8730 -1.8535
 4859SOL    HW226211   1.912   1.221   9.448 -1.1509  0.4260 -1.1518
 4860SOL     OW26212   1.598   1.485   2.204  0.2253 -0.8721  0.4087
 4860SOL    HW126213   1.634   1.505   2.290  0.4635 -0.1401  0.1332
 4860SOL    HW226214   1.524   1.427   2.223  0.2470 -1.3903 -1.0356
 4861SOL     OW26215   1.464   4.366   2.686  0.3830  0.3139  0.3068
 4861SOL    HW126216   1.378   4.358   2.644 -0.4361  1.0861  1.7936
 4861SOL    HW226217   1.504   4.440   2.640  1.1958  0.5349  1.3694
 4862SOL     OW26218   4.139   1.410   8.691  0.3765 -0.0866 -0.0067
 4862SOL    HW126219   4.132   1.482   8.754 -1.9913 -0.5528  0.2487
 4862SOL    HW226220   4.127   1.472   8.619 -0.1738  1.6130  1.5257
 4863SOL     OW26221   0.459   0.339   1.897 -0.1726 -0.1503 -0.3923
 4863SOL    HW126222   0.423   0.282   1.829 -0.8546  2.4688 -2.2647
 4863SOL    HW226223   0.434   0.425   1.862 -1.7690 -0.2047  0.5966
 4864SOL     OW26224   4.431   1.080   8.304 -0.7183  0.4668 -0.2309
 4864SOL    HW126225   4.355   1.090   8.362  0.2197  0.7483  0.9543
 4864SOL    HW226226   4.445   0.986   8.300 -0.5168  0.4300  1.2328
 4865SOL     OW26227   1.171   1.480   6.795 -0.1077 -0.1681 -0.4394
 4865SOL    HW126228   1.109   1.457   6.864 -1.0926 -0.7923 -1.5196
 4865SOL    HW226229   1.215   1.395   6.789 -0.9600 -0.5720 -0.9071
 4866SOL     OW26230   1.367   1.749   9.648  0.0822 -0.1620  0.0588
 4866SOL    HW126231   1.417   1.671   9.671 -1.5318 -1.5988 -1.3066
 4866SOL    HW226232   1.415   1.817   9.695  0.9537 -0.8088  0.1029
 4867SOL     OW26233   3.872   2.517  10.641 -0.0813 -0.5202  0.1755
 4867SOL    HW126234   3.777   2.532  10.638 -0.0503 -0.3977 -0.1227
 4867SOL    HW226235   3.881   2.451  10.573 -1.1614  1.1982 -1.6631
 4868SOL     OW26236   0.641   1.656   5.676 -0.2085 -0.2794  0.2014
 4868SOL    HW126237   0.645   1.561   5.681  0.3513 -0.2750 -0.1982
 4868SOL    HW226238   0.564   1.674   5.622 -0.4238 -0.2634  0.5110
 4869SOL     OW26239   4.487   3.621  11.670  0.3319  0.6759  0.4837
 4869SOL    HW126240   4.486   3.532  11.705 -0.5007  1.2471  1.9188
 4869SOL    HW226241   4.500   3.677  11.747 -1.7860  0.8982  0.6674
 4870SOL     OW26242   1.673   1.815   1.755  0.0514 -0.4346  0.1935
 4870SOL    HW126243   1.683   1.824   1.850  2.3312  1.0914 -0.1958
 4870SOL    HW226244   1.727   1.736   1.750  0.6176 -0.0216 -0.1295
 4871SOL     OW26245   1.809   3.361   9.146  0.3908  0.8600 -0.5214
 4871SOL    HW126246   1.786   3.379   9.237 -0.7104  0.4144 -0.7148
 4871SOL    HW226247   1.819   3.449   9.109  0.3258  0.7047 -0.9119
 4872SOL     OW26248   0.488   4.045   8.806 -0.2480  0.1975  0.0021
 4872SOL    HW126249   0.414   4.068   8.750 -1.5507 -1.3651  1.1271
 4872SOL    HW226250   0.556   4.074   8.744 -0.6605  0.4286 -0.3396
 4873SOL     OW26251   2.943   4.113   1.878  0.4192 -0.3377 -0.3853
 4873SOL    HW126252   2.923   4.031   1.834 -0.0886 -1.2462  1.5276
 4873SOL    HW226253   3.009   4.154   1.822  0.4262 -1.7141 -1.3590
 4874SOL     OW26254   0.436   3.992   2.119  0.3083  0.0542  0.2289
 4874SOL    HW126255   0.519   4.039   2.110 -0.7396  1.4258 -2.1746
 4874SOL    HW226256   0.381   4.057   2.075  1.3759 -1.1259 -2.8149
 4875SOL     OW26257   2.760   4.141  15.394 -0.3348 -0.1912 -0.3428
 4875SOL    HW126258   2.830   4.179  15.342  0.8043 -0.1411  1.2369
 4875SOL    HW226259   2.783   4.188  15.474 -0.6055 -2.9220  1.3135
 4876SOL     OW26260   0.125   2.292   2.775  0.4136 -0.0944 -0.1255
 4876SOL    HW126261   0.218   2.288   2.754  0.2464 -0.0254 -0.8726
 4876SOL    HW226262   0.131   2.281   2.870 -1.3667  1.1293  0.1347
 4877SOL     OW26263   1.347   1.871   8.847  0.0216 -0.4178 -0.4289
 4877SOL    HW126264   1.298   1.800   8.804  0.9371 -1.4910  0.3043
 4877SOL    HW226265   1.430   1.828   8.863 -0.6509 -1.2122  0.9433
 4878SOL     OW26266   2.486   1.633  15.885  0.3452  0.6668 -0.1924
 4878SOL    HW126267   2.450   1.576  15.954 -1.5279  3.5480  1.2153
 4878SOL    HW226268   2.416   1.682  15.842  0.6296  0.3406 -1.0316
 4879SOL     OW26269   2.315   3.827   9.762 -0.3667  0.1864 -0.1702
 4879SOL    HW126270   2.322   3.783   9.677 -2.2085 -0.6624  0.1252
 4879SOL    HW226271   2.381   3.782   9.815 -0.7957 -0.3808 -0.1138
 4880SOL     OW26272   2.041   0.661  11.511 -0.1460 -0.1847 -0.1274
 4880SOL    HW126273   1.982   0.652  11.436 -0.3470 -1.4629  0.1796
 4880SOL    HW226274   2.025   0.589  11.573 -0.9633 -0.3156 -0.4961
 4881SOL     OW26275   1.797   1.930  14.012  0.1265  0.9158 -0.3960
 4881SOL    HW126276   1.738   1.974  14.074  1.5960 -0.0899  1.7074
 4881SOL    HW226277   1.796   2.010  13.958 -0.5179  1.0160 -0.2377
 4882SOL     OW26278   2.952   0.867   1.729  0.4348 -0.2271 -0.0351
 4882SOL    HW126279   3.029   0.866   1.673 -1.1916 -0.4439 -2.2520
 4882SOL    HW226280   2.887   0.829   1.670  0.6511 -2.6795  1.3026
 4883SOL     OW26281   4.656   2.016   1.982  0.4787  0.1931 -0.1747
 4883SOL    HW126282   4.665   2.111   1.990  1.7893  0.1898 -1.6339
 4883SOL    HW226283   4.650   2.003   2.077 -1.2556  0.8373 -0.2019
 4884SOL     OW26284   4.560   3.629   4.041  0.4104 -0.5451 -0.1512
 4884SOL    HW126285   4.498   3.557   4.031 -0.4767  0.0400  1.1824
 4884SOL    HW226286   4.599   3.626   3.953  2.2147 -1.3744  0.6875
 4885SOL     OW26287   0.290   0.121   3.619 -0.0302 -0.6912  0.3217
 4885SOL    HW126288   0.382   0.150   3.613  0.1829 -1.2353  1.0663
 4885SOL    HW226289   0.273   0.122   3.713 -1.2241  1.5539  0.0918
 4886SOL     OW26290   0.498   3.373   9.232 -0.0704 -0.0031 -0.2551
 4886SOL    HW126291   0.457   3.412   9.309 -0.1987 -2.1153  0.7548
 4886SOL    HW226292   0.445   3.402   9.158 -1.3402 -0.3556  0.5202
 4887SOL     OW26293   1.635   2.741   2.746 -0.2482 -0.5688  0.5477
 4887SOL    HW126294   1.715   2.706   2.787  0.8281 -1.1364 -1.9883
 4887SOL    HW226295   1.565   2.684   2.776 -1.6101 -1.4726 -4.3368
 4888SOL     OW26296   2.250   0.230   8.640  0.2735  0.1742 -0.2466
 4888SOL    HW126297   2.215   0.299   8.696  0.0942 -1.6669  1.9000
 4888SOL    HW226298   2.167   0.188   8.620 -0.9100  3.6711 -2.6246
 4889SOL     OW26299   3.976   0.737   3.875 -0.2994 -0.0053  0.9680
 4889SOL    HW126300   4.071   0.743   3.862 -0.3811  1.7563  1.2016
 4889SOL    HW226301   3.985   0.690   3.958  0.3627 -1.7599 -0.0941
 4890SOL     OW26302   1.622   0.803  12.307 -0.2897 -0.0058 -0.4158
 4890SOL    HW126303   1.681   0.732  12.281 -0.7862 -0.5034 -0.1794
 4890SOL    HW226304   1.658   0.814  12.395  1.2959 -2.5947 -0.7396
 4891SOL     OW26305   2.336   3.246   2.329  0.5266 -0.0083 -0.0465
 4891SOL    HW126306   2.404   3.217   2.390 -0.6890 -2.4930  0.1235
 4891SOL    HW226307   2.309   3.333   2.356  1.9239  0.7574 -1.1331
 4892SOL     OW26308   4.672   4.451   3.133 -0.1997  0.0268 -0.6098
 4892SOL    HW126309   4.717   4.368   3.149 -2.0246 -1.0247 -0.8437
 4892SOL    HW226310   4.699   4.505   3.207 -1.5152 -0.6539  0.3757
 4893SOL     OW26311   1.041   4.666   4.808 -0.5753  0.4100 -0.0082
 4893SOL    HW126312   1.116   4.622   4.769 -0.6429  0.1031  0.2104
 4893SOL    HW226313   0.971   4.605   4.784 -1.4717  0.9354  1.3124
 4894SOL     OW26314   3.908   0.422   4.606 -0.4304  0.5191  0.3673
 4894SOL    HW126315   3.926   0.505   4.651 -0.9238  0.9469 -0.2232
 4894SOL    HW226316   3.965   0.428   4.530 -0.5773  1.8459  0.3688
 4895SOL     OW26317   1.256   0.864  12.024  0.4958  0.4451  0.3607
 4895SOL    HW126318   1.283   0.931  12.086 -0.3743  1.2965 -0.1903
 4895SOL    HW226319   1.201   0.804  12.076 -0.1172 -0.3360 -1.1786
 4896SOL     OW26320   3.827   2.508   8.060  0.2879 -0.0014 -0.0435
 4896SOL    HW126321   3.803   2.482   8.149  1.9486  0.1766  0.4553
 4896SOL    HW226322   3.744   2.548   8.034 -0.6309 -1.2291  1.0133
 4897SOL     OW26323   0.782   1.359   1.848  0.0773 -0.2883  0.1218
 4897SOL    HW126324   0.772   1.346   1.942 -1.1019 -0.0308  0.0278
 4897SOL    HW226325   0.766   1.453   1.836 -2.4064 -0.7247 -0.0449
 4898SOL     OW26326   3.405   4.572   1.365  0.2891 -0.4127  0.4176
 4898SOL    HW126327   3.364   4.641   1.314  0.0722 -1.0508 -0.2769
 4898SOL    HW226328   3.430   4.613   1.447 -1.9014 -0.5455  1.1612
 4899SOL     OW26329   0.439   3.143   8.735 -0.0486  0.7915  0.4338
 4899SOL    HW126330   0.527   3.173   8.758 -0.1503  2.1655 -0.9884
 4899SOL    HW226331   0.476   3.123   8.649 -0.9536 -1.3631  0.5322
 4900SOL     OW26332   3.742   4.251   5.648  0.2207 -0.5308  0.0375
 4900SOL    HW126333   3.705   4.302   5.721 -1.6781  0.3054 -1.5122
 4900SOL    HW226334   3.832   4.284   5.640 -0.0633  0.1635 -0.2863
 4901SOL     OW26335   1.792   0.179  17.131 -0.1117 -0.1743  0.3877
 4901SOL    HW126336   1.881   0.203  17.160 -0.2689 -0.4346  1.0933
 4901SOL    HW226337   1.767   0.261  17.087 -1.6583 -1.7699 -1.6701
 4902SOL     OW26338   1.131   2.484   4.980 -0.2401  0.2085 -0.3452
 4902SOL    HW126339   1.130   2.388   4.969 -0.2137 -0.3132  4.2394
 4902SOL    HW226340   1.039   2.504   4.964  0.0174  1.0511 -0.7879
 4903SOL     OW26341   4.327   4.699   6.888  0.3699 -0.3171 -0.0590
 4903SOL    HW126342   4.334   0.061   6.874  0.5142 -0.5257 -1.3382
 4903SOL    HW226343   4.416   4.665   6.899  0.5491 -0.0076 -0.5454
 4904SOL     OW26344   3.729   3.279   2.147  0.1713 -0.2155 -0.2865
 4904SOL    HW126345   3.771   3.239   2.071  1.8292  0.4645  0.2619
 4904SOL    HW226346   3.647   3.232   2.162 -0.6328  1.1459 -0.3669
 4905SOL     OW26347   1.326   2.271   9.431  0.0279 -0.4033 -0.7300
 4905SOL    HW126348   1.275   2.191   9.445  0.4661 -0.5224  0.1681
 4905SOL    HW226349   1.320   2.312   9.518  1.2651  2.0951 -1.8170
 4906SOL     OW26350   1.773   0.343   2.311 -0.2746  0.6001 -0.5187
 4906SOL    HW126351   1.795   0.269   2.255 -1.1479  0.9791 -1.3674
 4906SOL    HW226352   1.677   0.350   2.311 -0.6038 -4.1188  1.3199
 4907SOL     OW26353   2.487   4.084  16.281 -0.1097  0.0513 -0.1254
 4907SOL    HW126354   2.395   4.066  16.260  0.2319  0.6737 -2.2041
 4907SOL    HW226355   2.522   4.101  16.193  1.2330 -1.1673  0.1858
 4908SOL     OW26356   2.897   3.328  17.142 -0.0258  0.0230 -0.5664
 4908SOL    HW126357   2.830   3.309  17.208  1.4055 -1.0012  0.5950
 4908SOL    HW226358   2.925   3.241  17.116  1.4216  0.2599  0.1920
 4909SOL     OW26359   1.974   0.428   2.793  0.2862 -0.4007 -0.6358
 4909SOL    HW126360   1.951   0.406   2.703  0.5552  1.4355 -1.1545
 4909SOL    HW226361   2.067   0.408   2.803  0.5793  0.8636 -0.7706
 4910SOL     OW26362   4.263   1.481   0.165  0.0878 -0.6567 -1.0349
 4910SOL    HW126363   4.356   1.498   0.180  0.0943 -2.3461  0.8180
 4910SOL    HW226364   4.262   1.409   0.103 -2.5982 -1.0749 -0.4683
 4911SOL     OW26365   3.770   0.886  15.795 -0.3845  0.6573 -0.3533
 4911SOL    HW126366   3.717   0.812  15.764  1.0029 -0.0885 -0.9328
 4911SOL    HW226367   3.852   0.850  15.762  0.4295  1.2078  1.0633
 4912SOL     OW26368   2.140   4.395   4.926  0.0441  0.2182  0.3432
 4912SOL    HW126369   2.122   4.444   5.006 -0.1985  1.8869 -0.7391
 4912SOL    HW226370   2.064   4.406   4.869  0.3967 -0.7135 -0.3045
 4913SOL     OW26371   0.110   0.355  17.032  0.0554 -0.2618 -0.3314
 4913SOL    HW126372   0.037   0.338  16.973 -2.3709 -4.3690  3.8073
 4913SOL    HW226373   0.183   0.327  16.976  1.0354  0.7988  0.4044
 4914SOL     OW26374   4.556   0.899   0.271  0.2720 -0.7039 -0.7032
 4914SOL    HW126375   4.625   0.849   0.314  0.0068 -1.5611 -1.2628
 4914SOL    HW226376   4.486   0.863   0.325  1.1009  0.0094  0.8406
 4915SOL     OW26377   2.843   2.364   6.022 -0.7868  0.9484  0.0451
 4915SOL    HW126378   2.922   2.387   6.071  0.4658  0.0826 -1.5770
 4915SOL    HW226379   2.854   2.277   5.984  0.1241  1.5720 -1.0961
 4916SOL     OW26380   0.467   1.328   5.900  0.0110 -0.1327 -0.4022
 4916SOL    HW126381   0.386   1.315   5.950 -0.5738 -0.3362 -1.3985
 4916SOL    HW226382   0.512   1.246   5.920  0.9504  1.2333  3.1004
 4917SOL     OW26383   0.383   1.903   7.807  0.3076  0.0706  0.4464
 4917SOL    HW126384   0.419   1.929   7.723 -1.1397  1.3080  0.2081
 4917SOL    HW226385   0.350   1.816   7.781 -1.6009  1.2913 -1.2693
 4918SOL     OW26386   0.033   4.392   9.448 -0.1805 -0.0688  0.7885
 4918SOL    HW126387   0.034   4.449   9.370  3.3721 -1.1580  0.0556
 4918SOL    HW226388   0.029   4.303   9.413 -2.1461  0.2517  0.1542
 4919SOL     OW26389   2.240   0.383   3.311  0.0814 -0.3601 -0.0509
 4919SOL    HW126390   2.182   0.307   3.317 -0.9673  0.5115  0.6615
 4919SOL    HW226391   2.212   0.421   3.228 -0.1828 -0.0932  0.1624
 4920SOL     OW26392   2.231   1.133   7.559  0.2249 -0.1898 -0.3461
 4920SOL    HW126393   2.145   1.117   7.520  1.5570 -0.1169 -3.3414
 4920SOL    HW226394   2.234   1.104   7.650  0.0507  0.0909 -0.2488
 4921SOL     OW26395   2.185   0.765  10.973  0.2972 -0.5799  0.4168
 4921SOL    HW126396   2.224   0.785  10.887  0.6248 -2.5595  0.0918
 4921SOL    HW226397   2.117   0.831  10.982  0.8337  0.3360 -2.1462
 4922SOL     OW26398   1.797   1.187   6.489 -0.1045  0.1061  0.1194
 4922SOL    HW126399   1.753   1.190   6.574 -1.0748  1.4346 -0.4208
 4922SOL    HW226400   1.837   1.274   6.495 -2.3476  1.3609 -3.1457
 4923SOL     OW26401   3.013   1.448  15.219 -0.6666 -0.0192 -0.1385
 4923SOL    HW126402   2.971   1.458  15.134  0.4836  0.9655 -0.5956
 4923SOL    HW226403   2.935   1.429  15.271  1.1666 -2.9540  1.5375
 4924SOL     OW26404   0.488   3.856   2.369  0.0226 -0.0792 -0.0723
 4924SOL    HW126405   0.477   3.900   2.285  1.0983 -0.5815 -0.4840
 4924SOL    HW226406   0.401   3.855   2.408  0.4862  0.5817  0.9692
 4925SOL     OW26407   2.742   0.116   2.754 -0.1009 -0.1047 -0.3849
 4925SOL    HW126408   2.698   0.158   2.828 -1.1485 -1.2568 -0.3528
 4925SOL    HW226409   2.772   0.039   2.802  0.7641  0.7071  0.3611
 4926SOL     OW26410   2.752   0.161   2.142 -0.1695  0.0905 -0.0221
 4926SOL    HW126411   2.760   0.256   2.154  0.2612 -0.0059  0.4362
 4926SOL    HW226412   2.665   0.141   2.177  0.3861 -2.0788  0.0844
 4927SOL     OW26413   2.491   0.172   3.145  0.6505  0.0440 -0.2609
 4927SOL    HW126414   2.452   0.230   3.210  0.6977  1.6052 -1.6302
 4927SOL    HW226415   2.575   0.218   3.142 -0.1182  1.4138 -0.6768
 4928SOL     OW26416   0.711   1.900  11.649 -0.3616  0.5201 -0.4603
 4928SOL    HW126417   0.726   1.967  11.582  0.2110 -0.0767 -0.9313
 4928SOL    HW226418   0.805   1.897  11.666 -0.6982  0.8366  1.3842
 4929SOL     OW26419   1.762   0.570   2.160  0.5884  0.2556 -0.2923
 4929SOL    HW126420   1.789   0.501   2.219  0.9413  0.9986  0.4106
 4929SOL    HW226421   1.740   0.527   2.077  2.5102 -2.7645  0.8093
 4930SOL     OW26422   3.059   2.499  11.907 -0.2488  0.0999 -0.4675
 4930SOL    HW126423   2.970   2.489  11.940 -0.4733  1.3982 -0.6702
 4930SOL    HW226424   3.104   2.500  11.991  1.6038  3.7847 -1.4856
 4931SOL     OW26425   3.331   2.429   4.121  0.5498 -0.2440  0.2494
 4931SOL    HW126426   3.354   2.508   4.073 -1.2063  0.2492  0.2068
 4931SOL    HW226427   3.347   2.365   4.051  2.1731 -0.1158  0.5113
 4932SOL     OW26428   1.107   2.789   0.061  0.0225 -0.0432 -0.1631
 4932SOL    HW126429   1.047   2.754   0.127 -0.3692  0.0068 -0.4929
 4932SOL    HW226430   1.065   2.779  17.704  1.0893 -0.9153 -0.5792
 4933SOL     OW26431   4.058   0.117  12.679 -0.4877  0.2884 -0.0274
 4933SOL    HW126432   3.989   0.081  12.623  0.6814 -0.0259 -1.2643
 4933SOL    HW226433   3.997   0.175  12.725  0.1865  0.4592  0.6642
 4934SOL     OW26434   1.274   2.662  13.451  0.1084 -1.0964 -0.3550
 4934SOL    HW126435   1.290   2.756  13.460  0.6990 -1.2292 -0.0421
 4934SOL    HW226436   1.362   2.625  13.447  0.1260 -0.9226 -1.5964
 4935SOL     OW26437   4.295   4.440  15.762  0.0797 -0.4282  0.5362
 4935SOL    HW126438   4.227   4.470  15.702  0.8260  0.6131  0.2129
 4935SOL    HW226439   4.248   4.420  15.844 -2.3584  0.7668 -0.5597
 4936SOL     OW26440   4.719   4.439  13.120  0.6411 -0.1784  0.4679
 4936SOL    HW126441   4.642   4.389  13.146  0.3747  0.0829  0.1769
 4936SOL    HW226442   4.681   4.526  13.115 -1.3815 -1.3020 -3.2753
 4937SOL     OW26443   3.726   0.126   6.423 -0.3783 -0.4873 -0.4027
 4937SOL    HW126444   3.808   0.176   6.428 -0.3410 -0.8295  2.1915
 4937SOL    HW226445   3.761   0.047   6.382 -0.8699 -2.1387  2.3652
 4938SOL     OW26446   0.020   0.777   5.702 -0.8357 -0.5625 -0.4649
 4938SOL    HW126447   4.725   0.857   5.748 -0.9380 -0.0470 -1.4179
 4938SOL    HW226448   0.087   0.743   5.761  1.4011 -0.3365 -2.8728
 4939SOL     OW26449   1.879   4.332   8.288 -0.1200 -0.4384  0.3269
 4939SOL    HW126450   1.943   4.261   8.300 -0.1232 -0.5035 -0.0542
 4939SOL    HW226451   1.868   4.310   8.196  1.4587 -0.2161  0.0851
 4940SOL     OW26452   3.828   1.191  12.232 -0.4808  0.0727 -0.3331
 4940SOL    HW126453   3.768   1.236  12.291 -1.8191  1.3327 -2.6661
 4940SOL    HW226454   3.836   1.104  12.272 -2.5943 -0.5854 -1.2924
 4941SOL     OW26455   4.251   0.921   1.165 -0.1026  0.1932  0.4502
 4941SOL    HW126456   4.205   0.891   1.087  0.3802  1.8263 -0.4619
 4941SOL    HW226457   4.251   1.016   1.151 -0.0166 -0.2826 -2.7196
 4942SOL     OW26458   1.390   0.484   0.287  0.6462 -0.6702 -0.2564
 4942SOL    HW126459   1.412   0.563   0.238  0.9397 -0.0048  0.9470
 4942SOL    HW226460   1.477   0.464   0.323 -0.7736 -2.6660  2.1212
 4943SOL     OW26461   1.257   3.401   6.377 -0.1121 -0.4469  0.6274
 4943SOL    HW126462   1.166   3.376   6.362  0.1703 -0.3254 -1.2097
 4943SOL    HW226463   1.242   3.489   6.412  2.0409 -0.4403  1.5924
 4944SOL     OW26464   3.727   1.405   8.146 -0.3057 -0.7174  0.2406
 4944SOL    HW126465   3.643   1.359   8.146 -1.3740  1.2435  0.1290
 4944SOL    HW226466   3.789   1.338   8.117 -1.8935 -1.6623 -0.9274
 4945SOL     OW26467   2.899   4.710   1.866  0.0113  0.4513  0.3532
 4945SOL    HW126468   2.850   0.058   1.849  0.3885  0.0922 -2.5283
 4945SOL    HW226469   2.981   0.005   1.906 -2.1438  1.1307  4.2179
 4946SOL     OW26470   2.868   3.093   2.175  0.4359  0.7062 -0.0596
 4946SOL    HW126471   2.952   3.064   2.210  0.1085 -1.3900 -1.0081
 4946SOL    HW226472   2.807   3.034   2.218 -0.4942  1.7242  0.0368
 4947SOL     OW26473   2.364   3.623  12.609  0.3329 -0.3539  0.1942
 4947SOL    HW126474   2.396   3.707  12.641  1.4325 -0.9968  0.7641
 4947SOL    HW226475   2.271   3.647  12.605 -0.1110 -1.9920  0.4778
 4948SOL     OW26476   2.107   1.539  13.622 -0.3961  0.3501 -0.0482
 4948SOL    HW126477   2.073   1.500  13.542  4.0680  1.2841 -2.3735
 4948SOL    HW226478   2.132   1.457  13.666 -0.1176  1.0907  1.1904
 4949SOL     OW26479   2.871   4.485   2.762  0.5110  0.4935  0.0706
 4949SOL    HW126480   2.908   4.556   2.814  1.0941  1.0793 -1.1397
 4949SOL    HW226481   2.934   4.486   2.691  2.6523  1.0952  1.9939
 4950SOL     OW26482   2.013   3.541   9.005 -0.2008  0.2260  0.5772
 4950SOL    HW126483   2.091   3.587   8.973 -0.0206  0.5596  1.5067
 4950SOL    HW226484   2.006   3.471   8.941  0.8995  2.2295 -1.7397
 4951SOL     OW26485   3.333   4.616   8.709 -0.5424 -0.3339 -0.1381
 4951SOL    HW126486   3.391   4.655   8.776 -1.2436 -0.8462  0.7599
 4951SOL    HW226487   3.299   4.550   8.769  1.5250  1.8232  3.4433
 4952SOL     OW26488   1.070   2.473   2.676 -0.1633  0.8064 -0.1166
 4952SOL    HW126489   1.087   2.428   2.758 -1.4513  3.1130  1.4224
 4952SOL    HW226490   0.999   2.533   2.702 -1.2599  0.0643 -1.3919
 4953SOL     OW26491   1.041   3.847   2.488 -0.5134 -0.3697  0.2981
 4953SOL    HW126492   1.031   3.755   2.513  0.9310 -0.4324  0.5949
 4953SOL    HW226493   0.947   3.867   2.491 -0.8500 -1.6210 -2.2032
 4954SOL     OW26494   4.529   3.320  11.922 -0.0356 -0.2624  0.5943
 4954SOL    HW126495   4.472   3.248  11.948  2.2181 -2.3855 -0.3537
 4954SOL    HW226496   4.524   3.376  12.000 -1.5544  0.3430  0.0606
 4955SOL     OW26497   0.837   2.950   6.114  0.1493 -0.0614  0.4548
 4955SOL    HW126498   0.837   3.039   6.079  1.1588 -0.3202 -0.2100
 4955SOL    HW226499   0.802   2.966   6.202 -0.1173  0.9155  0.1675
 4956SOL     OW26500   3.310   3.031  13.398 -0.0419  0.2045 -0.0095
 4956SOL    HW126501   3.305   3.077  13.314 -1.0820 -0.9659 -0.5922
 4956SOL    HW226502   3.375   2.963  13.377 -0.3918 -0.3943  0.8356
 4957SOL     OW26503   1.179   3.646   5.620  0.4431 -0.1317 -0.4077
 4957SOL    HW126504   1.087   3.668   5.637  1.2297  1.0373  2.3186
 4957SOL    HW226505   1.195   3.713   5.553  1.5925 -0.3010 -0.2999
 4958SOL     OW26506   3.761   4.225   9.112 -0.5540  0.5509  0.3985
 4958SOL    HW126507   3.794   4.186   9.031 -0.2774  0.5506  0.5110
 4958SOL    HW226508   3.737   4.148   9.164  0.1650 -0.3670 -0.6151
 4959SOL     OW26509   0.452   1.139   1.162 -0.4377 -0.4788 -0.6614
 4959SOL    HW126510   0.513   1.124   1.234 -0.0729 -1.2117 -1.1323
 4959SOL    HW226511   0.397   1.210   1.196 -0.5745 -1.6053  1.4878
 4960SOL     OW26512   1.149   1.444  12.825  0.4034  0.1622 -0.2315
 4960SOL    HW126513   1.112   1.461  12.738  3.3639 -0.8003 -1.7030
 4960SOL    HW226514   1.236   1.408  12.808  0.4898  0.5048 -0.5107
 4961SOL     OW26515   1.156   4.309   9.212  0.1040  0.0724 -0.0589
 4961SOL    HW126516   1.162   4.332   9.305  0.5633 -2.4243  0.5295
 4961SOL    HW226517   1.220   4.377   9.192 -1.9010  0.7415 -4.0991
 4962SOL     OW26518   2.786   0.616   8.454 -0.1889  0.3888  0.2447
 4962SOL    HW126519   2.852   0.557   8.491  1.8352  2.1898 -0.4832
 4962SOL    HW226520   2.750   0.659   8.532  0.0560  0.8149  0.1203
 4963SOL     OW26521   1.875   4.324   8.022 -0.2947  0.3464 -0.0626
 4963SOL    HW126522   1.867   4.386   7.950  1.6241  3.3952  2.3525
 4963SOL    HW226523   1.951   4.270   7.999 -0.6635  0.1069 -0.7164
 4964SOL     OW26524   1.927   1.251   3.430  0.4575  1.0390 -0.6267
 4964SOL    HW126525   1.960   1.238   3.519 -2.6904 -3.0614 -0.0813
 4964SOL    HW226526   1.983   1.192   3.378 -1.1417 -0.7274 -0.3378
 4965SOL     OW26527   0.948   2.639   0.211  0.1969  0.3564 -0.5780
 4965SOL    HW126528   0.853   2.634   0.205  0.0142  1.4523  1.3306
 4965SOL    HW226529   0.962   2.547   0.234 -0.1117 -0.1909 -2.5866
 4966SOL     OW26530   0.919   1.472   1.472  0.4075  0.9070  0.1242
 4966SOL    HW126531   0.932   1.529   1.396  1.0393 -2.1757 -2.0791
 4966SOL    HW226532   0.825   1.461   1.486  0.5205 -0.6869 -0.4110
 4967SOL     OW26533   1.244   2.016   8.413  0.1750  0.2272 -0.2012
 4967SOL    HW126534   1.308   2.074   8.372 -0.6342  0.6112 -0.9200
 4967SOL    HW226535   1.306   1.993   8.483  0.9353 -1.5370 -1.4664
 4968SOL     OW26536   4.102   3.836  10.695 -0.3331  0.0346  0.1288
 4968SOL    HW126537   4.105   3.744  10.720 -0.3325  0.8136  3.0647
 4968SOL    HW226538   4.044   3.869  10.764 -1.2953  1.5835 -1.4156
 4969SOL     OW26539   0.163   1.722  10.215  0.0670  0.3147  1.0955
 4969SOL    HW126540   0.103   1.710  10.141 -0.4806  0.5697  1.4931
 4969SOL    HW226541   0.122   1.797  10.258 -3.7025 -0.7159 -0.6849
 4970SOL     OW26542   4.338   3.506   8.622  0.4822 -0.5670  0.4623
 4970SOL    HW126543   4.389   3.544   8.693  1.6967 -1.4477  0.0674
 4970SOL    HW226544   4.371   3.416   8.621 -0.2859 -0.8578  1.6463
 4971SOL     OW26545   2.789   2.674   3.562  0.0337 -0.0013  0.0649
 4971SOL    HW126546   2.859   2.716   3.612 -0.1025  1.8571 -1.3130
 4971SOL    HW226547   2.815   2.582   3.571 -1.2788 -0.1578  2.1946
 4972SOL     OW26548   2.543   3.845   6.957  0.5409 -0.4690  0.4846
 4972SOL    HW126549   2.620   3.788   6.946  1.6477  1.0286  0.3968
 4972SOL    HW226550   2.530   3.822   7.049  1.5723  0.3686  0.8370
 4973SOL     OW26551   1.998   3.963   3.651 -0.3003 -0.3924  0.2579
 4973SOL    HW126552   2.075   3.936   3.701 -0.2733  2.0447  1.5296
 4973SOL    HW226553   1.967   4.023   3.718 -0.9105 -0.6177  0.1774
 4974SOL     OW26554   4.702   2.966   5.303  0.2719  0.4520  0.6072
 4974SOL    HW126555   4.661   3.002   5.224  0.8774 -0.1354  0.0286
 4974SOL    HW226556   0.049   3.019   5.305  0.3461  0.3710 -0.6591
 4975SOL     OW26557   4.643   3.203   3.582 -0.3751  0.0601 -1.0190
 4975SOL    HW126558   0.004   3.196   3.561 -0.1037 -1.0450  0.5884
 4975SOL    HW226559   4.637   3.273   3.648  1.8063 -0.4082 -0.3153
 4976SOL     OW26560   2.053   2.778   8.749 -0.6342  0.9322 -0.1600
 4976SOL    HW126561   2.058   2.725   8.670 -1.5853 -0.0021  0.3976
 4976SOL    HW226562   1.958   2.784   8.762 -0.3764  0.5762  2.0264
 4977SOL     OW26563   3.113   2.261   4.316 -0.3270  0.0584  0.7115
 4977SOL    HW126564   3.120   2.171   4.349 -0.7353  0.0337  0.7315
 4977SOL    HW226565   3.179   2.308   4.367  1.6947 -0.8896 -1.0351
 4978SOL     OW26566   0.152   4.603   8.683  0.5687  0.9437  0.1753
 4978SOL    HW126567   0.100   4.674   8.722  0.3379  2.3522 -2.6723
 4978SOL    HW226568   0.132   4.623   8.591  1.0225 -2.3319 -0.6410
 4979SOL     OW26569   0.898   0.969   4.897  0.8021 -0.9577 -0.2101
 4979SOL    HW126570   0.944   0.999   4.819  1.3816  0.3279  0.6212
 4979SOL    HW226571   0.966   0.927   4.949  1.3327 -0.6855 -0.6913
 4980SOL     OW26572   0.220   1.304   8.680 -0.3388  0.7748 -0.2880
 4980SOL    HW126573   0.258   1.286   8.594  3.3897 -0.4114  1.5845
 4980SOL    HW226574   0.133   1.336   8.656  0.1561  1.3566 -1.3324
 4981SOL     OW26575   1.452   2.776   7.328  0.3904 -0.5880 -0.1680
 4981SOL    HW126576   1.386   2.813   7.269  0.4424 -1.0516 -0.5134
 4981SOL    HW226577   1.404   2.737   7.402  1.1909 -0.9429  0.1586
 4982SOL     OW26578   4.408   0.638   6.464  0.4300  0.0228 -0.0936
 4982SOL    HW126579   4.434   0.730   6.467  1.1888 -0.2372  1.3161
 4982SOL    HW226580   4.361   0.616   6.544  0.7015  1.0683  0.3586
 4983SOL     OW26581   3.629   3.279  14.450  0.0806 -0.3815  0.4880
 4983SOL    HW126582   3.552   3.264  14.395 -1.9095  0.6946  3.0314
 4983SOL    HW226583   3.606   3.368  14.476  0.0636 -0.3379  0.3234
 4984SOL     OW26584   3.215   3.583   6.380 -0.0365  0.1015 -0.4356
 4984SOL    HW126585   3.248   3.672   6.364 -0.6201  0.3633 -0.2033
 4984SOL    HW226586   3.288   3.523   6.371 -1.3495 -1.3512 -1.4144
 4985SOL     OW26587   3.700   3.303   2.514  0.0610  0.4164  0.5299
 4985SOL    HW126588   3.689   3.209   2.524 -0.2635  0.2893 -1.0056
 4985SOL    HW226589   3.759   3.325   2.586 -0.5187  1.6272  0.6409
 4986SOL     OW26590   2.869   0.526   7.646 -0.8081 -0.1666  0.4679
 4986SOL    HW126591   2.905   0.448   7.688 -1.8329  0.6956  2.9391
 4986SOL    HW226592   2.938   0.590   7.663 -1.2248  0.2159  0.6852
 4987SOL     OW26593   2.572   4.059   8.936 -0.2962 -0.2680  0.1121
 4987SOL    HW126594   2.637   3.997   8.970  0.9798  1.0236  0.0207
 4987SOL    HW226595   2.497   4.032   8.989 -0.6440 -0.2028 -0.3426
 4988SOL     OW26596   1.116   3.834   5.151 -0.5982  0.6332 -0.0305
 4988SOL    HW126597   1.131   3.757   5.097 -0.9850  0.1712  0.5170
 4988SOL    HW226598   1.069   3.894   5.093  0.5441  0.2215 -1.3741
 4989SOL     OW26599   0.613   1.203  13.194 -0.5057 -0.0526 -0.2770
 4989SOL    HW126600   0.589   1.174  13.282 -2.8623 -1.0890 -1.2411
 4989SOL    HW226601   0.594   1.117  13.156  0.4171  0.0990 -1.0693
 4990SOL     OW26602   3.267   0.474   5.018 -0.7132 -0.5276  0.0653
 4990SOL    HW126603   3.276   0.509   5.106 -0.8945  0.9855 -0.5132
 4990SOL    HW226604   3.357   0.493   4.990 -1.4269  1.4802 -0.8765
 4991SOL     OW26605   2.899   0.034   7.137 -0.1842 -0.1891  0.5118
 4991SOL    HW126606   2.989   0.029   7.105  0.4554 -1.3835  2.4857
 4991SOL    HW226607   2.874   0.126   7.125  0.1522 -0.0864  0.6099
 4992SOL     OW26608   3.864   4.320   7.328 -0.3463 -0.6242 -0.1401
 4992SOL    HW126609   3.940   4.332   7.272 -0.5209 -1.7966 -0.6330
 4992SOL    HW226610   3.808   4.272   7.266 -3.8729  1.1568  1.6626
 4993SOL     OW26611   2.272   1.315   8.422 -0.5880  0.2943  0.2529
 4993SOL    HW126612   2.197   1.267   8.387  0.2352  0.0697 -1.2070
 4993SOL    HW226613   2.267   1.293   8.515 -0.9864  1.1448  0.4321
 4994SOL     OW26614   0.525   3.531   2.878  0.8123 -0.4949 -0.2692
 4994SOL    HW126615   0.489   3.482   2.804 -3.8230  0.3810  1.4312
 4994SOL    HW226616   0.569   3.602   2.831  1.1775 -1.9354 -2.0867
 4995SOL     OW26617   2.438   1.701   0.534 -0.4960  0.1274 -0.2131
 4995SOL    HW126618   2.526   1.716   0.569  0.1727  0.6505 -2.0994
 4995SOL    HW226619   2.388   1.702   0.615  2.3344  1.9051  1.4879
 4996SOL     OW26620   3.280   1.390  15.185  0.1509 -0.0455 -0.4495
 4996SOL    HW126621   3.188   1.414  15.177 -0.5130 -3.3549 -3.0010
 4996SOL    HW226622   3.324   1.474  15.194 -1.0170  0.1608  3.3387
 4997SOL     OW26623   1.774   4.688   4.677 -0.0419 -0.2875  0.0740
 4997SOL    HW126624   1.765   0.048   4.701  2.7890 -0.0678  0.3962
 4997SOL    HW226625   1.814   4.661   4.760 -1.9827  0.3801  1.2322
 4998SOL     OW26626   2.866   0.575   7.955  0.1328 -0.1037 -0.0127
 4998SOL    HW126627   2.895   0.637   7.888 -0.3415  0.8597  0.6816
 4998SOL    HW226628   2.822   0.624   8.024 -1.0005  0.6601 -1.2793
 4999SOL     OW26629   0.538   3.203   3.059 -0.4282  0.2010  0.0292
 4999SOL    HW126630   0.476   3.242   3.121 -0.0631  0.0916  0.4620
 4999SOL    HW226631   0.474   3.178   2.993  1.1254 -0.2592 -1.2963
 5000SOL     OW26632   2.297   4.685   3.478  0.1039  0.4184 -0.3078
 5000SOL    HW126633   2.299   4.597   3.514 -2.8254  1.2781  2.0795
 5000SOL    HW226634   2.373   4.728   3.517 -1.6448  2.4140  0.9710
 5001SOL     OW26635   2.241   3.704  13.476 -0.0085  0.3447  0.1746
 5001SOL    HW126636   2.177   3.723  13.408  1.6450  1.2427 -1.1169
 5001SOL    HW226637   2.285   3.786  13.497  0.3227 -0.1473  1.4730
 5002SOL     OW26638   3.683   3.815   9.540  0.4924 -0.1011 -0.4159
 5002SOL    HW126639   3.678   3.767   9.623 -0.2037 -1.7021 -1.3908
 5002SOL    HW226640   3.588   3.820   9.529  0.2164 -0.1718  1.8512
 5003SOL     OW26641   1.133   3.781   8.255 -0.0271 -0.7393 -0.1051
 5003SOL    HW126642   1.223   3.811   8.268 -1.6375  2.5778  3.5538
 5003SOL    HW226643   1.086   3.840   8.314 -0.2918 -1.1203  0.0650
 5004SOL     OW26644   2.095   0.774   8.743 -0.2800  0.3875  0.3511
 5004SOL    HW126645   2.158   0.845   8.752  0.0290  0.0262  1.0865
 5004SOL    HW226646   2.069   0.775   8.651  1.2156  0.5064 -0.0705
 5005SOL     OW26647   0.489   2.977   4.528 -0.3823  0.0546 -0.2112
 5005SOL    HW126648   0.428   2.903   4.526 -1.4154  0.9472 -2.2254
 5005SOL    HW226649   0.572   2.931   4.543 -0.1134  0.3876 -0.6854
 5006SOL     OW26650   2.468   1.659  10.609  0.0463  0.0391 -0.1538
 5006SOL    HW126651   2.543   1.644  10.667 -0.3539  1.5335  0.7579
 5006SOL    HW226652   2.516   1.692  10.533 -0.3831 -0.0265 -0.4489
 5007SOL     OW26653   4.561   4.211   4.108 -0.3458  0.4709  0.0649
 5007SOL    HW126654   4.543   4.158   4.031  1.5944 -0.7943  0.5028
 5007SOL    HW226655   4.651   4.187   4.130 -1.3109 -3.6783 -0.4560
 5008SOL     OW26656   4.429   1.943  16.819 -0.4858 -0.3033  0.5016
 5008SOL    HW126657   4.504   1.999  16.838  1.0246 -1.9526 -0.6469
 5008SOL    HW226658   4.473   1.883  16.759 -0.4069 -0.7372  0.9956
 5009SOL     OW26659   1.247   2.224   7.394  0.1670 -0.1852  0.5886
 5009SOL    HW126660   1.251   2.248   7.301  1.5287 -1.2624  0.3765
 5009SOL    HW226661   1.159   2.187   7.395  0.3266 -0.5937 -0.6976
 5010SOL     OW26662   4.307   3.835   8.930  0.1286  0.1975  0.3824
 5010SOL    HW126663   4.342   3.751   8.959  1.7180  0.6231 -0.3071
 5010SOL    HW226664   4.293   3.812   8.838  2.3194 -0.6740  0.2846
 5011SOL     OW26665   2.103   4.718  12.290  0.1275 -0.3524 -0.3242
 5011SOL    HW126666   2.120   0.032  12.373  1.0742 -0.2439 -0.5711
 5011SOL    HW226667   2.015   4.684  12.303 -0.1217  0.4750  0.1532
 5012SOL     OW26668   1.881   4.520   3.808 -0.1112  0.3442  0.0535
 5012SOL    HW126669   1.875   4.459   3.881 -1.0591  0.3712 -0.0059
 5012SOL    HW226670   1.977   4.525   3.807 -0.2031  2.2603  0.9491
 5013SOL     OW26671   2.033   3.259  17.149 -0.0572 -0.4177 -0.1004
 5013SOL    HW126672   2.002   3.312  17.223  2.1519 -0.6778  1.0165
 5013SOL    HW226673   2.014   3.166  17.165  1.6120 -0.4615  1.7375
 5014SOL     OW26674   0.530   1.115   3.330 -0.0239 -0.5334  0.0744
 5014SOL    HW126675   0.554   1.156   3.413 -0.5885 -1.9712  0.9512
 5014SOL    HW226676   0.518   1.025   3.358 -0.3625 -0.7071 -0.6270
 5015SOL     OW26677   4.455   0.742   5.635 -0.0314  0.1019 -0.0336
 5015SOL    HW126678   4.375   0.794   5.640 -0.2656 -0.3402  0.6939
 5015SOL    HW226679   4.521   0.793   5.682  1.7458 -0.4301 -1.9174
 5016SOL     OW26680   0.185   2.144   9.128  0.7124  0.4927  0.3252
 5016SOL    HW126681   0.256   2.085   9.152  0.5028  0.1656  0.1324
 5016SOL    HW226682   0.241   2.222   9.136 -2.1041  2.3982  1.4105
 5017SOL     OW26683   0.223   1.661   9.297 -0.1208  0.3159 -0.9384
 5017SOL    HW126684   0.195   1.720   9.228 -0.0438  1.0099 -0.3777
 5017SOL    HW226685   0.276   1.598   9.248  1.0338  0.7101 -0.2041
 5018SOL     OW26686   0.349   3.047  10.636  0.0928  0.8229 -0.7545
 5018SOL    HW126687   0.357   3.048  10.731 -2.8375  1.5901 -0.5075
 5018SOL    HW226688   0.347   3.140  10.616 -1.3180  0.9206 -0.1547
 5019SOL     OW26689   0.449   0.809   7.006  0.0409  0.4926  0.2541
 5019SOL    HW126690   0.496   0.730   6.979  0.0290  0.2531  0.9398
 5019SOL    HW226691   0.433   0.853   6.922 -0.0125  0.2197  0.1226
 5020SOL     OW26692   3.290   3.169   8.757 -0.2310 -0.2343 -0.1862
 5020SOL    HW126693   3.356   3.225   8.715  0.4663  0.2730  1.5667
 5020SOL    HW226694   3.318   3.177   8.848 -0.4957 -3.0638  0.1638
 5021SOL     OW26695   2.409   2.147   4.650  0.3334  0.1249 -0.8500
 5021SOL    HW126696   2.324   2.155   4.694  1.6819  1.7337  1.4566
 5021SOL    HW226697   2.465   2.120   4.722 -0.7681 -0.5889 -0.2689
 5022SOL     OW26698   1.243   0.569   7.282 -0.4360 -0.3277  0.1846
 5022SOL    HW126699   1.303   0.535   7.348 -1.3047 -1.4526  0.4070
 5022SOL    HW226700   1.217   0.650   7.325  2.5869 -0.5871  2.4401
 5023SOL     OW26701   3.758   4.174   8.573 -0.4700 -0.3721  0.1676
 5023SOL    HW126702   3.811   4.202   8.498  2.7463 -0.7961  2.2734
 5023SOL    HW226703   3.696   4.247   8.582  0.1723  0.3979 -1.6059
 5024SOL     OW26704   0.043   2.365   8.031 -0.6365  0.0720 -0.3500
 5024SOL    HW126705   4.680   2.362   8.040 -0.8312 -1.0686 -3.0394
 5024SOL    HW226706   0.061   2.396   8.120 -0.6397 -1.9007  0.3325
 5025SOL     OW26707   2.913   1.251  13.209 -0.5791  0.1132  0.1517
 5025SOL    HW126708   2.885   1.164  13.183  2.6320 -1.2130  1.1223
 5025SOL    HW226709   3.008   1.241  13.211 -0.5800  0.1064  0.1655
 5026SOL     OW26710   4.542   1.729  12.912 -0.1911 -0.2658 -0.7213
 5026SOL    HW126711   4.497   1.761  12.990 -1.5741 -0.0275 -1.6362
 5026SOL    HW226712   4.525   1.805  12.856 -0.6030 -0.4827 -0.8896
 5027SOL     OW26713   3.702   2.818  17.301 -0.1424  0.2404  0.7302
 5027SOL    HW126714   3.750   2.767  17.236 -1.6345  0.7013 -0.7529
 5027SOL    HW226715   3.760   2.823  17.377  1.8014 -0.2106 -0.7213
 5028SOL     OW26716   3.534   4.337   5.037 -0.3839 -0.3909 -0.0179
 5028SOL    HW126717   3.477   4.274   4.993 -1.8421  2.1053 -1.6643
 5028SOL    HW226718   3.564   4.284   5.111  0.5716  0.7138  0.3813
 5029SOL     OW26719   2.861   0.865   5.278  0.2592 -0.2999  0.0638
 5029SOL    HW126720   2.820   0.803   5.218 -0.4550  0.7467 -0.5529
 5029SOL    HW226721   2.915   0.809   5.333  0.0724  0.1624  0.7200
 5030SOL     OW26722   0.294   0.015   3.875  0.0759 -0.2223 -0.2071
 5030SOL    HW126723   0.321   4.698   3.952 -2.0633 -2.5326 -0.9377
 5030SOL    HW226724   0.318   0.100   3.914 -0.5456 -1.2169  2.3224
 5031SOL     OW26725   1.173   2.648   3.183  0.2513  0.7158  0.4291
 5031SOL    HW126726   1.200   2.731   3.222  0.6597  1.2550 -1.0366
 5031SOL    HW226727   1.259   2.605   3.188 -0.9181 -1.5013  1.6823
 5032SOL     OW26728   4.196   2.842   2.831 -0.0294  0.3524  0.1151
 5032SOL    HW126729   4.169   2.791   2.755  1.0278  0.4770 -0.3417
 5032SOL    HW226730   4.281   2.803   2.850 -1.1820 -1.1253  2.2861
 5033SOL     OW26731   1.937   2.148   4.435  0.2807  0.5240 -0.2699
 5033SOL    HW126732   1.951   2.233   4.476 -0.3059  1.0624 -1.2067
 5033SOL    HW226733   2.003   2.151   4.366 -0.6822 -0.1482 -1.2258
 5034SOL     OW26734   2.949   0.418   3.717  0.3920 -0.4393  0.0978
 5034SOL    HW126735   3.030   0.460   3.746 -1.0886  2.9536 -0.6148
 5034SOL    HW226736   2.983   0.377   3.637  1.8089 -1.7733  1.3925
 5035SOL     OW26737   2.595   0.252   8.168  0.3824  0.1091  0.4040
 5035SOL    HW126738   2.508   0.221   8.144  0.7694 -0.8621  0.2217
 5035SOL    HW226739   2.616   0.292   8.084 -0.0267 -1.4681 -0.4543
 5036SOL     OW26740   2.223   1.923   8.571 -0.2241 -0.0832  0.1482
 5036SOL    HW126741   2.235   1.841   8.618 -1.8905 -1.5447 -1.9792
 5036SOL    HW226742   2.267   1.985   8.629 -1.6586  0.3033  0.8079
 5037SOL     OW26743   1.816   4.219   5.308 -0.6762  0.8087 -0.0766
 5037SOL    HW126744   1.781   4.286   5.367 -0.0648  1.7242 -0.7599
 5037SOL    HW226745   1.748   4.152   5.305 -1.4518  1.5115  1.4284
 5038SOL     OW26746   0.909   3.516  16.205  0.1596 -0.1584  0.9760
 5038SOL    HW126747   0.851   3.571  16.152 -1.4437 -1.5080  1.3069
 5038SOL    HW226748   0.978   3.512  16.138  1.1614  1.3264  1.9282
 5039SOL     OW26749   1.369   4.450   9.436  0.2973  0.0193 -0.4614
 5039SOL    HW126750   1.391   4.365   9.474  0.7258 -0.0340 -0.8163
 5039SOL    HW226751   1.392   4.505   9.511  0.4868  0.0775 -0.5608
 5040SOL     OW26752   0.509   1.567   4.858  0.2590  0.1935 -0.8513
 5040SOL    HW126753   0.497   1.501   4.790 -0.3813  0.2194 -0.7646
 5040SOL    HW226754   0.418   1.576   4.885  0.3114  1.5549 -1.1649
 5041SOL     OW26755   2.138   0.257   5.800  0.6105 -0.1264 -1.0209
 5041SOL    HW126756   2.207   0.309   5.842 -2.0437  0.6494  2.4257
 5041SOL    HW226757   2.070   0.325   5.799  0.1106 -0.6352 -1.3060
 5042SOL     OW26758   2.335   2.446   2.594 -0.3773 -0.2495 -0.3111
 5042SOL    HW126759   2.374   2.527   2.629  1.4809 -2.0705  1.7893
 5042SOL    HW226760   2.296   2.487   2.516  4.2281  0.8863 -2.0420
 5043SOL     OW26761   2.198   4.510   1.497 -0.2832  0.2979  0.4623
 5043SOL    HW126762   2.286   4.510   1.458 -0.8194 -1.4716 -0.7241
 5043SOL    HW226763   2.183   4.596   1.536  2.3222  0.3899  1.2695
 5044SOL     OW26764   3.767   2.761   8.837  1.0461  0.1013 -0.1052
 5044SOL    HW126765   3.786   2.835   8.894  0.2562  0.2495 -0.0285
 5044SOL    HW226766   3.672   2.771   8.831  0.9540 -0.4816  0.4388
 5045SOL     OW26767   0.358   0.853  13.746 -0.6624  0.1417 -0.6445
 5045SOL    HW126768   0.404   0.894  13.819  2.5346 -3.3472 -0.6767
 5045SOL    HW226769   0.390   0.903  13.671 -0.1785 -0.0501 -0.5704
 5046SOL     OW26770   3.711   1.681   5.459  0.1802 -0.0958 -0.2513
 5046SOL    HW126771   3.751   1.748   5.403 -0.2157 -0.6879 -1.2539
 5046SOL    HW226772   3.631   1.661   5.410  0.4047 -0.3198 -0.5220
 5047SOL     OW26773   1.688   2.031   7.338  0.1128  0.2236 -0.0841
 5047SOL    HW126774   1.768   1.980   7.350 -1.1972 -1.9819 -0.7810
 5047SOL    HW226775   1.622   1.963   7.350  0.1520 -0.0509 -1.4075
 5048SOL     OW26776   2.708   1.993  12.669 -0.0655 -0.1456  0.0372
 5048SOL    HW126777   2.730   1.902  12.651  0.3539 -0.5589  2.5850
 5048SOL    HW226778   2.781   2.035  12.625 -1.0051  0.4951 -0.9086
 5049SOL     OW26779   4.382   3.444  15.174 -0.2330 -0.0330  0.0934
 5049SOL    HW126780   4.457   3.438  15.115 -0.0245  1.2321  0.2270
 5049SOL    HW226781   4.341   3.530  15.175  0.0714  0.1258 -2.5171
 5050SOL     OW26782   4.027   3.236   0.099 -0.5814  0.3746 -0.2828
 5050SOL    HW126783   4.071   3.204   0.178 -1.2320 -0.8144 -0.4075
 5050SOL    HW226784   3.966   3.299   0.137  0.0758  1.5670 -1.2092
 5051SOL     OW26785   1.294   4.531   8.775  0.2839  0.0961  0.0410
 5051SOL    HW126786   1.372   4.559   8.726 -1.4418  1.7935 -1.7726
 5051SOL    HW226787   1.332   4.476   8.843  0.8896 -0.4203 -0.7147
 5052SOL     OW26788   1.443   3.552  11.985 -0.1363  0.7914  0.0771
 5052SOL    HW126789   1.442   3.461  12.013  1.2964  0.1958 -1.7833
 5052SOL    HW226790   1.508   3.590  12.044  0.7518  2.3593 -1.8786
 5053SOL     OW26791   4.525   4.118  17.629 -1.0566  0.1953 -0.1722
 5053SOL    HW126792   4.594   4.075  17.579 -0.8052  0.7261 -0.2704
 5053SOL    HW226793   4.558   4.204  17.653 -2.5298  0.1069  2.2950
 5054SOL     OW26794   0.455   1.557   4.079  0.3058 -0.1748 -0.5201
 5054SOL    HW126795   0.496   1.641   4.097  0.8378 -0.5601  0.0946
 5054SOL    HW226796   0.491   1.498   4.146 -0.4181  0.6012  0.5322
 5055SOL     OW26797   4.179   0.303  17.694  0.2015 -0.1638 -0.5581
 5055SOL    HW126798   4.128   0.235  17.649 -0.5479  0.1155 -0.1352
 5055SOL    HW226799   4.131   0.378  17.659 -0.7759 -0.2212  0.6244
 5056SOL     OW26800   3.550   2.036   1.251 -0.7797  0.4000  0.2340
 5056SOL    HW126801   3.556   2.075   1.164  2.2957 -0.5432  0.0241
 5056SOL    HW226802   3.465   1.993   1.248 -0.9835  0.7205  1.4740
 5057SOL     OW26803   0.941   1.170   9.203  0.1813  0.2201  0.2793
 5057SOL    HW126804   0.872   1.237   9.201  0.0425  0.1418  2.3426
 5057SOL    HW226805   0.894   1.090   9.183  0.1452  0.5228 -0.8424
 5058SOL     OW26806   2.235   1.976   0.115  0.6652 -0.4542 -0.5838
 5058SOL    HW126807   2.263   2.049   0.170  0.2684 -0.1083 -0.8366
 5058SOL    HW226808   2.258   1.902   0.170  1.5546 -0.1271 -0.5096
 5059SOL     OW26809   1.990   2.216   3.969 -0.1424 -0.0499 -0.0965
 5059SOL    HW126810   1.948   2.131   3.954  1.5563 -0.8037 -0.6040
 5059SOL    HW226811   2.023   2.205   4.058 -1.9175 -0.4105  0.5142
 5060SOL     OW26812   4.196   0.769   7.731  0.3302  0.5845  0.7322
 5060SOL    HW126813   4.231   0.680   7.724  1.5324  1.1918 -0.8096
 5060SOL    HW226814   4.270   0.813   7.690  1.2556  0.4473  2.2683
 5061SOL     OW26815   2.522   3.466   5.555  0.3638  1.0795 -0.2761
 5061SOL    HW126816   2.484   3.514   5.482 -0.8787  1.5941  0.7142
 5061SOL    HW226817   2.476   3.383   5.543 -0.3849  1.3849  0.5243
 5062SOL     OW26818   4.629   2.451   6.764 -0.1354 -0.1764 -0.3130
 5062SOL    HW126819   4.719   2.420   6.773 -0.1100  0.4595  1.7041
 5062SOL    HW226820   4.651   2.544   6.765  2.1264 -0.7172  1.8637
 5063SOL     OW26821   0.020   1.969   3.090  0.2481 -0.0692 -0.3467
 5063SOL    HW126822   0.065   1.997   3.170 -2.1086  1.5980  0.4104
 5063SOL    HW226823   4.713   1.887   3.121 -2.1188  0.6490 -1.4238
 5064SOL     OW26824   2.903   0.738   0.415 -0.5279  0.3016 -0.1188
 5064SOL    HW126825   2.915   0.646   0.394  1.8960  0.6097 -0.0523
 5064SOL    HW226826   2.823   0.734   0.467  0.0576  0.0884  0.7620
 5065SOL     OW26827   3.384   0.842   8.616  0.3861  0.1819  0.1698
 5065SOL    HW126828   3.379   0.927   8.573  2.5741  0.5777  0.6866
 5065SOL    HW226829   3.328   0.798   8.553  1.5396 -1.2475  0.1435
 5066SOL     OW26830   3.504   1.219   8.871  0.4898 -0.4461 -0.0089
 5066SOL    HW126831   3.422   1.174   8.893 -0.2027  1.0823  0.5596
 5066SOL    HW226832   3.559   1.141   8.868  0.5366 -0.4574  1.2601
 5067SOL     OW26833   1.957   3.078   9.127 -0.4013 -0.7591  0.1807
 5067SOL    HW126834   1.936   3.136   9.200 -2.2197 -2.0098  0.6465
 5067SOL    HW226835   1.884   3.092   9.066 -1.1376  1.4623  1.5961
 5068SOL     OW26836   1.788   2.668   4.863 -0.1736  0.4097  0.4681
 5068SOL    HW126837   1.783   2.606   4.936  1.2409  1.2649  1.2943
 5068SOL    HW226838   1.867   2.631   4.825  0.0261  1.0163  0.2990
 5069SOL     OW26839   4.405   0.848   8.542  0.3876  0.1717  0.1017
 5069SOL    HW126840   4.424   0.922   8.599  0.2243  0.2239  0.0884
 5069SOL    HW226841   4.480   0.843   8.483  0.8547  2.5026  0.4824
 5070SOL     OW26842   2.992   0.397   1.446  0.1512  0.4297 -0.3721
 5070SOL    HW126843   3.026   0.328   1.390 -1.0112 -0.3778 -0.0778
 5070SOL    HW226844   2.956   0.460   1.384  0.1794 -0.2737 -1.0995
 5071SOL     OW26845   3.979   2.388   1.600  0.3445 -0.0010 -0.0069
 5071SOL    HW126846   4.019   2.302   1.612 -2.2242 -1.2334 -0.2374
 5071SOL    HW226847   3.934   2.393   1.685 -1.1874 -1.9989 -0.6970
 5072SOL     OW26848   2.023   0.349  16.089  0.1917 -0.0564  0.3426
 5072SOL    HW126849   2.004   0.301  16.169  0.2096  0.6227  0.7604
 5072SOL    HW226850   2.091   0.300  16.044  0.5156 -0.0146  0.7936
 5073SOL     OW26851   0.324   0.738  16.460 -0.2029 -0.0142 -0.7081
 5073SOL    HW126852   0.368   0.662  16.499 -1.6053 -1.8068 -2.6271
 5073SOL    HW226853   0.333   0.711  16.369  1.9604 -0.4722 -0.3710
 5074SOL     OW26854   1.388   1.035   7.837  0.6799 -0.1786  0.6145
 5074SOL    HW126855   1.476   1.053   7.870  0.8451 -0.9100  0.5768
 5074SOL    HW226856   1.374   0.944   7.863  1.0481 -0.5144 -0.3645
 5075SOL     OW26857   1.637   4.221   4.253 -1.2289 -0.8779  0.7814
 5075SOL    HW126858   1.549   4.201   4.224 -1.7434  1.1381  0.9329
 5075SOL    HW226859   1.625   4.235   4.347  1.2340  2.1081  0.6575
 5076SOL     OW26860   0.320   0.358   1.041  0.1260 -0.1988 -0.4306
 5076SOL    HW126861   0.273   0.415   1.102  0.1874 -0.7167  0.1017
 5076SOL    HW226862   0.356   0.420   0.977  0.2220  0.9854  0.7842
 5077SOL     OW26863   4.448   0.084   7.938 -0.0190 -0.0568  0.0586
 5077SOL    HW126864   4.509   0.013   7.955  0.9996  0.7705 -0.1447
 5077SOL    HW226865   4.397   0.075   8.019 -0.7640  2.5170 -0.1395
 5078SOL     OW26866   3.877   1.493   0.988 -0.5614 -0.2683  0.4683
 5078SOL    HW126867   3.875   1.553   0.914  0.2224 -1.9787 -0.9623
 5078SOL    HW226868   3.851   1.540   1.067 -0.0090 -1.1450  1.1672
 5079SOL     OW26869   0.187   1.069  16.259  0.2511 -0.0921  0.5287
 5079SOL    HW126870   0.164   1.028  16.342 -2.3107 -1.6187 -0.9402
 5079SOL    HW226871   0.122   1.136  16.236  0.4641  0.2105  0.8037
 5080SOL     OW26872   3.918   0.682  15.252 -0.5343  0.2299  0.2709
 5080SOL    HW126873   3.884   0.702  15.339  1.1130 -0.9464  1.1863
 5080SOL    HW226874   3.930   0.588  15.245  1.1982  0.5962 -1.7359
 5081SOL     OW26875   2.217   0.064   7.791 -0.2351  0.1836 -0.4915
 5081SOL    HW126876   2.251   0.062   7.701  2.0990 -2.3603  0.4727
 5081SOL    HW226877   2.283   0.010   7.834  1.2261  2.1129 -0.3527
 5082SOL     OW26878   2.262   4.687   4.968 -0.1831  0.3253  0.0385
 5082SOL    HW126879   2.260   4.606   4.917  0.1941 -0.1800  0.8342
 5082SOL    HW226880   2.234   0.016   4.899 -1.1922 -0.8541 -0.5883
 5083SOL     OW26881   3.635   1.983   5.233  0.4965 -0.6350  0.1148
 5083SOL    HW126882   3.606   1.927   5.161 -2.2870  1.4168 -0.3496
 5083SOL    HW226883   3.566   1.958   5.296 -0.7890  2.3667 -0.1052
 5084SOL     OW26884   2.903   1.395   2.694 -0.5369 -0.1666  0.2902
 5084SOL    HW126885   2.837   1.422   2.631 -0.8645 -0.5569  0.4648
 5084SOL    HW226886   2.891   1.301   2.682  1.7820 -0.5753  1.0054
 5085SOL     OW26887   0.164   2.597   5.107 -0.6422  0.5625 -0.0922
 5085SOL    HW126888   0.259   2.597   5.094 -0.8480 -0.8217 -1.6210
 5085SOL    HW226889   0.145   2.543   5.030  0.8203  1.6374 -1.2109
 5086SOL     OW26890   2.886   1.166   1.720  0.0455  0.1579  0.2538
 5086SOL    HW126891   2.890   1.248   1.770  0.2835  0.5116 -0.3444
 5086SOL    HW226892   2.980   1.164   1.702  0.0618 -0.7972  0.4457
 5087SOL     OW26893   2.322   0.793   4.968 -0.8256 -0.0385 -0.1946
 5087SOL    HW126894   2.401   0.835   5.002 -0.3785 -1.3361  0.3485
 5087SOL    HW226895   2.277   0.758   5.045  1.7159  0.3538  1.4857
 5088SOL     OW26896   3.019   0.317   5.763 -0.0557 -0.7751  0.0641
 5088SOL    HW126897   2.969   0.363   5.831 -0.8707  0.1605 -1.1698
 5088SOL    HW226898   3.102   0.299   5.807 -0.0349 -1.5531 -0.2956
 5089SOL     OW26899   1.874   1.747   2.853  0.1692 -0.2652  0.0354
 5089SOL    HW126900   1.870   1.786   2.940 -1.7708  0.9182 -0.6031
 5089SOL    HW226901   1.852   1.820   2.796  0.8715 -0.2612 -0.2360
 5090SOL     OW26902   3.528   3.836  16.249 -0.7115  0.3176  0.4277
 5090SOL    HW126903   3.518   3.772  16.179 -0.7127  1.5711 -0.7044
 5090SOL    HW226904   3.442   3.845  16.290 -1.3691 -0.4916 -0.8051
 5091SOL     OW26905   3.062   3.298   1.249  0.5302 -0.3920  0.5499
 5091SOL    HW126906   2.972   3.267   1.259  0.3951 -0.2480 -0.2755
 5091SOL    HW226907   3.065   3.342   1.164 -0.4916 -0.6210  0.3966
 5092SOL     OW26908   3.910   1.913   4.586 -0.0848  0.2836 -0.3038
 5092SOL    HW126909   4.001   1.885   4.583 -0.5650 -1.2167 -0.5456
 5092SOL    HW226910   3.863   1.830   4.578  0.5793 -0.0013 -1.3632
 5093SOL     OW26911   0.550   1.757  17.243  0.4565  0.1170  0.9610
 5093SOL    HW126912   0.623   1.718  17.194 -1.5818 -1.8246 -0.5538
 5093SOL    HW226913   0.579   1.842  17.276  2.9184 -1.2958  2.4594
 5094SOL     OW26914   2.201   4.369   9.409  0.5557 -0.2212 -0.1517
 5094SOL    HW126915   2.119   4.334   9.444  0.0700 -0.8992 -1.9701
 5094SOL    HW226916   2.184   4.371   9.315 -0.5307  0.5453  0.0658
 5095SOL     OW26917   0.657   4.490   5.219 -0.1799  0.1633  0.2485
 5095SOL    HW126918   0.695   4.513   5.134  1.1846  0.9559  1.0709
 5095SOL    HW226919   0.633   4.403   5.187 -0.6916 -0.0378  1.1785
 5096SOL     OW26920   2.152   0.316   6.628  0.1665  0.1757 -0.0773
 5096SOL    HW126921   2.237   0.290   6.664 -0.3862 -0.1071  1.0138
 5096SOL    HW226922   2.126   0.228   6.604  1.0013 -0.4329  1.2157
 5097SOL     OW26923   3.482   2.840  13.347  0.0599 -0.0412 -0.4604
 5097SOL    HW126924   3.576   2.825  13.358 -0.2700 -0.7800  1.2404
 5097SOL    HW226925   3.442   2.753  13.339 -0.7623  0.4147 -1.2787
 5098SOL     OW26926   1.519   3.761  10.724 -0.6944 -0.5088 -0.1995
 5098SOL    HW126927   1.454   3.802  10.781 -0.5250 -0.6722  0.1120
 5098SOL    HW226928   1.459   3.730  10.657  0.9326 -2.1516 -0.8965
 5099SOL     OW26929   4.090   4.224   4.031 -0.3164 -0.0014 -0.2056
 5099SOL    HW126930   4.021   4.168   4.067 -0.5331  0.7851  0.6008
 5099SOL    HW226931   4.083   4.199   3.939 -0.1285 -0.9492  0.0365
 5100SOL     OW26932   3.756   2.510   3.468 -0.0852  0.1029 -0.4952
 5100SOL    HW126933   3.728   2.478   3.553 -0.0282  0.0190 -0.5082
 5100SOL    HW226934   3.726   2.437   3.414 -2.2601  0.1637  0.6228
 5101SOL     OW26935   0.527   3.260   3.522  0.5334 -0.2162 -0.0275
 5101SOL    HW126936   0.527   3.341   3.574 -2.2450 -0.1204 -0.1599
 5101SOL    HW226937   0.506   3.297   3.436  1.5978  1.5599  0.4732
 5102SOL     OW26938   4.704   2.980   9.208  0.1234 -0.2358  0.0969
 5102SOL    HW126939   0.018   3.046   9.157  1.3568 -1.5636 -0.5077
 5102SOL    HW226940   4.624   2.955   9.161  0.2749  0.4979 -0.5499
 5103SOL     OW26941   0.783   0.806   2.758  0.0734  0.4126  0.2250
 5103SOL    HW126942   0.749   0.736   2.704  1.2287  0.1958 -0.2186
 5103SOL    HW226943   0.717   0.801   2.827  0.2150 -0.1720  0.3133
 5104SOL     OW26944   1.885   4.120   3.824 -0.4062  0.7323  0.2680
 5104SOL    HW126945   1.814   4.057   3.835 -0.6363  0.6159 -1.9685
 5104SOL    HW226946   1.868   4.184   3.894  0.3751  0.0826  1.0529
 5105SOL     OW26947   2.390   3.603   4.677 -0.1839  0.3531 -0.3180
 5105SOL    HW126948   2.467   3.657   4.657  0.4953 -0.8182 -0.8640
 5105SOL    HW226949   2.409   3.521   4.632  1.0744  0.3540  0.2083
 5106SOL     OW26950   0.309   2.691  16.799  0.2316 -0.1643 -0.0149
 5106SOL    HW126951   0.306   2.689  16.895  0.0676 -2.8660 -0.0749
 5106SOL    HW226952   0.348   2.776  16.781  0.8620 -0.9827 -2.5949
 5107SOL     OW26953   3.398   3.151   6.136 -0.5725  0.3535 -0.2019
 5107SOL    HW126954   3.319   3.201   6.157 -0.8098  0.1451 -0.5914
 5107SOL    HW226955   3.387   3.070   6.187 -2.9546  0.0399 -1.2366
 5108SOL     OW26956   3.405   3.175   5.283  0.6985 -0.0377 -0.1345
 5108SOL    HW126957   3.499   3.195   5.290  1.0438 -1.4810 -0.8192
 5108SOL    HW226958   3.366   3.259   5.309 -1.6386 -1.4975  1.0450
 5109SOL     OW26959   2.499   3.178   6.011 -0.5599 -0.2191  0.4406
 5109SOL    HW126960   2.488   3.193   5.917 -0.8797 -0.2318  0.4746
 5109SOL    HW226961   2.437   3.244   6.041 -2.0355 -1.5497  0.3134
 5110SOL     OW26962   4.025   1.840   4.083 -0.2491  0.4655  0.7693
 5110SOL    HW126963   3.954   1.795   4.130  0.5211 -0.4644  1.0395
 5110SOL    HW226964   3.996   1.930   4.073  0.4374  0.7254  1.1273
 5111SOL     OW26965   1.555   2.455   7.387 -0.0921 -0.3989 -0.0766
 5111SOL    HW126966   1.512   2.514   7.450 -1.1599 -1.0654 -0.1699
 5111SOL    HW226967   1.524   2.373   7.427  0.9519 -0.6897  0.1198
 5112SOL     OW26968   2.132   0.272   4.029 -0.1211 -0.1407  0.0783
 5112SOL    HW126969   2.147   0.298   4.120 -3.4181  2.4220 -0.1030
 5112SOL    HW226970   2.086   0.190   4.045  0.4756 -0.0736  2.1571
 5113SOL     OW26971   1.748   2.463  13.506 -0.7290  0.5544 -0.2499
 5113SOL    HW126972   1.838   2.437  13.529 -1.0141  1.2238  1.6091
 5113SOL    HW226973   1.694   2.415  13.569  0.0561 -0.0267 -0.0048
 5114SOL     OW26974   4.212   1.014   1.747 -0.2541 -0.5701 -0.5086
 5114SOL    HW126975   4.161   1.095   1.741  0.6004  0.1426  2.2195
 5114SOL    HW226976   4.165   0.977   1.672 -0.5573  0.1232 -0.6675
 5115SOL     OW26977   3.367   2.848  11.786 -0.0873  0.3576 -0.3476
 5115SOL    HW126978   3.313   2.771  11.766  0.2529  0.0677 -0.1530
 5115SOL    HW226979   3.428   2.817  11.852 -3.1229 -1.8214  1.4408
 5116SOL     OW26980   4.093   2.679   5.265  0.3897  0.1600  0.3825
 5116SOL    HW126981   4.036   2.737   5.215 -0.7207 -0.5365  0.8332
 5116SOL    HW226982   4.027   2.621   5.303  0.7374 -0.5793 -0.1359
 5117SOL     OW26983   0.493   0.490  10.028  0.4919 -0.2819 -0.4614
 5117SOL    HW126984   0.548   0.489   9.950 -3.2267  0.5145 -3.1089
 5117SOL    HW226985   0.411   0.470   9.983 -1.2422 -1.7730  3.4079
 5118SOL     OW26986   0.405   1.021  13.954  0.6061 -0.3962  0.1597
 5118SOL    HW126987   0.410   1.059  14.042 -1.6610 -1.6324  0.8212
 5118SOL    HW226988   0.333   1.068  13.911  1.9314  1.6077  0.1439
 5119SOL     OW26989   3.427   2.028  15.367 -0.1511  0.1432  0.2620
 5119SOL    HW126990   3.512   2.008  15.407  0.1383  0.2540 -0.2994
 5119SOL    HW226991   3.417   2.115  15.406  0.6957 -0.4264  1.7791
 5120SOL     OW26992   3.041   1.806   7.000  0.7992  0.2808  0.2796
 5120SOL    HW126993   3.014   1.861   6.927 -1.1185  0.3019  1.0073
 5120SOL    HW226994   3.016   1.854   7.079 -0.0817 -1.1966  0.9140
 5121SOL     OW26995   0.044   1.192   5.234 -0.0134  0.5010 -0.1083
 5121SOL    HW126996   0.090   1.275   5.251  0.0347  0.5782 -0.6073
 5121SOL    HW226997   4.694   1.196   5.283 -1.7041  1.1476 -3.0133
 5122SOL     OW26998   0.586   2.292  17.077 -0.0331 -0.2337 -0.4729
 5122SOL    HW126999   0.561   2.377  17.040 -0.0426  0.3290  0.8127
 5122SOL    HW227000   0.586   2.244  16.994 -0.2836  0.7944 -1.0672
 5123SOL     OW27001   0.455   2.742   2.329 -0.3575  0.0617  0.0294
 5123SOL    HW127002   0.448   2.650   2.303  0.5531  0.0226 -0.0814
 5123SOL    HW227003   0.526   2.738   2.393 -0.2463 -2.1462 -0.2204
 5124SOL     OW27004   2.043   1.343   0.272 -0.1835 -0.0493  0.2464
 5124SOL    HW127005   2.100   1.416   0.251  1.1728 -1.2515 -0.2524
 5124SOL    HW227006   2.007   1.379   0.353 -0.3222  0.9748 -0.2737
 5125SOL     OW27007   0.027   0.056  14.569  0.0461 -0.3496 -0.2187
 5125SOL    HW127008   0.021   4.713  14.628 -1.1437  0.7266  1.0333
 5125SOL    HW227009   4.723   0.128  14.621 -1.1785 -0.6601 -0.6642
 5126SOL     OW27010   2.166   2.790   1.926 -0.1511  0.1545 -0.3937
 5126SOL    HW127011   2.230   2.836   1.872 -0.8982  0.0712 -1.3556
 5126SOL    HW227012   2.194   2.699   1.915  0.4114  0.1995  0.6914
 5127SOL     OW27013   3.235   0.247   5.911  0.5389 -0.1927 -0.4140
 5127SOL    HW127014   3.325   0.264   5.941 -0.1646 -2.3604  2.9019
 5127SOL    HW227015   3.176   0.252   5.986 -0.1959 -0.0010 -1.0065
 5128SOL     OW27016   4.351   2.788  14.028 -0.0705  0.1642  0.1920
 5128SOL    HW127017   4.392   2.703  14.044  0.4174  0.8510  2.4806
 5128SOL    HW227018   4.334   2.815  14.118 -3.3679 -1.5918  0.1444
 5129SOL     OW27019   0.079   0.372   5.728  0.0788 -0.1507 -0.3474
 5129SOL    HW127020   0.003   0.410   5.684  1.7495  3.9252  0.1924
 5129SOL    HW227021   0.146   0.393   5.664 -0.1573 -2.3159 -1.2860
 5130SOL     OW27022   3.117   3.686   1.071  0.6716  0.7777  0.3631
 5130SOL    HW127023   3.040   3.663   1.123  2.5746  1.4012  3.4481
 5130SOL    HW227024   3.086   3.764   1.026 -3.2133 -1.6811 -1.2037
 5131SOL     OW27025   0.106   4.404   9.739 -0.1658 -0.3085 -0.1000
 5131SOL    HW127026   0.071   4.399   9.650  0.4754  1.0339 -0.4328
 5131SOL    HW227027   0.120   4.499   9.741  0.9890 -0.4559 -1.2900
 5132SOL     OW27028   1.777   1.142   5.435  0.7737 -0.1811  0.0945
 5132SOL    HW127029   1.798   1.224   5.390 -0.9656 -0.0299 -0.4267
 5132SOL    HW227030   1.798   1.079   5.366  0.0416 -1.9225  1.4784
 5133SOL     OW27031   1.009   1.419  14.531  0.2144 -0.1349  0.2814
 5133SOL    HW127032   1.004   1.506  14.571  1.4070 -0.9005  2.0940
 5133SOL    HW227033   1.102   1.408  14.512 -0.4932 -1.8450 -2.1525
 5134SOL     OW27034   1.271   2.148  12.863 -0.0720  0.6133 -0.2178
 5134SOL    HW127035   1.289   2.241  12.880  0.3365  0.6566 -0.9102
 5134SOL    HW227036   1.248   2.163  12.771 -3.0566  1.2226  0.6401
 5135SOL     OW27037   3.028   3.305   1.837 -0.1338 -0.0679 -0.0843
 5135SOL    HW127038   3.009   3.344   1.922  0.1733  0.8614 -0.4404
 5135SOL    HW227039   3.057   3.221   1.871 -0.4942  1.1020  3.0401
 5136SOL     OW27040   1.223   0.370   6.544  0.3705 -0.3814  0.1072
 5136SOL    HW127041   1.240   0.280   6.571  1.6088  0.1553  1.1473
 5136SOL    HW227042   1.256   0.362   6.454 -1.4501  0.6659 -0.6468
 5137SOL     OW27043   3.931   3.040   8.205  0.0139  0.0733  0.5625
 5137SOL    HW127044   3.946   3.021   8.112  0.9072  0.8150  0.5533
 5137SOL    HW227045   3.916   2.952   8.239 -1.3135  0.8122  1.8817
 5138SOL     OW27046   4.347   1.587  16.761 -0.3396 -0.0763  0.2609
 5138SOL    HW127047   4.441   1.603  16.753 -0.4854  1.2143  1.0984
 5138SOL    HW227048   4.311   1.642  16.691  1.2450  0.9980  0.2988
 5139SOL     OW27049   4.180   0.429   9.709  0.4124 -0.0285 -0.4920
 5139SOL    HW127050   4.201   0.353   9.764  1.4928  0.0062 -0.8657
 5139SOL    HW227051   4.176   0.495   9.778  0.2232 -0.1823 -0.3535
 5140SOL     OW27052   4.191   3.261  17.588  0.1327 -0.1299 -0.3798
 5140SOL    HW127053   4.241   3.201  17.644 -0.2530 -0.9147 -0.8751
 5140SOL    HW227054   4.107   3.245  17.632  0.3107 -1.1197 -0.3972
 5141SOL     OW27055   3.324   1.577  11.092 -0.7289 -0.3121  0.0525
 5141SOL    HW127056   3.259   1.585  11.022 -2.1811 -0.5712  1.3866
 5141SOL    HW227057   3.270   1.544  11.163 -1.3379 -0.5079 -0.4995
 5142SOL     OW27058   2.343   3.088   4.504  0.3605  0.3451  0.6636
 5142SOL    HW127059   2.375   3.010   4.458 -0.7904  0.0816  0.3081
 5142SOL    HW227060   2.275   3.117   4.443 -1.1243  0.5987  2.4660
 5143SOL     OW27061   3.755   0.494   5.578  0.5880  0.6571  0.2079
 5143SOL    HW127062   3.701   0.435   5.630 -1.2079  1.3490 -0.8968
 5143SOL    HW227063   3.735   0.576   5.624 -1.2054  0.7131 -0.6945
 5144SOL     OW27064   4.570   2.576   5.811  0.2176  0.2608 -0.2113
 5144SOL    HW127065   4.536   2.656   5.771  1.2270  0.3221 -0.9512
 5144SOL    HW227066   4.660   2.573   5.776  0.2346  0.9154 -0.2137
 5145SOL     OW27067   2.628   3.944   5.249  0.0537 -0.3883 -0.1096
 5145SOL    HW127068   2.689   3.877   5.279  0.2597  0.3425  1.1031
 5145SOL    HW227069   2.686   4.016   5.227 -0.9736  1.2645  2.6739
 5146SOL     OW27070   1.586   3.615   9.063 -0.1779  0.0781  0.5624
 5146SOL    HW127071   1.618   3.580   8.980  1.6864  1.5862  0.6357
 5146SOL    HW227072   1.654   3.682   9.071 -0.1421 -0.0054  0.9504
 5147SOL     OW27073   1.130   0.787   5.547  0.9474 -0.5309  0.4584
 5147SOL    HW127074   1.134   0.852   5.617 -0.9156  0.3613 -0.2488
 5147SOL    HW227075   1.045   0.802   5.504  1.6430 -0.9759 -1.0626
 5148SOL     OW27076   0.874   2.681   6.444 -0.2680 -0.2193  0.4280
 5148SOL    HW127077   0.877   2.631   6.363 -0.9115 -0.4810  0.5655
 5148SOL    HW227078   0.786   2.719   6.439  0.2634  1.4450  3.7328
 5149SOL     OW27079   2.798   0.709   8.195  0.4798 -0.9050 -0.7905
 5149SOL    HW127080   2.872   0.769   8.203  0.8956 -1.4705 -0.4477
 5149SOL    HW227081   2.810   0.645   8.265  0.4825  2.0547  1.9351
 5150SOL     OW27082   0.837   3.523  13.904  0.2941  0.6959 -0.4795
 5150SOL    HW127083   0.771   3.457  13.884 -0.7400  2.4261 -2.8087
 5150SOL    HW227084   0.868   3.551  13.818  0.1736  0.9387 -0.4461
 5151SOL     OW27085   2.484   3.137  10.298 -0.1893  0.5737  0.7484
 5151SOL    HW127086   2.565   3.187  10.292 -0.3582  0.6233 -1.2116
 5151SOL    HW227087   2.502   3.077  10.370  0.0667 -0.4283 -0.1549
 5152SOL     OW27088   1.500   3.251   8.660  0.1082 -0.0851  0.0271
 5152SOL    HW127089   1.465   3.303   8.588  0.0233  0.9439  0.7999
 5152SOL    HW227090   1.426   3.263   8.720 -0.2800 -0.3610 -0.4044
 5153SOL     OW27091   4.286   3.321   6.177 -0.0861  0.2000  0.3261
 5153SOL    HW127092   4.266   3.364   6.094 -1.4434 -2.8116 -0.8991
 5153SOL    HW227093   4.261   3.390   6.238  2.4877  1.8095 -0.4491
 5154SOL     OW27094   1.526   3.158   5.008  0.2084 -0.2350 -0.0480
 5154SOL    HW127095   1.459   3.140   5.075 -0.2147 -1.9263 -0.9308
 5154SOL    HW227096   1.603   3.118   5.049 -0.7016 -1.9012  0.0275
 5155SOL     OW27097   0.839   3.750  14.099  0.0277  0.3499 -0.0006
 5155SOL    HW127098   0.878   3.812  14.037 -1.8130 -1.1167 -2.6610
 5155SOL    HW227099   0.832   3.678  14.036  1.4138  0.4024 -0.2163
 5156SOL     OW27100   1.680   2.096   6.028 -0.1441  0.3284  0.2141
 5156SOL    HW127101   1.624   2.089   5.951  0.6033  0.8879 -0.3729
 5156SOL    HW227102   1.623   2.112   6.103 -0.1823 -1.5200  0.5729
 5157SOL     OW27103   3.687   0.382   0.721 -0.2010 -0.1388 -0.0487
 5157SOL    HW127104   3.770   0.422   0.693 -0.7766  1.3591  0.3579
 5157SOL    HW227105   3.718   0.356   0.808  0.5114 -0.7272 -0.4679
 5158SOL     OW27106   0.332   4.222   1.953  0.0590 -0.9513  0.0356
 5158SOL    HW127107   0.280   4.290   1.996  1.8186  1.2121 -1.2478
 5158SOL    HW227108   0.272   4.193   1.884 -2.3014  2.4296  0.6650
 5159SOL     OW27109   2.810   4.005   4.032  0.2004 -0.0566 -0.0672
 5159SOL    HW127110   2.824   4.011   3.937 -1.3274  0.8446 -0.2254
 5159SOL    HW227111   2.777   3.915   4.036 -1.1135  0.3820 -0.8314
 5160SOL     OW27112   1.185   2.379   7.905 -0.0839 -0.4497  1.0177
 5160SOL    HW127113   1.170   2.293   7.943  0.3295 -0.3073  1.5043
 5160SOL    HW227114   1.235   2.431   7.968 -0.2891 -0.5307  1.2451
 5161SOL     OW27115   0.505   4.378   9.660  0.3834  0.7803  0.2625
 5161SOL    HW127116   0.441   4.448   9.676 -3.3341 -2.5133 -0.4840
 5161SOL    HW227117   0.526   4.395   9.568 -3.8956  1.2151 -0.6178
 5162SOL     OW27118   3.337   4.404   7.376  0.4108 -0.3650 -0.2157
 5162SOL    HW127119   3.264   4.380   7.318 -0.4333  2.5747 -0.3504
 5162SOL    HW227120   3.296   4.473   7.428 -1.1499 -2.0979  0.8718
 5163SOL     OW27121   2.222   2.696   2.659 -0.0046 -0.6008  0.4020
 5163SOL    HW127122   2.129   2.701   2.638  0.0693 -2.5458 -0.3945
 5163SOL    HW227123   2.230   2.758   2.731  1.0602  0.5176 -0.6656
 5164SOL     OW27124   1.394   3.615   2.743 -0.1387 -0.4705 -0.0538
 5164SOL    HW127125   1.459   3.625   2.673  0.1997 -1.6527  0.0899
 5164SOL    HW227126   1.332   3.687   2.730  2.2082  1.7537  1.1639
 5165SOL     OW27127   1.181   0.911  11.776  0.0910  0.1851 -0.0520
 5165SOL    HW127128   1.199   0.916  11.870 -0.7921  2.5846 -0.0149
 5165SOL    HW227129   1.177   1.004  11.753 -1.6740  0.7892  2.7637
 5166SOL     OW27130   0.846   0.596  16.527  0.3008  0.6820  0.0358
 5166SOL    HW127131   0.808   0.611  16.440 -0.5884 -1.4250  0.0497
 5166SOL    HW227132   0.816   0.679  16.564 -0.3623  0.2042  0.5733
 5167SOL     OW27133   0.456   3.370   3.293  0.4795  0.0017 -0.2560
 5167SOL    HW127134   0.516   3.432   3.252  1.2129 -0.2160  0.4865
 5167SOL    HW227135   0.369   3.405   3.274  0.0805 -1.0686 -0.4285
 5168SOL     OW27136   2.665   0.421  13.673  0.2817  0.3295 -0.7023
 5168SOL    HW127137   2.577   0.390  13.651 -0.2396  1.3417 -0.0366
 5168SOL    HW227138   2.709   0.393  13.593  0.9816  0.1600 -0.2509
 5169SOL     OW27139   0.008   1.922   8.411  0.1412  0.7985  0.1663
 5169SOL    HW127140   0.045   1.888   8.493 -1.1334 -2.3971 -0.6034
 5169SOL    HW227141   4.692   1.994   8.452  2.4513  2.4266  0.0778
 5170SOL     OW27142   3.893   1.748   7.530  0.4783 -0.3421 -0.0988
 5170SOL    HW127143   3.895   1.826   7.475 -0.8491 -1.1867 -1.3719
 5170SOL    HW227144   3.977   1.709   7.506  0.8388  0.5296 -0.2253
 5171SOL     OW27145   4.554   1.100   2.684 -0.0620 -0.6159  0.2089
 5171SOL    HW127146   4.539   1.005   2.688  1.4076 -0.9840 -2.9861
 5171SOL    HW227147   4.535   1.115   2.776  1.0591 -0.6457  0.4409
 5172SOL     OW27148   3.160   0.174   4.691 -0.6571 -0.1439  0.0113
 5172SOL    HW127149   3.209   0.091   4.690  1.0449  0.8540 -0.6655
 5172SOL    HW227150   3.101   0.168   4.616 -1.5565  2.5278  0.5183
 5173SOL     OW27151   4.425   1.604  16.244 -0.4149  0.1902 -0.0818
 5173SOL    HW127152   4.500   1.572  16.295  0.9560  0.5577 -1.9016
 5173SOL    HW227153   4.361   1.598  16.315 -0.4636 -1.8337 -0.2943
 5174SOL     OW27154   0.058   1.954   2.831 -0.0993 -0.2674 -0.1169
 5174SOL    HW127155   0.149   1.926   2.838 -0.3879 -1.2010 -0.0648
 5174SOL    HW227156   0.034   1.973   2.922  1.3583 -0.2752  0.2605
 5175SOL     OW27157   1.431   1.260   3.298  0.5778  0.3990 -0.3086
 5175SOL    HW127158   1.515   1.229   3.266  1.0854 -2.0605  3.3636
 5175SOL    HW227159   1.431   1.218   3.384 -2.1078  1.3436  0.1766
 5176SOL     OW27160   1.587   1.024  12.651 -0.3720 -0.2946  0.7394
 5176SOL    HW127161   1.532   1.030  12.729  1.8021 -0.3288  2.2579
 5176SOL    HW227162   1.674   1.010  12.688 -1.3336 -0.4089  2.9548
 5177SOL     OW27163   0.228   0.672   3.446  0.5772 -0.3157  0.0081
 5177SOL    HW127164   0.161   0.739   3.428 -0.8560 -2.4457 -2.5704
 5177SOL    HW227165   0.188   0.598   3.399 -0.1905  0.8214 -1.1435
 5178SOL     OW27166   1.516   4.169   9.270  0.0872 -0.6224 -0.3184
 5178SOL    HW127167   1.447   4.121   9.317  0.3366 -1.0293 -0.3693
 5178SOL    HW227168   1.583   4.101   9.274  1.4242  0.7418  0.2858
 5179SOL     OW27169   3.748   1.866   1.366 -0.4752  0.4461  0.1559
 5179SOL    HW127170   3.777   1.924   1.437 -1.2034  0.6810  0.2637
 5179SOL    HW227171   3.683   1.925   1.327  2.1335  3.1520 -0.1450
 5180SOL     OW27172   1.224   3.822   2.715  0.1117 -0.2553  0.2756
 5180SOL    HW127173   1.175   3.866   2.645  3.3336 -1.0801 -2.4846
 5180SOL    HW227174   1.262   3.895   2.764  0.1005  0.1017 -0.2455
 5181SOL     OW27175   4.015   2.015   8.237  0.7063 -0.4359 -0.2468
 5181SOL    HW127176   3.983   2.005   8.148 -2.2571  0.8277  0.6971
 5181SOL    HW227177   4.030   2.109   8.229  0.5345 -0.4270 -0.4498
 5182SOL     OW27178   0.360   3.390   8.071 -0.4105  0.3080  0.6342
 5182SOL    HW127179   0.362   3.343   8.154  1.9964 -0.8545 -0.0801
 5182SOL    HW227180   0.274   3.432   8.064 -1.1222 -1.7245 -2.5836
 5183SOL     OW27181   4.226   1.934   7.451  0.2074 -0.1783  0.6183
 5183SOL    HW127182   4.286   1.927   7.377  1.8669  1.1064  1.8501
 5183SOL    HW227183   4.143   1.920   7.405  0.3960  0.2413  0.1516
 5184SOL     OW27184   2.213   1.510  10.515  0.3098  0.0503 -0.3157
 5184SOL    HW127185   2.197   1.601  10.489  0.5125  1.0893  3.1768
 5184SOL    HW227186   2.282   1.516  10.581  0.1825 -3.2494  0.1136
 5185SOL     OW27187   1.133   4.078   7.183 -0.0811  0.2607 -0.2359
 5185SOL    HW127188   1.055   4.087   7.129  0.1792 -1.0703 -0.8218
 5185SOL    HW227189   1.162   3.990   7.161  1.7238  0.5636  0.9075
 5186SOL     OW27190   0.673   0.011  11.210 -0.0027  0.4477  0.0593
 5186SOL    HW127191   0.747   4.683  11.214  0.4128  0.9154 -0.5181
 5186SOL    HW227192   0.668   0.034  11.303 -0.5640  2.6879 -0.5224
 5187SOL     OW27193   1.437   2.443   5.531 -0.2047 -0.0089 -0.0578
 5187SOL    HW127194   1.356   2.451   5.481  0.2165 -1.5556 -0.9984
 5187SOL    HW227195   1.429   2.523   5.583 -0.1471 -0.3670  0.4942
 5188SOL     OW27196   1.641   3.359  11.202  0.2579 -0.1057  0.5920
 5188SOL    HW127197   1.665   3.435  11.149 -0.2224 -2.0183 -2.3661
 5188SOL    HW227198   1.564   3.382  11.254 -0.5137  0.3082 -0.7568
 5189SOL     OW27199   3.740   0.014   9.003  0.1068  0.2023 -0.1678
 5189SOL    HW127200   3.775   4.657   9.010  0.6889  0.4972  0.5862
 5189SOL    HW227201   3.821   0.060   8.982  0.8422 -1.0980 -0.2119
 5190SOL     OW27202   4.061   2.500   6.003 -1.1486  0.5273 -0.1583
 5190SOL    HW127203   4.073   2.486   6.097 -1.1568 -0.4469 -0.2957
 5190SOL    HW227204   4.071   2.408   5.977  0.5740  0.9022 -0.8059
 5191SOL     OW27205   2.589   4.560   8.324 -0.4665  0.2851 -0.3096
 5191SOL    HW127206   2.626   4.548   8.411 -0.0390 -0.2813 -0.5721
 5191SOL    HW227207   2.530   4.486   8.314  1.2391 -0.7894 -2.2732
 5192SOL     OW27208   3.959   1.946   7.365  0.0966  0.2594  0.3256
 5192SOL    HW127209   3.882   2.002   7.374 -0.4095 -0.5694  1.1930
 5192SOL    HW227210   3.996   1.985   7.286 -2.0941  1.0648 -0.3087
 5193SOL     OW27211   4.204   4.550   9.839  0.3572  0.3929 -0.0865
 5193SOL    HW127212   4.299   4.561   9.845  0.2462  0.1885  2.2449
 5193SOL    HW227213   4.180   4.510   9.923  0.1994  0.8794  0.0994
 5194SOL     OW27214   2.619   1.102   1.964  0.3204  0.2517  0.2767
 5194SOL    HW127215   2.543   1.133   2.014  0.2107 -0.5388  0.5970
 5194SOL    HW227216   2.627   1.180   1.909  1.7889  0.8478  1.3307
 5195SOL     OW27217   1.112   0.413   2.239 -0.2565  0.2381  0.1992
 5195SOL    HW127218   1.167   0.469   2.183  1.0976 -0.2832  1.0018
 5195SOL    HW227219   1.084   0.477   2.305  2.6696  0.3927  1.2712
 5196SOL     OW27220   1.341   3.394   8.491  0.0823 -0.1429 -0.3132
 5196SOL    HW127221   1.357   3.470   8.434 -0.1753 -0.5309 -0.8970
 5196SOL    HW227222   1.284   3.433   8.557  1.4585  0.3304  0.5907
 5197SOL     OW27223   3.246   2.536  15.966 -0.4394  0.5993 -0.2083
 5197SOL    HW127224   3.242   2.530  15.870  2.3540 -2.0479 -0.1585
 5197SOL    HW227225   3.230   2.630  15.977  0.3732  0.6677  0.4043
 5198SOL     OW27226   0.235   0.451   5.525 -0.1242  0.1314  1.1277
 5198SOL    HW127227   0.323   0.428   5.495 -0.3284  2.7835 -1.5342
 5198SOL    HW227228   0.192   0.461   5.440  0.1649  0.4186  1.0143
 5199SOL     OW27229   4.086   1.110   2.284 -0.1612 -0.4887  0.2100
 5199SOL    HW127230   4.043   1.048   2.343  0.3021 -2.1649 -1.1988
 5199SOL    HW227231   4.095   1.185   2.341 -0.9448  1.0273 -1.6622
 5200SOL     OW27232   0.532   1.055   7.481 -0.1414  0.4492 -0.0197
 5200SOL    HW127233   0.550   0.999   7.405  1.1403 -1.2220  1.5117
 5200SOL    HW227234   0.447   1.089   7.452  0.5357  3.2290  1.2037
 5201SOL     OW27235   3.426   4.699  15.796 -0.0769 -0.7514 -0.4095
 5201SOL    HW127236   3.435   0.051  15.840 -0.7433 -0.9981  0.2182
 5201SOL    HW227237   3.338   4.713  15.762 -0.3027 -2.8109 -0.6651
 5202SOL     OW27238   2.599   0.314   8.450 -0.4400 -0.5407 -0.2076
 5202SOL    HW127239   2.616   0.404   8.476  0.4714 -0.9041  0.4746
 5202SOL    HW227240   2.619   0.314   8.356 -0.1011 -0.1167 -0.1368
 5203SOL     OW27241   2.155   3.931   6.300  0.2302  0.2703  0.6804
 5203SOL    HW127242   2.239   3.927   6.254  0.9496 -0.3331  2.0401
 5203SOL    HW227243   2.118   4.007   6.255 -0.0415 -1.0527 -1.3257
 5204SOL     OW27244   1.901   2.174   7.462 -0.5390  0.2037 -0.0898
 5204SOL    HW127245   1.826   2.138   7.415 -0.4772 -1.7574  1.2960
 5204SOL    HW227246   1.966   2.126   7.411 -0.3782  0.3272 -0.0022
 5205SOL     OW27247   3.691   2.039   3.954  0.5784  0.1637  0.2037
 5205SOL    HW127248   3.733   2.061   3.871 -0.1513  0.3860 -0.1064
 5205SOL    HW227249   3.755   2.064   4.021  1.5421 -0.0922 -0.6225
 5206SOL     OW27250   4.431   2.567   2.986 -0.1643 -0.5256  0.5997
 5206SOL    HW127251   4.446   2.655   3.022  0.7010 -0.1289 -0.7283
 5206SOL    HW227252   4.348   2.543   3.027 -0.6944 -1.2867 -0.9055
 5207SOL     OW27253   2.664   0.418   6.455  0.4029 -0.1477  0.0510
 5207SOL    HW127254   2.639   0.438   6.545  0.3349 -1.7373  0.3954
 5207SOL    HW227255   2.576   0.396   6.422 -0.1963 -0.7402  2.0439
 5208SOL     OW27256   2.319   0.577  14.390 -0.0206 -0.3784 -0.6357
 5208SOL    HW127257   2.394   0.566  14.331 -0.7022 -1.4954 -1.2911
 5208SOL    HW227258   2.348   0.521  14.462 -0.2469 -0.4722 -0.6180
 5209SOL     OW27259   1.997   1.406  15.964  0.2407  0.6937  0.2101
 5209SOL    HW127260   1.975   1.476  15.902 -1.2541 -1.0216 -1.1949
 5209SOL    HW227261   1.972   1.331  15.910  0.8062  0.9911 -0.4749
 5210SOL     OW27262   2.951   3.479  16.819  0.1750 -0.0176  0.9489
 5210SOL    HW127263   2.970   3.456  16.728 -2.4287  2.1250 -0.1101
 5210SOL    HW227264   3.012   3.429  16.873  0.7491 -0.4800 -0.1204
 5211SOL     OW27265   2.730   2.682  10.602 -0.1937  0.0072  0.1651
 5211SOL    HW127266   2.641   2.675  10.567 -0.3082  0.2839  0.3941
 5211SOL    HW227267   2.726   2.619  10.673  3.7723 -0.4133  0.0209
 5212SOL     OW27268   1.351   0.136  12.767  0.1485  0.5975  0.0045
 5212SOL    HW127269   1.256   0.128  12.773  0.0602  0.9247 -0.9965
 5212SOL    HW227270   1.347   0.105  12.676  3.0787  3.4793 -1.1091
 5213SOL     OW27271   1.647   4.310   0.665 -0.0539  0.4842  0.3057
 5213SOL    HW127272   1.644   4.387   0.721  3.8586  0.4611  0.5388
 5213SOL    HW227273   1.692   4.249   0.722  1.5155 -0.7218 -2.2148
 5214SOL     OW27274   0.087   2.892   3.504  0.8426  0.4287 -0.2420
 5214SOL    HW127275   0.149   2.960   3.530  1.0184 -0.0884  0.6860
 5214SOL    HW227276   0.125   2.810   3.537  1.3325  0.0514 -1.7208
 5215SOL     OW27277   1.840   4.532  15.005  0.2088  0.0600  0.0105
 5215SOL    HW127278   1.872   4.622  15.012  1.1816 -0.2854 -0.1150
 5215SOL    HW227279   1.752   4.538  15.044  0.2273  1.3183 -0.1244
 5216SOL     OW27280   1.937   1.822   1.989  0.0304 -0.2382 -0.2478
 5216SOL    HW127281   1.927   1.909   2.027  0.7089 -0.6216  0.8063
 5216SOL    HW227282   1.897   1.770   2.059  0.0220  0.8324  0.5344
 5217SOL     OW27283   1.067   2.807  12.212  0.1084  1.2387  0.7997
 5217SOL    HW127284   1.033   2.732  12.261 -1.1395  0.3702 -1.4188
 5217SOL    HW227285   1.141   2.769  12.165 -1.4370  1.4737 -1.8255
 5218SOL     OW27286   2.528   4.024   6.767  0.0100  0.6302 -0.1400
 5218SOL    HW127287   2.541   3.957   6.835  0.2139  0.7939 -0.0165
 5218SOL    HW227288   2.532   3.969   6.689  0.9074 -0.6618  0.8036
 5219SOL     OW27289   1.802   3.373   4.871 -0.0816  0.0063  0.3505
 5219SOL    HW127290   1.862   3.310   4.911 -0.3627  0.5364  1.5955
 5219SOL    HW227291   1.857   3.451   4.865  1.2061 -0.7899  1.7952
 5220SOL     OW27292   3.741   0.949   1.685 -0.3277 -0.4280  0.7247
 5220SOL    HW127293   3.775   0.860   1.690  1.5804  0.3203  0.8048
 5220SOL    HW227294   3.762   0.984   1.772  2.6534  0.3623 -0.3303
 5221SOL     OW27295   0.976   3.282   8.601  0.0079  0.2040  0.3487
 5221SOL    HW127296   1.006   3.302   8.689 -0.5493  0.8787  0.3810
 5221SOL    HW227297   0.949   3.363   8.558 -0.4072  0.2090  0.6134
 5222SOL     OW27298   3.977   0.597   5.470 -0.3822  0.7093  0.2720
 5222SOL    HW127299   3.961   0.687   5.442 -1.2045  0.8325  1.1571
 5222SOL    HW227300   3.895   0.579   5.515 -2.1154  1.0246 -2.8125
 5223SOL     OW27301   0.666   3.167   9.156  0.4425  0.0641 -0.2569
 5223SOL    HW127302   0.624   3.100   9.210  0.5552 -0.1982 -0.4904
 5223SOL    HW227303   0.616   3.248   9.166 -2.1110 -1.5510  0.1165
 5224SOL     OW27304   2.763   4.172   6.779  0.0017  0.3034 -0.2191
 5224SOL    HW127305   2.792   4.240   6.719 -1.7511 -0.2624 -1.7089
 5224SOL    HW227306   2.686   4.132   6.739  0.7310 -0.9279 -0.3763
 5225SOL     OW27307   3.680   1.909   8.835 -0.1046  0.4184  0.0797
 5225SOL    HW127308   3.756   1.856   8.855 -0.1049  0.4944  0.2792
 5225SOL    HW227309   3.606   1.852   8.855  0.2740  0.4755  1.5930
 5226SOL     OW27310   4.106   1.673   0.013  0.0905 -0.2039  0.9492
 5226SOL    HW127311   4.134   1.583   0.031 -2.0531 -0.2221  4.2520
 5226SOL    HW227312   4.090   1.672  17.647  1.2363  0.1456  0.7561
 5227SOL     OW27313   3.060   1.511   1.653  0.0811  0.1023  0.4564
 5227SOL    HW127314   3.092   1.601   1.647 -0.2445  0.2708  1.3568
 5227SOL    HW227315   3.126   1.473   1.711 -0.3238  0.3420  1.0776
 5228SOL     OW27316   3.033   1.533   4.945 -0.3021 -0.2897 -0.4685
 5228SOL    HW127317   3.057   1.596   4.878 -0.7157 -0.7402 -1.0439
 5228SOL    HW227318   2.992   1.462   4.894 -0.8243 -0.4915  0.2233
 5229SOL     OW27319   0.547   3.919   6.023 -0.4361 -0.3887 -0.2553
 5229SOL    HW127320   0.636   3.946   6.042 -0.3928 -1.4257  1.0434
 5229SOL    HW227321   0.530   3.854   6.092  1.8209 -0.8264 -0.1158
 5230SOL     OW27322   2.187   2.433   3.997  0.0710 -0.1282 -0.2427
 5230SOL    HW127323   2.260   2.379   3.967  1.1170  1.3857 -0.4552
 5230SOL    HW227324   2.109   2.382   4.019  0.5257 -0.7917 -0.1758
 5231SOL     OW27325   0.870   0.634   5.828  0.2245  0.4969  0.0766
 5231SOL    HW127326   0.808   0.561   5.822 -0.1394  0.7242  1.0038
 5231SOL    HW227327   0.917   0.605   5.907 -0.1868 -0.1815  0.0689
 5232SOL     OW27328   1.061   1.168   8.928 -0.4968  0.0010 -0.0757
 5232SOL    HW127329   1.007   1.188   9.004 -0.4934 -0.1832 -0.0247
 5232SOL    HW227330   1.110   1.250   8.917 -1.2868  0.8707  3.0026
 5233SOL     OW27331   0.175   4.075   6.219  0.1780  0.0775  0.6495
 5233SOL    HW127332   0.187   4.038   6.306 -3.1878  0.4030  1.2377
 5233SOL    HW227333   0.269   4.080   6.198  0.3356 -0.6920  1.1785
 5234SOL     OW27334   4.488   1.046   0.023  0.3091  0.6016 -0.2037
 5234SOL    HW127335   4.520   1.039   0.113 -3.7118 -1.6482  1.0755
 5234SOL    HW227336   4.436   0.966   0.029 -1.3376  1.6566 -0.4311
 5235SOL     OW27337   0.601   1.304  15.399 -0.0601 -0.2509  0.6167
 5235SOL    HW127338   0.591   1.349  15.315  0.0538  0.7359  1.1429
 5235SOL    HW227339   0.672   1.356  15.437  0.5269 -0.3497 -0.3418
 5236SOL     OW27340   1.203   3.185   3.520  0.2598 -0.1500  0.5025
 5236SOL    HW127341   1.137   3.213   3.583 -0.5607  1.9639 -1.2809
 5236SOL    HW227342   1.211   3.096   3.554  0.9709  0.5891  2.2496
 5237SOL     OW27343   0.456   1.115   4.351  0.1283  0.0644  0.0044
 5237SOL    HW127344   0.456   1.046   4.284  0.9852 -0.3798  0.4659
 5237SOL    HW227345   0.550   1.133   4.357 -0.1880  0.8822  2.3023
 5238SOL     OW27346   3.832   1.351   2.837 -0.6004  1.0451 -0.2207
 5238SOL    HW127347   3.811   1.430   2.886 -0.6311  1.5945 -1.1218
 5238SOL    HW227348   3.902   1.378   2.778 -0.4182  0.2147 -0.3915
 5239SOL     OW27349   3.493   1.504   4.585  0.4294 -0.1927  0.2959
 5239SOL    HW127350   3.511   1.495   4.492 -2.1150  1.5853 -0.3631
 5239SOL    HW227351   3.437   1.581   4.600  0.6371  0.1123 -0.5141
 5240SOL     OW27352   4.194   1.275   5.295 -0.3799 -0.4897 -0.0562
 5240SOL    HW127353   4.271   1.227   5.264  1.5920  1.5549  1.6333
 5240SOL    HW227354   4.124   1.216   5.267  1.6075 -3.1401  0.5647
 5241SOL     OW27355   1.853   4.208   6.947 -0.0744  0.3175 -0.6446
 5241SOL    HW127356   1.869   4.119   6.979  0.5662  1.5768  2.4905
 5241SOL    HW227357   1.855   4.270   7.019 -0.5277 -0.0056 -0.3487
 5242SOL     OW27358   0.925   0.909   1.822 -0.1805  0.2278 -0.0007
 5242SOL    HW127359   1.000   0.926   1.880 -0.4960 -3.1136  1.3543
 5242SOL    HW227360   0.949   0.819   1.802  0.6704  0.4871 -0.1909
 5243SOL     OW27361   1.710   1.187   6.870  0.5322  0.0959 -0.3171
 5243SOL    HW127362   1.636   1.137   6.903 -0.4605  0.2204 -2.2985
 5243SOL    HW227363   1.684   1.276   6.896  0.3115  0.1194 -0.6149
 5244SOL     OW27364   1.065   1.836  10.359  0.3478  0.2228 -0.5822
 5244SOL    HW127365   1.063   1.915  10.305  0.3611 -0.3916 -1.4733
 5244SOL    HW227366   1.004   1.870  10.424  1.8858  1.8737  0.0045
 5245SOL     OW27367   1.890   4.594   4.896  0.0858  0.4267 -0.2624
 5245SOL    HW127368   1.838   4.555   4.965  0.4117  0.6874  0.1309
 5245SOL    HW227369   1.945   4.663   4.934  0.5908  1.9576 -3.7637
 5246SOL     OW27370   4.624   0.266   7.347  0.5051  0.3516 -0.2316
 5246SOL    HW127371   4.613   0.361   7.352 -0.5792  0.3321 -2.2979
 5246SOL    HW227372   4.718   0.261   7.368  0.8229  0.8615 -1.5224
 5247SOL     OW27373   2.954   2.471   3.878  0.2259  0.2902 -0.5097
 5247SOL    HW127374   2.966   2.432   3.964 -1.8002 -0.8698 -0.7518
 5247SOL    HW227375   2.885   2.533   3.899 -2.0321 -1.5808 -2.2945
 5248SOL     OW27376   4.096   1.011  12.075 -0.2060 -0.2822 -0.2827
 5248SOL    HW127377   4.042   0.973  12.144  1.5707 -0.5757  0.9249
 5248SOL    HW227378   4.033   1.027  12.004  0.3315 -0.1107 -0.7169
 5249SOL     OW27379   0.933   4.105   7.460  0.1131 -0.3435 -0.1231
 5249SOL    HW127380   0.944   4.021   7.414  1.7164 -0.3511  0.2826
 5249SOL    HW227381   0.878   4.080   7.535 -2.7552 -1.0890 -2.4398
 5250SOL     OW27382   1.991   2.832  17.364 -0.3092 -0.1398  0.1250
 5250SOL    HW127383   2.024   2.775  17.433 -2.6115  0.9884  2.1641
 5250SOL    HW227384   1.911   2.862  17.406 -0.2245  0.2314  0.0165
 5251SOL     OW27385   0.610   1.448   7.652  0.1534 -0.2637  0.1798
 5251SOL    HW127386   0.681   1.385   7.662 -0.1177 -0.2705  2.0149
 5251SOL    HW227387   0.537   1.386   7.658 -1.7190  1.9224  0.0048
 5252SOL     OW27388   0.185   3.909   7.101  0.1627 -0.0207 -0.1541
 5252SOL    HW127389   0.246   3.841   7.072  0.7227  0.7893 -0.8531
 5252SOL    HW227390   0.123   3.893   7.029  1.2037 -0.5051 -0.9497
 5253SOL     OW27391   3.861   1.673   6.914  0.0520  0.3812 -1.0201
 5253SOL    HW127392   3.955   1.687   6.924 -0.0287 -0.8344  1.5118
 5253SOL    HW227393   3.836   1.701   7.003  0.5859 -1.8816 -0.1465
 5254SOL     OW27394   4.588   3.128   2.402  0.4902  0.3280  0.0188
 5254SOL    HW127395   4.593   3.110   2.308  2.7608 -1.3687  0.4576
 5254SOL    HW227396   4.675   3.165   2.416  0.6068 -0.0554  0.3087
 5255SOL     OW27397   0.568   0.246   6.844  0.0698  0.2526  0.2788
 5255SOL    HW127398   0.628   0.237   6.918 -0.4628 -3.3997  0.2835
 5255SOL    HW227399   0.524   0.328   6.868 -1.7302 -0.0488 -2.0137
 5256SOL     OW27400   2.784   4.147   9.230  0.0072  0.2362 -0.7725
 5256SOL    HW127401   2.814   4.208   9.162  3.0885 -1.7240 -1.1468
 5256SOL    HW227402   2.691   4.165   9.219  0.0955  1.3966  0.2920
 5257SOL     OW27403   2.020   2.392   5.329 -0.3535  0.2075 -0.1759
 5257SOL    HW127404   2.052   2.353   5.248  1.9383  1.3889  0.1404
 5257SOL    HW227405   1.967   2.328   5.376 -0.4410  0.2904 -0.1618
 5258SOL     OW27406   1.068   2.909   3.425 -0.7271  0.2428  0.6311
 5258SOL    HW127407   1.002   2.909   3.355  0.8596  1.2112 -0.8767
 5258SOL    HW227408   1.144   2.908   3.366 -0.1724  0.9767  1.3289
 5259SOL     OW27409   2.377   3.415   6.111  0.2821  0.3786  0.3533
 5259SOL    HW127410   2.454   3.437   6.164  2.1708 -1.5131 -1.6447
 5259SOL    HW227411   2.309   3.442   6.173 -1.7983  2.2805 -2.7813
 5260SOL     OW27412   0.699   1.613  15.833  0.7587 -0.1437 -0.5505
 5260SOL    HW127413   0.650   1.532  15.815  2.4992 -1.9173  2.7102
 5260SOL    HW227414   0.751   1.589  15.910  0.3141 -0.1625 -0.2516
 5261SOL     OW27415   4.620   4.415   2.504  0.0152  0.4386  0.6779
 5261SOL    HW127416   4.674   4.337   2.488  0.4610  0.2079  3.2123
 5261SOL    HW227417   4.559   4.422   2.431 -0.2030 -2.0373  0.5987
 5262SOL     OW27418   2.219   2.215   6.106  0.4820  0.3498 -0.2395
 5262SOL    HW127419   2.193   2.268   6.182  0.9552  0.1899  0.0368
 5262SOL    HW227420   2.143   2.197   6.051 -1.5946  1.6338  2.1792
 5263SOL     OW27421   4.204   2.128   9.360 -0.5103  0.5544  0.3063
 5263SOL    HW127422   4.269   2.081   9.413 -0.5164  1.4492  1.0998
 5263SOL    HW227423   4.243   2.146   9.275  0.4403 -1.4229  0.3212
 5264SOL     OW27424   4.300   0.720   1.816 -0.2789 -0.5030 -0.1781
 5264SOL    HW127425   4.308   0.745   1.724  1.7288 -2.8108 -0.6480
 5264SOL    HW227426   4.379   0.666   1.819 -0.2132 -0.4419 -0.7107
 5265SOL     OW27427   4.692   2.024   4.119  0.5173  0.1210 -0.2606
 5265SOL    HW127428   4.625   1.994   4.058  0.9825  0.5194 -0.9699
 5265SOL    HW227429   4.669   2.113   4.146 -0.2915 -0.0696 -0.3305
 5266SOL     OW27430   1.913   1.588   3.534 -0.0082  0.0932 -0.5950
 5266SOL    HW127431   1.876   1.513   3.580 -2.4615 -0.1430 -2.9327
 5266SOL    HW227432   1.879   1.573   3.446  1.3485 -0.9241 -0.9413
 5267SOL     OW27433   4.548   4.303   5.619  0.7488  0.0423  0.1649
 5267SOL    HW127434   4.460   4.266   5.631  1.1431  0.2633  3.6352
 5267SOL    HW227435   4.595   4.220   5.615  2.6764  1.1371  0.0762
 5268SOL     OW27436   2.786   1.685  11.221 -0.0937 -0.7448 -0.0478
 5268SOL    HW127437   2.869   1.688  11.174 -0.7298  0.7178 -1.0823
 5268SOL    HW227438   2.772   1.590  11.225  1.5061 -1.0729 -2.0307
 5269SOL     OW27439   2.138   2.855   9.051  0.0182  0.2373  0.6074
 5269SOL    HW127440   2.103   2.846   8.962  1.2714 -0.0934  0.1341
 5269SOL    HW227441   2.118   2.945   9.075 -3.2756 -0.1311 -0.8281
 5270SOL     OW27442   2.721   4.713   8.713  0.1922 -0.0129 -0.3624
 5270SOL    HW127443   2.686   4.668   8.790  1.8079  0.9338  0.9276
 5270SOL    HW227444   2.694   4.645   8.652  1.6986  0.7604 -1.8975
 5271SOL     OW27445   0.431   3.537   5.994  0.7738  0.4032 -0.7368
 5271SOL    HW127446   0.478   3.555   5.913  1.2629 -0.1313 -0.5707
 5271SOL    HW227447   0.353   3.585   5.966 -0.2335 -1.2791 -0.7838
 5272SOL     OW27448   3.680   1.333   0.862  0.0908 -0.3428  0.0169
 5272SOL    HW127449   3.724   1.418   0.867  1.1611 -0.8016 -1.5865
 5272SOL    HW227450   3.711   1.287   0.940 -0.8808 -1.1094 -0.0424
 5273SOL     OW27451   2.905   2.878   7.267 -0.0839  0.0186 -0.4179
 5273SOL    HW127452   2.962   2.808   7.235  0.1096  0.3089 -0.7172
 5273SOL    HW227453   2.850   2.884   7.190 -0.0769  1.1187 -0.3389
 5274SOL     OW27454   1.003   2.692   2.915  0.1982  0.2753 -0.3442
 5274SOL    HW127455   1.025   2.651   2.998 -1.0968  1.6369  0.6701
 5274SOL    HW227456   0.910   2.670   2.915  0.1323  0.5849  1.3411
 5275SOL     OW27457   0.762   0.008   4.102  0.4524  0.1703 -0.8904
 5275SOL    HW127458   0.817   0.075   4.062  1.2664  0.0869  0.0850
 5275SOL    HW227459   0.802   4.658   4.073 -0.8228 -0.6746 -0.2880
 5276SOL     OW27460   2.645   0.091   0.227 -0.2358 -0.1811  0.0048
 5276SOL    HW127461   2.674   0.060   0.312  1.7995  2.4405  0.2793
 5276SOL    HW227462   2.655   0.008   0.179 -1.7972  1.4887 -3.2394
 5277SOL     OW27463   3.050   2.395  10.030  0.2277  0.1112 -0.6629
 5277SOL    HW127464   2.996   2.474  10.017 -1.8698 -1.3715 -1.0923
 5277SOL    HW227465   3.109   2.425  10.099  0.5936 -1.0137 -0.4938
 5278SOL     OW27466   4.473   3.017   3.741 -0.0766 -0.4559  0.2565
 5278SOL    HW127467   4.432   3.098   3.772  1.9895  0.6409  0.1074
 5278SOL    HW227468   4.511   3.048   3.659  0.2517 -3.4116 -0.7136
 5279SOL     OW27469   4.249   0.842   6.863 -0.0437  0.2505 -0.3975
 5279SOL    HW127470   4.262   0.769   6.803  0.6149 -0.2047  0.2922
 5279SOL    HW227471   4.166   0.832   6.909 -1.4725  0.2874 -2.9631
 5280SOL     OW27472   0.790   1.601   1.994 -0.0251  0.2666  0.7651
 5280SOL    HW127473   0.700   1.621   2.018 -0.1209  0.3252  0.3497
 5280SOL    HW227474   0.842   1.584   2.073  3.2882  0.2200 -1.4317
 5281SOL     OW27475   2.838   3.633   1.154  0.1878  0.3670 -0.1718
 5281SOL    HW127476   2.787   3.627   1.234 -0.0895  2.4798 -0.1873
 5281SOL    HW227477   2.789   3.603   1.078  0.2583  1.0272 -0.4780
 5282SOL     OW27478   2.446   3.306   3.084 -0.3521 -0.2671 -0.0586
 5282SOL    HW127479   2.481   3.390   3.055 -0.9104  0.4326  1.3079
 5282SOL    HW227480   2.413   3.336   3.169  0.9449  0.0445  0.3419
 5283SOL     OW27481   3.612   4.698   2.619  0.1193 -0.1296  0.0160
 5283SOL    HW127482   3.596   0.051   2.579 -2.0199 -2.3989 -3.9582
 5283SOL    HW227483   3.526   4.672   2.652  1.3490 -0.8098  2.6858
 5284SOL     OW27484   4.684   3.680  11.498  0.3379  0.0742  0.1016
 5284SOL    HW127485   4.670   3.773  11.482  0.4483  0.2104  0.8079
 5284SOL    HW227486   4.619   3.669  11.567 -0.1853  2.5294 -0.0083
 5285SOL     OW27487   3.469   2.591   3.080 -0.2466  0.1711 -0.5650
 5285SOL    HW127488   3.537   2.647   3.043  0.2595  1.4448  2.2709
 5285SOL    HW227489   3.395   2.650   3.066  0.7584  1.3275 -1.0066
 5286SOL     OW27490   2.684   2.868   7.429 -0.0981  0.7231  0.1269
 5286SOL    HW127491   2.769   2.865   7.385  0.5749  0.7573  1.4505
 5286SOL    HW227492   2.698   2.942   7.487  0.8479 -0.7441  1.7535
 5287SOL     OW27493   3.031   0.888   9.725  0.2624  0.3710  0.3333
 5287SOL    HW127494   2.964   0.955   9.727 -0.9210 -0.7472 -1.3641
 5287SOL    HW227495   3.095   0.935   9.778  0.1385 -0.7955  1.5244
 5288SOL     OW27496   0.005   3.434  14.050 -0.1116 -0.2817  0.2812
 5288SOL    HW127497   0.061   3.411  13.975  0.0928  1.1062  0.0104
 5288SOL    HW227498   4.649   3.405  14.029  0.4140 -1.6433 -0.1135
 5289SOL     OW27499   2.665   3.274   8.765  0.4689 -0.0947 -0.5416
 5289SOL    HW127500   2.571   3.290   8.761  0.5696  0.5970 -0.0943
 5289SOL    HW227501   2.680   3.252   8.673  2.8310  1.9887 -0.6353
 5290SOL     OW27502   0.310   0.327   8.289  0.1151 -0.2264  0.4739
 5290SOL    HW127503   0.263   0.308   8.208  0.7102  1.1301 -0.1998
 5290SOL    HW227504   0.397   0.344   8.253  1.1709 -0.3663  2.9366
 5291SOL     OW27505   4.462   0.736   7.603 -0.1435  0.7511  0.4702
 5291SOL    HW127506   4.441   0.654   7.557  0.6483 -0.6798  2.6571
 5291SOL    HW227507   4.460   0.813   7.546 -3.3860  0.6503  0.4449
 5292SOL     OW27508   4.042   4.361  13.741 -0.2741  0.0317 -0.5091
 5292SOL    HW127509   3.947   4.362  13.738 -0.2341 -0.5149 -2.1001
 5292SOL    HW227510   4.054   4.357  13.836 -1.2159  0.6283 -0.3686
 5293SOL     OW27511   0.678   2.337   6.764 -0.0900 -0.3306 -0.2924
 5293SOL    HW127512   0.768   2.329   6.732  0.0890  1.4570 -0.2743
 5293SOL    HW227513   0.683   2.433   6.764 -2.2360 -0.2096 -0.9736
 5294SOL     OW27514   1.396   0.823   5.809 -0.1595  0.4654 -0.2729
 5294SOL    HW127515   1.439   0.873   5.877  1.2390  0.6607 -1.3010
 5294SOL    HW227516   1.431   0.844   5.723  0.1340 -1.2416 -0.5789
 5295SOL     OW27517   3.668   2.976  11.743 -0.3482 -0.0841  0.2138
 5295SOL    HW127518   3.714   2.982  11.827  1.5457 -0.5339 -0.7900
 5295SOL    HW227519   3.593   3.031  11.763  0.1858  0.8890 -0.4893
 5296SOL     OW27520   4.300   0.728   2.837  0.1096  0.2801  0.3649
 5296SOL    HW127521   4.299   0.785   2.914  0.4008  1.3250 -0.4026
 5296SOL    HW227522   4.259   0.777   2.766  2.3023 -0.3144 -1.3572
 5297SOL     OW27523   2.102   1.912   6.008  0.6474  0.3408  0.4992
 5297SOL    HW127524   2.040   1.906   6.081  0.2653 -2.9573 -0.0978
 5297SOL    HW227525   2.040   1.882   5.942 -0.4328  0.8077  1.2931
 5298SOL     OW27526   1.937   3.391   5.552  0.1319 -0.0318 -0.5416
 5298SOL    HW127527   1.869   3.456   5.568 -1.0555 -1.1153 -1.1421
 5298SOL    HW227528   1.933   3.378   5.457  0.0289 -0.4036 -0.4862
 5299SOL     OW27529   0.347   2.413   2.425  0.4369  0.2468 -0.3050
 5299SOL    HW127530   0.339   2.323   2.458  0.7404  0.2933 -0.1024
 5299SOL    HW227531   0.402   2.462   2.487 -0.8399  1.8557 -0.4645
 5300SOL     OW27532   3.966   1.409  11.866  0.0752  0.0957  0.1912
 5300SOL    HW127533   4.028   1.372  11.929 -0.6357 -0.4134  0.5829
 5300SOL    HW227534   3.932   1.484  11.916 -0.6358 -0.4198  0.4765
 5301SOL     OW27535   3.598   0.171   5.256 -0.2012 -0.0151  0.0030
 5301SOL    HW127536   3.602   0.094   5.200  0.4295 -1.3767  1.9272
 5301SOL    HW227537   3.657   0.233   5.213 -0.3572  0.9100  1.1381
 5302SOL     OW27538   0.250   3.690   7.478  0.3744 -0.2691  0.3212
 5302SOL    HW127539   0.292   3.689   7.564  1.3023 -0.1222 -0.1325
 5302SOL    HW227540   0.306   3.741   7.420  0.3221 -0.2959  0.2466
 5303SOL     OW27541   0.643   1.239   3.557  0.3041 -0.5568  0.4741
 5303SOL    HW127542   0.697   1.313   3.532 -0.0449 -0.4949 -0.1078
 5303SOL    HW227543   0.605   1.277   3.636 -0.6356 -1.4396  0.4564
 5304SOL     OW27544   2.256   0.237  13.927  0.6703 -0.1939  0.5491
 5304SOL    HW127545   2.247   0.330  13.947  0.2964  0.0607 -0.8014
 5304SOL    HW227546   2.350   0.233  13.910  0.9591 -0.7361  2.2414
 5305SOL     OW27547   4.394   0.137   3.979 -0.0787 -0.2815  0.4332
 5305SOL    HW127548   4.422   0.124   4.070  1.7125  3.1179  0.3410
 5305SOL    HW227549   4.447   0.073   3.931  0.4603 -0.4173  1.2057
 5306SOL     OW27550   3.317   4.273  12.458  0.3484 -0.4970 -0.1488
 5306SOL    HW127551   3.230   4.238  12.476 -0.0032  1.1305  1.1989
 5306SOL    HW227552   3.310   4.313  12.371  0.0718  0.0109  0.1114
 5307SOL     OW27553   2.616   0.142   5.039  0.1697  0.0756  0.1024
 5307SOL    HW127554   2.601   0.225   4.993 -0.3117  0.5914  1.1876
 5307SOL    HW227555   2.707   0.125   5.014  0.2920  0.3446  0.3608
 5308SOL     OW27556   2.993   4.071  16.615  0.2083  0.3567  0.1096
 5308SOL    HW127557   3.080   4.071  16.575 -0.0510 -0.1452 -0.4474
 5308SOL    HW227558   3.010   4.133  16.686 -2.0095  3.2979 -1.9782
 5309SOL     OW27559   1.630   4.206   5.610  0.2095 -0.0861  0.2210
 5309SOL    HW127560   1.557   4.153   5.579 -1.5081  1.6621  1.2742
 5309SOL    HW227561   1.588   4.289   5.589  0.2400  0.1374  1.0515
 5310SOL     OW27562   4.129   2.322   2.387  0.4190  0.1300 -0.4794
 5310SOL    HW127563   4.209   2.351   2.432  0.7401  1.9355 -2.2463
 5310SOL    HW227564   4.074   2.399   2.403  0.6004  0.3349 -0.8582
 5311SOL     OW27565   0.252   3.346   8.678 -0.1086 -0.2853  0.2686
 5311SOL    HW127566   0.203   3.292   8.616  0.7802 -3.4708  2.3513
 5311SOL    HW227567   0.305   3.281   8.724 -0.9237 -0.2198  1.2965
 5312SOL     OW27568   1.054   0.990   8.608  0.3269  0.3244 -0.5322
 5312SOL    HW127569   1.024   0.901   8.595  3.2957 -0.9557  1.3297
 5312SOL    HW227570   1.029   1.033   8.526 -0.7951 -0.6667 -0.6926
 5313SOL     OW27571   2.609   1.624  10.845 -0.1066 -0.4593 -0.5193
 5313SOL    HW127572   2.703   1.612  10.857 -0.3771 -1.1103  0.9768
 5313SOL    HW227573   2.578   1.534  10.853 -1.1119 -0.2199 -1.6737
 5314SOL     OW27574   3.875   0.209   8.612  0.0094 -0.4303 -0.1047
 5314SOL    HW127575   3.846   0.288   8.656 -1.1243 -0.4434 -0.8216
 5314SOL    HW227576   3.790   0.170   8.591 -0.3883  0.0441  0.6398
 5315SOL     OW27577   3.502   3.201   3.612  0.3823 -0.1124 -0.3625
 5315SOL    HW127578   3.459   3.262   3.672  3.5551  1.2751  0.4802
 5315SOL    HW227579   3.491   3.117   3.658 -0.4474 -0.9880 -2.1663
 5316SOL     OW27580   1.822   2.866   8.498  0.6132 -0.1013  0.0629
 5316SOL    HW127581   1.765   2.790   8.507  1.3804 -1.0150 -3.0811
 5316SOL    HW227582   1.907   2.824   8.487  1.2233  0.6799  1.7456
 5317SOL     OW27583   2.678   1.370   0.470  0.4827 -0.3700  0.2869
 5317SOL    HW127584   2.720   1.295   0.513  0.6132 -0.8961 -0.7268
 5317SOL    HW227585   2.604   1.392   0.526  0.0848  0.4511 -0.5581
 5318SOL     OW27586   0.220   3.728  11.542 -0.9601  0.1150  0.2245
 5318SOL    HW127587   0.215   3.753  11.450  1.5531 -0.5305 -0.0916
 5318SOL    HW227588   0.138   3.679  11.551 -0.7233 -0.5173 -1.2055
 5319SOL     OW27589   1.360   3.424   3.969 -0.3838  0.4164  0.2394
 5319SOL    HW127590   1.269   3.455   3.964 -1.1842 -1.6345  1.8903
 5319SOL    HW227591   1.406   3.505   3.992  0.0667  0.4092 -0.6507
 5320SOL     OW27592   1.855   0.796   4.782  1.1251  0.4072 -0.1221
 5320SOL    HW127593   1.931   0.751   4.819  1.9485  0.7094 -1.4658
 5320SOL    HW227594   1.787   0.734   4.808  1.2070  0.0552 -0.7440
 5321SOL     OW27595   2.084   2.076   6.881  0.0235  0.0900  0.0991
 5321SOL    HW127596   2.053   2.089   6.792  1.4134  0.8074 -0.2653
 5321SOL    HW227597   2.106   2.165   6.906 -1.7880  1.2446 -2.4639
 5322SOL     OW27598   0.282   2.457   3.057 -0.3519  0.7113 -0.1096
 5322SOL    HW127599   0.278   2.550   3.080 -0.7849  0.1945  1.9335
 5322SOL    HW227600   0.188   2.441   3.058 -0.1218 -0.6872 -2.2632
 5323SOL     OW27601   4.487   1.001  16.540  0.7432  0.6918  0.3927
 5323SOL    HW127602   4.426   0.943  16.585  2.3598  1.0779  3.0845
 5323SOL    HW227603   4.558   0.938  16.528  0.9743  0.8013  1.2073
 5324SOL     OW27604   0.942   3.639   6.816 -0.3059  0.3257  0.1163
 5324SOL    HW127605   0.960   3.664   6.906  2.3316 -0.9672 -0.0442
 5324SOL    HW227606   0.913   3.550   6.835  1.1998 -0.8390 -2.9060
 5325SOL     OW27607   1.146   1.697   7.439 -0.3617  0.2278 -0.0159
 5325SOL    HW127608   1.188   1.770   7.484  2.1204 -0.9769 -0.3392
 5325SOL    HW227609   1.161   1.723   7.348  1.6464  1.4025  0.6527
 5326SOL     OW27610   4.326   2.088   5.852  0.2835 -0.2283  0.0781
 5326SOL    HW127611   4.355   2.081   5.761  1.3134 -0.4439  0.4186
 5326SOL    HW227612   4.312   1.999   5.885  0.3735 -0.6403 -1.0080
 5327SOL     OW27613   0.643   3.842  17.122  0.3278  0.3138  0.8316
 5327SOL    HW127614   0.566   3.834  17.065  2.1385 -1.5072 -1.3065
 5327SOL    HW227615   0.693   3.910  17.078  2.4460 -2.3286 -0.8058
 5328SOL     OW27616   0.674   3.425   6.238  0.3809  0.2754  0.1467
 5328SOL    HW127617   0.582   3.443   6.253  0.2868  0.2978 -0.4670
 5328SOL    HW227618   0.700   3.500   6.184  0.4747 -1.9606 -2.9446
 5329SOL     OW27619   0.626   0.517   8.051  0.5061  0.1442 -0.1563
 5329SOL    HW127620   0.574   0.596   8.059  1.5494  0.8380 -0.2350
 5329SOL    HW227621   0.627   0.499   8.145  1.4380  0.4953 -0.0929
 5330SOL     OW27622   4.647   3.421   9.160 -0.0412 -0.4624  0.2671
 5330SOL    HW127623   4.608   3.343   9.198 -0.6111 -0.0191  0.5934
 5330SOL    HW227624   4.653   3.391   9.069  3.4683  1.0847  0.0037
 5331SOL     OW27625   1.227   2.854   2.479 -0.1064  0.2924 -0.4123
 5331SOL    HW127626   1.181   2.869   2.562  1.7005 -2.9781  1.1482
 5331SOL    HW227627   1.209   2.764   2.454 -0.6083 -0.0371  1.1076
 5332SOL     OW27628   3.103   2.868   6.732  0.0662  0.1939 -0.1335
 5332SOL    HW127629   3.100   2.822   6.648  0.4551 -1.0538  0.5203
 5332SOL    HW227630   3.165   2.812   6.780 -1.5130  0.3049  2.0421
 5333SOL     OW27631   4.707   2.998   5.589  0.3366  0.0625  0.0802
 5333SOL    HW127632   4.695   3.092   5.580 -0.9408  0.1105  2.1515
 5333SOL    HW227633   4.696   2.970   5.498  1.6723  0.4538 -0.1934
 5334SOL     OW27634   1.971   2.419   7.540  0.2006 -0.1457 -0.0293
 5334SOL    HW127635   1.939   2.330   7.524 -0.2225  0.2319 -1.2706
 5334SOL    HW227636   2.020   2.415   7.622  0.3588 -0.7551 -0.1553
 5335SOL     OW27637   2.317   3.983   1.987 -0.2778 -0.2261 -0.1390
 5335SOL    HW127638   2.235   3.955   2.027  0.0427  0.3816  0.9259
 5335SOL    HW227639   2.378   3.970   2.059  0.5508 -0.6080 -0.9083
 5336SOL     OW27640   1.125   1.105  14.218 -0.4380  0.2391  0.2675
 5336SOL    HW127641   1.187   1.033  14.207  0.1285  0.5250  1.5629
 5336SOL    HW227642   1.070   1.076  14.290 -2.0228 -3.0888 -2.2806
 5337SOL     OW27643   3.499   3.802  14.291 -0.0762  0.3147 -0.1171
 5337SOL    HW127644   3.440   3.759  14.352 -0.1778  0.4724 -0.1047
 5337SOL    HW227645   3.471   3.894  14.293 -1.6350 -0.1810  0.3786
 5338SOL     OW27646   4.610   1.136   0.705 -0.2654  0.5461 -0.1099
 5338SOL    HW127647   4.629   1.051   0.667  2.0671  0.6489  0.7981
 5338SOL    HW227648   4.679   1.130   0.772  0.1330  0.8198 -0.4975
 5339SOL     OW27649   4.458   1.054  13.119 -0.1652  0.0060 -0.6370
 5339SOL    HW127650   4.519   1.003  13.171 -1.4964 -0.9499 -0.0118
 5339SOL    HW227651   4.456   1.007  13.036 -0.5975  0.3355 -0.8165
 5340SOL     OW27652   3.902   3.371   3.115 -0.4664  0.1319 -0.3023
 5340SOL    HW127653   3.815   3.398   3.145  0.2765  1.5578  0.5592
 5340SOL    HW227654   3.948   3.455   3.126 -0.1806  0.2106 -2.2048
 5341SOL     OW27655   0.626   3.394  10.962  0.1972 -0.1482 -0.1882
 5341SOL    HW127656   0.700   3.450  10.938  0.6576 -0.6695  0.0071
 5341SOL    HW227657   0.557   3.450  10.926  0.1641 -0.4819 -0.6442
 5342SOL     OW27658   4.362   1.785  17.709 -0.9697 -0.4848  0.5010
 5342SOL    HW127659   4.360   1.873  17.671 -3.3429 -1.0130 -0.6050
 5342SOL    HW227660   4.271   1.763  17.727 -0.9715 -0.5818  0.3678
 5343SOL     OW27661   4.221   4.416  10.951 -0.0065 -1.1320  0.1185
 5343SOL    HW127662   4.299   4.376  10.990 -1.2653 -0.7725  2.9933
 5343SOL    HW227663   4.260   4.440  10.867 -1.0313  1.7904  0.4851
 5344SOL     OW27664   3.087   0.588   7.459 -0.5241  0.3131 -0.5380
 5344SOL    HW127665   3.047   0.513   7.502 -1.1205  1.3464  0.7174
 5344SOL    HW227666   3.018   0.653   7.446 -2.0264 -0.8294  1.6275
 5345SOL     OW27667   0.994   3.265  16.083 -0.1102  0.4249  0.5038
 5345SOL    HW127668   0.926   3.275  16.150  1.2248  0.8472  1.8214
 5345SOL    HW227669   0.953   3.186  16.049 -2.4410  1.0971  1.7682
 5346SOL     OW27670   4.425   1.883  15.845 -0.3185 -0.1497 -0.3792
 5346SOL    HW127671   4.458   1.847  15.762  1.3887 -2.6679  1.3908
 5346SOL    HW227672   4.330   1.875  15.847 -0.3567  1.2629  2.3566
 5347SOL     OW27673   0.728   1.434   4.267 -0.0340  0.3264  0.2637
 5347SOL    HW127674   0.727   1.490   4.345  0.9329 -0.5066  0.8674
 5347SOL    HW227675   0.710   1.347   4.303 -0.3026  0.8416  1.3767
 5348SOL     OW27676   3.235   4.409   1.996  0.2021 -0.3148  0.1057
 5348SOL    HW127677   3.322   4.379   2.023  1.2022 -0.1836 -3.0473
 5348SOL    HW227678   3.263   4.478   1.936  2.9257 -0.5114  1.1382
 5349SOL     OW27679   3.300   3.099  13.125  0.0499 -0.4199 -0.4283
 5349SOL    HW127680   3.383   3.109  13.079  0.1633  1.7100  0.2447
 5349SOL    HW227681   3.239   3.122  13.055  1.2146  1.4064 -0.8612
 5350SOL     OW27682   2.343   4.712   6.819  0.9988 -0.9105 -0.4286
 5350SOL    HW127683   2.262   4.691   6.865  1.2364 -0.0999  0.3524
 5350SOL    HW227684   2.398   0.011   6.892 -1.1866  0.2886  0.7104
 5351SOL     OW27685   3.777   0.207   6.040  0.3012 -0.5476 -0.0853
 5351SOL    HW127686   3.852   0.262   6.017 -1.5541  2.0839  0.0642
 5351SOL    HW227687   3.723   0.272   6.086 -0.4232 -1.7163  0.7255
 5352SOL     OW27688   3.216   0.519   1.965 -0.1918  0.2449  0.1164
 5352SOL    HW127689   3.284   0.485   1.906 -0.0295  0.8246 -0.0276
 5352SOL    HW227690   3.252   0.607   1.975 -0.4708  0.5147 -1.1698
 5353SOL     OW27691   4.103   2.322   8.483 -0.5000  0.1978  0.3618
 5353SOL    HW127692   4.122   2.306   8.391  1.1591 -0.9801  0.8993
 5353SOL    HW227693   4.009   2.301   8.482 -0.4106 -0.2232  0.6139
 5354SOL     OW27694   2.637   4.096   0.981  0.0877  0.5502 -0.0953
 5354SOL    HW127695   2.708   4.121   1.039 -0.5427 -1.8049  1.6875
 5354SOL    HW227696   2.609   4.011   1.014 -2.3970  0.6104 -2.0624
 5355SOL     OW27697   1.613   1.861   2.023  0.2604  0.1302  0.5566
 5355SOL    HW127698   1.624   1.766   2.025 -1.3457  0.0081  3.6003
 5355SOL    HW227699   1.642   1.890   2.110  1.8839  1.4988 -0.4401
 5356SOL     OW27700   0.771   4.696   8.637 -0.1243 -0.3950  0.5215
 5356SOL    HW127701   0.779   4.693   8.733 -1.9197  0.4448  0.6939
 5356SOL    HW227702   0.861   4.677   8.609 -0.0179 -1.2196  1.4031
 5357SOL     OW27703   0.893   3.271  13.499 -0.4003 -0.2303 -0.4753
 5357SOL    HW127704   0.893   3.350  13.445 -0.0282 -0.4479 -0.7973
 5357SOL    HW227705   0.919   3.212  13.427 -1.6188 -0.3996 -0.7775
 5358SOL     OW27706   1.738   2.659   2.397  0.2772  0.7985 -0.3992
 5358SOL    HW127707   1.660   2.694   2.354 -0.4194  0.4006  0.5323
 5358SOL    HW227708   1.705   2.606   2.470  2.6284  0.5918  0.4953
 5359SOL     OW27709   3.456   1.154   3.900 -0.0090 -0.2139 -0.3621
 5359SOL    HW127710   3.436   1.070   3.858  1.7097 -1.4424  1.2122
 5359SOL    HW227711   3.514   1.129   3.972  1.1267 -1.4471 -1.6968
 5360SOL     OW27712   1.594   4.150   1.938 -0.1538 -0.2914  0.6080
 5360SOL    HW127713   1.531   4.133   1.868  0.9647  1.1639 -0.7532
 5360SOL    HW227714   1.540   4.122   2.012 -1.7476 -2.4629 -1.4218
 5361SOL     OW27715   2.243   0.656   4.148 -1.1058 -0.0159 -0.3622
 5361SOL    HW127716   2.331   0.620   4.148 -1.4983 -0.9981 -2.1591
 5361SOL    HW227717   2.236   0.688   4.238  1.6355  2.1403 -0.9353
 5362SOL     OW27718   0.765   2.398   5.634  0.1177  0.4105 -0.1706
 5362SOL    HW127719   0.708   2.334   5.675  1.2672  0.3689  1.3526
 5362SOL    HW227720   0.782   2.352   5.552  0.8777 -0.8792  0.7160
 5363SOL     OW27721   4.626   2.606   8.844  1.1643  0.3706  0.4076
 5363SOL    HW127722   4.720   2.599   8.863  1.1500  0.5251  0.5334
 5363SOL    HW227723   4.621   2.684   8.789 -0.2159  0.6708  0.9832
 5364SOL     OW27724   0.246   2.206   1.413  0.1887  0.3817  0.1103
 5364SOL    HW127725   0.199   2.126   1.437  0.3881 -0.2112 -1.4422
 5364SOL    HW227726   0.332   2.170   1.391 -0.0997 -0.1323 -0.1687
 5365SOL     OW27727   1.278   0.294   5.998 -0.2634  0.7119 -0.6156
 5365SOL    HW127728   1.348   0.235   6.026  0.0231  1.8845  1.1519
 5365SOL    HW227729   1.264   0.277   5.905  0.1966  0.1591 -0.5817
 5366SOL     OW27730   1.575   2.158   0.029  0.5431 -0.3780  0.1945
 5366SOL    HW127731   1.546   2.162  17.666 -0.8416 -0.9027  0.6112
 5366SOL    HW227732   1.669   2.172   0.018  0.4136  1.0259  0.9851
 5367SOL     OW27733   1.393   1.581   7.332  0.0752 -0.0411 -0.0046
 5367SOL    HW127734   1.384   1.520   7.405 -2.1039 -0.2807 -0.4655
 5367SOL    HW227735   1.343   1.542   7.260  2.4664  0.8965 -2.1970
 5368SOL     OW27736   3.245   0.386   0.612  0.3791  0.3359 -0.3219
 5368SOL    HW127737   3.265   0.338   0.532 -0.5846  2.2211 -1.7028
 5368SOL    HW227738   3.291   0.334   0.678  0.9632  1.7368  0.3728
 5369SOL     OW27739   2.010   1.579  13.921 -0.2887 -0.3574  0.4197
 5369SOL    HW127740   2.040   1.566  13.831 -2.6225  1.1559 -0.5894
 5369SOL    HW227741   2.065   1.657  13.926 -1.1639  0.2164  1.1317
 5370SOL     OW27742   4.358   2.782  14.308  0.1619  0.1601 -0.1090
 5370SOL    HW127743   4.430   2.772  14.370  0.0433 -0.3175 -0.0498
 5370SOL    HW227744   4.291   2.743  14.364  0.4487 -1.5729 -0.9721
 5371SOL     OW27745   4.248   0.590   2.081  0.0286 -0.0861  0.1755
 5371SOL    HW127746   4.248   0.652   2.009 -1.5742 -0.3827 -0.0879
 5371SOL    HW227747   4.223   0.509   2.037 -0.4061  0.0444  0.1848
 5372SOL     OW27748   3.655   2.362   5.457 -0.3666  0.4826  0.4761
 5372SOL    HW127749   3.610   2.339   5.376 -0.0908  0.4017  0.3475
 5372SOL    HW227750   3.609   2.444   5.475  0.6453  1.2940 -0.5618
 5373SOL     OW27751   1.084   4.698   3.514 -0.4203 -0.3721 -0.3355
 5373SOL    HW127752   1.085   0.012   3.430 -0.2400  1.4890  0.6815
 5373SOL    HW227753   1.048   4.612   3.493  0.5771 -0.6255 -0.9890
 5374SOL     OW27754   2.224   2.512   8.836  0.2872 -0.0775 -0.6478
 5374SOL    HW127755   2.167   2.584   8.810 -1.8966 -1.4456  0.3568
 5374SOL    HW227756   2.206   2.451   8.764  1.6218 -0.7181 -0.4477
 5375SOL     OW27757   3.331   0.551   7.657 -0.0706 -0.1256  0.2397
 5375SOL    HW127758   3.394   0.478   7.655  0.8486  0.7671 -2.8156
 5375SOL    HW227759   3.345   0.601   7.577 -0.3181 -0.1390  0.1872
 5376SOL     OW27760   4.249   2.716   7.212 -0.4427 -0.3349  0.5622
 5376SOL    HW127761   4.171   2.769   7.198 -0.2941 -0.5440 -1.1106
 5376SOL    HW227762   4.309   2.780   7.174 -0.9111 -0.7518 -0.8822
 5377SOL     OW27763   0.690   2.647   9.876 -0.2043  0.0487  0.0679
 5377SOL    HW127764   0.598   2.634   9.899 -0.2478 -0.4738 -0.4093
 5377SOL    HW227765   0.678   2.734   9.837  1.5248  0.7839  1.1927
 5378SOL     OW27766   0.000   4.416   3.650 -0.4407 -0.1596 -0.0307
 5378SOL    HW127767   4.642   4.412   3.682 -0.2666  2.3013  0.7224
 5378SOL    HW227768   0.037   4.426   3.738 -0.1989 -1.0650 -0.0276
 5379SOL     OW27769   0.879   3.014   7.732  0.6683 -0.0233  0.1181
 5379SOL    HW127770   0.883   3.108   7.749  1.0657  0.4725 -2.7414
 5379SOL    HW227771   0.787   3.009   7.706  0.1417 -0.4629  2.1089
 5380SOL     OW27772   3.254   1.378  10.442  0.3720 -0.5676 -0.2013
 5380SOL    HW127773   3.184   1.394  10.506  1.3424  1.8256  0.2416
 5380SOL    HW227774   3.232   1.286  10.424 -0.1831 -0.4671 -0.0343
 5381SOL     OW27775   0.629   1.872   7.932  0.6917 -0.1221 -0.0813
 5381SOL    HW127776   0.645   1.789   7.887 -1.8486 -0.5610 -0.1985
 5381SOL    HW227777   0.538   1.882   7.903  0.0665 -1.4720  1.4480
 5382SOL     OW27778   2.047   0.099  17.274 -0.0214 -0.2687  0.1251
 5382SOL    HW127779   2.043   0.192  17.252 -0.2143 -0.6663 -1.5276
 5382SOL    HW227780   2.055   0.063  17.186 -1.3322 -0.4360  0.0746
 5383SOL     OW27781   2.009   2.046   2.952 -0.3307 -0.3416  0.7190
 5383SOL    HW127782   1.941   1.992   2.991 -0.4281 -1.4177 -0.9281
 5383SOL    HW227783   2.079   2.013   3.008 -0.0360 -0.1880  0.4450
 5384SOL     OW27784   3.584   3.779   9.228 -0.0792 -0.4298 -0.5786
 5384SOL    HW127785   3.606   3.847   9.292 -0.8980 -0.0064 -0.7353
 5384SOL    HW227786   3.504   3.810   9.185 -0.2645  0.5085  0.4367
 5385SOL     OW27787   1.056   3.347   5.170  0.1159  0.5434 -0.3918
 5385SOL    HW127788   1.111   3.354   5.248  1.1202 -1.9078 -0.8921
 5385SOL    HW227789   0.981   3.393   5.208 -0.5049 -0.3935 -0.4873
 5386SOL     OW27790   3.554   0.212  11.909  0.0188 -0.0286  0.4888
 5386SOL    HW127791   3.562   0.244  11.819 -0.4732  3.7328  1.7827
 5386SOL    HW227792   3.546   0.117  11.899  1.8810 -0.0259 -1.0587
 5387SOL     OW27793   1.009   2.134   8.330 -0.5200 -0.3946  0.1331
 5387SOL    HW127794   1.095   2.094   8.348  0.2658  0.6997 -1.2403
 5387SOL    HW227795   0.980   2.141   8.421 -0.0197 -1.1411  0.3546
 5388SOL     OW27796   3.131   2.183  14.652  0.0494  0.1253 -0.1090
 5388SOL    HW127797   3.112   2.259  14.597 -0.1302 -0.1580 -0.4404
 5388SOL    HW227798   3.044   2.168  14.688  0.2891 -1.8973 -0.3359
 5389SOL     OW27799   2.012   3.173   7.438 -0.4510 -0.2685 -0.3898
 5389SOL    HW127800   2.083   3.109   7.451 -2.1222 -1.5726  2.3592
 5389SOL    HW227801   2.040   3.253   7.483  1.2327 -0.9253 -0.2604
 5390SOL     OW27802   2.014   4.115   4.936  0.0251 -0.0889  0.5890
 5390SOL    HW127803   2.051   4.117   5.024  0.6753  2.1861  0.2678
 5390SOL    HW227804   2.016   4.206   4.905  1.1217 -0.6759 -1.0072
 5391SOL     OW27805   1.185   0.480   9.244 -0.9601  0.0652  0.2921
 5391SOL    HW127806   1.135   0.442   9.173 -0.9637  0.1794  0.2330
 5391SOL    HW227807   1.261   0.422   9.250  0.3704  1.6501 -1.0089
 5392SOL     OW27808   2.516   2.198   6.144  0.0218 -0.3849 -0.2919
 5392SOL    HW127809   2.555   2.127   6.093  0.6725 -0.5884  0.5013
 5392SOL    HW227810   2.424   2.177   6.158  0.5971 -0.8219  2.7213
 5393SOL     OW27811   3.049   3.126   9.537 -0.3119 -0.4178 -0.3623
 5393SOL    HW127812   3.007   3.180   9.604 -0.3782  1.8665 -2.2327
 5393SOL    HW227813   2.976   3.069   9.512 -1.2043  0.1831  0.8776
 5394SOL     OW27814   1.171   3.125   5.954  0.2218 -0.0972 -0.0466
 5394SOL    HW127815   1.265   3.140   5.946  0.2565 -0.1134  0.3158
 5394SOL    HW227816   1.167   3.034   5.983  2.0062  0.6374  2.5235
 5395SOL     OW27817   4.690   3.535   5.268  0.5673 -0.4346 -0.1332
 5395SOL    HW127818   4.679   3.586   5.188  1.1730  1.1519  0.7903
 5395SOL    HW227819   4.637   3.457   5.254 -1.5488  1.3615 -2.1534
 5396SOL     OW27820   1.300   2.917   9.523 -0.1407  0.5400 -0.9263
 5396SOL    HW127821   1.339   2.845   9.474 -0.6740 -0.3722 -0.0164
 5396SOL    HW227822   1.347   2.991   9.485  0.5324 -0.0103 -1.1722
 5397SOL     OW27823   1.972   0.608   9.608 -0.6431 -0.1919 -0.0430
 5397SOL    HW127824   1.998   0.585   9.519  0.7513  2.8753 -0.4345
 5397SOL    HW227825   2.037   0.675   9.626  1.2978 -1.9306 -0.6425
 5398SOL     OW27826   2.874   3.184   7.803  0.1485 -0.1320 -0.0584
 5398SOL    HW127827   2.857   3.157   7.893  2.0042 -0.6239  0.1536
 5398SOL    HW227828   2.900   3.272   7.831  0.2916 -0.5470  1.1508
 5399SOL     OW27829   3.741   1.204   6.509 -0.1936 -0.2483 -1.0017
 5399SOL    HW127830   3.801   1.256   6.456  0.1660  0.8124  0.4609
 5399SOL    HW227831   3.726   1.261   6.584  0.2279 -1.1022 -0.2605
 5400SOL     OW27832   3.314   4.064  11.145 -0.0187  0.0804  0.0037
 5400SOL    HW127833   3.399   4.107  11.138  0.4789 -0.9446 -0.2008
 5400SOL    HW227834   3.331   3.980  11.102 -3.0135 -0.4864 -0.0715
 5401SOL     OW27835   1.380   4.199  11.906  0.3286  0.2123  0.4803
 5401SOL    HW127836   1.339   4.284  11.885  2.3240  1.9097  3.5430
 5401SOL    HW227837   1.457   4.205  11.850  1.1222 -0.6665  1.4988
 5402SOL     OW27838   2.950   1.415   1.901 -0.1630 -0.0873  0.2815
 5402SOL    HW127839   2.987   1.479   1.840  1.4666  0.2895  1.6773
 5402SOL    HW227840   2.874   1.463   1.934 -0.6292  0.1315 -1.0910
 5403SOL     OW27841   1.647   1.270   0.400 -0.4324  0.2155 -0.1559
 5403SOL    HW127842   1.559   1.308   0.395 -0.8568 -0.4296  2.0430
 5403SOL    HW227843   1.646   1.230   0.487 -0.7903 -2.3628 -1.3644
 5404SOL     OW27844   0.562   3.959   6.604 -0.2662 -0.1443 -0.3152
 5404SOL    HW127845   0.579   4.044   6.644  5.7180 -1.5707  0.2971
 5404SOL    HW227846   0.651   3.925   6.589 -0.1477 -0.0802  0.2675
 5405SOL     OW27847   0.896   0.309   6.883 -0.4324 -0.5590  0.0828
 5405SOL    HW127848   0.990   0.319   6.865 -0.2416  0.0187  1.4389
 5405SOL    HW227849   0.861   0.346   6.802  0.4864 -2.1382 -1.0433
 5406SOL     OW27850   3.689   3.621   1.943  0.1959  0.3465  0.4564
 5406SOL    HW127851   3.716   3.587   1.857 -2.3970 -0.5807  0.0030
 5406SOL    HW227852   3.683   3.713   1.916  0.4979 -0.0915 -1.1300
 5407SOL     OW27853   2.929   2.793   8.976  0.0462  0.3655 -0.0127
 5407SOL    HW127854   2.930   2.705   9.013 -0.3616 -0.8934 -3.0159
 5407SOL    HW227855   2.857   2.778   8.915  0.4171  0.1892 -0.4056
 5408SOL     OW27856   0.990   2.849   7.911  0.2380 -0.4736  0.2810
 5408SOL    HW127857   0.980   2.759   7.878  1.2072 -0.0581 -1.1289
 5408SOL    HW227858   0.937   2.900   7.850  0.5863 -1.0409 -0.4973
 5409SOL     OW27859   2.307   1.640   3.977  0.4214  0.2580 -0.3951
 5409SOL    HW127860   2.351   1.588   4.044 -0.1324  2.1241  1.4242
 5409SOL    HW227861   2.370   1.629   3.906  1.2121  0.5796  0.2482
 5410SOL     OW27862   3.833   4.615   2.179  0.1197  0.0636 -0.2181
 5410SOL    HW127863   3.903   4.553   2.200 -2.1276 -2.9154 -1.3891
 5410SOL    HW227864   3.826   4.667   2.259  1.8500  1.6339 -1.0935
 5411SOL     OW27865   4.570   3.368   6.341  0.3310  0.5255  0.1445
 5411SOL    HW127866   4.551   3.462   6.352  1.2448  1.2713 -4.3666
 5411SOL    HW227867   4.485   3.334   6.368 -0.2219  0.1346 -2.0605
 5412SOL     OW27868   1.656   1.315  13.019  0.6159 -0.2408 -0.6683
 5412SOL    HW127869   1.670   1.240  13.078  1.6390  2.6664  2.8166
 5412SOL    HW227870   1.601   1.258  12.967  0.5211 -1.1598  0.4230
 5413SOL     OW27871   3.717   4.452   4.843  0.2558 -0.2242 -0.5921
 5413SOL    HW127872   3.798   4.475   4.889  0.1795 -0.6906 -0.2240
 5413SOL    HW227873   3.663   4.421   4.916 -0.5146  0.0284 -1.0536
 5414SOL     OW27874   4.306   0.907  16.700  0.2771  0.0425 -0.1172
 5414SOL    HW127875   4.363   0.934  16.773  0.3848 -2.0412  0.5549
 5414SOL    HW227876   4.288   0.813  16.704  1.4126 -0.1241  1.4240
 5415SOL     OW27877   1.865   3.603   0.268  0.5519 -0.6664 -0.8109
 5415SOL    HW127878   1.907   3.541   0.209  2.7915  0.9627 -0.8982
 5415SOL    HW227879   1.793   3.626   0.209  0.2847 -0.6562 -0.4843
 5416SOL     OW27880   0.308   2.610   4.336  0.2007 -0.0674  0.2093
 5416SOL    HW127881   0.295   2.546   4.405 -0.7040  0.3489  0.4174
 5416SOL    HW227882   0.304   2.563   4.253 -0.9382 -0.1466  0.3064
 5417SOL     OW27883   4.269   2.522  14.903 -0.4355 -0.1227 -0.2459
 5417SOL    HW127884   4.338   2.569  14.950  0.2166 -0.0691 -1.2521
 5417SOL    HW227885   4.210   2.591  14.875 -1.0694  0.4540  2.5170
 5418SOL     OW27886   4.671   0.160   9.478  0.2669 -0.1118  0.6920
 5418SOL    HW127887   4.711   0.246   9.465 -0.7787  0.3831  0.7516
 5418SOL    HW227888   4.578   0.182   9.477  1.0312  3.0256  1.0603
 5419SOL     OW27889   3.218   3.349  13.512  0.1608  0.1925  0.2690
 5419SOL    HW127890   3.137   3.399  13.521 -0.7755 -1.6740  2.3418
 5419SOL    HW227891   3.194   3.282  13.448 -1.9100  0.4153  0.8040
 5420SOL     OW27892   0.718   1.708  12.814 -0.1284 -0.5890 -0.5029
 5420SOL    HW127893   0.812   1.728  12.824 -0.2347 -0.8264  0.9676
 5420SOL    HW227894   0.713   1.622  12.774  0.1247 -0.0042 -1.7950
 5421SOL     OW27895   1.080   2.962   6.747 -0.0496  0.2164 -0.4836
 5421SOL    HW127896   1.150   3.017   6.782  0.1217  1.2674 -2.4654
 5421SOL    HW227897   1.012   2.978   6.813  0.2384 -0.4477 -0.0320
 5422SOL     OW27898   2.180   2.262   9.058  0.4743  0.2721  0.1462
 5422SOL    HW127899   2.178   2.285   8.965 -2.3495 -0.2157  0.1062
 5422SOL    HW227900   2.265   2.218   9.061  1.5258  2.2801 -0.0799
 5423SOL     OW27901   2.140   2.565   3.317  0.6738  0.0011  0.1398
 5423SOL    HW127902   2.077   2.582   3.247  2.4219 -0.4955 -1.5521
 5423SOL    HW227903   2.100   2.619   3.385  0.3492 -2.2115  1.7145
 5424SOL     OW27904   3.148   4.318  17.357 -0.0198  0.1536  0.2650
 5424SOL    HW127905   3.217   4.327  17.422  0.7139 -2.8137 -0.0794
 5424SOL    HW227906   3.142   4.223  17.364 -2.1301  0.3147  0.5948
 5425SOL     OW27907   1.192   0.029   9.057 -0.4938  0.2581 -0.0724
 5425SOL    HW127908   1.240   4.693   9.104 -1.4325 -0.4873 -0.2041
 5425SOL    HW227909   1.246   0.045   8.980 -1.1074 -0.3034 -0.6236
 5426SOL     OW27910   4.628   4.059   7.454  0.6552  0.0471 -0.0245
 5426SOL    HW127911   4.681   4.035   7.530 -1.3954  2.0784  2.0448
 5426SOL    HW227912   4.565   3.987   7.456  0.6924  0.0800  2.2093
 5427SOL     OW27913   4.433   3.993   0.142  0.4307 -0.9046  0.7255
 5427SOL    HW127914   4.507   4.024   0.194  0.3915  0.0657  0.1964
 5427SOL    HW227915   4.457   4.036   0.059  0.6757 -1.1143  0.6863
 5428SOL     OW27916   4.490   1.976  16.419  0.6011 -0.1698  0.4443
 5428SOL    HW127917   4.459   1.929  16.342  0.4003  0.1712  0.3159
 5428SOL    HW227918   4.549   1.913  16.461  1.1078 -0.0894 -0.1540
 5429SOL     OW27919   4.069   3.370   9.521  0.1724  0.0153  0.1329
 5429SOL    HW127920   3.999   3.319   9.481 -1.4882  1.9573  0.5954
 5429SOL    HW227921   4.126   3.306   9.564 -1.5435 -0.8949  1.0586
 5430SOL     OW27922   3.480   2.495   1.689 -0.1848  0.2997 -0.0899
 5430SOL    HW127923   3.503   2.577   1.732  0.5362  0.8829 -1.5785
 5430SOL    HW227924   3.473   2.534   1.602 -0.6923  1.4121  0.4525
 5431SOL     OW27925   1.710   0.453   6.122 -0.1074 -0.2509 -0.2334
 5431SOL    HW127926   1.640   0.494   6.070  0.3662 -1.2679 -1.6608
 5431SOL    HW227927   1.685   0.494   6.205 -1.4993  0.0688 -0.8162
 5432SOL     OW27928   2.318   1.694   0.765 -0.0679  0.4621  0.0513
 5432SOL    HW127929   2.228   1.720   0.786  0.6219  1.3829  1.7951
 5432SOL    HW227930   2.327   1.654   0.851  3.0275 -1.1156 -1.0053
 5433SOL     OW27931   2.225   3.672  13.119  0.2841  0.2196  0.0487
 5433SOL    HW127932   2.211   3.577  13.122  0.0287  0.2476 -0.2732
 5433SOL    HW227933   2.149   3.712  13.161 -0.5370 -1.0672 -0.2222
 5434SOL     OW27934   3.607   0.782   0.773  0.2006 -0.0566 -0.3907
 5434SOL    HW127935   3.645   0.843   0.710  3.7366 -1.8374 -0.0206
 5434SOL    HW227936   3.594   0.705   0.718  1.1761 -1.7087  1.6960
 5435SOL     OW27937   3.112   0.326  12.692 -0.6678  0.0763  0.2020
 5435SOL    HW127938   3.144   0.384  12.761  1.1571 -1.7113  0.8540
 5435SOL    HW227939   3.086   0.248  12.740  1.7865 -0.1297  1.2150
 5436SOL     OW27940   4.115   4.712   9.426 -0.2353 -0.5839  0.3555
 5436SOL    HW127941   4.123   4.731   9.519  0.4759 -0.2926  0.2381
 5436SOL    HW227942   4.208   4.690   9.421  0.1909  1.0246  1.2052
 5437SOL     OW27943   3.794   4.058   2.682  0.1556 -0.0425  0.2007
 5437SOL    HW127944   3.711   4.014   2.700  1.3003 -1.5380  1.7734
 5437SOL    HW227945   3.755   4.116   2.616  3.2071  1.5431 -0.2026
 5438SOL     OW27946   3.403   1.169   1.005  0.2810 -0.3485 -0.2907
 5438SOL    HW127947   3.454   1.101   1.049 -0.6551 -1.0863 -0.3509
 5438SOL    HW227948   3.375   1.125   0.924 -0.3688  0.5944 -0.5785
 5439SOL     OW27949   4.204   1.302  14.403 -0.0517 -0.7938 -0.3091
 5439SOL    HW127950   4.164   1.232  14.455 -1.7523  2.3161  2.5202
 5439SOL    HW227951   4.154   1.378  14.431  0.0899 -1.3618  1.4670
 5440SOL     OW27952   1.469   0.702   5.207  0.2200 -0.5400 -0.2120
 5440SOL    HW127953   1.491   0.771   5.144  1.0412 -0.3812  0.2511
 5440SOL    HW227954   1.528   0.723   5.280  0.6452  0.2017 -0.7678
 5441SOL     OW27955   3.783   3.310   6.842 -0.7104  0.2066 -0.0285
 5441SOL    HW127956   3.818   3.385   6.794  0.8366 -1.2184 -1.1246
 5441SOL    HW227957   3.851   3.243   6.848 -0.1883  0.8513  1.1330
 5442SOL     OW27958   0.380   1.631  16.847  0.3160 -0.0430 -0.3449
 5442SOL    HW127959   0.337   1.678  16.775  0.2658  0.2178 -0.1430
 5442SOL    HW227960   0.399   1.703  16.907 -0.0842 -0.2811  0.0622
 5443SOL     OW27961   0.109   1.152   3.554 -0.2235  0.3221 -0.2880
 5443SOL    HW127962   0.067   1.161   3.640  0.7828  1.0723  0.1290
 5443SOL    HW227963   0.085   1.235   3.514 -1.7654  0.0690  0.0926
 5444SOL     OW27964   1.680   4.732   8.124 -0.6634 -0.1261 -0.3028
 5444SOL    HW127965   1.762   0.023   8.082 -0.6656 -0.2243 -0.3622
 5444SOL    HW227966   1.725   4.712   8.207 -0.5417 -0.4705 -0.4529
 5445SOL     OW27967   1.035   3.326   4.877 -0.1677 -0.2487  0.6621
 5445SOL    HW127968   1.061   3.310   4.968  0.9963  0.5256  0.4700
 5445SOL    HW227969   1.118   3.312   4.832 -0.1365 -2.2441  1.3207
 5446SOL     OW27970   0.358   1.548  17.310  0.0916 -0.2050 -0.3189
 5446SOL    HW127971   0.413   1.626  17.303 -0.7017  0.4300  0.5907
 5446SOL    HW227972   0.415   1.492  17.362 -0.1151  0.3820  0.5232
 5447SOL     OW27973   1.594   2.984  12.428  0.3773 -0.1515 -0.1484
 5447SOL    HW127974   1.499   2.996  12.434  0.3183 -0.5494 -0.3485
 5447SOL    HW227975   1.619   3.028  12.509 -1.7884  0.3119  0.2595
 5448SOL     OW27976   2.436   1.328   7.663 -0.2168  0.0223  0.2766
 5448SOL    HW127977   2.395   1.414   7.654 -1.1073 -0.0133  3.9322
 5448SOL    HW227978   2.383   1.265   7.613 -1.8598  0.2755  1.6684
 5449SOL     OW27979   2.522   0.387   4.898  0.1445  0.3774 -0.4063
 5449SOL    HW127980   2.613   0.415   4.904 -0.2857  1.6122  0.2994
 5449SOL    HW227981   2.481   0.467   4.865 -0.4189  0.2098 -0.1072
 5450SOL     OW27982   0.170   1.009   2.581 -0.0870  0.2859 -0.2821
 5450SOL    HW127983   0.251   1.039   2.538  0.3801  0.4753  0.7401
 5450SOL    HW227984   0.107   1.071   2.544  0.1195  0.2272 -0.7392
 5451SOL     OW27985   0.090   2.897  16.806  0.0587  0.5417 -0.1590
 5451SOL    HW127986   0.009   2.907  16.756  0.7530  0.9228 -1.1980
 5451SOL    HW227987   0.084   2.809  16.842 -1.9932  0.7148 -0.0574
 5452SOL     OW27988   1.823   0.753   6.770  0.4795 -0.3245 -0.1974
 5452SOL    HW127989   1.849   0.834   6.812  0.2243 -0.6647  0.6072
 5452SOL    HW227990   1.907   0.716   6.741  1.6381  0.9446  1.5635
 5453SOL     OW27991   2.604   2.901  16.616 -0.3153 -0.4402  0.5505
 5453SOL    HW127992   2.569   2.957  16.547  3.4980 -0.9199 -1.7933
 5453SOL    HW227993   2.535   2.895  16.682  1.0842 -1.2521  1.9428
 5454SOL     OW27994   1.519   2.943   0.005  0.0898  0.0738 -0.1724
 5454SOL    HW127995   1.446   3.003   0.020  0.6829  0.3275  1.7127
 5454SOL    HW227996   1.573   2.948   0.083  0.2372  0.3484 -0.2930
 5455SOL     OW27997   1.066   1.519   5.135 -0.4927  0.0780  0.1858
 5455SOL    HW127998   1.083   1.518   5.229  5.9929 -0.7451 -1.0206
 5455SOL    HW227999   0.986   1.466   5.131  0.3640 -1.1876 -0.2935
 5456SOL     OW28000   1.565   3.154   3.527 -0.0885  0.0566 -0.0747
 5456SOL    HW128001   1.486   3.106   3.503 -0.1116  0.7013 -1.3247
 5456SOL    HW228002   1.577   3.207   3.448  0.0809  0.8971  0.5138
 5457SOL     OW28003   0.928   1.334   2.835 -0.0825 -0.2454  0.0579
 5457SOL    HW128004   0.968   1.419   2.816  0.1090 -0.6187 -1.1691
 5457SOL    HW228005   0.984   1.305   2.908  0.6480 -0.0425 -0.4181
 5458SOL     OW28006   1.358   0.676   4.674 -0.5350  0.2483 -0.1010
 5458SOL    HW128007   1.263   0.672   4.684 -0.6350  0.0442 -1.1801
 5458SOL    HW228008   1.380   0.601   4.619  0.9915 -0.6379  1.7248
 5459SOL     OW28009   2.431   4.300   8.433 -0.0231  0.1750  0.5287
 5459SOL    HW128010   2.495   4.328   8.499  0.6080 -1.0159  0.4256
 5459SOL    HW228011   2.424   4.208   8.458 -4.0801  0.0142 -1.3136
 5460SOL     OW28012   1.550   2.813  14.373 -0.7847  0.0678  0.1219
 5460SOL    HW128013   1.541   2.834  14.280  0.4104 -0.7490 -0.1808
 5460SOL    HW228014   1.643   2.831  14.386 -0.4457 -1.6368  0.0804
 5461SOL     OW28015   3.807   2.828   4.553  0.8099 -0.1850 -0.4969
 5461SOL    HW128016   3.852   2.900   4.597  0.5169 -0.0153 -0.4725
 5461SOL    HW228017   3.722   2.836   4.596  2.1379  0.0790  2.0582
 5462SOL     OW28018   3.476   3.434   2.027 -0.2963  0.7742 -0.2635
 5462SOL    HW128019   3.416   3.508   2.019  1.1965  2.0208  0.0355
 5462SOL    HW228020   3.564   3.466   2.004  0.5272 -1.3719 -0.0822
 5463SOL     OW28021   2.235   0.019   8.108 -0.2609 -0.1066  0.4165
 5463SOL    HW128022   2.321   4.710   8.100 -0.3449  0.1824 -1.9207
 5463SOL    HW228023   2.255   0.109   8.083  0.5448 -0.4597 -0.2271
 5464SOL     OW28024   0.229   1.587   4.856  0.5190  0.4723  0.8148
 5464SOL    HW128025   0.192   1.631   4.779 -1.1497 -0.2027  1.2301
 5464SOL    HW228026   0.154   1.539   4.893 -0.4944  0.5684 -1.0900
 5465SOL     OW28027   1.396   3.693   4.565 -0.1240 -0.4254 -0.0818
 5465SOL    HW128028   1.357   3.715   4.649 -0.2942 -0.6817 -0.0927
 5465SOL    HW228029   1.343   3.616   4.543 -1.7010  0.6668 -0.0303
 5466SOL     OW28030   1.905   3.144  14.441  0.6280 -0.2231 -0.4864
 5466SOL    HW128031   1.867   3.057  14.452 -0.1365  0.2305  0.5365
 5466SOL    HW228032   1.879   3.155  14.350  0.2812 -1.4610 -0.5318
 5467SOL     OW28033   2.193   3.762   8.457  0.0094 -0.1986 -0.5173
 5467SOL    HW128034   2.191   3.821   8.381 -4.0954  0.6029  0.2724
 5467SOL    HW228035   2.105   3.726   8.460  1.1127 -2.5911  3.2178
 5468SOL     OW28036   3.630   0.068   7.595  0.1042 -0.1933 -0.7748
 5468SOL    HW128037   3.664   0.131   7.658 -0.3346 -2.4794  1.8189
 5468SOL    HW228038   3.715   0.042   7.561 -0.1758  1.4317 -2.7146
 5469SOL     OW28039   0.314   1.217   5.680  0.1273 -0.1027  0.4227
 5469SOL    HW128040   0.231   1.170   5.686 -0.0370  0.0486 -0.5646
 5469SOL    HW228041   0.293   1.291   5.737 -1.4353  0.1213 -0.4128
 5470SOL     OW28042   1.102   0.626   6.523 -0.4231  0.3568  0.2695
 5470SOL    HW128043   1.109   0.530   6.519  1.1716  0.5095 -0.3860
 5470SOL    HW228044   1.145   0.645   6.440  0.8560 -1.0398  0.6152
 5471SOL     OW28045   3.382   2.862  11.182 -0.5911  0.1442 -0.6180
 5471SOL    HW128046   3.372   2.857  11.277 -2.7403  3.4669 -0.6588
 5471SOL    HW228047   3.296   2.835  11.148  0.1175 -1.2022 -1.3454
 5472SOL     OW28048   2.579   0.812  16.070 -0.2407 -0.1154  0.2059
 5472SOL    HW128049   2.516   0.747  16.101  1.2696 -1.5817  0.2020
 5472SOL    HW228050   2.580   0.869  16.147  0.2141  0.5437 -0.2939
 5473SOL     OW28051   0.040   4.722   3.752  0.1950 -0.2574 -0.1680
 5473SOL    HW128052   0.123   4.681   3.778  0.7781  1.5086  0.7761
 5473SOL    HW228053   0.048   4.708   3.658 -0.1983 -2.5172  0.1218
 5474SOL     OW28054   2.001   3.159  14.838 -0.5166  0.2995 -0.0373
 5474SOL    HW128055   2.022   3.249  14.863 -1.9612  0.5451  0.2545
 5474SOL    HW228056   2.055   3.141  14.760  1.4347  0.6993  1.2144
 5475SOL     OW28057   3.236   3.672   3.408 -0.0204 -0.2611 -0.7010
 5475SOL    HW128058   3.205   3.763   3.398 -0.0541 -0.3193 -1.1341
 5475SOL    HW228059   3.160   3.617   3.424  0.3477 -0.3314  0.8444
 5476SOL     OW28060   2.305   3.267   8.106  0.3752 -0.2801 -0.3309
 5476SOL    HW128061   2.290   3.173   8.103 -0.8115 -0.1046  0.0375
 5476SOL    HW228062   2.245   3.291   8.178  0.3781 -0.3870 -0.2923
 5477SOL     OW28063   2.528   3.336   6.611  0.7034 -0.2232  0.0749
 5477SOL    HW128064   2.590   3.298   6.547 -3.2018 -3.4634 -1.7463
 5477SOL    HW228065   2.588   3.393   6.661 -1.0675 -1.2585  3.3314
 5478SOL     OW28066   0.240   2.400   4.524  0.3020  0.6257 -0.2092
 5478SOL    HW128067   0.238   2.314   4.483  1.7692  0.3535  0.2764
 5478SOL    HW228068   0.154   2.413   4.564 -0.8432  0.0601 -2.4986
 5479SOL     OW28069   2.659   3.015   6.148 -0.3175  0.4452  0.0488
 5479SOL    HW128070   2.593   3.006   6.217  0.0891  1.5221  0.5699
 5479SOL    HW228071   2.605   3.064   6.086  0.3272 -0.9058 -1.5768
 5480SOL     OW28072   4.682   3.484  13.253  0.1530  0.4025 -0.2341
 5480SOL    HW128073   4.714   3.415  13.311 -0.5920  0.6763  0.5155
 5480SOL    HW228074   0.012   3.478  13.181 -0.4631 -0.0024 -0.7279
 5481SOL     OW28075   3.937   2.135  13.854  0.3474  0.3119 -0.3276
 5481SOL    HW128076   3.937   2.098  13.942  2.0908  0.3602 -0.3035
 5481SOL    HW228077   3.881   2.070  13.812  0.6887 -0.2599  0.1129
 5482SOL     OW28078   2.616   0.621  11.509  0.2592 -0.4805  0.1825
 5482SOL    HW128079   2.634   0.714  11.524 -0.7724 -0.2490  0.0079
 5482SOL    HW228080   2.521   0.616  11.523  0.1508 -1.9516 -1.0614
 5483SOL     OW28081   3.650   3.312   2.882  0.0128  0.3936 -0.3414
 5483SOL    HW128082   3.641   3.218   2.872  0.6162  0.1633  1.2952
 5483SOL    HW228083   3.610   3.327   2.967  0.3673 -0.6979  0.0130
 5484SOL     OW28084   0.354   1.856  11.523 -0.0978 -0.5174 -0.2935
 5484SOL    HW128085   0.295   1.919  11.481 -0.3721 -1.6852 -1.6700
 5484SOL    HW228086   0.333   1.865  11.616 -1.2163  0.2510 -0.6217
 5485SOL     OW28087   3.955   3.804  11.536 -0.1131  0.1791  0.5338
 5485SOL    HW128088   3.981   3.876  11.592  2.5566 -0.5581  0.2294
 5485SOL    HW228089   4.029   3.748  11.557 -0.7074 -1.2227 -1.0615
 5486SOL     OW28090   2.008   2.790   5.182 -0.7046  0.1437  0.3435
 5486SOL    HW128091   2.088   2.746   5.152 -1.2153 -1.5877  1.5092
 5486SOL    HW228092   2.039   2.880   5.191  0.4168  0.0423 -2.7218
 5487SOL     OW28093   4.207   3.015  10.874  0.5261 -0.2846 -0.1105
 5487SOL    HW128094   4.260   2.988  10.800 -0.5166  1.3132 -1.4697
 5487SOL    HW228095   4.246   3.098  10.904  0.1338  0.2862 -1.1665
 5488SOL     OW28096   2.075   2.327   6.697 -0.3554 -0.0057 -0.0686
 5488SOL    HW128097   2.126   2.358   6.622  3.0608 -3.0094  1.0064
 5488SOL    HW228098   2.140   2.348   6.764  1.6684 -1.6151 -1.4986
 5489SOL     OW28099   0.909   4.027   7.044  0.4164 -0.0969  0.5420
 5489SOL    HW128100   0.831   4.058   7.090 -0.6972 -1.1309 -0.6427
 5489SOL    HW228101   0.891   4.065   6.957  0.1411  1.3764  1.2422
 5490SOL     OW28102   1.173   2.629   9.402  0.1410  0.3015  0.4313
 5490SOL    HW128103   1.190   2.597   9.491  1.1236  3.5949  1.4214
 5490SOL    HW228104   1.093   2.680   9.418  1.9379  2.6744  1.8232
 5491SOL     OW28105   1.559   2.128   3.611  0.1067  0.3835  0.3414
 5491SOL    HW128106   1.547   2.044   3.566 -0.6617  0.1788  0.9107
 5491SOL    HW228107   1.654   2.133   3.621  0.1269 -2.2478  1.5925
 5492SOL     OW28108   0.232   2.147   4.112 -0.0993  0.3817  0.3496
 5492SOL    HW128109   0.164   2.085   4.086  0.5875  0.2604 -1.1686
 5492SOL    HW228110   0.206   2.209   4.044 -0.9403 -0.8317 -0.4396
 5493SOL     OW28111   3.280   0.363   4.281  0.3360 -0.4549 -0.0354
 5493SOL    HW128112   3.306   0.388   4.193  1.8360  0.6750  0.7373
 5493SOL    HW228113   3.358   0.365   4.335  0.9225  0.6106 -0.9404
 5494SOL     OW28114   3.421   1.009   8.073  0.2702 -0.0357 -0.2827
 5494SOL    HW128115   3.329   0.989   8.053  0.5775 -2.0730  0.2703
 5494SOL    HW228116   3.435   0.919   8.104  1.6669  0.2977  0.0320
 5495SOL     OW28117   2.189   3.910   2.217 -0.1929  0.2298 -0.2280
 5495SOL    HW128118   2.179   3.827   2.264 -0.9815  0.5868  0.2375
 5495SOL    HW228119   2.165   3.974   2.284 -0.5243  0.2463 -0.3605
 5496SOL     OW28120   3.820   4.691   9.370 -0.4499 -0.2304  0.1044
 5496SOL    HW128121   3.884   0.030   9.365  1.3310 -1.8593  0.0072
 5496SOL    HW228122   3.865   4.614   9.404  1.4161  1.0741  0.5564
 5497SOL     OW28123   1.634   4.435   6.237  0.3586 -0.2397  0.6736
 5497SOL    HW128124   1.591   4.444   6.151  2.8236  0.8490 -0.4327
 5497SOL    HW228125   1.727   4.447   6.221 -0.2230  4.3023  0.5098
 5498SOL     OW28126   2.915   0.532   6.513  0.1046  0.5253  0.3476
 5498SOL    HW128127   2.886   0.619   6.485 -0.5649  0.0477 -0.4488
 5498SOL    HW228128   2.846   0.472   6.483  1.6309 -0.5097 -1.0604
 5499SOL     OW28129   4.722   1.757   6.251 -0.0038 -0.0652  1.0781
 5499SOL    HW128130   0.067   1.768   6.306  0.1804 -0.7405  0.9552
 5499SOL    HW228131   4.673   1.683   6.288  0.6941 -0.2529  1.6234
 5500SOL     OW28132   3.591   0.551  11.275  0.0981  0.3982 -0.7351
 5500SOL    HW128133   3.633   0.470  11.247 -0.4692  0.4509 -1.7065
 5500SOL    HW228134   3.582   0.528  11.368 -0.9422 -1.0209 -1.1967
 5501SOL     OW28135   2.181   1.572   0.378 -0.6938  0.6850 -0.9452
 5501SOL    HW128136   2.244   1.637   0.347  1.2608  0.3089  2.2421
 5501SOL    HW228137   2.121   1.623   0.432  0.3924 -0.4813  1.3464
 5502SOL     OW28138   0.432   3.353  10.593 -0.2834  0.3712 -0.2471
 5502SOL    HW128139   0.440   3.370  10.686 -0.1160  0.5937 -0.3041
 5502SOL    HW228140   0.386   3.433  10.567 -0.9229 -0.2122 -0.9035
 5503SOL     OW28141   1.952   0.211   8.693 -0.3831 -0.0244  0.3067
 5503SOL    HW128142   1.982   0.187   8.781  1.6421 -0.1533 -0.4236
 5503SOL    HW228143   1.903   0.130   8.679 -0.9009 -0.2511  3.3659
 5504SOL     OW28144   4.482   4.343  11.015  0.6642  0.2949  0.4390
 5504SOL    HW128145   4.515   4.417  10.963  3.1910 -0.6602  0.6831
 5504SOL    HW228146   4.545   4.273  10.998  0.0481 -0.5152  1.5385
 5505SOL     OW28147   2.555   1.660   2.799  0.0865 -0.8207 -0.1654
 5505SOL    HW128148   2.523   1.712   2.725 -2.2702 -2.2416 -0.1422
 5505SOL    HW228149   2.648   1.659   2.777 -0.2457  0.3727 -1.6313
 5506SOL     OW28150   4.299   2.533   3.794 -0.3753 -0.2043 -0.1280
 5506SOL    HW128151   4.343   2.616   3.816 -3.7661  2.0751 -1.9504
 5506SOL    HW228152   4.378   2.481   3.776 -0.8198 -1.2063  0.8805
 5507SOL     OW28153   2.957   4.191   6.451 -0.1261  0.4105 -0.1798
 5507SOL    HW128154   2.961   4.261   6.516  0.0231  0.5826 -0.3759
 5507SOL    HW228155   3.037   4.208   6.401 -0.7778  1.6848 -0.7959
 5508SOL     OW28156   2.410   0.854   6.519  0.0579 -0.2677  0.4762
 5508SOL    HW128157   2.439   0.938   6.554  0.4894 -1.0896  2.0673
 5508SOL    HW228158   2.322   0.850   6.556  0.2535  0.8738  1.0737
 5509SOL     OW28159   3.104   0.109   3.830  0.5478  0.0356  0.1286
 5509SOL    HW128160   3.165   0.181   3.847  1.4134 -1.2190  2.3438
 5509SOL    HW228161   3.036   0.154   3.780  0.3826 -1.4119 -0.9578
 5510SOL     OW28162   0.907   1.373   3.306 -0.0455  0.1803 -0.0908
 5510SOL    HW128163   0.997   1.365   3.276  0.0595  0.1707  0.2302
 5510SOL    HW228164   0.874   1.423   3.231 -1.3338 -3.6783 -2.0733
 5511SOL     OW28165   0.161   3.796   3.362 -0.4661 -0.4143 -0.1395
 5511SOL    HW128166   0.205   3.843   3.291 -1.6007 -0.0411 -0.5955
 5511SOL    HW228167   0.218   3.723   3.387  0.8126  1.2190  1.7005
 5512SOL     OW28168   4.723   3.735   2.414 -0.0848  0.3720 -0.1026
 5512SOL    HW128169   4.660   3.723   2.484  0.6597 -1.4382  0.2559
 5512SOL    HW228170   4.677   3.790   2.350 -1.6209  0.8405  1.3912
 5513SOL     OW28171   3.296   2.032   2.136 -0.2797 -0.5528  0.5052
 5513SOL    HW128172   3.277   2.091   2.063 -1.1167 -3.2984 -1.4992
 5513SOL    HW228173   3.338   1.961   2.087  0.6871 -0.7219  1.5745
 5514SOL     OW28174   0.486   2.753   5.985  0.8569 -0.1159  1.0412
 5514SOL    HW128175   0.397   2.755   5.949  1.0772  0.3676  0.5262
 5514SOL    HW228176   0.526   2.815   5.924  0.7960 -0.5761  0.5206
 5515SOL     OW28177   3.961   0.264   5.008  0.2835 -0.7254  0.3781
 5515SOL    HW128178   4.029   0.326   4.983 -0.7393  1.1019  2.2210
 5515SOL    HW228179   4.007   0.188   5.045  1.1627 -0.4363 -0.1198
 5516SOL     OW28180   0.929   4.127  12.720 -0.4829  0.2782  0.1301
 5516SOL    HW128181   0.862   4.129  12.652  0.4314 -0.6500 -0.7971
 5516SOL    HW228182   0.921   4.041  12.761 -1.9490  0.2278 -0.2585
 5517SOL     OW28183   0.901   4.268   4.152 -0.0550 -0.4070  0.1247
 5517SOL    HW128184   0.861   4.284   4.067 -0.9957 -3.7090 -0.0576
 5517SOL    HW228185   0.885   4.354   4.190  1.3910  0.5583 -1.4638
 5518SOL     OW28186   0.395   0.439   7.896  0.3337  0.0236 -0.2188
 5518SOL    HW128187   0.471   0.474   7.944 -0.3720  0.6505  0.4438
 5518SOL    HW228188   0.430   0.351   7.884  1.6275  0.5921 -0.6704
 5519SOL     OW28189   2.110   2.387   7.762 -0.0040  0.3330 -0.2674
 5519SOL    HW128190   2.100   2.357   7.852  0.4841 -2.7121 -1.2263
 5519SOL    HW228191   2.113   2.482   7.775 -0.3392  0.2063  0.7082
 5520SOL     OW28192   0.860   2.277   2.327  0.6593  0.3961  0.2403
 5520SOL    HW128193   0.917   2.202   2.346  0.6514  0.2552 -0.2803
 5520SOL    HW228194   0.920   2.326   2.271  0.3266  1.0276  0.4417
 5521SOL     OW28195   0.415   3.254   6.755  0.5263 -0.2697  0.6088
 5521SOL    HW128196   0.449   3.186   6.697 -1.2544  1.4471 -2.4819
 5521SOL    HW228197   0.460   3.332   6.722 -0.1228  0.5141  1.5888
 5522SOL     OW28198   4.398   1.408   3.714 -0.9906  0.1282  0.2490
 5522SOL    HW128199   4.339   1.339   3.684  0.1762 -0.5793 -0.4315
 5522SOL    HW228200   4.482   1.392   3.670 -0.3227  0.0783  1.5133
 5523SOL     OW28201   4.182   4.271   7.521 -0.2027  0.2724  0.1974
 5523SOL    HW128202   4.111   4.238   7.575  0.5480 -2.3719 -0.4579
 5523SOL    HW228203   4.156   4.260   7.429  0.2299 -1.6326  0.3055
 5524SOL     OW28204   1.583   2.391   5.784 -1.0705  0.3697  0.2336
 5524SOL    HW128205   1.562   2.305   5.821  0.3521  0.3368  0.9332
 5524SOL    HW228206   1.557   2.383   5.692  0.2207 -3.9076  0.2527
 5525SOL     OW28207   2.665   0.367  11.613  0.5119 -0.0442 -0.3618
 5525SOL    HW128208   2.694   0.430  11.679 -2.6678  0.7341  0.2777
 5525SOL    HW228209   2.664   0.430  11.541 -0.8887 -0.0181 -0.3165
 5526SOL     OW28210   1.108   1.826   4.743  0.2681  0.0687  0.4920
 5526SOL    HW128211   1.064   1.851   4.824 -1.1408  1.7459 -0.7744
 5526SOL    HW228212   1.171   1.762   4.776 -1.0989 -0.3897  2.1898
 5527SOL     OW28213   2.867   2.018  12.461 -0.3046  0.3596 -0.9533
 5527SOL    HW128214   2.872   2.106  12.424 -1.8919  0.6046 -0.5932
 5527SOL    HW228215   2.825   1.968  12.391  2.2491 -1.3010 -1.2635
 5528SOL     OW28216   1.299   0.992   8.470  0.0326 -0.6053  0.5650
 5528SOL    HW128217   1.208   1.004   8.497 -0.0460  1.3895 -0.5507
 5528SOL    HW228218   1.336   1.079   8.480 -1.9593  0.2936  0.1329
 5529SOL     OW28219   2.005   0.352  17.198 -0.5879  0.3683  0.1203
 5529SOL    HW128220   2.075   0.401  17.155 -0.7226  0.9817  0.5988
 5529SOL    HW228221   1.954   0.426  17.232 -1.3035  0.4700 -1.1720
 5530SOL     OW28222   1.754   1.341   1.939  0.1118 -0.0338  0.0629
 5530SOL    HW128223   1.771   1.310   2.028  0.9731  0.1228 -0.0476
 5530SOL    HW228224   1.837   1.346   1.893 -0.4565  0.5487 -0.8967
 5531SOL     OW28225   4.265   3.888  11.532  0.0745 -0.1600 -0.1836
 5531SOL    HW128226   4.218   3.950  11.476 -0.4890  0.9448  1.5241
 5531SOL    HW228227   4.354   3.894  11.497  0.4087  1.2272  0.9374
 5532SOL     OW28228   2.504   4.665  15.213 -0.3356  0.1083  0.3104
 5532SOL    HW128229   2.415   4.695  15.192  0.0330  0.3770 -0.8990
 5532SOL    HW228230   2.529   4.596  15.151 -1.7124  2.2445 -2.6122
 5533SOL     OW28231   0.617   2.894   4.938 -0.2474  0.6039 -0.1138
 5533SOL    HW128232   0.558   2.843   4.882  2.4871 -2.1276 -0.5279
 5533SOL    HW228233   0.658   2.822   4.987 -0.0809  1.7291  1.3763
 5534SOL     OW28234   4.714   1.495   2.690  0.1339  0.3002  0.1904
 5534SOL    HW128235   4.726   1.582   2.652 -3.5354  0.5365 -0.4648
 5534SOL    HW228236   0.005   1.502   2.782  2.4859 -0.2942 -0.3600
 5535SOL     OW28237   1.905   1.579   2.150 -0.2226  0.0702 -0.0452
 5535SOL    HW128238   1.884   1.552   2.061  1.7611 -0.6695 -0.2848
 5535SOL    HW228239   1.835   1.536   2.199 -0.2139  1.6216  1.3348
 5536SOL     OW28240   1.601   3.080   7.813 -0.9872  0.2803  0.1492
 5536SOL    HW128241   1.568   2.991   7.803  0.1816 -0.1608  0.2790
 5536SOL    HW228242   1.537   3.121   7.872 -1.6223 -0.4005 -0.0570
 5537SOL     OW28243   1.087   3.189   9.075 -0.1300 -0.0847 -0.7504
 5537SOL    HW128244   1.144   3.132   9.127 -0.8884 -0.7577 -0.6638
 5537SOL    HW228245   1.024   3.216   9.142 -1.0156 -1.1196 -1.1711
 5538SOL     OW28246   3.576   0.964   4.081  0.1174  0.3678 -0.5708
 5538SOL    HW128247   3.598   0.878   4.043  1.9600 -0.7462  3.0415
 5538SOL    HW228248   3.510   0.935   4.143  0.3238 -0.8362 -0.9051
 5539SOL     OW28249   2.594   1.851  11.318  0.0381 -0.1377 -0.1144
 5539SOL    HW128250   2.653   1.785  11.280 -1.1965  0.4464 -3.0024
 5539SOL    HW228251   2.511   1.842  11.271 -0.6466 -2.3353  1.5308
 5540SOL     OW28252   0.030   3.598   3.815  0.1645  0.4390  0.2076
 5540SOL    HW128253   0.032   3.503   3.827  2.9282  0.4709 -0.0301
 5540SOL    HW228254   0.100   3.604   3.750 -0.4639  0.3649 -0.4878
 5541SOL     OW28255   2.867   0.655   9.593  0.4880  0.7479  0.6401
 5541SOL    HW128256   2.841   0.566   9.618 -0.9479  0.5340 -1.6061
 5541SOL    HW228257   2.926   0.680   9.664 -0.6621  0.9035  1.5514
 5542SOL     OW28258   2.862   1.478  14.468  0.0167  0.3442 -0.1406
 5542SOL    HW128259   2.834   1.399  14.420 -2.2516  0.4038  1.0793
 5542SOL    HW228260   2.945   1.450  14.507 -0.7922 -1.9750 -0.0921
 5543SOL     OW28261   2.010   0.183   3.016  0.1162 -0.0856 -0.1772
 5543SOL    HW128262   2.068   0.148   2.948  1.1473 -0.2213  0.7766
 5543SOL    HW228263   2.002   0.274   2.988  2.0564 -0.3751 -1.7145
 5544SOL     OW28264   1.449   4.115   7.780  0.1643 -0.1152 -0.2573
 5544SOL    HW128265   1.505   4.110   7.857  0.5380  1.5564 -0.4362
 5544SOL    HW228266   1.463   4.194   7.728 -0.6601 -0.0506 -0.3882
 5545SOL     OW28267   2.619   3.335  12.224  0.6664  0.0355  0.3195
 5545SOL    HW128268   2.531   3.311  12.195  0.8772 -0.8554  0.4177
 5545SOL    HW228269   2.678   3.281  12.172  1.9458 -1.0861  2.9235
 5546SOL     OW28270   1.952   2.073   1.602 -0.5772 -0.5421  0.4324
 5546SOL    HW128271   1.877   2.094   1.658  1.1782  1.1114  2.1510
 5546SOL    HW228272   1.904   2.033   1.530 -0.0986 -2.3227  1.1040
 5547SOL     OW28273   3.894   4.229   5.921 -0.3952 -0.0459 -0.1696
 5547SOL    HW128274   3.986   4.207   5.904 -0.8463 -2.0941 -0.0558
 5547SOL    HW228275   3.874   4.150   5.972 -1.2882  0.3298  0.0575
 5548SOL     OW28276   4.112   0.491   5.236 -0.0755  0.5628  0.1340
 5548SOL    HW128277   4.076   0.513   5.322  2.3887 -1.6982  1.7375
 5548SOL    HW228278   4.031   0.496   5.186 -0.1274  0.3590  0.1990
 5549SOL     OW28279   1.700   2.228   6.471 -0.3190  0.0753 -0.0775
 5549SOL    HW128280   1.618   2.263   6.508  1.4377  1.8358  2.1739
 5549SOL    HW228281   1.670   2.191   6.388 -3.1301  0.8703  0.5600
 5550SOL     OW28282   4.252   0.001  10.651  0.6539 -0.7792  0.1145
 5550SOL    HW128283   4.299   0.049  10.583 -2.4684  1.6312 -0.2960
 5550SOL    HW228284   4.270   0.058  10.726  0.5831 -2.1042  1.1285
 5551SOL     OW28285   0.997   2.081   7.315 -0.4500 -0.0434  0.0512
 5551SOL    HW128286   0.979   2.121   7.230 -1.1705 -0.2942  0.0852
 5551SOL    HW228287   0.982   1.988   7.299 -0.7894  0.1331 -0.6463
 5552SOL     OW28288   4.717   3.345  14.308  0.2332 -0.0451 -0.6712
 5552SOL    HW128289   4.711   3.364  14.214 -3.4705  2.4488  0.0382
 5552SOL    HW228290   0.078   3.358  14.320  0.0228 -0.5289  1.4764
 5553SOL     OW28291   2.555   3.271   9.491  0.1345 -0.0468 -0.6094
 5553SOL    HW128292   2.619   3.208   9.461  0.8553  0.7162 -0.6711
 5553SOL    HW228293   2.539   3.230   9.576  2.3325  1.3209  0.4746
 5554SOL     OW28294   0.274   2.781  12.669  0.2106 -0.9001  0.6832
 5554SOL    HW128295   0.357   2.818  12.639 -1.4003  2.7629  0.7448
 5554SOL    HW228296   0.255   2.856  12.725  1.2409  0.8936 -1.3352
 5555SOL     OW28297   0.074   3.529   3.094 -0.2930  0.3180  0.7951
 5555SOL    HW128298   0.166   3.508   3.078 -0.2651  0.3652  0.8903
 5555SOL    HW228299   0.046   3.496   3.009  0.6820 -1.3274  1.1098
 5556SOL     OW28300   2.546   4.192   2.914  0.2171  0.6592 -0.1583
 5556SOL    HW128301   2.536   4.194   2.819  0.4912 -1.3955 -0.2324
 5556SOL    HW228302   2.552   4.096   2.917  0.5851  0.6682 -0.7806
 5557SOL     OW28303   0.366   2.000   3.223 -0.2440 -0.4326  0.0628
 5557SOL    HW128304   0.281   1.995   3.265 -0.4328  2.3034 -0.0494
 5557SOL    HW228305   0.350   2.062   3.152 -0.6077  0.1983  0.6994
 5558SOL     OW28306   0.076   0.152   6.153 -0.2593 -0.2482 -0.1614
 5558SOL    HW128307   0.107   0.079   6.100  0.3083 -0.9934  1.2178
 5558SOL    HW228308   0.120   0.132   6.235  0.5397 -0.8023 -0.7378
 5559SOL     OW28309   3.534   0.552   4.899 -0.2441 -0.2679  0.0716
 5559SOL    HW128310   3.538   0.646   4.881  2.1922 -0.3747  0.0141
 5559SOL    HW228311   3.603   0.531   4.836 -1.3494 -4.2776  0.1518
 5560SOL     OW28312   1.201   1.759   6.348  0.0767  0.4357 -0.6376
 5560SOL    HW128313   1.234   1.789   6.432 -1.7799  1.6351 -0.3519
 5560SOL    HW228314   1.279   1.724   6.304  0.6125  1.0796 -0.2059
 5561SOL     OW28315   0.666   2.906   8.302 -0.0448  0.0331 -0.4073
 5561SOL    HW128316   0.740   2.966   8.313  0.8478 -1.5345  2.0233
 5561SOL    HW228317   0.709   2.832   8.258 -0.3553 -1.3121  1.5599
 5562SOL     OW28318   1.675   3.103   4.160 -0.1477  0.3477  0.6438
 5562SOL    HW128319   1.728   3.094   4.080 -2.3614 -1.8913 -0.5986
 5562SOL    HW228320   1.587   3.108   4.121 -0.2513  3.5916  1.3109
 5563SOL     OW28321   3.728   1.663  16.300  0.4282 -0.5593  0.0677
 5563SOL    HW128322   3.693   1.665  16.389  1.4662 -0.2220  0.4653
 5563SOL    HW228323   3.649   1.689  16.252 -1.3565  1.2580  3.9872
 5564SOL     OW28324   4.215   1.872   5.025  0.8710 -0.2951  0.8881
 5564SOL    HW128325   4.196   1.788   4.984 -2.7666  1.8905 -2.0463
 5564SOL    HW228326   4.166   1.936   4.972  0.6689 -0.5889  0.7225
 5565SOL     OW28327   3.574   4.630  17.093 -0.3833 -0.1337  0.3734
 5565SOL    HW128328   3.516   4.566  17.136  0.0330 -0.9330 -0.2632
 5565SOL    HW228329   3.565   4.587  17.008  1.4435 -1.0477  0.6483
 5566SOL     OW28330   0.958   0.161  11.192 -0.3077 -0.9013  0.1715
 5566SOL    HW128331   0.870   0.193  11.207  0.1955  0.9779 -0.8936
 5566SOL    HW228332   0.957   0.141  11.098 -0.6126 -0.6185  0.1142
 5567SOL     OW28333   2.871   2.608   8.734  0.7033  0.5285 -0.0532
 5567SOL    HW128334   2.898   2.587   8.645  0.6039 -0.7967  0.2324
 5567SOL    HW228335   2.807   2.538   8.750 -0.2765  1.1259 -1.3359
 5568SOL     OW28336   0.281   4.219  11.829  0.0114  0.2996  0.0230
 5568SOL    HW128337   0.271   4.128  11.800 -0.6368  1.2488 -2.6923
 5568SOL    HW228338   0.246   4.218  11.919  0.5712  1.4093  0.2433
 5569SOL     OW28339   3.943   0.321   6.441 -0.4903  0.2075 -0.1023
 5569SOL    HW128340   4.033   0.347   6.421  0.1205 -0.7508  1.4479
 5569SOL    HW228341   3.901   0.393   6.393 -0.0843 -1.1191 -2.4818
 5570SOL     OW28342   1.975   2.777  12.452  0.2784 -0.2295  0.0147
 5570SOL    HW128343   2.004   2.842  12.387 -0.5317  0.6858  0.5583
 5570SOL    HW228344   2.060   2.739  12.472  0.1697 -1.6353 -2.2244
 5571SOL     OW28345   3.973   2.039   3.151  0.6385 -0.0824 -0.9350
 5571SOL    HW128346   4.063   2.066   3.132  0.4739  0.2100 -1.2704
 5571SOL    HW228347   3.951   2.012   3.062 -0.6655 -0.9126 -0.3588
 5572SOL     OW28348   0.190   4.391  10.148  0.2456  0.8175 -0.1577
 5572SOL    HW128349   0.108   4.348  10.123 -0.3953  2.0295 -0.1348
 5572SOL    HW228350   0.199   4.346  10.232  0.6598 -0.9599 -1.1465
 5573SOL     OW28351   2.806   3.077   6.548  0.1883  0.2193 -0.3045
 5573SOL    HW128352   2.774   3.156   6.505 -0.9915  0.3424  0.8084
 5573SOL    HW228353   2.893   3.098   6.583 -0.0636  2.3961 -0.9544
 5574SOL     OW28354   3.876   2.221   3.477 -0.4643  0.2413 -0.5109
 5574SOL    HW128355   3.869   2.286   3.407  2.1661  1.9617  0.8085
 5574SOL    HW228356   3.854   2.145   3.424 -1.7493  1.1601 -1.2701
 5575SOL     OW28357   0.515   0.707  10.219  0.0358 -0.4236 -0.1214
 5575SOL    HW128358   0.509   0.621  10.178  3.1723 -0.2600 -0.8770
 5575SOL    HW228359   0.495   0.688  10.310 -0.9979  2.7532  0.3423
 5576SOL     OW28360   4.291   2.532   6.845  0.2032  0.0722 -0.2512
 5576SOL    HW128361   4.322   2.481   6.770 -0.8963 -0.5813 -0.2666
 5576SOL    HW228362   4.344   2.611   6.843 -0.1900  0.3376 -0.2560
 5577SOL     OW28363   1.162   1.939   9.086  0.0402  0.2551  0.0723
 5577SOL    HW128364   1.236   1.918   9.030  0.6028 -1.6949  1.5507
 5577SOL    HW228365   1.197   2.020   9.123  1.5678 -0.8550  1.0658
 5578SOL     OW28366   2.106   2.155   3.618  0.5029 -0.2505  0.6303
 5578SOL    HW128367   2.181   2.146   3.677  2.7941 -2.6045 -2.6304
 5578SOL    HW228368   2.131   2.233   3.569  1.6565 -0.6526  0.5859
 5579SOL     OW28369   4.700   1.783   2.646 -0.0140  0.3678  0.0514
 5579SOL    HW128370   4.621   1.786   2.699  2.0229  2.2747  2.9979
 5579SOL    HW228371   0.015   1.853   2.691  2.2896 -1.5280  0.6557
 5580SOL     OW28372   0.621   1.228   8.704  0.4161  0.3300 -0.3998
 5580SOL    HW128373   0.605   1.193   8.616 -1.6521 -2.4125  1.0657
 5580SOL    HW228374   0.685   1.293   8.674 -0.1376  1.3658  0.6713
 5581SOL     OW28375   2.121   4.317   3.902 -0.3371  0.0002 -0.0291
 5581SOL    HW128376   2.209   4.301   3.936  0.1399 -0.2042 -1.3746
 5581SOL    HW228377   2.087   4.376   3.969 -1.8450  0.2998 -1.0553
 5582SOL     OW28378   1.140   1.444   7.058  0.2861 -0.1908 -0.2868
 5582SOL    HW128379   1.209   1.382   7.082  0.0096 -1.1888 -2.0195
 5582SOL    HW228380   1.090   1.445   7.140 -1.5250  0.4557 -1.3868
 5583SOL     OW28381   1.237   1.290   5.501  0.0559 -0.7281 -0.3594
 5583SOL    HW128382   1.222   1.272   5.408  1.5059 -0.0411 -0.7310
 5583SOL    HW228383   1.328   1.259   5.504 -0.2646 -1.6077  0.1347
 5584SOL     OW28384   1.264   0.561   5.682  0.0670 -0.0341 -0.1397
 5584SOL    HW128385   1.204   0.630   5.653 -0.3339 -0.0966  0.5372
 5584SOL    HW228386   1.275   0.586   5.774 -1.3768  1.7356 -0.4284
 5585SOL     OW28387   4.233   2.926   0.979  0.3277  0.0690  0.2346
 5585SOL    HW128388   4.316   2.965   0.951  0.1749  0.2054 -0.0200
 5585SOL    HW228389   4.275   2.863   1.038  0.4902  1.4600  1.6212
 5586SOL     OW28390   2.568   0.909   4.713  0.2517 -0.5948  0.5006
 5586SOL    HW128391   2.521   0.857   4.648  2.0071 -0.4640 -0.8955
 5586SOL    HW228392   2.655   0.868   4.713  1.3225  1.6747  1.4561
 5587SOL     OW28393   0.954   2.368   6.139 -0.0852  0.1655 -0.0125
 5587SOL    HW128394   0.971   2.462   6.143 -0.2914  0.2219 -0.4850
 5587SOL    HW228395   0.880   2.368   6.200 -0.1925  0.3846 -0.1396
 5588SOL     OW28396   0.134   0.507   5.286  0.3716 -0.1083 -0.3210
 5588SOL    HW128397   0.071   0.464   5.228 -0.9352 -2.0777  2.6141
 5588SOL    HW228398   0.078   0.573   5.326  4.6199  1.7328  2.6643
 5589SOL     OW28399   2.450   2.901   7.040  0.4427  0.0403 -0.3778
 5589SOL    HW128400   2.443   2.879   7.133  1.6532  0.6475 -0.1473
 5589SOL    HW228401   2.467   2.814   7.002 -3.7041 -1.3459  0.9714
 5590SOL     OW28402   2.838   2.911   3.059 -0.4451  0.2555 -0.0361
 5590SOL    HW128403   2.867   2.841   3.117  1.1933 -1.4711 -2.9337
 5590SOL    HW228404   2.800   2.869   2.981 -0.8348  2.2936 -0.9481
 5591SOL     OW28405   2.982   2.059   6.126 -0.8058 -0.0371  0.2385
 5591SOL    HW128406   2.925   2.029   6.056 -2.2227  3.4332 -0.0987
 5591SOL    HW228407   2.920   2.074   6.198 -0.0604 -1.0921  1.1001
 5592SOL     OW28408   1.778   1.719   5.337  0.0389  0.4483 -0.1128
 5592SOL    HW128409   1.721   1.747   5.265 -0.4987 -1.1782 -0.3106
 5592SOL    HW228410   1.749   1.628   5.341 -2.1480  1.1516  0.0910
 5593SOL     OW28411   0.328   2.854   5.377 -0.7582 -0.0313 -0.2139
 5593SOL    HW128412   0.409   2.873   5.328 -1.5784  2.5350 -0.5922
 5593SOL    HW228413   0.357   2.847   5.468 -0.4136 -2.0182 -0.4816
 5594SOL     OW28414   3.866   3.088   7.222 -0.3550  0.1830 -0.8588
 5594SOL    HW128415   3.774   3.066   7.237  0.1132 -1.8392 -0.9008
 5594SOL    HW228416   3.913   3.032   7.284 -0.2751  0.8236 -0.3474
 5595SOL     OW28417   3.483   4.220   1.304  0.4582 -0.4811  0.2497
 5595SOL    HW128418   3.552   4.256   1.359 -0.0207  1.2653 -0.2821
 5595SOL    HW228419   3.534   4.196   1.227  0.0988  0.3611 -0.2566
 5596SOL     OW28420   0.226   0.270   7.590 -0.4440 -0.1477 -0.0465
 5596SOL    HW128421   0.149   0.218   7.611 -1.0828  1.0200  0.4885
 5596SOL    HW228422   0.229   0.252   7.496  0.1057  0.6175 -0.1761
 5597SOL     OW28423   3.885   0.275  11.791  0.4249 -0.2451 -0.5710
 5597SOL    HW128424   3.882   0.203  11.853 -1.1160 -0.4541 -0.8797
 5597SOL    HW228425   3.791   0.291  11.781  0.0679 -2.4960 -0.8315
 5598SOL     OW28426   3.775   2.605   6.419 -0.2402  0.0494  0.3682
 5598SOL    HW128427   3.806   2.519   6.388  1.0684  0.7853 -0.3573
 5598SOL    HW228428   3.760   2.661   6.343  1.4863  0.0779  0.0390
 5599SOL     OW28429   0.694   3.244   8.822  0.2397  0.1386 -0.3369
 5599SOL    HW128430   0.696   3.338   8.805 -0.6298  0.0321 -1.0612
 5599SOL    HW228431   0.695   3.243   8.918  0.0577 -1.3799 -0.3476
 5600SOL     OW28432   4.590   2.584  13.488  0.0681 -0.5238  0.1125
 5600SOL    HW128433   4.584   2.546  13.401  0.1626  1.5242 -0.7991
 5600SOL    HW228434   4.547   2.513  13.536  0.8886 -0.8266  0.4068
 5601SOL     OW28435   0.991   2.722   9.184  1.0402 -0.2426 -0.6553
 5601SOL    HW128436   0.959   2.632   9.193  0.0579  0.2237  0.5282
 5601SOL    HW228437   1.082   2.696   9.175  1.5109  1.2822 -0.3004
 5602SOL     OW28438   3.433   0.901  11.152  0.0459  1.0400 -0.2245
 5602SOL    HW128439   3.389   0.982  11.176  0.0998  1.8436 -2.8973
 5602SOL    HW228440   3.442   0.873  11.243  0.9251  1.8656 -0.0582
 5603SOL     OW28441   0.466   3.712   6.201  0.6992 -0.1443 -0.6709
 5603SOL    HW128442   0.439   3.639   6.145  0.7109 -0.7236  0.0908
 5603SOL    HW228443   0.402   3.713   6.272 -0.2472  1.5190 -1.5241
 5604SOL     OW28444   2.772   1.215   7.440 -0.0499 -0.4951  0.1231
 5604SOL    HW128445   2.734   1.250   7.360  2.7291  1.2290 -0.4268
 5604SOL    HW228446   2.780   1.120   7.432  2.6590 -0.1955 -0.5678
 5605SOL     OW28447   3.098   3.149   7.283 -0.3046 -0.2732  0.9132
 5605SOL    HW128448   3.165   3.170   7.348 -0.7697 -0.6924  1.5271
 5605SOL    HW228449   3.045   3.081   7.325  1.6422 -1.5726  1.2721
 5606SOL     OW28450   2.265   2.283   7.334 -0.3865  0.2747  0.2343
 5606SOL    HW128451   2.189   2.332   7.303  0.0513 -0.1668 -1.5426
 5606SOL    HW228452   2.327   2.295   7.261 -2.4058  0.5380 -1.4282
 5607SOL     OW28453   3.161   0.771  15.468  0.0528  0.2625  0.3643
 5607SOL    HW128454   3.160   0.833  15.541  0.9153  1.6750 -0.8183
 5607SOL    HW228455   3.174   0.825  15.390 -2.4992 -1.0071 -0.9475
 5608SOL     OW28456   1.597   3.879  15.249  0.4898 -0.4583 -0.2082
 5608SOL    HW128457   1.665   3.930  15.293 -2.4260  3.3410 -0.1927
 5608SOL    HW228458   1.632   3.871  15.160 -0.8887 -1.4489 -0.6580
 5609SOL     OW28459   2.111   4.111   4.128 -0.1152 -0.0678  0.5477
 5609SOL    HW128460   2.142   4.028   4.092 -2.0134 -0.4746 -0.1875
 5609SOL    HW228461   2.079   4.147   4.045 -1.0402  0.0211  0.9455
 5610SOL     OW28462   1.177   0.908  17.480  0.1952  0.6583 -0.1186
 5610SOL    HW128463   1.182   0.971  17.407 -0.0482 -0.7297 -1.3361
 5610SOL    HW228464   1.088   0.909  17.513  1.0557  1.5143  2.1762
 5611SOL     OW28465   4.125   1.895  13.730  0.0132 -0.7180 -0.4295
 5611SOL    HW128466   4.035   1.928  13.731  0.2551 -0.1926  2.1122
 5611SOL    HW228467   4.167   1.955  13.792  2.0032  0.2453 -2.6637
 5612SOL     OW28468   1.969   2.465   1.986 -0.0182  0.1059 -0.0862
 5612SOL    HW128469   2.047   2.448   1.933  0.2781  1.5069 -0.0983
 5612SOL    HW228470   1.995   2.531   2.049 -0.4427 -1.0408  1.2986
 5613SOL     OW28471   3.251   1.422   7.947 -0.4864 -0.1787  0.2726
 5613SOL    HW128472   3.235   1.338   7.990  0.2005 -0.3346  0.2205
 5613SOL    HW228473   3.307   1.462   8.013 -0.2402 -0.5970  0.3128
 5614SOL     OW28474   2.501   2.568  11.191 -0.7084 -0.3252  0.0692
 5614SOL    HW128475   2.567   2.583  11.259  0.1655 -0.3126 -0.7910
 5614SOL    HW228476   2.534   2.485  11.156 -1.0978  0.0428 -1.1515
 5615SOL     OW28477   2.252   1.881  11.204  0.1621 -0.7686 -0.0858
 5615SOL    HW128478   2.201   1.941  11.257 -0.5415 -0.3881 -1.1885
 5615SOL    HW228479   2.202   1.800  11.217 -2.1123  0.8056  0.8656
 5616SOL     OW28480   4.334   1.625   2.248  0.4031 -0.1389  0.1627
 5616SOL    HW128481   4.278   1.641   2.173 -0.5301  0.8965  1.0827
 5616SOL    HW228482   4.412   1.609   2.194 -0.4193 -1.2663 -0.7055
 5617SOL     OW28483   4.527   2.810   6.623  0.0689  0.0733  0.1123
 5617SOL    HW128484   4.510   2.870   6.696 -0.8818  0.8545 -0.7394
 5617SOL    HW228485   4.440   2.773   6.607  0.7061 -0.4013 -2.3532
 5618SOL     OW28486   1.174   3.674   7.331 -0.1817 -0.0714  0.1233
 5618SOL    HW128487   1.219   3.620   7.266 -0.3241  0.3968 -0.3714
 5618SOL    HW228488   1.147   3.601   7.386 -0.6975 -0.0466 -0.1022
 5619SOL     OW28489   3.288   4.390   1.198 -0.0348  0.0069  0.0930
 5619SOL    HW128490   3.337   4.456   1.246  2.5167 -2.7602  1.3115
 5619SOL    HW228491   3.349   4.318   1.212 -0.2317  0.0512  1.1422
 5620SOL     OW28492   0.205   1.158  13.807 -0.5178  0.3444 -0.2763
 5620SOL    HW128493   0.235   1.223  13.743  3.8680  2.0189  3.4232
 5620SOL    HW228494   0.111   1.164  13.795 -0.5695  1.0541  0.3968
 5621SOL     OW28495   1.715   0.977   7.546 -0.1463  0.2884  0.3199
 5621SOL    HW128496   1.641   0.926   7.578  0.0487 -0.4485 -0.4126
 5621SOL    HW228497   1.669   1.054   7.514 -0.0852 -0.0366 -0.5487
 5622SOL     OW28498   0.045   2.950   2.075 -0.6931 -0.1633 -0.2817
 5622SOL    HW128499   0.117   2.888   2.071  0.2389  0.8171  1.5304
 5622SOL    HW228500   0.093   3.032   2.063 -1.6235  0.3504 -0.5224
 5623SOL     OW28501   3.039   0.272   8.873  0.2373  0.1520 -0.5891
 5623SOL    HW128502   3.119   0.227   8.846  1.8072  0.9049  2.6774
 5623SOL    HW228503   2.974   0.203   8.865  1.0947 -0.7689  0.2001
 5624SOL     OW28504   4.437   3.078   8.154 -0.0817 -0.1977 -0.0474
 5624SOL    HW128505   4.461   3.120   8.072 -0.1208 -2.3804 -1.1922
 5624SOL    HW228506   4.364   3.027   8.118 -2.5293  2.1691  1.5912
 5625SOL     OW28507   1.012   0.218   8.591  0.2485  0.2068  0.1112
 5625SOL    HW128508   1.091   0.167   8.605  0.8657  1.1962  0.2258
 5625SOL    HW228509   0.995   0.257   8.676  1.7296 -0.0249  0.4988
 5626SOL     OW28510   3.767   0.703  14.904  0.3161  0.0249  0.2947
 5626SOL    HW128511   3.828   0.646  14.857 -0.3608 -1.8349  1.6712
 5626SOL    HW228512   3.686   0.687  14.856  0.1206  0.0477  0.6134
 5627SOL     OW28513   3.931   0.184   2.653 -0.6148 -0.0009  0.0170
 5627SOL    HW128514   4.020   0.215   2.670  0.0395 -1.8581 -0.0224
 5627SOL    HW228515   3.882   0.220   2.727  0.5795 -0.2358  0.9216
 5628SOL     OW28516   1.872   0.584  17.284 -0.1818  0.0369 -0.5082
 5628SOL    HW128517   1.878   0.633  17.202  3.7535 -0.3190 -0.4276
 5628SOL    HW228518   1.881   0.656  17.346 -0.2944  1.5622 -2.2440
 5629SOL     OW28519   1.075   2.953   5.674 -0.2209  0.1980  0.3686
 5629SOL    HW128520   1.024   2.924   5.750  1.2935 -2.3127  0.4070
 5629SOL    HW228521   1.092   3.044   5.700 -1.0301  0.2384  0.7930
 5630SOL     OW28522   3.477   4.271   2.054  0.4462  0.2125  0.5792
 5630SOL    HW128523   3.529   4.268   1.974  1.5516  0.1867  1.2956
 5630SOL    HW228524   3.532   4.328   2.108 -0.4249 -1.2976  3.0766
 5631SOL     OW28525   2.118   3.426  13.104 -0.1592  0.0729 -0.1175
 5631SOL    HW128526   2.112   3.357  13.038  0.5482 -1.1596  1.1138
 5631SOL    HW228527   2.114   3.369  13.181 -0.6885  0.2295 -0.0277
 5632SOL     OW28528   1.149   4.191   8.119  0.3935  0.2569  0.3210
 5632SOL    HW128529   1.083   4.260   8.126 -0.2598 -0.3419  0.0525
 5632SOL    HW228530   1.160   4.174   8.026 -0.8975  3.1541 -0.3909
 5633SOL     OW28531   1.742   2.555  16.963 -0.6246  0.6099 -0.2383
 5633SOL    HW128532   1.660   2.505  16.960  0.6819 -1.5260 -0.0597
 5633SOL    HW228533   1.783   2.524  17.044  1.5532  3.0552 -0.4280
 5634SOL     OW28534   1.767   2.308   4.201  0.0834 -0.1294 -0.1029
 5634SOL    HW128535   1.814   2.230   4.170  1.3020 -0.2203  2.0152
 5634SOL    HW228536   1.679   2.270   4.200 -0.3278  0.8122  0.2628
 5635SOL     OW28537   3.779   0.978   4.244  0.5607 -0.5845  0.1142
 5635SOL    HW128538   3.695   0.977   4.198 -0.2669 -0.5920  1.6193
 5635SOL    HW228539   3.834   0.926   4.186  3.3467  1.3489  0.9695
 5636SOL     OW28540   3.307   2.339   3.020  0.6490  0.6148  0.4575
 5636SOL    HW128541   3.380   2.395   2.992  1.2216 -0.3652  0.0146
 5636SOL    HW228542   3.249   2.330   2.945  0.5369  0.8197  0.5198
 5637SOL     OW28543   1.641   4.094   3.506 -0.2634 -0.1571 -0.1946
 5637SOL    HW128544   1.733   4.120   3.511 -0.4379  0.1353  1.3959
 5637SOL    HW228545   1.633   4.065   3.415  0.1060 -0.4926 -0.1190
 5638SOL     OW28546   0.581   0.682   6.026  0.3831  0.2719 -0.4137
 5638SOL    HW128547   0.650   0.737   5.989  1.1940  0.8188  1.8833
 5638SOL    HW228548   0.512   0.696   5.962 -0.1230 -1.5327 -0.2646
 5639SOL     OW28549   1.924   1.141  15.121 -0.8775  0.5229 -0.2981
 5639SOL    HW128550   1.975   1.214  15.085  0.9048 -0.6825 -0.2185
 5639SOL    HW228551   1.892   1.196  15.192 -0.6075  1.7556 -1.1162
 5640SOL     OW28552   2.209   0.966  11.940 -0.3469 -0.4245  0.2320
 5640SOL    HW128553   2.164   0.915  11.874 -0.9990  2.1360 -1.3067
 5640SOL    HW228554   2.252   1.045  11.907  1.1357 -1.2717  0.1018
 5641SOL     OW28555   3.034   4.269   6.123 -0.3509 -0.1114  0.3871
 5641SOL    HW128556   2.984   4.350   6.122 -0.4023 -0.1401  0.8173
 5641SOL    HW228557   2.988   4.216   6.058 -2.3201  0.1218  1.6207
 5642SOL     OW28558   3.891   1.839  16.165 -0.2526 -0.2139 -0.0557
 5642SOL    HW128559   3.876   1.815  16.074 -0.3592  0.3568 -0.1920
 5642SOL    HW228560   3.838   1.773  16.210 -0.9564 -0.9801 -2.0225
 5643SOL     OW28561   2.580   2.372   3.731  0.5583  0.2638 -0.0995
 5643SOL    HW128562   2.620   2.457   3.747 -2.1484  1.3953  0.5611
 5643SOL    HW228563   2.652   2.314   3.759  0.2544  0.2649  0.6764
 5644SOL     OW28564   3.721   4.649   7.922  0.6305  0.5204  0.2764
 5644SOL    HW128565   3.799   4.596   7.938 -1.1964 -1.1028  4.0980
 5644SOL    HW228566   3.677   4.611   7.846 -1.0974  3.2187 -0.0938
 5645SOL     OW28567   2.140   3.217   5.596 -0.6681  0.4865  0.1276
 5645SOL    HW128568   2.086   3.141   5.571  0.0416 -0.2957  0.9667
 5645SOL    HW228569   2.077   3.289   5.598 -1.4680 -0.1799 -0.8491
 5646SOL     OW28570   2.884   2.232   2.905 -0.0370 -0.5227 -0.0527
 5646SOL    HW128571   2.893   2.300   2.972 -0.7190 -0.0050 -0.4850
 5646SOL    HW228572   2.801   2.193   2.934 -1.2524  1.5613 -0.7761
 5647SOL     OW28573   4.301   0.782  13.406 -0.0386  0.0228 -0.2071
 5647SOL    HW128574   4.229   0.844  13.395  1.1655  1.4426 -0.1390
 5647SOL    HW228575   4.299   0.733  13.324 -0.8665 -1.2555  0.5753
 5648SOL     OW28576   2.156   0.529  16.272 -0.2076  0.4790 -0.5822
 5648SOL    HW128577   2.157   0.462  16.340  0.7287 -0.5687 -1.6287
 5648SOL    HW228578   2.092   0.489  16.214  2.8107 -1.8435 -2.3050
 5649SOL     OW28579   3.212   2.649  11.706 -0.6367 -0.0629  0.1722
 5649SOL    HW128580   3.190   2.608  11.622 -1.1101  1.6016 -0.5058
 5649SOL    HW228581   3.176   2.587  11.769 -1.5744  0.0255 -0.2829
 5650SOL     OW28582   0.846   1.426   6.357  0.3345 -0.2858  0.3206
 5650SOL    HW128583   0.780   1.358   6.374  0.2797 -0.3360 -0.0978
 5650SOL    HW228584   0.792   1.477   6.297 -1.4890 -1.5887  0.8367
 5651SOL     OW28585   3.671   3.626   3.812 -0.1052  0.6980  0.0126
 5651SOL    HW128586   3.627   3.562   3.868 -1.5561  1.0286 -0.7492
 5651SOL    HW228587   3.732   3.560   3.778  0.2105  0.1724  1.6200
 5652SOL     OW28588   0.093   2.460  17.023  0.1949  0.2740 -0.0763
 5652SOL    HW128589   0.022   2.433  16.964 -0.7046 -1.8760  1.9635
 5652SOL    HW228590   0.038   2.450  17.101 -0.8383  0.4035 -0.7767
 5653SOL     OW28591   2.042   1.645  11.624 -0.0279  0.2023  0.4258
 5653SOL    HW128592   2.129   1.632  11.588 -0.5215 -0.5807 -0.4875
 5653SOL    HW228593   1.984   1.662  11.549  1.4647 -0.7329 -0.9209
 5654SOL     OW28594   4.117   4.268  14.071 -0.4822 -0.0728  0.3997
 5654SOL    HW128595   4.125   4.241  14.163 -2.8714  0.9694  0.9336
 5654SOL    HW228596   4.205   4.267  14.034 -0.7207 -1.6243 -0.1229
 5655SOL     OW28597   1.672   2.764  10.068 -0.3054 -0.0608  0.0071
 5655SOL    HW128598   1.594   2.716  10.098 -1.3663  1.5273 -0.1823
 5655SOL    HW228599   1.703   2.707   9.998  3.2970  1.4882  0.3429
 5656SOL     OW28600   1.861   4.533   2.955  0.4564 -0.1060 -0.0593
 5656SOL    HW128601   1.823   4.620   2.943 -0.3122 -0.5978 -1.2291
 5656SOL    HW228602   1.927   4.549   3.022  0.0709 -0.2965  0.3675
 5657SOL     OW28603   3.545   0.421   9.176 -0.6961  0.1065  0.9694
 5657SOL    HW128604   3.554   0.382   9.089 -0.4444  0.8588  0.6546
 5657SOL    HW228605   3.604   0.495   9.164  0.2563 -0.6304  1.1581
 5658SOL     OW28606   1.992   4.366  11.472 -0.3124 -0.0051 -0.1231
 5658SOL    HW128607   1.990   4.423  11.395  0.8128 -0.3663 -0.4221
 5658SOL    HW228608   1.898   4.349  11.473 -0.2299 -0.5350 -1.6863
 5659SOL     OW28609   1.019   4.041   9.218  0.5806  0.4588  0.1697
 5659SOL    HW128610   1.036   4.128   9.255  0.5373  0.0255  1.2297
 5659SOL    HW228611   0.930   4.022   9.247  0.3584  1.1348 -0.0881
 5660SOL     OW28612   3.554   0.948   2.206 -0.1775 -0.4255  0.3057
 5660SOL    HW128613   3.641   0.981   2.231 -2.3186  4.6911  0.9790
 5660SOL    HW228614   3.508   0.999   2.273 -0.2043 -0.6137  0.4283
 5661SOL     OW28615   3.925   4.121   7.077 -0.0408  0.0512  0.4388
 5661SOL    HW128616   3.935   4.098   6.984 -1.0711  0.7179  0.1650
 5661SOL    HW228617   3.831   4.121   7.093 -0.3258 -0.9279 -1.1808
 5662SOL     OW28618   2.673   1.770   7.893  0.3182 -0.2479  0.0288
 5662SOL    HW128619   2.634   1.683   7.889  3.0473 -1.3009 -3.1843
 5662SOL    HW228620   2.587   1.807   7.916  1.1837  1.4547  0.5212
 5663SOL     OW28621   0.158   0.722   2.594 -0.3151  0.1315 -0.4235
 5663SOL    HW128622   0.071   0.709   2.631  0.7523 -1.2388  1.6279
 5663SOL    HW228623   0.153   0.817   2.585 -0.6990  0.0492 -1.0719
 5664SOL     OW28624   4.083   0.388   3.650  0.1180  0.3282 -0.0932
 5664SOL    HW128625   4.131   0.423   3.725  2.5611  0.5769 -1.7393
 5664SOL    HW228626   4.153   0.337   3.609 -2.1765 -1.3469 -1.9501
 5665SOL     OW28627   3.074   2.840   5.660  0.3162 -0.5826  0.0932
 5665SOL    HW128628   3.001   2.854   5.599 -0.1508 -1.4731  0.4466
 5665SOL    HW228629   3.033   2.896   5.726 -0.8148 -0.9379 -0.3100
 5666SOL     OW28630   3.615   1.342   4.778  0.2171  0.5125 -0.2888
 5666SOL    HW128631   3.540   1.319   4.833  2.0967  1.6210  2.6822
 5666SOL    HW228632   3.580   1.425   4.748 -0.9677  0.9407  2.2863
 5667SOL     OW28633   1.276   0.358   3.574  0.6115  0.6589  0.1580
 5667SOL    HW128634   1.309   0.295   3.509  3.1329 -0.5750  2.6414
 5667SOL    HW228635   1.311   0.441   3.542 -0.9715  0.8502 -1.0788
 5668SOL     OW28636   1.968   3.488  12.635  0.1963 -0.5405 -0.0683
 5668SOL    HW128637   1.907   3.507  12.564 -0.6014 -0.9503  0.5108
 5668SOL    HW228638   2.024   3.565  12.624 -1.9548  1.0098 -0.1263
 5669SOL     OW28639   2.501   0.763   7.676 -0.0235 -0.6295  0.2817
 5669SOL    HW128640   2.567   0.822   7.713 -1.4241 -0.8650  3.1982
 5669SOL    HW228641   2.511   0.688   7.734  0.4706  0.2559  1.3544
 5670SOL     OW28642   3.657   1.594   7.509 -0.0006 -0.4272  0.0408
 5670SOL    HW128643   3.743   1.635   7.493 -0.4357  0.4454 -0.0713
 5670SOL    HW228644   3.643   1.610   7.602 -0.2218 -1.1788  0.1357
 5671SOL     OW28645   0.512   0.058   8.768  0.2044  0.3203  0.4023
 5671SOL    HW128646   0.591   0.111   8.753  1.8353 -2.2643 -0.1310
 5671SOL    HW228647   0.536   4.707   8.728 -0.6076 -0.9406  2.5585
 5672SOL     OW28648   1.048   2.198   5.552  0.3072 -0.0583 -0.2602
 5672SOL    HW128649   0.955   2.221   5.555  0.9680  2.7940 -1.6758
 5672SOL    HW228650   1.060   2.140   5.627  0.3330  2.4787  1.7111
 5673SOL     OW28651   2.841   1.143  10.491 -0.3313  0.0185 -0.1688
 5673SOL    HW128652   2.841   1.080  10.420 -2.4456 -0.8337  0.6025
 5673SOL    HW228653   2.843   1.232  10.454  1.2231 -0.9749 -2.4603
 5674SOL     OW28654   3.038   3.148   2.800 -0.1350 -0.0343  0.5370
 5674SOL    HW128655   3.040   3.174   2.892 -0.7957  2.4917 -0.1587
 5674SOL    HW228656   3.128   3.177   2.783  0.0257 -0.0742  1.3366
 5675SOL     OW28657   2.832   0.111   4.729  0.4956  0.5198  0.2782
 5675SOL    HW128658   2.887   0.047   4.684  0.5513 -0.0459  1.1309
 5675SOL    HW228659   2.881   0.126   4.810  1.4411  2.1867 -0.6239
 5676SOL     OW28660   1.564   3.338   1.964  0.2089  0.0473  0.4474
 5676SOL    HW128661   1.475   3.342   1.999 -0.1594  1.3272 -0.6431
 5676SOL    HW228662   1.563   3.252   1.922  1.1571  0.1344  0.2599
 5677SOL     OW28663   3.365   1.282  14.933  0.0679 -0.1902 -0.4061
 5677SOL    HW128664   3.339   1.342  15.003  0.9506 -1.0000  0.6231
 5677SOL    HW228665   3.461   1.281  14.926  0.2750  1.5575  2.1514
 5678SOL     OW28666   1.798   4.101   9.131 -0.2273  0.0910  0.2173
 5678SOL    HW128667   1.833   4.190   9.121 -2.7116  1.0603 -0.0922
 5678SOL    HW228668   1.845   4.080   9.211  0.0442  0.7114  0.2207
 5679SOL     OW28669   3.148   3.077   1.921 -0.4532 -0.1156 -0.5393
 5679SOL    HW128670   3.236   3.115   1.916 -0.9604  1.0903 -0.2184
 5679SOL    HW228671   3.167   2.984   1.934  2.4187  0.6537  0.8559
 5680SOL     OW28672   3.736   2.564   7.664 -0.2366 -0.1308  0.2533
 5680SOL    HW128673   3.717   2.510   7.587 -1.7786 -3.6585  3.1220
 5680SOL    HW228674   3.830   2.554   7.675  0.1491  0.0695 -2.7404
 5681SOL     OW28675   4.702   2.106   7.695 -0.3866  0.3268  0.1359
 5681SOL    HW128676   4.721   2.022   7.736 -3.5455 -0.3896  0.0920
 5681SOL    HW228677   0.059   2.126   7.667  0.2517 -1.9636  0.5093
 5682SOL     OW28678   2.431   3.848   4.325  0.1383  0.3200  0.0651
 5682SOL    HW128679   2.361   3.913   4.321  0.9259  1.2354  1.3043
 5682SOL    HW228680   2.457   3.851   4.233  0.7345  0.4917  0.2439
 5683SOL     OW28681   4.037   1.354   2.428 -0.0279  0.8794  0.0973
 5683SOL    HW128682   4.054   1.447   2.412  1.7444  0.6334  0.5065
 5683SOL    HW228683   3.955   1.359   2.477 -0.9732  0.5559 -1.4537
 5684SOL     OW28684   0.839   2.468   3.863 -0.7354 -0.5651 -0.0779
 5684SOL    HW128685   0.903   2.497   3.797 -1.9998 -0.6609 -1.3569
 5684SOL    HW228686   0.763   2.453   3.807 -0.4042 -4.3737  0.4753
 5685SOL     OW28687   0.705   1.443  11.802 -0.1386  0.5510 -0.3096
 5685SOL    HW128688   0.786   1.455  11.751  0.9403 -1.5035  0.9223
 5685SOL    HW228689   0.643   1.503  11.762  1.4709  2.7965  0.5810
 5686SOL     OW28690   4.396   3.664   1.566 -0.2356 -0.5756 -0.2564
 5686SOL    HW128691   4.442   3.668   1.482  0.2113  0.7791  0.0609
 5686SOL    HW228692   4.336   3.592   1.545 -0.6651 -0.0819 -0.7203
 5687SOL     OW28693   0.229   1.933   1.496 -0.0362 -0.0658 -0.2021
 5687SOL    HW128694   0.324   1.931   1.491  0.0675  1.3583  1.1694
 5687SOL    HW228695   0.213   1.865   1.562  0.7675  1.1684  1.2780
 5688SOL     OW28696   1.897   3.053   2.634  0.5724 -0.1258  0.3298
 5688SOL    HW128697   1.922   2.965   2.608 -0.4248 -0.7577  1.5327
 5688SOL    HW228698   1.843   3.036   2.711  1.8475 -1.0188  1.0270
 5689SOL     OW28699   1.466   0.538  14.941  0.0473  0.2706  0.0407
 5689SOL    HW128700   1.516   0.620  14.937  1.4644 -0.5313  1.3162
 5689SOL    HW228701   1.499   0.502  15.024  0.1987  0.3430  0.0121
 5690SOL     OW28702   2.172   3.504   6.685 -0.1235 -0.5253 -0.5128
 5690SOL    HW128703   2.149   3.558   6.760 -2.0189 -1.3724 -0.4730
 5690SOL    HW228704   2.198   3.418   6.718 -4.7850 -1.9770 -0.5380
 5691SOL     OW28705   0.870   1.252  16.043  0.0540  0.1316  0.0344
 5691SOL    HW128706   0.812   1.245  16.119 -0.1918 -2.4034 -0.3973
 5691SOL    HW228707   0.957   1.263  16.081  0.9733 -1.1836 -1.6841
 5692SOL     OW28708   1.051   1.443   7.407 -0.5126 -0.5570  0.4435
 5692SOL    HW128709   1.017   1.461   7.495  4.7721  1.8860  1.9224
 5692SOL    HW228710   1.082   1.533   7.398 -2.7139  0.0537 -1.2038
 5693SOL     OW28711   0.619   3.674   5.125 -0.4500 -0.4670 -0.4059
 5693SOL    HW128712   0.647   3.718   5.045 -2.4290  1.3935 -0.0499
 5693SOL    HW228713   0.668   3.718   5.194 -0.6028 -0.9432  0.0018
 5694SOL     OW28714   1.815   3.284   8.428 -0.0488 -0.1759  0.3789
 5694SOL    HW128715   1.910   3.277   8.426 -0.0880 -0.6782  0.2525
 5694SOL    HW228716   1.803   3.244   8.514 -1.0299  1.4106  0.9842
 5695SOL     OW28717   3.389   1.927   5.378 -1.1119  0.3694 -0.3122
 5695SOL    HW128718   3.362   2.018   5.392 -0.1402  0.3258  1.9537
 5695SOL    HW228719   3.331   1.881   5.439 -1.6448  2.0879  0.4761
 5696SOL     OW28720   3.446   2.170  11.932  0.1788  0.3234 -0.3054
 5696SOL    HW128721   3.534   2.155  11.967 -0.4474  1.9213  2.0051
 5696SOL    HW228722   3.440   2.264  11.952  0.8173  0.3484 -0.2289
 5697SOL     OW28723   2.759   0.437   2.181  0.7027  0.0383 -0.3823
 5697SOL    HW128724   2.680   0.457   2.131 -0.8028 -1.3442  1.5033
 5697SOL    HW228725   2.734   0.478   2.263  0.4497 -1.5780  0.3460
 5698SOL     OW28726   1.882   1.581   4.684  0.2387 -0.7423  0.1826
 5698SOL    HW128727   1.889   1.493   4.645 -2.1411 -0.3942 -1.0969
 5698SOL    HW228728   1.969   1.618   4.672  0.4558 -0.5989  2.2249
 5699SOL     OW28729   2.950   0.951  17.146  0.0507 -0.2012 -0.4718
 5699SOL    HW128730   2.972   0.972  17.056  1.3580  1.8478  0.3263
 5699SOL    HW228731   2.919   1.032  17.187 -0.1879 -1.5131  1.9367
 5700SOL     OW28732   3.526   4.626   4.561  0.1013 -0.1272  0.1374
 5700SOL    HW128733   3.543   4.645   4.653 -1.4580  0.2057  0.3587
 5700SOL    HW228734   3.490   4.710   4.533 -2.8028 -1.5750 -0.4923
 5701SOL     OW28735   3.931   3.506   6.253 -0.0067  0.3357  0.3877
 5701SOL    HW128736   3.855   3.520   6.197 -0.1919 -1.1204  0.2698
 5701SOL    HW228737   3.961   3.423   6.217  1.3418  0.0504  2.1554
 5702SOL     OW28738   2.819   2.282  12.639  0.4437 -0.0904 -0.5205
 5702SOL    HW128739   2.895   2.303  12.694 -0.9684  1.3052  0.8956
 5702SOL    HW228740   2.746   2.297  12.698  0.8305  2.5670 -0.7104
 5703SOL     OW28741   4.451   2.288  12.818 -0.4542  0.2729 -0.9181
 5703SOL    HW128742   4.392   2.243  12.757 -3.4374  1.7411  0.8584
 5703SOL    HW228743   4.394   2.349  12.866  1.6438 -0.6117  2.6549
 5704SOL     OW28744   4.094   0.039   9.708 -0.9890  0.1850 -0.0053
 5704SOL    HW128745   4.138   0.106   9.761 -0.6160 -1.6753  2.0180
 5704SOL    HW228746   4.117   4.687   9.747  0.1534  0.1259 -0.8240
 5705SOL     OW28747   4.628   3.259   5.263  0.1353  0.0350 -0.2125
 5705SOL    HW128748   4.655   3.230   5.176 -0.4841  0.5366 -0.5661
 5705SOL    HW228749   4.532   3.265   5.269  0.0761 -0.7555 -0.3746
 5706SOL     OW28750   3.902   2.131  11.756  0.2161 -0.1505  0.6758
 5706SOL    HW128751   3.937   2.100  11.840 -1.3481 -0.0040  1.3853
 5706SOL    HW228752   3.965   2.093  11.695  1.9152  1.3985  1.4798
 5707SOL     OW28753   3.753   0.969  17.118  0.2455 -0.7154 -0.0018
 5707SOL    HW128754   3.757   0.916  17.039 -1.4651 -0.5110 -0.2241
 5707SOL    HW228755   3.824   1.033  17.112  1.7048 -2.1626  1.9111
 5708SOL     OW28756   1.390   3.691   5.792 -0.2967 -0.3550  0.5156
 5708SOL    HW128757   1.348   3.772   5.821 -0.1624  0.0118 -0.3357
 5708SOL    HW228758   1.327   3.656   5.728  0.0489  0.9574 -0.5292
 5709SOL     OW28759   4.189   3.858   9.623  0.1308 -0.1488  0.0690
 5709SOL    HW128760   4.108   3.897   9.657  1.8527  2.4192  1.2908
 5709SOL    HW228761   4.248   3.837   9.696  1.1365  1.3675 -0.2898
 5710SOL     OW28762   3.562   2.499   8.953  0.1065 -0.0573 -0.3276
 5710SOL    HW128763   3.647   2.456   8.957  1.7118  3.1185 -1.3391
 5710SOL    HW228764   3.578   2.592   8.968 -0.4474 -0.0081 -0.0074
 5711SOL     OW28765   3.060   1.945   7.959  0.2044  0.0868  0.1276
 5711SOL    HW128766   3.125   1.957   7.890 -0.6647  2.9409 -0.2013
 5711SOL    HW228767   3.083   1.860   7.997 -0.3194 -0.2733 -0.3687
 5712SOL     OW28768   2.677   3.524   9.153  0.2794 -0.0694 -0.3325
 5712SOL    HW128769   2.734   3.536   9.076 -1.7304  1.7258 -1.5509
 5712SOL    HW228770   2.626   3.450   9.119 -0.1890 -1.7564  4.1109
 5713SOL     OW28771   2.961   1.845   6.448 -0.5177  0.2917 -0.0181
 5713SOL    HW128772   2.958   1.937   6.475 -1.3495  0.2891 -0.1306
 5713SOL    HW228773   2.912   1.840   6.366 -0.0542 -1.9911 -0.1665
 5714SOL     OW28774   1.078   3.515  11.915  0.6887 -0.3408 -0.3177
 5714SOL    HW128775   1.172   3.527  11.927  0.8248 -2.9496  1.1774
 5714SOL    HW228776   1.064   3.439  11.972 -1.4204  0.6987  0.5575
 5715SOL     OW28777   3.696   3.318   5.464  0.0664  0.0803 -0.9171
 5715SOL    HW128778   3.712   3.411   5.452 -1.2425  0.8179  2.8086
 5715SOL    HW228779   3.653   3.309   5.549  0.6184 -3.3594 -1.0129
 5716SOL     OW28780   2.823   0.241   0.487  0.4206  0.3871  0.1274
 5716SOL    HW128781   2.731   0.222   0.503  0.3017  0.4041 -0.5314
 5716SOL    HW228782   2.845   0.159   0.443 -1.0748  0.3375 -0.5366
 5717SOL     OW28783   3.447   2.268   3.311 -0.0069 -0.0571  0.3711
 5717SOL    HW128784   3.528   2.256   3.261 -0.6992  1.8754 -1.1900
 5717SOL    HW228785   3.406   2.183   3.327 -2.3863  1.1585  0.7437
 5718SOL     OW28786   1.389   0.463   3.134 -0.0113  0.4015 -0.0918
 5718SOL    HW128787   1.467   0.407   3.127  0.3523  0.7790  0.9965
 5718SOL    HW228788   1.400   0.519   3.058  0.1309  3.0930  1.9178
 5719SOL     OW28789   1.208   4.728   5.379 -0.5629 -0.4568  0.2656
 5719SOL    HW128790   1.114   0.004   5.395 -0.4340  1.4336  0.0774
 5719SOL    HW228791   1.217   0.067   5.317  0.1590  0.1090  1.0206
 5720SOL     OW28792   4.351   1.279   7.837 -0.5222 -0.0793 -0.2454
 5720SOL    HW128793   4.382   1.214   7.901  0.2214 -0.1198 -0.6447
 5720SOL    HW228794   4.435   1.312   7.806 -0.4404 -2.1114 -2.2101
 5721SOL     OW28795   3.442   4.063  16.929 -0.2009 -0.0831 -0.0625
 5721SOL    HW128796   3.436   3.988  16.871  0.6569 -0.3759  0.2234
 5721SOL    HW228797   3.537   4.077  16.928 -0.2004  0.1237  1.6122
 5722SOL     OW28798   0.764   0.033  10.737 -0.4275 -0.5934  0.0679
 5722SOL    HW128799   0.713   0.039  10.657  0.2048  0.5050 -0.2520
 5722SOL    HW228800   0.741   4.677  10.765 -0.9574  0.1350  1.9616
 5723SOL     OW28801   4.529   0.973   4.759 -0.0695 -0.6480  0.6461
 5723SOL    HW128802   4.553   0.911   4.828 -1.0764 -1.9044 -0.1472
 5723SOL    HW228803   4.466   0.927   4.705 -0.2497 -0.9708  1.1266
 5724SOL     OW28804   2.638   0.355   0.033  0.1961  0.2570  0.2051
 5724SOL    HW128805   2.620   0.281   0.091 -2.8968  0.8950  0.0478
 5724SOL    HW228806   2.571   0.343  17.694 -0.4069  0.1268  0.8313
 5725SOL     OW28807   3.435   1.631   5.417 -0.5084  0.1124 -1.0807
 5725SOL    HW128808   3.459   1.555   5.471  0.9177  1.8444  0.6836
 5725SOL    HW228809   3.377   1.675   5.479  0.3632 -0.2411 -0.0175
 5726SOL     OW28810   0.064   4.169   2.381 -0.4079 -0.1072 -0.2500
 5726SOL    HW128811   0.072   4.141   2.472 -0.8799  0.6786  0.0401
 5726SOL    HW228812   0.137   4.120   2.344  0.1907  0.3361  0.3664
 5727SOL     OW28813   1.417   2.620   7.549 -0.0515 -0.5611 -0.0315
 5727SOL    HW128814   1.434   2.633   7.642  0.9688 -0.1312 -0.2796
 5727SOL    HW228815   1.329   2.585   7.559 -0.9140  1.7609  0.4347
 5728SOL     OW28816   0.572   0.281   3.305  0.4321 -0.3101  0.0327
 5728SOL    HW128817   0.642   0.216   3.299  1.3413  0.6468  0.3124
 5728SOL    HW228818   0.556   0.287   3.399  0.6295  0.2852  0.0226
 5729SOL     OW28819   3.134   1.224   4.228  0.2242  0.0774  0.2696
 5729SOL    HW128820   3.228   1.230   4.212  0.4052  0.0957  1.3665
 5729SOL    HW228821   3.107   1.305   4.186 -0.4168  0.0297  0.5949
 5730SOL     OW28822   0.749   3.665   6.140  0.5863  0.0219 -0.3736
 5730SOL    HW128823   0.813   3.675   6.070  0.1173  0.2554 -0.7727
 5730SOL    HW228824   0.681   3.715   6.094 -0.0425  0.4043  0.9382
 5731SOL     OW28825   1.565   3.263   1.006  0.1435 -0.4137  0.7920
 5731SOL    HW128826   1.515   3.251   1.086 -1.1546 -0.9128 -0.0943
 5731SOL    HW228827   1.496   3.249   0.942  0.7004 -2.7720  0.7060
 5732SOL     OW28828   2.781   4.357   4.216 -0.1096 -0.3783  0.2122
 5732SOL    HW128829   2.827   4.372   4.133 -0.4368 -2.1615 -0.2967
 5732SOL    HW228830   2.841   4.300   4.264 -0.0914 -0.4502  0.1065
 5733SOL     OW28831   0.349   2.762   3.600 -0.4178 -0.1714  0.1205
 5733SOL    HW128832   0.390   2.840   3.563  0.9696 -1.1219 -0.3400
 5733SOL    HW228833   0.328   2.705   3.526 -1.7953 -1.8329  1.7828
 5734SOL     OW28834   4.193   2.504   3.130  0.8698 -0.8937 -0.0595
 5734SOL    HW128835   4.141   2.562   3.185  0.3724  0.2867 -1.7609
 5734SOL    HW228836   4.124   2.452   3.088  1.3005 -0.4641 -1.2958
 5735SOL     OW28837   4.612   0.020   2.170 -0.4387 -0.0607  0.5223
 5735SOL    HW128838   4.632   0.114   2.170 -0.1334 -0.1213 -1.3751
 5735SOL    HW228839   4.542   0.023   2.235  0.0461  1.7471  0.9681
 5736SOL     OW28840   4.639   0.111  15.236 -0.2150  0.1532 -0.1596
 5736SOL    HW128841   4.706   0.050  15.205 -1.1274  0.4073 -2.6005
 5736SOL    HW228842   4.663   0.131  15.327  0.2507 -1.9856  0.1754
 5737SOL     OW28843   0.151   0.860  11.006  0.1617 -0.0332  0.3106
 5737SOL    HW128844   0.154   0.872  10.911 -1.8278 -1.4490  0.0718
 5737SOL    HW228845   0.078   0.798  11.006  1.3051 -1.3737  0.7335
 5738SOL     OW28846   2.476   0.843   5.423  0.1894 -0.4672  0.3348
 5738SOL    HW128847   2.397   0.811   5.467 -1.3508  1.6702 -0.9019
 5738SOL    HW228848   2.509   0.753   5.420 -0.2193 -0.6886  2.0694
 5739SOL     OW28849   0.430   4.461  11.749  0.3069 -0.0779  0.0461
 5739SOL    HW128850   0.392   4.387  11.795  1.1753 -0.7941 -0.3996
 5739SOL    HW228851   0.350   4.508  11.722 -0.4745 -1.2199  0.3881
 5740SOL     OW28852   0.864   2.582   7.629 -0.2109 -0.3302 -0.5153
 5740SOL    HW128853   0.785   2.623   7.665 -1.7838 -1.7004 -2.4375
 5740SOL    HW228854   0.903   2.557   7.713  0.5414  1.8948 -0.2000
 5741SOL     OW28855   4.074   2.908   3.905 -0.3776  0.3332  0.0210
 5741SOL    HW128856   3.991   2.860   3.909 -2.0224  3.2941  1.5251
 5741SOL    HW228857   4.082   2.941   3.815  0.0527  1.4354  0.4641
 5742SOL     OW28858   3.294   2.999   9.454  0.3924  0.3476  0.3435
 5742SOL    HW128859   3.215   3.043   9.485 -0.1443 -2.7049  3.2901
 5742SOL    HW228860   3.315   3.057   9.380 -0.9398  0.9507  0.4465
 5743SOL     OW28861   2.516   4.710  12.459 -0.4390 -0.5115 -0.4404
 5743SOL    HW128862   2.576   4.715  12.385 -1.0800 -1.1815 -1.0035
 5743SOL    HW228863   2.434   0.015  12.427  0.5025  0.1162 -2.1454
 5744SOL     OW28864   0.214   3.819   9.853  0.0334 -0.2041 -0.2894
 5744SOL    HW128865   0.167   3.814   9.770 -2.1934 -1.4206  1.0457
 5744SOL    HW228866   0.253   3.905   9.837  2.5877 -1.4137 -0.6840
 5745SOL     OW28867   0.287   3.081   5.083 -0.2358  0.8796 -0.0892
 5745SOL    HW128868   0.358   3.131   5.122 -0.9437  0.2648  1.9627
 5745SOL    HW228869   0.237   3.067   5.163 -0.4299  1.8701 -0.0358
 5746SOL     OW28870   0.271   2.128   2.222 -0.1237  0.3929  0.0291
 5746SOL    HW128871   0.352   2.136   2.173 -0.7617  0.1491 -1.0606
 5746SOL    HW228872   0.203   2.173   2.172  0.1578 -0.8473 -1.4496
 5747SOL     OW28873   3.010   2.934  14.742 -0.1354  0.2195 -0.0398
 5747SOL    HW128874   2.935   2.887  14.778 -0.3280  0.1455 -0.5415
 5747SOL    HW228875   3.041   2.993  14.811  0.7560  1.1978 -1.2837
 5748SOL     OW28876   1.713   3.186   9.920 -0.1042  0.1848 -0.0299
 5748SOL    HW128877   1.765   3.106   9.924 -1.9437 -0.8874  2.3744
 5748SOL    HW228878   1.635   3.148   9.961  0.1547 -0.3515 -0.0296
 5749SOL     OW28879   4.447   1.846   7.740  0.0045  0.1484 -0.0185
 5749SOL    HW128880   4.503   1.773   7.767  0.1804  0.3435  0.1443
 5749SOL    HW228881   4.495   1.868   7.659  1.7862 -1.6290  0.5536
 5750SOL     OW28882   1.632   1.018   4.064 -0.0528 -0.0231  0.6874
 5750SOL    HW128883   1.683   1.053   4.137 -0.0847  1.1404  0.1490
 5750SOL    HW228884   1.613   0.928   4.090  1.6281 -1.5395 -3.4415
 5751SOL     OW28885   4.558   4.318   6.279  0.4334 -0.0023 -0.6110
 5751SOL    HW128886   4.550   4.314   6.183 -2.5318 -1.5245 -0.3119
 5751SOL    HW228887   4.640   4.366   6.288 -0.1605  1.1153 -1.1401
 5752SOL     OW28888   3.980   1.920  15.281  0.1879 -0.1547  0.3738
 5752SOL    HW128889   4.026   1.955  15.205  0.4759 -1.1217  0.1033
 5752SOL    HW228890   3.903   1.878  15.245  0.3973  0.0969 -0.3578
 5753SOL     OW28891   0.015   4.569  14.747 -0.4185  0.1894  0.6761
 5753SOL    HW128892   0.032   4.541  14.837  0.9883  1.5941  0.8402
 5753SOL    HW228893   4.684   4.507  14.710 -0.4964 -0.4351  1.8374
 5754SOL     OW28894   0.163   1.449  16.869  0.1945  0.3287  0.0357
 5754SOL    HW128895   0.140   1.426  16.959  1.6630 -0.0742  0.3195
 5754SOL    HW228896   0.220   1.526  16.882  1.7397 -1.0465  1.3835
 5755SOL     OW28897   0.610   1.374  14.684  0.1869  0.3008 -0.0578
 5755SOL    HW128898   0.613   1.458  14.729 -3.8606 -0.1961  1.1390
 5755SOL    HW228899   0.691   1.330  14.710  2.3958  4.1971 -0.3723
 5756SOL     OW28900   2.788   0.410   5.006  0.1557 -0.5383  0.8436
 5756SOL    HW128901   2.872   0.384   4.968 -1.4381 -1.2872 -2.1591
 5756SOL    HW228902   2.815   0.412   5.098 -1.7616  0.7378  1.3842
 5757SOL     OW28903   2.174   2.868   6.285  0.5822 -0.0396 -0.3571
 5757SOL    HW128904   2.105   2.873   6.350 -0.4150 -0.7518 -1.3569
 5757SOL    HW228905   2.136   2.917   6.212  1.8854 -1.3652 -1.9245
 5758SOL     OW28906   4.309   4.126   6.323 -0.3035  0.1398 -0.1039
 5758SOL    HW128907   4.287   4.179   6.400  0.3722 -0.0708  0.2361
 5758SOL    HW228908   4.354   4.189   6.267 -0.8430  1.2887  0.7375
 5759SOL     OW28909   1.758   2.767   6.237 -0.0654  0.4362  0.3499
 5759SOL    HW128910   1.784   2.858   6.223  0.7543  0.4960  2.2369
 5759SOL    HW228911   1.765   2.718   6.155  0.8064  0.7892  0.2214
 5760SOL     OW28912   1.986   0.608   5.589  0.5109 -0.3491  0.5030
 5760SOL    HW128913   1.948   0.669   5.652  0.3101 -0.3074  0.3420
 5760SOL    HW228914   1.924   0.536   5.597  0.1182 -0.0409  0.2429
 5761SOL     OW28915   1.032   2.970  10.496  0.1134 -0.5859  0.6444
 5761SOL    HW128916   0.985   2.893  10.527 -3.7832  1.0647 -1.2074
 5761SOL    HW228917   0.955   3.015  10.462  0.6340  0.2449  0.5699
 5762SOL     OW28918   3.485   2.256  10.066  0.4207 -0.5410 -0.0734
 5762SOL    HW128919   3.439   2.215  10.140 -0.1317  0.3205  0.0637
 5762SOL    HW228920   3.434   2.240   9.987  1.8186 -2.0429 -0.6605
 5763SOL     OW28921   3.134   0.937   4.081 -0.3403  0.0226 -0.3011
 5763SOL    HW128922   3.139   1.014   4.137  3.9481  0.3326 -1.1289
 5763SOL    HW228923   3.057   0.957   4.028 -0.3962  0.3382 -0.0986
 5764SOL     OW28924   2.203   0.973   4.459  0.2740 -0.3315  0.1574
 5764SOL    HW128925   2.205   0.967   4.555 -0.2895  0.2630  0.2063
 5764SOL    HW228926   2.167   1.060   4.444 -0.8493 -0.8510 -0.0933
 5765SOL     OW28927   3.633   0.882  16.437 -0.0294 -0.4148 -0.0271
 5765SOL    HW128928   3.714   0.849  16.475  1.5790  1.8930 -1.4343
 5765SOL    HW228929   3.642   0.973  16.466  0.6108 -0.6386  0.4963
 5766SOL     OW28930   4.680   4.679   5.540  0.0015 -0.2183 -0.0723
 5766SOL    HW128931   4.706   0.004   5.468  0.4878  1.7479  1.6458
 5766SOL    HW228932   4.639   4.600   5.506 -1.2021  0.6057 -0.5030
 5767SOL     OW28933   4.621   4.117   1.948 -0.2894  0.0880 -0.2400
 5767SOL    HW128934   4.691   4.057   1.973 -1.4765 -0.7276  1.0822
 5767SOL    HW228935   4.540   4.066   1.949  0.8874 -1.7710 -0.0848
 5768SOL     OW28936   1.222   0.915   9.584  0.3636 -0.4836  0.3524
 5768SOL    HW128937   1.217   0.874   9.497  2.2785  0.2496 -0.1030
 5768SOL    HW228938   1.317   0.910   9.584  0.3281 -1.1166 -0.1214
 5769SOL     OW28939   4.011   1.217   8.986 -0.6132  0.7806  0.5931
 5769SOL    HW128940   4.010   1.313   8.979 -0.7678  0.8803  2.0690
 5769SOL    HW228941   3.940   1.191   8.927  1.0896  0.3603 -1.2556
 5770SOL     OW28942   3.758   0.564   8.614 -0.1640 -0.0173 -0.0646
 5770SOL    HW128943   3.819   0.568   8.688  1.3452  0.8010 -1.3356
 5770SOL    HW228944   3.703   0.638   8.640  0.3709 -0.1647  1.4973
 5771SOL     OW28945   2.257   3.909   7.154 -0.6252 -0.1132  0.2054
 5771SOL    HW128946   2.298   3.823   7.164  0.2756  0.4510  1.2837
 5771SOL    HW228947   2.233   3.925   7.246 -0.0545 -0.7675  0.4664
 5772SOL     OW28948   1.502   2.204   7.487 -0.7762 -0.8243 -0.6568
 5772SOL    HW128949   1.412   2.179   7.464 -1.1170 -0.3009  0.1104
 5772SOL    HW228950   1.553   2.150   7.426 -0.2399  1.9728 -2.6906
 5773SOL     OW28951   0.200   0.560   1.196 -0.3554  0.4611  0.3448
 5773SOL    HW128952   0.155   0.592   1.274  0.7027  0.9536  0.7563
 5773SOL    HW228953   0.287   0.595   1.216 -1.4210  2.8695  0.7774
 5774SOL     OW28954   2.571   0.318   1.720 -0.1761  0.6296 -0.5347
 5774SOL    HW128955   2.570   0.249   1.786 -1.3925  0.5175 -0.6727
 5774SOL    HW228956   2.662   0.323   1.691 -0.2427  1.4708 -0.5960
 5775SOL     OW28957   0.851   1.590   4.521  0.1622  0.8910  0.1917
 5775SOL    HW128958   0.776   1.616   4.575 -1.2738 -0.3586 -1.1845
 5775SOL    HW228959   0.853   1.669   4.468 -0.0092  0.1430 -0.9359
 5776SOL     OW28960   4.470   0.097   3.295 -0.2761 -0.8653 -0.1119
 5776SOL    HW128961   4.467   0.171   3.234  0.5598 -0.4137  0.3928
 5776SOL    HW228962   4.376   0.083   3.302 -0.1620 -0.8150  1.4719
 5777SOL     OW28963   3.235   3.466   3.204 -0.4213 -0.0187  0.7136
 5777SOL    HW128964   3.242   3.429   3.292  0.5882  0.6413  0.9122
 5777SOL    HW228965   3.264   3.554   3.225  0.1478  0.1031 -0.5707
 5778SOL     OW28966   4.056   1.009   2.824 -0.4489  0.3452  0.1509
 5778SOL    HW128967   4.124   1.038   2.764  1.2711 -0.3413  1.7731
 5778SOL    HW228968   3.999   0.951   2.774  2.5353 -0.7026 -2.0225
 5779SOL     OW28969   2.685   1.196   1.333 -0.3713 -0.0401  0.1241
 5779SOL    HW128970   2.780   1.210   1.339 -0.3487 -0.2629  0.2986
 5779SOL    HW228971   2.676   1.124   1.395  0.1365 -0.4943 -0.3357
 5780SOL     OW28972   0.544   0.053   9.563 -0.2348  0.4046  0.1068
 5780SOL    HW128973   0.610   0.007   9.616  0.3021 -0.2748 -1.1545
 5780SOL    HW228974   0.589   0.076   9.482 -0.6896  0.6216 -0.0833
 5781SOL     OW28975   3.337   4.403   4.605 -0.9617  0.2413  0.4443
 5781SOL    HW128976   3.423   4.361   4.607 -0.7156  0.5722 -2.5130
 5781SOL    HW228977   3.283   4.337   4.649  0.0520 -0.1860  1.0230
 5782SOL     OW28978   2.301   1.589   8.498  0.8896  0.3803  0.1261
 5782SOL    HW128979   2.287   1.495   8.507 -0.8896  0.4994 -1.5829
 5782SOL    HW228980   2.298   1.598   8.403  1.9244 -1.3179 -0.0539
 5783SOL     OW28981   2.333   0.283   8.067  0.6688  0.7088  0.1057
 5783SOL    HW128982   2.287   0.334   8.133 -1.6628  0.2468 -1.1572
 5783SOL    HW228983   2.314   0.325   7.982 -1.5933 -1.9222 -0.6848
 5784SOL     OW28984   2.227   1.006   4.120  0.5143 -0.9295 -0.3160
 5784SOL    HW128985   2.169   0.994   4.196 -0.1155  0.6216 -0.5424
 5784SOL    HW228986   2.308   0.975   4.159  0.0255 -0.3257  1.1844
 5785SOL     OW28987   0.172   0.068   7.875 -0.0912  0.2229 -0.2226
 5785SOL    HW128988   0.093   0.102   7.834  0.4155  1.3473 -0.2712
 5785SOL    HW228989   0.146   0.066   7.967 -1.1423 -1.6912 -0.5717
 5786SOL     OW28990   0.850   4.060   6.761 -0.7693  0.1179  0.4271
 5786SOL    HW128991   0.763   4.093   6.783 -1.4961 -1.9798  0.6727
 5786SOL    HW228992   0.828   3.978   6.718 -0.0623 -0.1336  0.5361
 5787SOL     OW28993   2.226   1.372   6.531 -0.3174 -0.1520 -0.8004
 5787SOL    HW128994   2.262   1.461   6.527 -1.9515  0.5259 -0.4406
 5787SOL    HW228995   2.258   1.347   6.618 -2.3211  1.4621  0.4039
 5788SOL     OW28996   4.524   0.192   0.261  0.1872  0.1732  0.4550
 5788SOL    HW128997   4.535   0.157   0.350 -1.0548 -1.4407 -0.0207
 5788SOL    HW228998   4.604   0.244   0.257  1.4595 -1.7193  1.5641
 5789SOL     OW28999   3.791   0.667  14.625  0.0605 -0.0628 -0.2841
 5789SOL    HW129000   3.803   0.595  14.563  1.6408 -0.8764  0.9378
 5789SOL    HW229001   3.697   0.660  14.639  0.1368 -1.3592 -0.3488
 5790SOL     OW29002   4.065   0.434   4.374  0.1211 -0.6652  0.7381
 5790SOL    HW129003   4.096   0.343   4.373 -0.0799 -0.7320  0.4737
 5790SOL    HW229004   3.996   0.423   4.308 -1.4144 -0.2791  2.2915
 5791SOL     OW29005   2.124   3.247  15.178 -0.4687  0.2714 -0.2696
 5791SOL    HW129006   2.102   3.154  15.180 -2.4778  0.7702  0.8395
 5791SOL    HW229007   2.052   3.276  15.123  0.1776  1.9614 -0.2367
 5792SOL     OW29008   2.094   4.092   5.628 -0.1541  0.5853 -0.0895
 5792SOL    HW129009   2.100   4.019   5.689  2.5548  2.0000  1.3039
 5792SOL    HW229010   2.029   4.054   5.569  2.1618 -1.9941 -0.9814
 5793SOL     OW29011   0.238   3.073   5.601  0.4065  0.1849  0.2375
 5793SOL    HW129012   0.159   3.021   5.590 -1.5175  2.8623  1.4833
 5793SOL    HW229013   0.242   3.064   5.696 -0.3077  0.2345  0.2743
 5794SOL     OW29014   4.074   2.075   5.573  0.3026  0.1304 -0.3485
 5794SOL    HW129015   3.993   2.125   5.562  1.1951  0.8055 -3.7096
 5794SOL    HW229016   4.139   2.135   5.537  0.1056 -0.8288 -2.2930
 5795SOL     OW29017   3.905   1.913   5.805 -0.2661 -0.5723  0.1214
 5795SOL    HW129018   3.938   1.975   5.741 -2.1446  0.2089 -0.0872
 5795SOL    HW229019   3.904   1.977   5.876 -0.9955  0.9721 -1.2861
 5796SOL     OW29020   1.625   3.193   9.637 -0.0991  0.2195  0.0756
 5796SOL    HW129021   1.662   3.181   9.724  1.8106 -0.0174 -0.7615
 5796SOL    HW229022   1.591   3.103   9.632 -0.4857  0.5264 -2.7560
 5797SOL     OW29023   1.010   2.179   1.535  0.4841 -0.2678  0.1097
 5797SOL    HW129024   1.014   2.275   1.534 -0.6558 -0.2158  1.8001
 5797SOL    HW229025   0.967   2.171   1.450  0.1127  1.5502  0.1299
 5798SOL     OW29026   0.209   4.646  11.704 -0.9148  0.3717  0.3790
 5798SOL    HW129027   0.116   4.663  11.693 -1.0073 -0.6839 -0.5004
 5798SOL    HW229028   0.241   0.000  11.678  2.1946 -1.1510 -0.8605
 5799SOL     OW29029   4.297   1.880  14.352 -0.3063 -0.4288 -0.6283
 5799SOL    HW129030   4.367   1.928  14.396 -0.7458 -1.1932  0.8915
 5799SOL    HW229031   4.350   1.821  14.299  0.0518  0.3309 -1.1145
 5800SOL     OW29032   3.168   2.271   2.803 -0.1653 -0.0720  0.3791
 5800SOL    HW129033   3.080   2.236   2.815 -0.7530  1.4084  0.4167
 5800SOL    HW229034   3.199   2.233   2.721  2.1404 -4.5130  3.3187
 5801SOL     OW29035   0.153   4.611  13.536  0.4631 -0.0335  0.6061
 5801SOL    HW129036   0.063   4.644  13.536  0.2422 -0.6402  1.1549
 5801SOL    HW229037   0.147   4.518  13.561 -0.9302  0.1595  0.9797
 5802SOL     OW29038   1.045   0.611   8.031  0.0414 -0.3831 -0.3353
 5802SOL    HW129039   1.102   0.655   8.094 -1.0983 -0.5506  0.7937
 5802SOL    HW229040   1.050   0.672   7.957  1.8151  0.8933  0.8384
 5803SOL     OW29041   1.516   4.341   7.010  0.9012  0.3917 -0.1594
 5803SOL    HW129042   1.483   4.272   7.068 -0.4147  0.2546 -1.0729
 5803SOL    HW229043   1.439   4.376   6.966  0.7436  0.7116  0.3580
 5804SOL     OW29044   3.361   1.319   6.403  0.0745  0.5399  0.2926
 5804SOL    HW129045   3.277   1.311   6.448 -1.3442  0.9326 -2.2759
 5804SOL    HW229046   3.397   1.389   6.458 -0.0820 -0.4092  1.5969
 5805SOL     OW29047   0.342   0.424  12.287 -0.0869  0.3524 -0.0735
 5805SOL    HW129048   0.378   0.509  12.312 -2.2051  1.4182 -0.6426
 5805SOL    HW229049   0.255   0.446  12.322 -0.1649  1.6406 -1.0621
 5806SOL     OW29050   0.216   0.701   7.436  0.1939  0.3935  0.1584
 5806SOL    HW129051   0.306   0.681   7.464 -0.4103 -1.7349  0.5099
 5806SOL    HW229052   0.209   0.797   7.438  0.5179  0.4549 -1.4762
 5807SOL     OW29053   4.332   2.460   7.182  0.0810 -0.4229  0.0602
 5807SOL    HW129054   4.285   2.538   7.155  1.5456 -0.3329 -2.1665
 5807SOL    HW229055   4.415   2.499   7.155  0.3748 -0.6937  0.5632
 5808SOL     OW29056   1.393   0.902   7.139  0.3352  0.1206 -0.1774
 5808SOL    HW129057   1.317   0.867   7.093 -1.0638  0.0411  2.2069
 5808SOL    HW229058   1.454   0.830   7.122 -0.3158 -0.2127 -1.1388
 5809SOL     OW29059   2.981   0.001   5.834 -0.5961 -0.3685 -0.1550
 5809SOL    HW129060   2.888   4.719   5.817 -1.0831  1.9867  0.5398
 5809SOL    HW229061   2.986   0.089   5.797  0.6539  0.1286  1.2070
 5810SOL     OW29062   2.904   4.472   6.355  0.1284 -0.7287  0.4462
 5810SOL    HW129063   2.833   4.535   6.346 -0.6840 -1.9089 -1.4204
 5810SOL    HW229064   2.877   4.404   6.417  1.6534 -1.7670 -0.0373
 5811SOL     OW29065   2.221   0.835  15.500 -0.0326  0.3959 -0.7386
 5811SOL    HW129066   2.304   0.880  15.513  0.0983  0.0947 -0.5275
 5811SOL    HW229067   2.215   0.764  15.564 -1.0672  1.5904  0.4990
 5812SOL     OW29068   0.700   0.961   5.287 -0.2263  0.0237 -0.3697
 5812SOL    HW129069   0.782   0.984   5.332 -1.1676  3.1195 -0.2394
 5812SOL    HW229070   0.687   1.047   5.247 -2.9705 -0.6689 -0.9331
 5813SOL     OW29071   2.246   3.131  16.664  0.5431 -0.1763 -0.6465
 5813SOL    HW129072   2.188   3.056  16.654 -0.8038  0.9638 -1.4493
 5813SOL    HW229073   2.204   3.174  16.739 -0.2131 -1.5970 -0.2503
 5814SOL     OW29074   3.527   1.618   8.580 -0.2045  0.1066  0.9286
 5814SOL    HW129075   3.450   1.675   8.573 -1.7058 -2.0821 -0.5679
 5814SOL    HW229076   3.581   1.632   8.502  2.6322 -0.8735  2.7218
 5815SOL     OW29077   1.054   4.419   3.430 -0.3442  0.4350 -0.3983
 5815SOL    HW129078   1.136   4.419   3.379  0.2149 -0.8896  0.4984
 5815SOL    HW229079   1.083   4.375   3.510  1.4506 -0.9508 -1.7787
 5816SOL     OW29080   2.013   1.358  10.643 -0.3603  0.4159  0.2096
 5816SOL    HW129081   2.032   1.364  10.737  0.1377 -0.5218  0.1707
 5816SOL    HW229082   2.091   1.392  10.600 -1.6930  1.3006 -1.5274
 5817SOL     OW29083   3.342   0.960   4.830  0.2396 -0.4000 -0.2129
 5817SOL    HW129084   3.352   1.029   4.765  1.7230 -1.2905 -0.9386
 5817SOL    HW229085   3.249   0.938   4.818  0.0391  0.1150  0.4233
 5818SOL     OW29086   3.640   2.529   4.537  0.5395 -0.0214 -0.1248
 5818SOL    HW129087   3.636   2.591   4.464 -1.3911  0.4878  0.3952
 5818SOL    HW229088   3.734   2.523   4.551  0.0298 -0.7785  2.9804
 5819SOL     OW29089   4.348   1.985   2.077  0.2474 -0.3601  0.0937
 5819SOL    HW129090   4.428   1.966   2.127 -0.8103  1.1290  2.3459
 5819SOL    HW229091   4.298   2.001   2.156  0.3586 -1.2544  0.3468
 5820SOL     OW29092   4.521   1.019   4.164 -0.2962  0.1365  0.5034
 5820SOL    HW129093   4.449   1.023   4.226 -1.0928  2.3491 -0.5873
 5820SOL    HW229094   4.590   1.074   4.201 -0.9016 -0.9892  3.3377
 5821SOL     OW29095   4.714   1.286   1.622  0.0909  0.0082 -0.0182
 5821SOL    HW129096   4.675   1.247   1.701 -1.2021  1.9543  0.3190
 5821SOL    HW229097   4.633   1.301   1.573  1.2823 -0.3316 -2.1002
 5822SOL     OW29098   1.609   0.993   3.454  0.2520 -0.5723 -0.2360
 5822SOL    HW129099   1.676   0.974   3.519  1.4115  0.0022 -1.2703
 5822SOL    HW229100   1.531   0.958   3.498  0.3601 -2.3216 -1.4313
 5823SOL     OW29101   3.052   1.907  10.177  0.1942 -0.1672 -0.1147
 5823SOL    HW129102   3.131   1.862  10.148 -0.5355 -0.4882 -1.5912
 5823SOL    HW229103   3.060   2.001  10.159 -0.7615 -0.1218 -0.3256
 5824SOL     OW29104   1.121   3.077   2.884 -0.1950 -0.0879  0.2126
 5824SOL    HW129105   1.100   3.160   2.928 -0.4822 -0.3503  0.5713
 5824SOL    HW229106   1.190   3.060   2.948  0.4902 -1.4256 -0.8738
 5825SOL     OW29107   2.383   1.490   9.117  0.0087 -0.1888 -0.0914
 5825SOL    HW129108   2.408   1.443   9.197  0.1131 -0.9707 -0.5951
 5825SOL    HW229109   2.468   1.486   9.075 -0.7652  0.4175 -1.7199
 5826SOL     OW29110   4.393   2.026   2.453 -0.3334 -0.3635  0.4120
 5826SOL    HW129111   4.318   2.022   2.393  1.2546  0.8449 -1.6508
 5826SOL    HW229112   4.403   1.937   2.487 -1.9449 -1.1201 -1.1181
 5827SOL     OW29113   1.314   2.723   1.476 -0.2929 -0.0480 -0.3895
 5827SOL    HW129114   1.383   2.763   1.424 -0.8391  2.2609  0.6696
 5827SOL    HW229115   1.350   2.650   1.527 -1.1138 -0.6835 -0.7251
 5828SOL     OW29116   0.807   2.020   8.943 -0.0349 -0.4821  0.4627
 5828SOL    HW129117   0.861   2.097   8.965 -0.4701 -0.3750  1.1553
 5828SOL    HW229118   0.873   1.951   8.948  1.1353  0.5541 -0.6428
 5829SOL     OW29119   3.834   2.760   3.619 -0.1896  0.3401 -0.2427
 5829SOL    HW129120   3.819   2.789   3.529  0.1520  1.0063 -0.0791
 5829SOL    HW229121   3.929   2.766   3.619 -0.2257  0.8691 -2.0931
 5830SOL     OW29122   0.222   4.567   5.679 -0.1624  0.1329  0.4343
 5830SOL    HW129123   0.154   4.595   5.617 -0.2364  1.7530  1.2430
 5830SOL    HW229124   0.296   4.610   5.637 -0.0247 -0.4103  0.1248
 5831SOL     OW29125   4.042   2.797   1.630  0.0485  0.1011 -0.5429
 5831SOL    HW129126   4.107   2.851   1.585  0.7850 -0.2884  0.0409
 5831SOL    HW229127   4.076   2.707   1.629  1.6173  0.6984 -0.4918
 5832SOL     OW29128   1.249   0.432   0.996 -0.0392 -0.3722 -0.6635
 5832SOL    HW129129   1.263   0.463   1.085  0.4723 -0.6858 -0.6392
 5832SOL    HW229130   1.160   0.466   0.982  0.5219  0.6780 -1.7342
 5833SOL     OW29131   2.710   1.509   7.624  0.6419  0.2635 -0.2692
 5833SOL    HW129132   2.725   1.416   7.608 -2.0817 -0.5701  1.9709
 5833SOL    HW229133   2.665   1.528   7.541 -0.8555 -2.2034 -0.0075
 5834SOL     OW29134   2.958   0.859   6.663  0.8980  0.0434 -0.7782
 5834SOL    HW129135   2.865   0.839   6.663  0.8171  0.4089 -1.4882
 5834SOL    HW229136   2.959   0.954   6.676 -1.8655  0.0549 -0.5979
 5835SOL     OW29137   0.352   3.578  16.532  0.3836  0.3906  0.1149
 5835SOL    HW129138   0.364   3.580  16.627  0.2609  1.3356  0.1055
 5835SOL    HW229139   0.432   3.559  16.483  1.2045 -2.5603  2.5728
 5836SOL     OW29140   3.128   2.608   6.978  0.1238  0.5689 -1.0087
 5836SOL    HW129141   3.097   2.572   6.895 -0.7562 -2.7952  0.7848
 5836SOL    HW229142   3.223   2.596   6.972  0.1188  0.2345 -0.4305
 5837SOL     OW29143   3.732   4.257   5.216 -0.1723  0.1800  0.3285
 5837SOL    HW129144   3.764   4.218   5.134  2.2671 -1.3269  1.9903
 5837SOL    HW229145   3.817   4.267   5.259 -1.1960  0.2910  2.3235
 5838SOL     OW29146   3.701   2.876   6.959  0.2529  0.3415  0.0317
 5838SOL    HW129147   3.771   2.894   6.896 -0.4232 -2.3937 -1.5112
 5838SOL    HW229148   3.643   2.950   6.940 -1.2253 -1.0054 -0.6463
 5839SOL     OW29149   1.978   2.069   7.733  0.6931  0.0733 -0.1296
 5839SOL    HW129150   1.925   1.990   7.722  3.0255 -1.5021 -0.1110
 5839SOL    HW229151   1.930   2.133   7.681  2.2625  2.1338  0.9865
 5840SOL     OW29152   4.133   3.570  10.796 -0.8781 -0.4199  0.3855
 5840SOL    HW129153   4.075   3.496  10.777  0.1283 -0.9559 -0.6223
 5840SOL    HW229154   4.216   3.521  10.796 -0.3184  0.5537  1.6755
 5841SOL     OW29155   3.320   2.506   3.303 -0.4652 -0.3560  0.7109
 5841SOL    HW129156   3.358   2.418   3.298 -0.2669 -0.1444 -1.6137
 5841SOL    HW229157   3.371   2.543   3.231 -1.5357 -1.1566 -0.4745
 5842SOL     OW29158   2.741   3.857   2.275  0.4806 -0.2935 -0.0631
 5842SOL    HW129159   2.733   3.836   2.368 -0.5190 -0.1481 -0.1140
 5842SOL    HW229160   2.784   3.774   2.254 -0.6681 -0.8758 -0.1522
 5843SOL     OW29161   0.810   1.756   4.306 -0.5236  0.0769  0.3001
 5843SOL    HW129162   0.740   1.735   4.244 -1.1140  0.5510  0.8061
 5843SOL    HW229163   0.777   1.841   4.336 -2.1901 -0.2628 -0.5543
 5844SOL     OW29164   3.970   0.537   9.212 -0.1550  0.5540  0.1312
 5844SOL    HW129165   3.972   0.442   9.220  0.0672  0.2060 -4.0885
 5844SOL    HW229166   3.933   0.555   9.299 -0.8954 -1.1857  0.1783
 5845SOL     OW29167   1.945   1.526   8.441 -0.0861  0.9290  0.0634
 5845SOL    HW129168   1.950   1.476   8.360  2.0512  0.8409  0.2640
 5845SOL    HW229169   2.003   1.480   8.501 -0.7957 -0.1862 -0.1075
 5846SOL     OW29170   2.617   1.784   4.207 -0.2584 -0.6099 -1.1764
 5846SOL    HW129171   2.567   1.705   4.186  0.3559 -1.2436 -0.2648
 5846SOL    HW229172   2.547   1.847   4.187 -0.2058  0.2294  1.3063
 5847SOL     OW29173   1.827   2.569   4.259 -0.3767 -0.0529 -0.1030
 5847SOL    HW129174   1.835   2.575   4.354 -1.9437 -0.6280  0.0563
 5847SOL    HW229175   1.793   2.481   4.249  2.0628 -0.9034 -0.9342
 5848SOL     OW29176   4.393   4.063   7.940  0.7315 -0.5662 -0.5962
 5848SOL    HW129177   4.402   4.112   7.859  1.3209  0.9037  0.3469
 5848SOL    HW229178   4.298   4.072   7.947  1.1687  0.1919  4.8266
 5849SOL     OW29179   4.668   2.806  16.092  0.3903 -0.1856  0.1913
 5849SOL    HW129180   4.587   2.779  16.048  0.1899  0.4699  0.1598
 5849SOL    HW229181   4.661   2.900  16.075  3.3339 -0.6139 -3.4137
 5850SOL     OW29182   3.105   1.239   4.976 -0.1455 -0.2506 -0.2452
 5850SOL    HW129183   3.027   1.260   4.925 -1.5161  0.1613  2.0782
 5850SOL    HW229184   3.057   1.183   5.036 -0.1071  1.3345  1.2483
 5851SOL     OW29185   1.511   1.509   4.738  0.4202 -0.5010 -0.3102
 5851SOL    HW129186   1.566   1.503   4.815 -0.6157 -0.3280  0.4423
 5851SOL    HW229187   1.515   1.415   4.720 -2.1180 -0.9465  1.3681
 5852SOL     OW29188   1.433   4.731   3.352  0.4450 -0.1372  0.4069
 5852SOL    HW129189   1.470   4.703   3.269 -2.7196 -1.0433 -0.6893
 5852SOL    HW229190   1.458   0.089   3.370 -0.6548 -0.0971  1.7811
 5853SOL     OW29191   4.205   2.630  14.478 -0.2904 -0.2661 -0.2980
 5853SOL    HW129192   4.218   2.547  14.524  0.3292 -0.3167 -0.5627
 5853SOL    HW229193   4.119   2.607  14.443 -1.3677  4.1102 -0.5019
 5854SOL     OW29194   2.213   3.019  17.357 -0.1841  0.0369 -0.2839
 5854SOL    HW129195   2.165   3.073  17.419  1.0164 -0.1894  0.8228
 5854SOL    HW229196   2.142   2.955  17.347  0.0163 -0.3167  0.5373
 5855SOL     OW29197   1.217   1.032  12.826 -0.3568 -0.1240 -0.1760
 5855SOL    HW129198   1.126   1.054  12.805 -0.0251  0.8392 -0.6366
 5855SOL    HW229199   1.213   0.939  12.846  1.6957  0.2149  1.8578
 5856SOL     OW29200   0.352   3.603   5.103  0.0312  0.0406 -0.2971
 5856SOL    HW129201   0.445   3.621   5.116 -0.4576  1.0135  1.9758
 5856SOL    HW229202   0.322   3.628   5.191  0.9920  0.8780 -0.2060
 5857SOL     OW29203   3.552   4.267   7.949  0.2933 -0.7416 -0.4909
 5857SOL    HW129204   3.507   4.202   8.003  0.3750  2.2247  3.1805
 5857SOL    HW229205   3.587   4.329   8.013 -0.6739 -0.0670 -0.6340
 5858SOL     OW29206   2.612   2.936   2.269  0.3863 -0.3770 -0.2553
 5858SOL    HW129207   2.616   2.986   2.351  1.2212  0.2427 -0.6601
 5858SOL    HW229208   2.557   2.995   2.218  1.3676  0.8824  0.1255
 5859SOL     OW29209   0.448   1.181  15.576  0.0869  0.3565 -0.7038
 5859SOL    HW129210   0.505   1.201  15.503  1.6834 -0.2091  0.3903
 5859SOL    HW229211   0.364   1.186  15.530  1.2198  3.6652 -2.3337
 5860SOL     OW29212   0.081   2.595   2.373  0.3013 -0.4074 -0.2825
 5860SOL    HW129213   0.083   2.500   2.372 -2.6995 -0.4663 -0.3286
 5860SOL    HW229214   0.155   2.603   2.313  0.8242 -3.1420  0.0083
 5861SOL     OW29215   3.231   3.375   6.066 -0.2217 -0.3339 -0.7241
 5861SOL    HW129216   3.137   3.361   6.082  0.2666 -1.8373  0.7690
 5861SOL    HW229217   3.218   3.435   5.992 -1.3490  2.0192  1.3445
 5862SOL     OW29218   3.475   1.261   8.132  0.7082 -0.1729 -0.0883
 5862SOL    HW129219   3.457   1.171   8.105  1.4441 -0.0992 -0.8262
 5862SOL    HW229220   3.440   1.281   8.219  0.9188 -2.6138  0.5577
 5863SOL     OW29221   1.409   2.306  12.472  0.6526 -0.3059 -0.1929
 5863SOL    HW129222   1.497   2.272  12.460  0.1123 -1.5583 -0.5439
 5863SOL    HW229223   1.420   2.386  12.419  0.5780 -1.2187 -1.5850
 5864SOL     OW29224   0.251   1.553   8.832 -0.3148  0.1287  0.1228
 5864SOL    HW129225   0.230   1.461   8.812 -2.4128  1.0694 -1.8968
 5864SOL    HW229226   0.347   1.551   8.836 -0.3473 -1.0034  0.3906
 5865SOL     OW29227   4.569   3.859   4.183  0.0220 -0.2313 -0.4051
 5865SOL    HW129228   4.556   3.777   4.135  1.6298 -2.3610  2.7814
 5865SOL    HW229229   4.480   3.870   4.217 -0.2274  0.7816 -1.3979
 5866SOL     OW29230   1.364   1.937   1.045 -0.0868 -0.1742 -0.3728
 5866SOL    HW129231   1.287   1.881   1.034 -0.5920  0.4637 -0.0379
 5866SOL    HW229232   1.424   1.872   1.083  1.6305  2.9052  2.1457
 5867SOL     OW29233   4.665   1.866   3.763  0.3794  0.1742  0.0087
 5867SOL    HW129234   4.729   1.795   3.750  1.0703  0.7968 -0.0226
 5867SOL    HW229235   4.626   1.836   3.845  2.4579  0.3827  1.0902
 5868SOL     OW29236   3.843   3.653   4.955  0.0480 -0.1130  0.9573
 5868SOL    HW129237   3.763   3.678   4.910  0.8060  0.6288  0.0229
 5868SOL    HW229238   3.840   3.705   5.035  0.6990  2.0663 -0.4415
 5869SOL     OW29239   2.878   1.046  10.007  0.4732  0.1188  0.3892
 5869SOL    HW129240   2.783   1.039  10.017  0.0755  1.1163 -2.6699
 5869SOL    HW229241   2.881   1.086   9.920  1.9317  1.3893  1.0260
 5870SOL     OW29242   3.830   2.390   5.813 -0.4863 -0.0688 -0.3298
 5870SOL    HW129243   3.769   2.454   5.775  0.2435 -0.2627 -1.8299
 5870SOL    HW229244   3.767   2.320   5.827  1.0621 -0.8248  2.9415
 5871SOL     OW29245   2.742   2.625  12.569  0.1307 -0.1095  0.2864
 5871SOL    HW129246   2.717   2.671  12.649  1.8881 -1.2216  1.4829
 5871SOL    HW229247   2.830   2.596  12.593  0.7951  0.1452 -1.8680
 5872SOL     OW29248   1.383   2.848   9.833 -0.2311 -0.2232 -0.2078
 5872SOL    HW129249   1.296   2.813   9.853  0.1886 -1.6793 -0.9915
 5872SOL    HW229250   1.356   2.919   9.774 -1.5937 -0.2256  0.3998
 5873SOL     OW29251   2.122   4.655   6.936  0.4272 -0.2994 -0.1231
 5873SOL    HW129252   2.075   4.647   6.854 -0.1415 -1.2140  0.2902
 5873SOL    HW229253   2.049   4.634   6.995 -0.3612 -0.4752 -1.1746
 5874SOL     OW29254   1.226   2.209   6.069  0.0181  0.1080 -0.5432
 5874SOL    HW129255   1.135   2.230   6.094  0.7890 -0.7336  2.9511
 5874SOL    HW229256   1.267   2.188   6.152 -1.0143 -0.6911 -0.2442
 5875SOL     OW29257   4.532   0.596  10.034 -0.4396 -0.5150 -0.6973
 5875SOL    HW129258   4.603   0.645   9.992  0.5172 -0.7344  0.6628
 5875SOL    HW229259   4.579   0.531  10.086  1.2493  0.3415 -1.1510
 5876SOL     OW29260   2.840   3.707   4.475  0.2187 -0.5493 -0.3247
 5876SOL    HW129261   2.859   3.614   4.462  1.4321 -0.4798  0.9269
 5876SOL    HW229262   2.757   3.704   4.523  0.5277 -1.9554  0.1234
 5877SOL     OW29263   3.876   3.923  11.299 -0.1358  0.2344 -0.5360
 5877SOL    HW129264   3.865   4.012  11.332  0.5821  0.3455 -0.5847
 5877SOL    HW229265   3.899   3.870  11.375  0.3528  1.7242  0.3485
 5878SOL     OW29266   1.581   0.740  15.715 -0.2878  0.0329 -0.4983
 5878SOL    HW129267   1.507   0.695  15.675 -1.8407 -0.6453  3.0903
 5878SOL    HW229268   1.541   0.818  15.753 -1.5579 -1.7203  1.8334
 5879SOL     OW29269   4.576   2.827   6.180  0.2666  0.4608 -0.1798
 5879SOL    HW129270   4.481   2.834   6.172  0.0946 -0.5550  0.8848
 5879SOL    HW229271   4.612   2.875   6.106 -2.6044  0.3394 -1.6590
 5880SOL     OW29272   1.678   0.496   8.838  0.2761 -0.2599 -0.3219
 5880SOL    HW129273   1.591   0.521   8.808 -0.7022 -0.9755  1.9529
 5880SOL    HW229274   1.730   0.526   8.763 -0.1360  0.9017 -0.1427
 5881SOL     OW29275   1.232   3.425   6.831  0.4833 -0.2649  0.1239
 5881SOL    HW129276   1.238   3.370   6.753 -1.0036 -0.2513 -0.0117
 5881SOL    HW229277   1.318   3.416   6.872 -0.2951 -0.2635  1.7689
 5882SOL     OW29278   3.467   2.900  16.306 -0.6074 -0.3444 -0.1839
 5882SOL    HW129279   3.516   2.979  16.328 -0.1856 -1.3947  2.6138
 5882SOL    HW229280   3.402   2.912  16.375  0.4699 -0.3247  0.8095
 5883SOL     OW29281   3.469   1.969   7.379 -0.2640 -0.4521 -0.0291
 5883SOL    HW129282   3.438   1.913   7.450  1.4609  0.2245  1.2606
 5883SOL    HW229283   3.414   1.928   7.313  0.5411  0.0630 -1.0207
 5884SOL     OW29284   2.536   3.978  15.767 -0.0352  0.4932 -0.0616
 5884SOL    HW129285   2.519   3.885  15.747 -0.3700  0.4862  0.2637
 5884SOL    HW229286   2.498   4.019  15.689  0.5240 -1.1286 -1.2032
 5885SOL     OW29287   0.016   4.469   5.186 -0.3393  0.2228  0.0500
 5885SOL    HW129288   0.023   4.564   5.182  1.4570  0.1531  1.5446
 5885SOL    HW229289   4.679   4.457   5.251 -1.5208 -0.9142 -1.4194
 5886SOL     OW29290   2.836   4.209  15.708  0.0185 -0.1367 -0.2821
 5886SOL    HW129291   2.891   4.263  15.765  1.0740 -1.5412  0.0414
 5886SOL    HW229292   2.746   4.213  15.740 -0.5966 -4.3180 -1.4849
 5887SOL     OW29293   2.756   3.930  16.807 -0.2873  0.3709  0.6623
 5887SOL    HW129294   2.841   3.887  16.794 -0.6427  0.8556 -3.3211
 5887SOL    HW229295   2.720   3.866  16.868 -1.1960  1.1900  0.9859
 5888SOL     OW29296   1.699   0.636   9.557 -0.2054  0.3015 -0.2311
 5888SOL    HW129297   1.673   0.590   9.637  0.2017 -1.0407 -0.8820
 5888SOL    HW229298   1.793   0.631   9.569 -0.2601  0.3169  0.1998
 5889SOL     OW29299   0.898   3.959   8.019  0.2806 -0.1312  0.1458
 5889SOL    HW129300   0.857   4.013   8.087 -2.7256 -0.5324 -1.3335
 5889SOL    HW229301   0.821   3.954   7.963 -0.2315 -2.4411  1.0650
 5890SOL     OW29302   1.824   1.453   7.086 -0.4785  0.5184 -0.0923
 5890SOL    HW129303   1.884   1.527   7.095 -0.1472  0.1040  1.0906
 5890SOL    HW229304   1.771   1.474   7.009 -1.4270  2.3325  1.0604
 5891SOL     OW29305   2.258   1.734   5.886 -0.5668 -0.2693  0.1852
 5891SOL    HW129306   2.209   1.791   5.946  0.4633  1.2667 -0.4330
 5891SOL    HW229307   2.203   1.735   5.808 -0.3222 -0.2931  0.0146
 5892SOL     OW29308   3.866   3.670  12.421 -0.5476  0.0224  0.5714
 5892SOL    HW129309   3.929   3.646  12.488  0.9722  1.2572 -0.4188
 5892SOL    HW229310   3.807   3.731  12.466 -0.2451  1.2906 -0.7316
 5893SOL     OW29311   0.749   2.267  10.335  0.3321  0.8968 -0.0138
 5893SOL    HW129312   0.682   2.315  10.287 -1.6371 -2.1694 -0.3440
 5893SOL    HW229313   0.817   2.263  10.267  1.0869  2.2936  0.6555
 5894SOL     OW29314   4.522   0.956   7.444  0.5833 -0.1221  0.4798
 5894SOL    HW129315   4.487   1.045   7.449  0.2869 -0.2289  0.3059
 5894SOL    HW229316   4.610   0.974   7.411  0.8112 -0.0567  1.1206
 5895SOL     OW29317   0.949   4.186  14.944 -0.4451 -0.7368  0.1716
 5895SOL    HW129318   0.915   4.117  14.887 -2.7524  1.2949 -0.9286
 5895SOL    HW229319   1.004   4.142  15.009 -0.4306 -2.8711 -1.2970
 5896SOL     OW29320   0.203   0.134   0.484 -0.0043 -0.3903 -0.4112
 5896SOL    HW129321   0.151   0.193   0.430  0.5532 -0.0127 -0.5331
 5896SOL    HW229322   0.197   0.174   0.571  2.6468  1.8360 -1.2316
 5897SOL     OW29323   0.067   1.513   4.359  0.0720 -0.2707 -0.1456
 5897SOL    HW129324   0.015   1.487   4.283  0.8273  0.6001 -0.9640
 5897SOL    HW229325   0.109   1.580   4.305 -1.7269  0.3210 -0.8100
 5898SOL     OW29326   2.329   1.734   9.579 -0.2128 -0.0887  0.0768
 5898SOL    HW129327   2.381   1.729   9.499 -0.7602 -0.8735 -0.2336
 5898SOL    HW229328   2.318   1.829   9.585  1.7267  0.0497  1.1670
 5899SOL     OW29329   3.128   4.131  10.659  0.1136 -0.3117 -0.1274
 5899SOL    HW129330   3.174   4.129  10.575  0.9140  1.3821  0.2556
 5899SOL    HW229331   3.090   4.219  10.651 -0.9813 -0.7141  0.6034
 5900SOL     OW29332   3.676   1.593   6.386  0.4923  0.4954  0.4168
 5900SOL    HW129333   3.695   1.676   6.429  0.8564 -0.1141  1.4260
 5900SOL    HW229334   3.756   1.591   6.332  0.4653  1.4098  0.3395
 5901SOL     OW29335   2.143   3.057   4.273  0.2213  0.4929 -0.2139
 5901SOL    HW129336   2.208   3.114   4.230  0.0239  2.1424  1.6904
 5901SOL    HW229337   2.186   2.972   4.284  0.2704  0.4313 -0.8892
 5902SOL     OW29338   0.108   1.712  15.055 -0.0230 -0.2876  0.4499
 5902SOL    HW129339   0.052   1.731  14.980 -1.3147 -0.1467  1.4477
 5902SOL    HW229340   0.177   1.668  15.005  1.8294  2.3980  0.6476
 5903SOL     OW29341   3.132   3.910   3.395  0.0334 -0.0751  0.4991
 5903SOL    HW129342   3.130   3.986   3.454  2.4808  1.1473 -0.9961
 5903SOL    HW229343   3.040   3.908   3.366  0.3788  3.7609 -0.8743
 5904SOL     OW29344   2.102   3.040   5.271 -0.2583 -0.6749  0.0214
 5904SOL    HW129345   2.187   3.080   5.254 -1.9399  1.5519 -3.1957
 5904SOL    HW229346   2.094   3.060   5.364  2.3626  1.8622 -0.2882
 5905SOL     OW29347   1.350   0.527   7.524 -0.4802  0.1655  0.0199
 5905SOL    HW129348   1.404   0.469   7.577 -0.7405  0.2056  0.3295
 5905SOL    HW229349   1.274   0.544   7.580  1.8632  1.8149  2.7283
 5906SOL     OW29350   1.817   1.530   1.679 -0.1295  0.6461  0.0557
 5906SOL    HW129351   1.896   1.549   1.730 -1.3930  3.7263  0.8800
 5906SOL    HW229352   1.832   1.439   1.655 -2.2685  0.3976 -0.3364
 5907SOL     OW29353   3.868   4.386   3.851 -0.3151  0.2776  0.2976
 5907SOL    HW129354   3.950   4.426   3.822 -0.3311  0.3084  0.2959
 5907SOL    HW229355   3.854   4.318   3.785 -0.4393  1.1490 -0.5685
 5908SOL     OW29356   4.719   0.426   9.417  0.2814 -0.2788 -0.2318
 5908SOL    HW129357   0.023   0.432   9.328 -1.0435 -1.2876 -0.8339
 5908SOL    HW229358   4.678   0.512   9.431  1.4634  0.1623  0.5001
 5909SOL     OW29359   1.427   3.482   3.323 -0.2994  0.1599  0.3569
 5909SOL    HW129360   1.383   3.563   3.296  0.0583  0.4030  0.5090
 5909SOL    HW229361   1.508   3.520   3.356 -0.2215  0.0156  0.3286
 5910SOL     OW29362   1.189   0.556   1.549 -0.2314 -0.1210  0.0502
 5910SOL    HW129363   1.147   0.625   1.497  2.3340  0.9072 -0.6202
 5910SOL    HW229364   1.172   0.477   1.499  1.8452  0.1402 -1.0543
 5911SOL     OW29365   1.824   0.991   5.930 -0.2786  0.4012 -0.4234
 5911SOL    HW129366   1.897   0.972   5.989 -1.1647  0.2965  0.6187
 5911SOL    HW229367   1.857   1.045   5.858  0.4727  0.8998  0.2945
 5912SOL     OW29368   4.266   0.517   7.749 -0.1417 -0.2782 -0.0518
 5912SOL    HW129369   4.305   0.472   7.673 -0.2141  0.2784 -0.4229
 5912SOL    HW229370   4.301   0.466   7.822 -1.7904 -1.8629 -0.3664
 5913SOL     OW29371   0.951   2.416  13.937 -0.1102 -0.3725  0.0278
 5913SOL    HW129372   0.863   2.455  13.937 -0.0038 -0.1326 -0.7718
 5913SOL    HW229373   0.985   2.437  13.850  1.6533 -0.2905  0.7467
 5914SOL     OW29374   3.582   3.321   5.929  0.6675  0.3862  0.3924
 5914SOL    HW129375   3.524   3.290   5.998  0.0841  0.9639  0.1650
 5914SOL    HW229376   3.535   3.318   5.845  2.0523 -0.9715 -0.3175
 5915SOL     OW29377   0.549   2.586  11.416 -1.0454 -0.3746 -0.7985
 5915SOL    HW129378   0.551   2.638  11.496 -0.5425 -2.3762  0.5082
 5915SOL    HW229379   0.636   2.546  11.424 -1.3730 -0.4220  2.5630
 5916SOL     OW29380   3.927   4.180   0.448  0.1633  0.1166 -0.1784
 5916SOL    HW129381   3.989   4.182   0.520 -1.7748 -1.7546  1.5467
 5916SOL    HW229382   3.885   4.266   0.459 -1.8728 -0.9695  0.5221
 5917SOL     OW29383   0.338   1.625  13.974 -0.0011 -0.2236 -0.5916
 5917SOL    HW129384   0.317   1.541  14.014 -0.2326 -0.5964 -1.4983
 5917SOL    HW229385   0.428   1.643  13.999  0.1720 -3.7741  1.2772
 5918SOL     OW29386   0.209   4.493   1.508 -0.5004  0.4539  0.3969
 5918SOL    HW129387   0.140   4.436   1.542 -1.0560  1.1306  0.3871
 5918SOL    HW229388   0.175   4.576   1.542  0.4160  1.7698 -1.9157
 5919SOL     OW29389   2.347   1.856   5.544 -0.1417  0.4378 -0.7549
 5919SOL    HW129390   2.266   1.805   5.540  0.8476 -1.1054 -1.1181
 5919SOL    HW229391   2.334   1.928   5.483  2.4319 -0.9608 -2.9486
 5920SOL     OW29392   4.588   3.553   7.336 -0.2415 -0.1935  0.3730
 5920SOL    HW129393   4.601   3.480   7.396  1.9535  0.2275  0.3794
 5920SOL    HW229394   4.620   3.629   7.385 -2.1002  0.7119  0.2024
 5921SOL     OW29395   2.558   2.520  15.797  0.1977 -0.4218  0.3675
 5921SOL    HW129396   2.526   2.465  15.869  1.3178 -1.3643  0.1424
 5921SOL    HW229397   2.483   2.567  15.761  0.1191  0.4972  1.7261
 5922SOL     OW29398   4.477   0.724   0.475  0.0876  0.3028  0.4382
 5922SOL    HW129399   4.472   0.651   0.536  0.2432  0.2932  0.4394
 5922SOL    HW229400   4.415   0.698   0.407  1.4733 -0.4618 -0.5265
 5923SOL     OW29401   1.518   0.207  13.867  0.6638  0.2074 -0.1302
 5923SOL    HW129402   1.509   0.139  13.933 -1.8888  0.5902 -0.0870
 5923SOL    HW229403   1.611   0.195  13.847 -0.0769 -4.1561 -0.9733
 5924SOL     OW29404   4.186   3.531   8.346  0.0624 -0.6169 -0.0073
 5924SOL    HW129405   4.249   3.465   8.376  1.4638  0.1662 -1.2240
 5924SOL    HW229406   4.177   3.505   8.254 -1.5776  0.1767 -0.0634
 5925SOL     OW29407   1.655   1.890   2.679 -0.1392 -0.2850  0.0899
 5925SOL    HW129408   1.747   1.900   2.654 -0.5905  0.1379 -1.3982
 5925SOL    HW229409   1.658   1.853   2.767 -1.5774 -1.2570 -0.2802
 5926SOL     OW29410   1.035   1.009  17.026 -0.0868 -0.5071 -0.1736
 5926SOL    HW129411   1.077   1.065  16.960 -0.2234 -0.3791 -0.1533
 5926SOL    HW229412   1.075   1.047  17.104  1.6763 -1.9600 -0.3850
 5927SOL     OW29413   3.112   0.071   0.477 -0.3038 -0.6786 -0.1248
 5927SOL    HW129414   3.091   0.108   0.392  3.0750  2.7052  0.5080
 5927SOL    HW229415   3.035   0.106   0.522  0.5414 -2.2070  2.5319
 5928SOL     OW29416   4.215   0.445   8.749  0.0038 -0.3075 -0.2824
 5928SOL    HW129417   4.165   0.516   8.789  0.8020 -1.2804  2.4188
 5928SOL    HW229418   4.307   0.471   8.762  0.3831 -0.8837 -1.7623
 5929SOL     OW29419   2.392   1.450   0.526 -0.1557 -0.3508  0.7170
 5929SOL    HW129420   2.326   1.482   0.464  0.6485  2.7399  1.4643
 5929SOL    HW229421   2.413   1.538   0.556  0.0478 -0.3727  0.6381
 5930SOL     OW29422   3.132   1.851  14.372  0.3312 -0.6648  0.4202
 5930SOL    HW129423   3.113   1.772  14.321 -1.9401 -0.3680  0.8197
 5930SOL    HW229424   3.182   1.901  14.307 -0.6314 -2.7973 -1.9606
 5931SOL     OW29425   1.737   0.895  11.296  0.5181  0.0940 -0.1696
 5931SOL    HW129426   1.720   0.820  11.354  1.7005 -1.3967 -1.7174
 5931SOL    HW229427   1.747   0.961  11.364  0.5850 -1.9779  1.8676
 5932SOL     OW29428   4.245   1.838  12.869  0.2550 -0.2467  0.4382
 5932SOL    HW129429   4.289   1.850  12.785  2.2847 -2.3896  1.2068
 5932SOL    HW229430   4.155   1.823  12.841  0.7260 -1.4993 -0.3924
 5933SOL     OW29431   2.793   4.220   2.424  0.0354 -0.3094  0.3922
 5933SOL    HW129432   2.752   4.246   2.506  2.5182  2.2115  0.8322
 5933SOL    HW229433   2.713   4.231   2.373  0.9861 -0.1021 -1.0497
 5934SOL     OW29434   0.836   1.895   4.646 -0.2403 -0.1604  0.6698
 5934SOL    HW129435   0.921   1.858   4.670  0.4862  1.5418  0.7009
 5934SOL    HW229436   0.779   1.828   4.684  1.3364 -1.8100  0.1196
 5935SOL     OW29437   3.416   3.947  12.373  0.1953  0.0742  0.2213
 5935SOL    HW129438   3.432   4.040  12.392 -3.5230  0.5239  1.1428
 5935SOL    HW229439   3.408   3.909  12.461 -0.5123 -1.4754 -0.5139
 5936SOL     OW29440   2.941   4.450   4.009 -0.4441 -0.0511  0.2944
 5936SOL    HW129441   3.035   4.431   4.009 -0.6087 -0.9476 -4.0388
 5936SOL    HW229442   2.928   4.437   3.915  0.7814  0.1550  0.0920
 5937SOL     OW29443   1.778   0.785  15.550  0.0755  0.0726 -0.0684
 5937SOL    HW129444   1.814   0.696  15.546  2.2296  0.9682 -0.5288
 5937SOL    HW229445   1.714   0.779  15.621  0.7903 -0.1433  0.5656
 5938SOL     OW29446   0.832   2.584   5.344  0.2703  0.4814  0.1001
 5938SOL    HW129447   0.899   2.519   5.324 -1.0371 -1.4432  1.9727
 5938SOL    HW229448   0.867   2.642   5.411  1.0930 -1.4771  1.3535
 5939SOL     OW29449   1.564   2.790   3.719  0.0131  0.0782  0.4773
 5939SOL    HW129450   1.499   2.800   3.788 -0.2872  0.1663  0.1838
 5939SOL    HW229451   1.637   2.851   3.734 -1.2711  1.1952  2.1288
 5940SOL     OW29452   3.877   0.470   8.385  0.3990 -0.4824 -0.3373
 5940SOL    HW129453   3.844   0.512   8.464 -0.1815 -0.6816 -0.4783
 5940SOL    HW229454   3.967   0.456   8.416  1.2169 -1.4158 -3.1246
 5941SOL     OW29455   4.706   4.366   1.613 -0.0060 -0.4152  0.2341
 5941SOL    HW129456   4.684   4.278   1.583  1.5830 -0.7154 -0.0495
 5941SOL    HW229457   4.731   4.358   1.705  0.3227 -0.1018  0.1699
 5942SOL     OW29458   3.683   2.365  13.408  0.2511  0.3178  0.2005
 5942SOL    HW129459   3.667   2.328  13.495 -0.0308  0.4196  0.1917
 5942SOL    HW229460   3.771   2.398  13.427 -0.5151  2.7615 -0.5684
 5943SOL     OW29461   4.513   2.313   7.966 -0.0514  0.0555  0.7760
 5943SOL    HW129462   4.535   2.220   7.977 -1.8203 -0.5551 -0.9074
 5943SOL    HW229463   4.531   2.315   7.872 -1.0774  1.4623  0.6182
 5944SOL     OW29464   1.579   1.537   8.198 -0.1302 -0.1850  0.3755
 5944SOL    HW129465   1.517   1.502   8.262 -0.9840 -1.2048 -1.0052
 5944SOL    HW229466   1.535   1.621   8.188  1.7283  0.8275  0.5566
 5945SOL     OW29467   2.146   3.462  13.520 -0.1530  1.1302 -0.3304
 5945SOL    HW129468   2.182   3.549  13.500 -0.0189  1.0373 -0.4931
 5945SOL    HW229469   2.220   3.417  13.560 -1.8089 -0.2054  1.2274
 5946SOL     OW29470   4.035   3.929   8.335  0.0997  0.0050  0.1324
 5946SOL    HW129471   3.993   3.909   8.251  0.8488 -0.2543 -0.1754
 5946SOL    HW229472   4.113   3.878   8.316  1.2053  2.0700 -0.8538
 5947SOL     OW29473   2.669   3.408   4.786  0.0136  0.0064 -0.4752
 5947SOL    HW129474   2.606   3.478   4.772  0.1583 -0.0655 -1.4971
 5947SOL    HW229475   2.625   3.359   4.855 -1.2006  1.6211 -0.1011
 5948SOL     OW29476   1.945   4.069   2.366  0.1651  0.0678  1.0728
 5948SOL    HW129477   1.925   4.080   2.273 -1.1424  0.7645  1.4251
 5948SOL    HW229478   1.904   4.147   2.404  0.6051  1.0952 -0.5845
 5949SOL     OW29479   2.045   2.161   8.788 -0.5561  0.2764 -0.3564
 5949SOL    HW129480   2.061   2.092   8.852 -1.9193  0.9546  0.7302
 5949SOL    HW229481   1.990   2.107   8.732 -1.1508  1.0989 -0.5665
 5950SOL     OW29482   3.379   2.937  12.263  0.5272  0.0311  0.1403
 5950SOL    HW129483   3.370   2.972  12.352  1.1944  0.8397 -0.1162
 5950SOL    HW229484   3.419   3.005  12.209 -0.2321  0.1730 -0.2311
 5951SOL     OW29485   4.220   0.283   5.366 -0.0762 -0.1421  0.5696
 5951SOL    HW129486   4.209   0.369   5.325 -0.1469 -0.1253  0.6241
 5951SOL    HW229487   4.296   0.299   5.422 -1.0262  1.3181  1.4155
 5952SOL     OW29488   0.926   3.581   4.864  0.1071  0.2543 -0.3599
 5952SOL    HW129489   0.978   3.506   4.893  0.3360 -0.9241 -3.8595
 5952SOL    HW229490   0.839   3.551   4.890  0.6036 -1.5576 -0.7972
 5953SOL     OW29491   2.483   4.642   5.723  0.0964  0.5689  0.6350
 5953SOL    HW129492   2.454   4.660   5.812 -0.2879 -0.8299  0.7922
 5953SOL    HW229493   2.574   4.614   5.728  0.0020  0.2492  0.5433
 5954SOL     OW29494   0.547   1.009   2.274 -0.5827  0.1804 -0.2893
 5954SOL    HW129495   0.479   0.979   2.214 -1.0772 -0.8288  0.7668
 5954SOL    HW229496   0.608   0.936   2.268 -0.8784 -0.1311  0.4535
 5955SOL     OW29497   1.020   4.646   0.217  0.1689 -0.1893  0.5628
 5955SOL    HW129498   1.005   0.007   0.205  1.5234  0.1883  1.8283
 5955SOL    HW229499   0.947   4.614   0.163 -0.0318 -0.9460  1.2829
 5956SOL     OW29500   0.826   2.401   2.972 -0.8631  0.0061 -0.1209
 5956SOL    HW129501   0.765   2.328   2.982 -1.3528  0.5717  0.9293
 5956SOL    HW229502   0.779   2.462   2.915 -1.7113  0.9958  1.6288
 5957SOL     OW29503   2.262   0.150   2.569  0.4842  0.0544 -0.1115
 5957SOL    HW129504   2.331   0.093   2.537 -1.2301 -1.9301 -0.2604
 5957SOL    HW229505   2.271   0.131   2.663  0.6783 -2.2638 -0.6042
 5958SOL     OW29506   2.182   4.368   2.558 -0.3936  0.7310 -0.0205
 5958SOL    HW129507   2.203   4.453   2.596 -1.8155  1.7531 -1.5178
 5958SOL    HW229508   2.104   4.353   2.612  0.0923  0.4109  0.5895
 5959SOL     OW29509   2.772   0.271   4.249  0.1729  0.6218 -0.5774
 5959SOL    HW129510   2.766   0.295   4.156 -1.6621 -0.4725 -0.7351
 5959SOL    HW229511   2.809   0.351   4.286 -0.6581  0.5286  0.4333
 5960SOL     OW29512   3.789   3.912   8.580 -0.2494  0.2754  0.2527
 5960SOL    HW129513   3.883   3.920   8.594 -0.2216 -0.1364  0.3038
 5960SOL    HW229514   3.754   4.001   8.578  1.0595  0.7756  0.0150
 5961SOL     OW29515   0.979   4.528   6.804 -0.3531  0.8578  0.8879
 5961SOL    HW129516   0.991   4.567   6.890  0.3510 -0.6415  1.4841
 5961SOL    HW229517   0.959   4.610   6.760  0.4132  0.8316  0.4755
 5962SOL     OW29518   3.404   3.022   4.883 -0.1133 -0.3045  0.0380
 5962SOL    HW129519   3.414   3.037   4.977  2.0655 -2.9205  0.2056
 5962SOL    HW229520   3.361   2.937   4.878  1.1178 -0.8903 -0.4318
 5963SOL     OW29521   4.167   4.528   6.105  0.1618  0.1915 -0.1818
 5963SOL    HW129522   4.104   4.483   6.161  1.0799  0.6341  1.2211
 5963SOL    HW229523   4.119   4.601   6.066 -1.3634 -0.7152  0.0317
 5964SOL     OW29524   1.615   2.137   5.687  0.2606  0.1798  0.3704
 5964SOL    HW129525   1.558   2.071   5.646 -1.6766  2.0911  0.0125
 5964SOL    HW229526   1.638   2.192   5.612 -0.9297  0.6824  0.3777
 5965SOL     OW29527   2.099   1.229  16.960 -0.3295  0.3273  0.5257
 5965SOL    HW129528   2.032   1.297  16.958  0.2027  0.7220 -3.1875
 5965SOL    HW229529   2.129   1.242  17.050  1.6275 -2.8827  0.3567
 5966SOL     OW29530   3.906   3.760   6.382 -0.1380  0.3757 -0.1496
 5966SOL    HW129531   3.997   3.787   6.374  0.3921 -1.4029 -0.0716
 5966SOL    HW229532   3.907   3.678   6.334 -0.7113  0.3476 -0.1219
 5967SOL     OW29533   3.292   4.646   7.853  1.1295 -0.1292  0.4866
 5967SOL    HW129534   3.313   4.603   7.936 -0.7502  1.3269  1.7073
 5967SOL    HW229535   3.248   4.571   7.812  0.7905  0.7203 -0.7094
 5968SOL     OW29536   0.702   0.256   2.624 -0.1472 -0.7641 -0.1313
 5968SOL    HW129537   0.693   0.268   2.718 -1.1774  0.8143 -0.4258
 5968SOL    HW229538   0.796   0.245   2.615 -0.2045  0.2011 -1.9316
 5969SOL     OW29539   3.482   0.847  11.411 -0.5270  0.0805 -0.0589
 5969SOL    HW129540   3.510   0.755  11.413 -0.5668  0.0377 -1.7062
 5969SOL    HW229541   3.486   0.875  11.502  1.8312 -1.0461  0.1822
 5970SOL     OW29542   0.140   0.061  13.846 -0.1382 -0.4706  0.4041
 5970SOL    HW129543   0.072   0.099  13.901 -0.4795 -1.0830  0.4101
 5970SOL    HW229544   0.115   4.702  13.859 -3.5279  0.2528 -0.9718
 5971SOL     OW29545   1.698   2.435   2.260 -0.2250 -0.3047 -0.3701
 5971SOL    HW129546   1.736   2.518   2.289 -0.0099  0.3743 -2.5582
 5971SOL    HW229547   1.605   2.454   2.257  0.4271  3.1972  2.7760
 5972SOL     OW29548   0.119   0.390   6.029 -0.7516  0.1673 -0.2030
 5972SOL    HW129549   0.094   0.333   5.956  0.1321 -1.1231  0.5043
 5972SOL    HW229550   0.125   0.337   6.108  0.1393 -2.4599 -2.0335
 5973SOL     OW29551   4.169   0.816  12.554  0.1161 -0.3133 -0.3707
 5973SOL    HW129552   4.114   0.783  12.482 -1.2841 -2.5854  1.7186
 5973SOL    HW229553   4.209   0.734  12.581  0.5713 -0.5558 -1.7832
 5974SOL     OW29554   4.595   1.566   2.176 -0.0226 -0.0830  0.2168
 5974SOL    HW129555   4.612   1.636   2.240 -2.7572 -0.1714  1.0256
 5974SOL    HW229556   4.673   1.511   2.188  0.0476 -0.4624 -1.9834
 5975SOL     OW29557   0.944   2.990   0.808 -0.2408 -0.3061  0.0768
 5975SOL    HW129558   0.930   3.061   0.871  1.1358 -0.2394  0.3045
 5975SOL    HW229559   1.019   2.954   0.855  0.0662 -1.0220 -0.9550
 5976SOL     OW29560   0.663   3.577   6.956  0.0172 -0.1797 -0.2839
 5976SOL    HW129561   0.708   3.661   6.956  0.4216 -0.3939 -0.4740
 5976SOL    HW229562   0.574   3.592   6.987 -0.9124 -1.8165 -2.1789
 5977SOL     OW29563   1.500   4.400   4.739 -0.0169 -0.8821  0.1974
 5977SOL    HW129564   1.579   4.398   4.793  1.2022  0.9137 -1.4924
 5977SOL    HW229565   1.545   4.395   4.654 -0.1055 -0.4918  0.1273
 5978SOL     OW29566   3.225   4.207   4.741  0.2933 -0.1096 -0.0210
 5978SOL    HW129567   3.138   4.173   4.760  0.9497 -1.0038  1.4272
 5978SOL    HW229568   3.276   4.168   4.812 -0.2838  0.3016  0.6155
 5979SOL     OW29569   2.176   2.139   8.422  0.5444  0.1605 -0.3824
 5979SOL    HW129570   2.195   2.049   8.447 -2.6503 -0.1459  1.0047
 5979SOL    HW229571   2.109   2.133   8.354  0.0100  2.5142 -0.0462
 5980SOL     OW29572   1.822   0.656   3.409  0.2583 -0.1767  0.2594
 5980SOL    HW129573   1.791   0.577   3.452 -1.2279 -1.2514 -2.7652
 5980SOL    HW229574   1.850   0.617   3.326 -3.5498 -0.8968 -0.6879
 5981SOL     OW29575   3.289   2.474   3.574 -0.3648 -0.2115 -0.0836
 5981SOL    HW129576   3.285   2.567   3.597  0.5755 -0.1639 -0.1185
 5981SOL    HW229577   3.277   2.489   3.481 -0.2287  0.4636  0.0073
 5982SOL     OW29578   2.248   2.643  17.231  0.0546 -0.1855 -0.0654
 5982SOL    HW129579   2.281   2.716  17.179  0.5846 -1.9676 -2.2227
 5982SOL    HW229580   2.174   2.685  17.274 -2.1548 -2.7054 -1.3662
 5983SOL     OW29581   0.857   1.893  14.495  0.5865 -0.2434  0.2439
 5983SOL    HW129582   0.838   1.966  14.554 -1.5222 -0.6312  0.0594
 5983SOL    HW229583   0.861   1.938  14.410 -0.4402 -2.9636 -1.2333
 5984SOL     OW29584   1.051   2.420   4.212 -0.0156  0.2336  0.0446
 5984SOL    HW129585   1.111   2.382   4.148 -1.0440  0.3033 -0.9779
 5984SOL    HW229586   0.970   2.368   4.208 -0.2326  0.6897 -1.3586
 5985SOL     OW29587   0.920   1.937   2.640  0.3753  0.4244  0.1781
 5985SOL    HW129588   0.837   1.940   2.591  0.2294 -0.0793  0.3955
 5985SOL    HW229589   0.900   1.868   2.704  0.8067 -0.9138 -1.1217
 5986SOL     OW29590   1.613   0.192   8.701  0.0833  0.2579 -0.2016
 5986SOL    HW129591   1.621   0.125   8.633  0.4983  0.1511 -0.0452
 5986SOL    HW229592   1.705   0.215   8.709  0.1135  0.9673 -2.6077
 5987SOL     OW29593   1.308   0.782   4.157 -0.1341 -0.5152 -0.1038
 5987SOL    HW129594   1.271   0.849   4.100 -2.5367 -1.2011  0.6545
 5987SOL    HW229595   1.316   0.701   4.108 -0.4787 -0.5358 -0.1222
 5988SOL     OW29596   3.188   2.957   7.612 -0.1808  0.3874 -0.3387
 5988SOL    HW129597   3.218   3.040   7.574  1.8628  0.6870  1.8612
 5988SOL    HW229598   3.248   2.902   7.562 -0.4464  0.1115 -0.3477
 5989SOL     OW29599   1.951   1.005   4.922 -0.4969  0.3837  0.0733
 5989SOL    HW129600   1.922   0.938   4.861 -0.9849  1.3523 -0.7576
 5989SOL    HW229601   2.011   1.066   4.878 -0.8037 -0.5899 -1.6694
 5990SOL     OW29602   2.783   3.128   2.711  0.3974 -0.0903  0.5243
 5990SOL    HW129603   2.869   3.129   2.752  0.6711  2.0504 -0.1077
 5990SOL    HW229604   2.803   3.082   2.629  0.0819  2.2212 -0.8497
 5991SOL     OW29605   1.779   1.170   2.784 -0.0325  0.0434 -0.6681
 5991SOL    HW129606   1.873   1.149   2.781  0.0604  0.1599  1.5395
 5991SOL    HW229607   1.747   1.161   2.694  0.2819 -1.7444 -0.5914
 5992SOL     OW29608   3.031   0.469  10.773  0.6590 -0.0791  0.0521
 5992SOL    HW129609   2.939   0.443  10.765  0.4537  0.7308 -0.2520
 5992SOL    HW229610   3.029   0.535  10.842  1.2344  0.5156 -0.5068
 5993SOL     OW29611   4.611   2.541   4.107 -1.5222 -0.2191  0.1820
 5993SOL    HW129612   4.637   2.627   4.139  1.4134  0.1044 -3.0492
 5993SOL    HW229613   4.603   2.547   4.012  0.7473  0.5578  0.0298
 5994SOL     OW29614   0.915   3.708   5.908 -0.2639 -0.2734 -0.3847
 5994SOL    HW129615   0.837   3.706   5.853 -1.7517 -0.2594  1.7173
 5994SOL    HW229616   0.965   3.785   5.881  1.9949 -1.8165 -0.5936
 5995SOL     OW29617   1.059   1.006   6.852  1.0132  0.6893  0.2342
 5995SOL    HW129618   1.128   0.952   6.892  1.8410  0.7805 -1.0940
 5995SOL    HW229619   1.021   1.032   6.936 -0.8586  1.4073 -0.8360
 5996SOL     OW29620   1.709   3.101  17.545  0.1997 -0.2347 -0.5786
 5996SOL    HW129621   1.728   3.192  17.567  1.9778 -1.0122  1.1191
 5996SOL    HW229622   1.624   3.078  17.582  0.7645 -0.0773  0.8220
 5997SOL     OW29623   3.222   4.715  15.311 -0.8615  0.3043 -0.4314
 5997SOL    HW129624   3.200   0.066  15.268 -0.3305  1.0454  0.7001
 5997SOL    HW229625   3.250   4.664  15.236  0.2185  2.3077 -1.3994
 5998SOL     OW29626   1.795   3.798   1.985  0.3337  0.0510 -0.3815
 5998SOL    HW129627   1.723   3.742   1.956 -0.1409  0.8391 -0.7418
 5998SOL    HW229628   1.840   3.807   1.901  0.8582 -0.2543 -0.1277
 5999SOL     OW29629   4.004   0.656   4.729  0.1070 -0.6167  0.1021
 5999SOL    HW129630   4.055   0.737   4.719  0.2945 -0.8742 -0.9361
 5999SOL    HW229631   3.938   0.678   4.794  0.9879 -2.0167  1.4709
 6000SOL     OW29632   1.206   2.634   3.947 -0.3135 -0.3500 -0.0422
 6000SOL    HW129633   1.175   2.694   4.015  0.2721  1.2660 -1.2008
 6000SOL    HW229634   1.299   2.625   3.970 -0.0999 -0.1337 -0.8297
 6001SOL     OW29635   0.100   2.853   3.880 -0.6987  0.0183  0.4487
 6001SOL    HW129636   0.014   2.895   3.893 -2.0444 -1.9697 -2.0198
 6001SOL    HW229637   0.138   2.864   3.967  0.4247  1.2700 -0.2124
 6002SOL     OW29638   1.151   2.471   9.072 -0.1813  0.1059  0.5396
 6002SOL    HW129639   1.165   2.385   9.031  2.4892  0.9380 -0.2775
 6002SOL    HW229640   1.104   2.443   9.150 -0.6074  2.6363  1.1707
 6003SOL     OW29641   1.472   2.203   8.168  0.0469  0.3215 -0.1050
 6003SOL    HW129642   1.411   2.228   8.237  0.4279  0.5604  0.1519
 6003SOL    HW229643   1.464   2.273   8.102 -1.7931  3.0870  3.0594
 6004SOL     OW29644   4.417   3.092   8.706 -0.0360 -0.0666  0.1313
 6004SOL    HW129645   4.458   3.018   8.750  0.5454  0.3888  0.3654
 6004SOL    HW229646   4.360   3.040   8.650 -2.4999 -1.3234  3.8258
 6005SOL     OW29647   3.381   0.489  10.575 -0.3583 -0.3922 -0.1322
 6005SOL    HW129648   3.437   0.416  10.547 -0.1510 -0.3123  0.0681
 6005SOL    HW229649   3.450   0.542  10.615 -0.5805 -1.2002  1.3113
 6006SOL     OW29650   3.425   2.441  15.307  0.1518 -0.1204  0.6461
 6006SOL    HW129651   3.367   2.484  15.369 -1.4894  0.5373 -1.3559
 6006SOL    HW229652   3.474   2.388  15.370  0.8281 -1.5034 -1.0169
 6007SOL     OW29653   1.459   2.689  17.652  0.1720  0.4963  0.2111
 6007SOL    HW129654   1.481   2.782  17.647 -2.3574  1.0850 -0.0894
 6007SOL    HW229655   1.541   2.647  17.677  0.1803  0.5198  0.2227
 6008SOL     OW29656   3.352   3.603   4.002 -0.2320 -0.1434  0.7235
 6008SOL    HW129657   3.378   3.693   4.021 -0.5976 -0.0766  0.9020
 6008SOL    HW229658   3.271   3.603   4.053 -0.5801  1.4816  0.1458
 6009SOL     OW29659   3.836   1.011   5.896  0.1195  0.1119  0.0211
 6009SOL    HW129660   3.800   0.928   5.927 -1.5940  0.0870 -2.0542
 6009SOL    HW229661   3.820   1.067   5.972  1.4127 -0.9307  1.0515
 6010SOL     OW29662   2.940   1.033   3.901 -0.1564 -0.0628  0.2444
 6010SOL    HW129663   2.929   0.989   3.816 -0.5845  0.5079 -0.0001
 6010SOL    HW229664   2.915   1.125   3.889 -0.8630 -0.5049 -1.7737
 6011SOL     OW29665   3.057   3.121   8.654  0.0127  0.3098 -0.0989
 6011SOL    HW129666   3.143   3.137   8.692 -1.5000  2.0601  2.5813
 6011SOL    HW229667   3.056   3.025   8.661  2.2100  0.4571  2.1450
 6012SOL     OW29668   1.725   2.885   5.546 -0.6818 -0.3142  0.2416
 6012SOL    HW129669   1.637   2.850   5.557 -1.2200  1.2931  1.0780
 6012SOL    HW229670   1.774   2.815   5.589 -0.4295 -0.8967 -1.0204
 6013SOL     OW29671   0.312   0.452   3.720 -0.1244 -0.0034  0.2806
 6013SOL    HW129672   0.293   0.539   3.755 -1.3916  0.4567 -1.5852
 6013SOL    HW229673   0.247   0.451   3.650  1.4602  1.2133 -1.1851
 6014SOL     OW29674   1.211   1.251   4.401  0.4899 -0.1790 -0.1585
 6014SOL    HW129675   1.162   1.318   4.448  1.5324  0.2324  0.3565
 6014SOL    HW229676   1.153   1.177   4.415 -0.4041  0.2668 -1.5378
 6015SOL     OW29677   3.699   4.605   6.227  0.7578  0.7041  0.3024
 6015SOL    HW129678   3.743   4.550   6.162 -1.8266 -0.1876 -0.6847
 6015SOL    HW229679   3.614   4.618   6.186  0.5692 -1.3423  0.0379
 6016SOL     OW29680   4.512   3.880   9.583 -0.1441  0.4655  0.6848
 6016SOL    HW129681   4.465   3.816   9.636  0.8653  1.3505  2.6737
 6016SOL    HW229682   4.484   3.965   9.616 -1.6590 -0.7851  2.6244
 6017SOL     OW29683   4.416   0.250   4.422 -1.0043  0.4981 -0.9528
 6017SOL    HW129684   4.354   0.305   4.470  1.7597  2.8598 -0.0803
 6017SOL    HW229685   4.502   0.283   4.449 -0.6350 -0.3048 -1.1594
 6018SOL     OW29686   0.851   1.150   5.852 -0.2465 -0.0639  0.5952
 6018SOL    HW129687   0.762   1.165   5.819 -0.9598 -1.1227  2.0535
 6018SOL    HW229688   0.895   1.117   5.774 -1.4310  0.1427 -0.1666
 6019SOL     OW29689   2.922   1.746  10.959 -0.0839  0.0720  0.4062
 6019SOL    HW129690   2.865   1.669  10.961 -1.3703  1.0319  0.5465
 6019SOL    HW229691   2.998   1.700  10.923 -1.6286  0.6583 -3.6145
 6020SOL     OW29692   2.636   2.131   8.116  0.0127  0.0311 -1.0293
 6020SOL    HW129693   2.696   2.132   8.191 -0.5602 -0.7601 -0.5538
 6020SOL    HW229694   2.687   2.089   8.047 -0.0084  0.9873 -1.6319
 6021SOL     OW29695   4.388   4.624   9.450 -0.0594  0.0725  0.2728
 6021SOL    HW129696   4.441   4.639   9.372  0.7124  0.0126  0.7925
 6021SOL    HW229697   4.383   4.714   9.483 -0.2402 -1.3349  4.0959
 6022SOL     OW29698   4.719   2.715   8.251 -0.3261 -0.3203 -0.2090
 6022SOL    HW129699   4.658   2.703   8.178 -0.3480  0.1193 -0.2607
 6022SOL    HW229700   0.064   2.757   8.214 -0.0438 -1.4714 -0.9388
 6023SOL     OW29701   3.163   1.409   2.657  0.6850  0.1659 -0.1274
 6023SOL    HW129702   3.068   1.417   2.671  0.8565 -1.1925  1.7286
 6023SOL    HW229703   3.177   1.361   2.738 -0.3740  2.1194  1.1964
 6024SOL     OW29704   3.746   2.264   1.765 -0.1196 -0.3789 -0.3639
 6024SOL    HW129705   3.815   2.307   1.815 -0.6787  1.3562 -1.0763
 6024SOL    HW229706   3.668   2.297   1.809  0.1464 -0.5327  0.2223
 6025SOL     OW29707   4.607   0.262   8.339 -0.0206 -0.1088 -0.3657
 6025SOL    HW129708   4.689   0.267   8.388 -0.7309  0.3155  0.7698
 6025SOL    HW229709   4.548   0.324   8.382  1.3319  0.6325  0.4287
 6026SOL     OW29710   3.317   0.825  16.077 -0.1565  0.0480  0.0938
 6026SOL    HW129711   3.346   0.837  16.167 -0.4559  1.0458  0.0541
 6026SOL    HW229712   3.223   0.841  16.083  0.1546  1.7101  0.4736
 6027SOL     OW29713   4.435   0.889   6.512 -0.3301 -0.2890  0.2145
 6027SOL    HW129714   4.432   0.950   6.585  0.7916  0.4283 -0.3428
 6027SOL    HW229715   4.350   0.905   6.472  0.1598  0.9586 -0.3091
 6028SOL     OW29716   4.727   1.896  15.227  0.0054 -0.0944 -0.2193
 6028SOL    HW129717   0.039   1.834  15.169  0.5811  0.7367 -0.6739
 6028SOL    HW229718   4.654   1.918  15.169  0.7018 -1.4995 -1.6237
 6029SOL     OW29719   0.812   0.906   9.133  0.0677  0.5860 -0.8383
 6029SOL    HW129720   0.882   0.843   9.153 -0.2248  0.3811 -0.4499
 6029SOL    HW229721   0.739   0.845   9.138  0.9815 -0.4933 -0.5857
 6030SOL     OW29722   0.668   1.975  12.851  0.1235  0.4658 -0.2534
 6030SOL    HW129723   0.673   1.880  12.861 -2.0967  0.3984  0.1727
 6030SOL    HW229724   0.747   2.000  12.802 -0.8677  0.0635 -2.0570
 6031SOL     OW29725   1.150   3.785   9.423  0.1527 -0.1098  0.0061
 6031SOL    HW129726   1.146   3.749   9.334  0.4197 -2.1139  0.8093
 6031SOL    HW229727   1.057   3.779   9.447 -0.4747  0.5488 -2.1950
 6032SOL     OW29728   3.241   4.141   1.412 -0.2878 -0.3814  0.6255
 6032SOL    HW129729   3.256   4.227   1.452  1.3812  0.8868 -2.7890
 6032SOL    HW229730   3.318   4.137   1.357 -1.7322  1.1963 -1.5161
 6033SOL     OW29731   1.491   3.021   5.400 -0.0110  0.2982 -0.1784
 6033SOL    HW129732   1.467   2.938   5.441 -1.5844 -0.2249 -2.1129
 6033SOL    HW229733   1.430   3.035   5.327 -0.4781 -0.5670  0.0426
 6034SOL     OW29734   1.424   3.002   9.072  0.4811  0.0755 -0.3424
 6034SOL    HW129735   1.480   2.929   9.098 -0.8146 -0.8560 -0.1604
 6034SOL    HW229736   1.397   2.972   8.985  0.0354  0.9423 -0.5031
 6035SOL     OW29737   2.520   2.660   1.924  0.1778 -0.4999  0.1985
 6035SOL    HW129738   2.575   2.672   1.846 -2.3631 -0.3916 -1.5770
 6035SOL    HW229739   2.501   2.750   1.948  2.0516 -0.1156  0.2376
 6036SOL     OW29740   0.465   3.260   7.572  0.4565 -0.1432 -0.0796
 6036SOL    HW129741   0.493   3.340   7.527  0.5458  0.4006  0.9575
 6036SOL    HW229742   0.460   3.292   7.662  0.6887 -1.1707  0.2920
 6037SOL     OW29743   4.398   0.646  14.834  0.5673  0.2387 -0.3766
 6037SOL    HW129744   4.340   0.647  14.911  0.2907  0.3713 -0.5876
 6037SOL    HW229745   4.361   0.574  14.781 -1.9866  1.2013  0.0734
 6038SOL     OW29746   4.029   3.646   9.170 -0.4534  0.3962 -0.8789
 6038SOL    HW129747   4.107   3.692   9.139  0.5199 -0.3375  0.4280
 6038SOL    HW229748   4.026   3.672   9.262  4.3212  0.4935 -0.7099
 6039SOL     OW29749   0.509   4.673   3.023 -0.2145 -0.1783 -0.1778
 6039SOL    HW129750   0.443   0.009   3.037 -1.7427 -1.7538  0.3175
 6039SOL    HW229751   0.573   4.698   3.089 -0.4205  0.4386 -0.2097
 6040SOL     OW29752   3.676   1.498   9.466  0.6322 -0.9190 -0.2578
 6040SOL    HW129753   3.633   1.558   9.527 -0.3958 -0.4032 -1.4897
 6040SOL    HW229754   3.712   1.434   9.526 -0.7840 -0.9386  0.5485
 6041SOL     OW29755   3.983   2.295   2.167 -0.0737  0.0172 -0.0070
 6041SOL    HW129756   3.915   2.236   2.197 -1.6718  1.2078 -1.3082
 6041SOL    HW229757   4.047   2.303   2.238  1.3287 -1.1032 -1.1292
 6042SOL     OW29758   1.596   4.075  16.865 -0.2357  0.1074 -0.4124
 6042SOL    HW129759   1.599   4.167  16.888  2.3125  0.0146 -0.3785
 6042SOL    HW229760   1.538   4.042  16.934  0.3386 -1.3628 -0.6215
 6043SOL     OW29761   1.958   0.764  15.961 -0.4804  0.1662 -0.1353
 6043SOL    HW129762   1.972   0.682  15.914 -1.4872 -0.6348  0.9727
 6043SOL    HW229763   2.047   0.791  15.980  0.3223 -1.5659 -1.4972
 6044SOL     OW29764   1.221   1.662   9.402  0.3496  0.1930 -0.4314
 6044SOL    HW129765   1.179   1.747   9.388  0.8586  0.7154  1.1635
 6044SOL    HW229766   1.273   1.682   9.481  2.2262  3.2145 -2.4148
 6045SOL     OW29767   2.600   4.598  10.212  0.0660 -0.3964  0.0573
 6045SOL    HW129768   2.509   4.584  10.239  0.4819  0.4640  1.9482
 6045SOL    HW229769   2.594   4.693  10.217 -1.0942 -0.4257 -1.0595
 6046SOL     OW29770   4.372   3.941   1.549 -0.5823 -0.4224 -0.0726
 6046SOL    HW129771   4.393   3.848   1.554  0.2186 -0.2212  0.1929
 6046SOL    HW229772   4.303   3.938   1.483  1.1707 -3.6919 -1.7606
 6047SOL     OW29773   4.139   1.744   1.254 -0.2894 -0.3228 -0.1437
 6047SOL    HW129774   4.174   1.712   1.337 -2.6911  2.2579  1.8435
 6047SOL    HW229775   4.221   1.742   1.204 -0.9102  0.5433 -1.1735
 6048SOL     OW29776   4.536   2.231   6.928 -0.1608 -0.2854 -0.1193
 6048SOL    HW129777   4.619   2.186   6.914 -0.3139 -0.5656 -0.1079
 6048SOL    HW229778   4.555   2.313   6.882 -2.6144  0.5582  0.3512
 6049SOL     OW29779   0.645   1.516  15.234  0.7816  0.6503  0.3563
 6049SOL    HW129780   0.611   1.566  15.160 -1.5158 -2.4789 -0.7080
 6049SOL    HW229781   0.637   1.591  15.294 -1.3522 -0.1806  1.1192
 6050SOL     OW29782   3.163   2.493  12.567  0.2697  0.2249 -0.1139
 6050SOL    HW129783   3.085   2.479  12.620 -0.4805  4.5321 -0.0476
 6050SOL    HW229784   3.158   2.423  12.503 -2.1479  0.3397 -0.0246
 6051SOL     OW29785   0.611   1.919   6.591  0.1656  0.1837  0.3134
 6051SOL    HW129786   0.628   1.980   6.520  0.0764 -0.8670 -0.6165
 6051SOL    HW229787   0.515   1.908   6.593  0.4068 -1.6532  2.6673
 6052SOL     OW29788   0.008   0.922   3.118 -0.3539  0.4836 -0.1557
 6052SOL    HW129789   0.008   0.933   3.214  0.3181  4.4181 -0.6101
 6052SOL    HW229790   4.688   0.843   3.102  2.1620 -0.8780 -1.4853
 6053SOL     OW29791   1.182   1.155  16.793  0.7996  0.1028  0.6956
 6053SOL    HW129792   1.191   1.229  16.733  0.5412  0.5345  1.1853
 6053SOL    HW229793   1.261   1.102  16.784  1.6033  1.5863 -0.9643
 6054SOL     OW29794   1.131   4.402  15.013  0.2165 -0.0406 -0.1206
 6054SOL    HW129795   1.073   4.335  14.976  0.1221 -0.7612  1.3429
 6054SOL    HW229796   1.086   4.478  14.977  2.7895  1.0236 -1.0559
 6055SOL     OW29797   0.468   0.626   8.423 -0.1913 -0.7236  0.0918
 6055SOL    HW129798   0.408   0.611   8.495 -3.0711 -0.3315 -2.2391
 6055SOL    HW229799   0.505   0.710   8.451  0.5766  0.2442 -3.7240
 6056SOL     OW29800   1.676   1.791  13.251 -0.0481  0.2321 -0.6189
 6056SOL    HW129801   1.724   1.743  13.318 -1.9490 -1.8337 -0.7362
 6056SOL    HW229802   1.586   1.781  13.281  1.3574 -2.6500  2.6473
 6057SOL     OW29803   2.202   4.631   9.531  0.2326  0.1025 -0.1027
 6057SOL    HW129804   2.202   4.544   9.490 -0.6901 -0.0657  0.2520
 6057SOL    HW229805   2.113   4.640   9.566 -0.1206 -1.0319 -0.6819
 6058SOL     OW29806   2.133   0.094   2.796 -0.0390 -0.3058  0.1177
 6058SOL    HW129807   2.164   0.004   2.796  0.9924  0.0525  1.3026
 6058SOL    HW229808   2.058   0.098   2.737  0.4541  1.2257 -0.4324
 6059SOL     OW29809   1.409   3.685  10.434 -0.1876  0.3968 -0.8807
 6059SOL    HW129810   1.349   3.616  10.406 -0.9012  1.7546 -2.6744
 6059SOL    HW229811   1.490   3.641  10.406 -1.3486 -0.3064 -3.1500
 6060SOL     OW29812   0.484   2.076  10.707  0.5026  0.1648  0.1965
 6060SOL    HW129813   0.552   2.099  10.643  1.8723  0.3028  1.7172
 6060SOL    HW229814   0.445   2.001  10.660  2.0171  0.4823 -1.5600
 6061SOL     OW29815   4.226   2.488   1.290  0.7794  0.7119 -0.5987
 6061SOL    HW129816   4.180   2.472   1.207  1.7164  0.2898 -1.0309
 6061SOL    HW229817   4.224   2.407   1.340  0.4876 -0.0897 -1.9157
 6062SOL     OW29818   0.283   1.151   9.207 -0.3173  0.1169  0.0277
 6062SOL    HW129819   0.263   1.146   9.113  1.1715  0.5213 -0.3169
 6062SOL    HW229820   0.288   1.057   9.226 -1.4336 -0.0096 -0.2763
 6063SOL     OW29821   1.274   3.385   8.104 -0.2483  0.7118  0.3164
 6063SOL    HW129822   1.196   3.374   8.159 -0.2366 -2.7394 -0.3142
 6063SOL    HW229823   1.310   3.296   8.110 -3.4815 -0.6351  0.1435
 6064SOL     OW29824   1.429   2.545   3.521  0.2506  0.0511 -0.1580
 6064SOL    HW129825   1.361   2.502   3.572  1.3159  1.0872  2.1293
 6064SOL    HW229826   1.502   2.529   3.580  0.1889  1.1854  0.2274
 6065SOL     OW29827   2.060   2.972   6.043 -0.3647  0.2180  0.8358
 6065SOL    HW129828   2.008   2.910   5.990 -0.5638  1.2262 -0.1410
 6065SOL    HW229829   2.116   3.000   5.971  1.0309 -2.1983  0.9785
 6066SOL     OW29830   2.641   2.815   5.904  0.4403 -0.3869 -0.6211
 6066SOL    HW129831   2.594   2.870   5.967  2.6999  0.0545  0.6853
 6066SOL    HW229832   2.691   2.758   5.963 -1.1885 -0.9138  0.2672
 6067SOL     OW29833   4.406   2.301  11.315  0.2720  0.1185  0.2716
 6067SOL    HW129834   4.459   2.241  11.263  1.1407  0.3790  0.8458
 6067SOL    HW229835   4.482   2.338  11.362  0.1150  0.2848  0.3970
 6068SOL     OW29836   3.745   3.242   9.110  0.6643  0.1570 -0.5003
 6068SOL    HW129837   3.805   3.316   9.115  0.1538  0.5616 -0.4031
 6068SOL    HW229838   3.666   3.287   9.140  0.7932 -0.5496  0.8986
 6069SOL     OW29839   2.573   2.087  10.988 -0.6653 -0.3264 -0.1151
 6069SOL    HW129840   2.651   2.051  10.945 -0.8044  0.3073 -0.9048
 6069SOL    HW229841   2.536   2.006  11.024 -0.0587  0.4816  2.2801
 6070SOL     OW29842   2.589   0.256   4.634  0.5255 -0.1111  0.4215
 6070SOL    HW129843   2.617   0.198   4.563  1.4502  0.8912 -0.0371
 6070SOL    HW229844   2.649   0.234   4.705 -0.5377 -1.5863  0.8484
 6071SOL     OW29845   3.710   0.135   2.895  0.2014  0.1225 -0.1084
 6071SOL    HW129846   3.666   0.189   2.829  0.9708  0.4763 -0.3252
 6071SOL    HW229847   3.628   0.093   2.923  0.2566  0.7243  0.9438
 6072SOL     OW29848   1.497   3.352   4.608  0.2471 -0.8135 -0.2363
 6072SOL    HW129849   1.485   3.362   4.703 -2.9902 -0.4823 -0.6984
 6072SOL    HW229850   1.579   3.402   4.603 -0.5579  0.5788  0.5243
 6073SOL     OW29851   4.706   4.159  11.068  0.3937  0.8581  0.0160
 6073SOL    HW129852   4.697   4.096  11.139 -1.1358  0.9258 -0.1095
 6073SOL    HW229853   0.042   4.217  11.101  1.5332 -0.6665  0.3282
 6074SOL     OW29854   1.294   0.254   4.296  0.5599 -0.0581  0.2584
 6074SOL    HW129855   1.302   0.301   4.379  1.3575 -0.5633  0.4675
 6074SOL    HW229856   1.385   0.265   4.267  1.1865 -0.8387  1.9320
 6075SOL     OW29857   1.816   2.289   2.975  0.5155 -0.6052 -0.2063
 6075SOL    HW129858   1.739   2.271   3.029  0.2449 -0.8842 -0.6854
 6075SOL    HW229859   1.873   2.216   2.998  0.5848  0.4339  2.9046
 6076SOL     OW29860   1.526   0.951  10.465  0.1205 -0.4070 -0.0645
 6076SOL    HW129861   1.585   0.998  10.405  1.7229 -2.1414  0.1467
 6076SOL    HW229862   1.536   1.004  10.544  0.6049 -2.1277  1.0398
 6077SOL     OW29863   0.040   2.857  12.460 -0.0058 -0.1691 -0.1175
 6077SOL    HW129864   4.727   2.808  12.528  0.5574  1.8009  1.6937
 6077SOL    HW229865   0.129   2.837  12.490 -0.1927 -0.6902  0.0836
 6078SOL     OW29866   2.856   3.485   8.516 -0.1049 -0.1279 -0.0176
 6078SOL    HW129867   2.933   3.448   8.559 -0.5256 -1.5347 -0.4626
 6078SOL    HW229868   2.784   3.456   8.573  0.3615  2.4030  1.8726
 6079SOL     OW29869   3.606   0.676   2.896 -0.5024 -0.8042 -0.1560
 6079SOL    HW129870   3.657   0.640   2.822  0.0330 -0.1134 -0.1218
 6079SOL    HW229871   3.617   0.767   2.871  2.6509 -1.2382 -0.3918
 6080SOL     OW29872   4.090   3.982  13.282 -0.3929 -0.1566  0.1066
 6080SOL    HW129873   4.039   4.043  13.229  1.1757 -0.9705 -2.3835
 6080SOL    HW229874   4.152   4.046  13.318 -0.5335 -0.2884  0.5778
 6081SOL     OW29875   1.387   1.879   3.798 -0.3351  0.4707 -0.1635
 6081SOL    HW129876   1.324   1.910   3.733  0.4771  1.5635 -0.4407
 6081SOL    HW229877   1.369   1.786   3.811  1.4330  0.5503  2.8522
 6082SOL     OW29878   3.011   0.052   7.879 -0.4177  0.1416  0.8507
 6082SOL    HW129879   3.050   0.081   7.962  0.0484 -0.1930  0.7505
 6082SOL    HW229880   3.086   0.012   7.835 -0.4779 -0.5820  1.4007
 6083SOL     OW29881   1.123   2.146   8.061 -0.2313 -0.5375  0.5376
 6083SOL    HW129882   1.048   2.103   8.021 -1.4103 -0.4574  2.6630
 6083SOL    HW229883   1.088   2.165   8.148 -0.4080 -0.5526  0.4685
 6084SOL     OW29884   2.951   2.961  13.065 -0.5758 -0.1690  0.0816
 6084SOL    HW129885   3.032   3.010  13.055 -0.1804 -1.2071 -1.9393
 6084SOL    HW229886   2.887   3.021  13.028 -0.5211  0.3050  0.7637
 6085SOL     OW29887   4.678   3.413   7.568 -0.2737  0.2304 -0.2737
 6085SOL    HW129888   4.717   3.386   7.651 -3.4480 -1.0642  0.7725
 6085SOL    HW229889   0.024   3.413   7.512  0.4242  0.3428  0.7017
 6086SOL     OW29890   1.267   0.563   2.072  0.3338  0.0418 -0.1289
 6086SOL    HW129891   1.335   0.630   2.070  1.3684 -0.9633  1.1958
 6086SOL    HW229892   1.313   0.492   2.028 -2.3721 -0.9828 -1.3174
 6087SOL     OW29893   1.915   1.521  13.388 -0.3792 -0.1886 -0.5614
 6087SOL    HW129894   1.961   1.563  13.315 -1.1443  2.8049  0.6892
 6087SOL    HW229895   1.872   1.595  13.430  1.0938  0.4406 -0.1926
 6088SOL     OW29896   1.225   3.771  10.586  0.6630 -0.0413 -0.5961
 6088SOL    HW129897   1.275   3.734  10.513 -0.4097 -0.8964 -0.8896
 6088SOL    HW229898   1.186   3.697  10.632  1.8389  1.4821  2.8834
 6089SOL     OW29899   2.633   1.993   6.012 -0.3649 -0.1179 -0.5177
 6089SOL    HW129900   2.673   2.049   5.945 -0.9019 -1.7162 -2.1718
 6089SOL    HW229901   2.617   1.911   5.965  2.8266 -1.7325  1.1861
 6090SOL     OW29902   4.580   3.537   3.436 -0.2747  0.7054  0.0894
 6090SOL    HW129903   4.497   3.544   3.389  0.0517  0.2013 -0.5520
 6090SOL    HW229904   4.591   3.628   3.463  2.3171  0.9048 -1.6861
 6091SOL     OW29905   3.733   3.422   4.577 -0.0803 -0.8655 -0.0532
 6091SOL    HW129906   3.715   3.476   4.654  0.8704 -2.7399  1.5199
 6091SOL    HW229907   3.793   3.358   4.617  0.1899 -1.2312 -1.0382
 6092SOL     OW29908   4.530   1.961   4.380 -0.0501 -0.8249  0.1357
 6092SOL    HW129909   4.434   1.960   4.383 -0.1009  0.7706 -1.8756
 6092SOL    HW229910   4.546   2.055   4.376  0.9752 -0.9549  1.2434
 6093SOL     OW29911   1.962   3.119  13.048  0.0170  0.4620  0.0946
 6093SOL    HW129912   1.968   3.167  12.965  0.3561 -2.1288 -1.3844
 6093SOL    HW229913   2.046   3.139  13.091 -0.0559 -0.1540  0.5186
 6094SOL     OW29914   3.773   0.698  17.445  0.2294 -0.1303  0.2930
 6094SOL    HW129915   3.718   0.664  17.375 -0.6046  0.2812  0.7375
 6094SOL    HW229916   3.860   0.713  17.409  0.1534  0.7028  0.4425
 6095SOL     OW29917   2.579   2.527  11.818  0.2481  0.4163  0.0683
 6095SOL    HW129918   2.624   2.609  11.798 -0.6679  1.0611  0.6660
 6095SOL    HW229919   2.505   2.524  11.757  1.9108 -3.8576 -1.7633
 6096SOL     OW29920   1.309   0.894   1.516  0.2605 -0.0346  0.6464
 6096SOL    HW129921   1.216   0.879   1.500  0.2887  1.0349 -0.4932
 6096SOL    HW229922   1.302   0.990   1.520  2.1290  0.1876 -1.5127
 6097SOL     OW29923   4.393   3.946  16.271  0.1283  0.8304  0.1697
 6097SOL    HW129924   4.345   3.901  16.202 -0.0662  1.3262 -0.0122
 6097SOL    HW229925   4.478   3.906  16.255 -0.8620 -0.8913 -0.8426
 6098SOL     OW29926   0.199   3.597  17.151 -0.2307 -0.2475 -0.0215
 6098SOL    HW129927   0.254   3.548  17.213 -1.4977  1.1765  2.2074
 6098SOL    HW229928   0.234   3.685  17.164  0.7430 -0.6591  0.1643
 6099SOL     OW29929   3.385   0.653   2.407 -0.1404  0.3882  0.4179
 6099SOL    HW129930   3.454   0.653   2.340 -0.1246 -3.1890  0.4195
 6099SOL    HW229931   3.316   0.612   2.355  2.5405 -1.0421 -1.9989
 6100SOL     OW29932   2.353   2.843   8.765 -0.0603 -0.6939  0.3595
 6100SOL    HW129933   2.268   2.808   8.738  0.0697 -0.0417 -0.8852
 6100SOL    HW229934   2.403   2.783   8.710  1.1844  1.5345 -0.9310
 6101SOL     OW29935   3.401   2.825   7.905  0.5529 -0.4122 -0.2324
 6101SOL    HW129936   3.399   2.749   7.846  1.6166 -0.0549 -0.7202
 6101SOL    HW229937   3.315   2.857   7.880 -0.2343 -1.6537  0.8835
 6102SOL     OW29938   3.261   4.088   2.058 -0.6868  0.2888 -0.1624
 6102SOL    HW129939   3.336   4.137   2.090 -1.3254  2.0810 -1.3801
 6102SOL    HW229940   3.205   4.156   2.019  0.1468  0.6902 -0.6588
 6103SOL     OW29941   1.772   0.191  17.500  0.6872  0.3320  0.0946
 6103SOL    HW129942   1.701   0.203  17.563  0.9173  0.8786  0.2445
 6103SOL    HW229943   1.753   0.271  17.452 -3.9766 -0.3220  0.8713
 6104SOL     OW29944   1.343   2.618   4.667  0.3818 -0.2841  0.4457
 6104SOL    HW129945   1.274   2.670   4.625  3.6587  2.0346 -2.0345
 6104SOL    HW229946   1.391   2.686   4.713  2.0825 -1.6288  0.6405
 6105SOL     OW29947   3.943   4.420  10.154  0.0675 -0.6048  0.2633
 6105SOL    HW129948   3.932   4.352  10.088  0.1906  0.9780 -1.3882
 6105SOL    HW229949   4.038   4.426  10.160  0.0838  3.1475 -3.2470
 6106SOL     OW29950   1.577   1.111  13.351  0.4335 -0.1458  0.3341
 6106SOL    HW129951   1.599   1.106  13.258 -0.1733 -0.5759  0.2096
 6106SOL    HW229952   1.494   1.158  13.346  0.8040  0.4490 -0.1223
 6107SOL     OW29953   0.915   0.054   3.721  0.0847 -0.2803  0.3256
 6107SOL    HW129954   0.863   4.708   3.743 -0.1721  0.1756  1.3513
 6107SOL    HW229955   0.976   0.014   3.659  0.7512  0.4145  0.5282
 6108SOL     OW29956   3.097   0.015   4.098 -0.3462  0.0471 -0.0951
 6108SOL    HW129957   3.077   0.037   4.007 -0.4923  0.7150  0.0987
 6108SOL    HW229958   3.182   4.703   4.091 -0.8147 -1.0715  1.4367
 6109SOL     OW29959   2.613   0.836   7.437 -0.7503 -0.3812 -0.3241
 6109SOL    HW129960   2.586   0.820   7.528 -1.6841 -0.2223 -0.5685
 6109SOL    HW229961   2.654   0.750   7.424  0.2726  0.2300 -1.1646
 6110SOL     OW29962   1.273   2.393   9.670  0.7169 -0.7763 -0.2868
 6110SOL    HW129963   1.324   2.417   9.747 -0.7766  2.1262 -0.2083
 6110SOL    HW229964   1.201   2.456   9.672  2.4997  1.2788 -1.5070
 6111SOL     OW29965   2.466   2.066   9.295  0.0730  0.0166  0.8232
 6111SOL    HW129966   2.394   2.007   9.272  0.4986 -0.7347  1.4025
 6111SOL    HW229967   2.482   2.025   9.380 -0.5994  2.6718  2.2119
 6112SOL     OW29968   0.303   4.700  15.466 -0.0308  0.7528 -0.0559
 6112SOL    HW129969   0.212   4.720  15.486  0.1204  1.6212 -0.2241
 6112SOL    HW229970   0.297   4.692  15.371  0.4443  0.9694 -0.1060
 6113SOL     OW29971   3.716   3.992   2.100 -0.0672 -0.0181  0.0856
 6113SOL    HW129972   3.681   3.974   2.013  0.9992  0.2777 -0.3981
 6113SOL    HW229973   3.718   3.905   2.140 -0.5469  0.3462  0.8971
 6114SOL     OW29974   2.615   0.636   9.479  0.0492  0.0462  0.2560
 6114SOL    HW129975   2.676   0.655   9.550 -2.3400  0.3850  2.2216
 6114SOL    HW229976   2.606   0.541   9.483 -1.3778  0.1248 -0.9578
 6115SOL     OW29977   3.907   1.335   7.821 -0.2274 -0.5288 -0.4716
 6115SOL    HW129978   3.865   1.275   7.882  1.7334 -0.6080  0.7987
 6115SOL    HW229979   3.865   1.317   7.737  0.5991 -1.8993 -0.5940
 6116SOL     OW29980   1.718   2.133   0.482  0.0220 -0.3775  0.0481
 6116SOL    HW129981   1.710   2.057   0.539  0.9279 -0.3973  0.1548
 6116SOL    HW229982   1.644   2.182   0.519  1.4450  1.4054  0.5667
 6117SOL     OW29983   3.774   3.369   6.451  0.5671  0.3179  0.3081
 6117SOL    HW129984   3.731   3.443   6.494  0.5191  0.7353 -0.4518
 6117SOL    HW229985   3.836   3.411   6.391 -1.2275  2.3986 -0.0970
 6118SOL     OW29986   4.393   0.705   1.292 -0.2555  0.0355 -0.0948
 6118SOL    HW129987   4.331   0.767   1.252 -0.8148  1.2602  2.6481
 6118SOL    HW229988   4.409   0.639   1.224 -1.7730  1.2692 -1.6662
 6119SOL     OW29989   4.348   4.669   2.601  0.0759 -0.0099 -0.6533
 6119SOL    HW129990   4.254   4.657   2.592 -0.2514  0.5158  2.0603
 6119SOL    HW229991   4.354   4.711   2.515 -1.0639  1.5791  0.0477
 6120SOL     OW29992   1.572   2.738   8.192 -0.2029 -0.3150  0.0635
 6120SOL    HW129993   1.632   2.804   8.157 -0.6431 -0.1263 -0.3393
 6120SOL    HW229994   1.488   2.772   8.161  1.1976  3.2556  0.1817
 6121SOL     OW29995   3.721   2.392   7.448 -0.3117 -0.0167 -0.2446
 6121SOL    HW129996   3.788   2.396   7.380  0.6167 -2.1286  0.5620
 6121SOL    HW229997   3.638   2.404   7.401  0.6681  0.1619 -1.9382
 6122SOL     OW29998   3.533   1.346   8.595 -0.3857 -0.4077  0.4924
 6122SOL    HW129999   3.528   1.441   8.602 -0.4097 -0.3348 -0.6095
 6122SOL    HW230000   3.520   1.315   8.685 -1.2635 -2.6739 -0.4037
 6123SOL     OW30001   1.860   2.076   8.615  0.0069  0.1706 -0.0841
 6123SOL    HW130002   1.791   2.060   8.679 -0.0708  1.3700  0.1237
 6123SOL    HW230003   1.809   2.134   8.559 -2.1083 -1.3734  0.2601
 6124SOL     OW30004   2.509   1.681   9.348 -0.0388 -0.3749 -0.5899
 6124SOL    HW130005   2.603   1.698   9.353 -0.4076  1.9557 -1.2583
 6124SOL    HW230006   2.504   1.593   9.385  1.2470 -0.1441  0.1326
 6125SOL     OW30007   0.595   1.096   6.004 -1.1657 -0.1135 -0.1886
 6125SOL    HW130008   0.647   1.138   6.072 -2.3187 -0.4413  0.8799
 6125SOL    HW230009   0.644   1.017   5.979  2.2576  1.2229  2.2275
 6126SOL     OW30010   2.025   1.359  10.948  0.4409 -0.2765 -0.0102
 6126SOL    HW130011   2.063   1.442  10.977 -1.2182 -0.1598  1.8628
 6126SOL    HW230012   1.953   1.357  11.010 -0.2064  0.9429 -0.7250
 6127SOL     OW30013   1.210   4.701   4.085  0.8589  0.2573 -0.0931
 6127SOL    HW130014   1.235   4.664   4.000 -0.9314 -0.4743 -0.3064
 6127SOL    HW230015   1.174   0.054   4.061 -0.7123 -0.4305 -0.1949
 6128SOL     OW30016   3.755   0.900  10.181 -0.2036  0.3878 -0.2754
 6128SOL    HW130017   3.727   0.808  10.184 -2.6428  1.2263  2.6982
 6128SOL    HW230018   3.844   0.917  10.211  0.8524 -0.5733 -2.8438
 6129SOL     OW30019   4.445   0.198   5.582  0.4603  0.1720 -0.0386
 6129SOL    HW130020   4.481   0.228   5.498 -0.6447 -0.0945 -0.6011
 6129SOL    HW230021   4.460   0.272   5.641 -0.1203  0.5453 -0.3574
 6130SOL     OW30022   2.336   0.891  10.751  0.4325  0.3991 -0.1796
 6130SOL    HW130023   2.347   0.852  10.664 -0.5358  0.5970 -0.3934
 6130SOL    HW230024   2.415   0.862  10.797  0.7730  1.1245 -0.3206
 6131SOL     OW30025   1.697   3.253   5.363 -0.4194  0.0665 -0.0565
 6131SOL    HW130026   1.650   3.173   5.385  1.0129 -0.8155 -0.1563
 6131SOL    HW230027   1.629   3.320   5.365  0.9785  1.5075 -0.3212
 6132SOL     OW30028   1.042   4.060   5.025 -0.2198 -0.2853  0.9204
 6132SOL    HW130029   1.025   4.154   5.023  0.3296 -0.2460 -1.0153
 6132SOL    HW230030   1.125   4.050   4.979 -1.3604 -1.9014 -0.8120
 6133SOL     OW30031   1.300   4.613   3.848 -0.3023 -0.6013 -0.0303
 6133SOL    HW130032   1.304   4.661   3.765 -0.1214 -2.2875 -1.0012
 6133SOL    HW230033   1.393   4.607   3.868 -0.0335 -0.0796 -1.1321
 6134SOL     OW30034   0.439   4.302   2.414 -0.5912 -0.1498 -0.5212
 6134SOL    HW130035   0.492   4.301   2.333 -0.4382 -0.1964 -0.4210
 6134SOL    HW230036   0.377   4.372   2.393 -0.6619  0.4938  1.8963
 6135SOL     OW30037   0.520   0.278  17.147 -0.0737 -0.1799 -0.1271
 6135SOL    HW130038   0.507   0.262  17.240  0.6537 -0.8223 -0.1404
 6135SOL    HW230039   0.518   0.374  17.147  0.7340 -0.1690  1.6116
 6136SOL     OW30040   3.234   3.285  12.153  0.3811  0.0286 -0.2593
 6136SOL    HW130041   3.251   3.376  12.131  0.7667 -0.5839 -2.6046
 6136SOL    HW230042   3.162   3.301  12.213 -0.2504 -0.0786 -0.9841
 6137SOL     OW30043   4.471   4.684  15.948 -0.1283  0.2769  0.1297
 6137SOL    HW130044   4.521   4.639  15.880  0.5129 -0.2205  0.9296
 6137SOL    HW230045   4.392   4.692  15.895 -0.2051 -2.1231 -0.1184
 6138SOL     OW30046   4.548   0.485   8.531  0.0325 -0.1385 -0.0571
 6138SOL    HW130047   4.495   0.412   8.561 -0.8247  0.3177 -0.4703
 6138SOL    HW230048   4.485   0.539   8.484 -1.3015 -3.6350 -2.3571
 6139SOL     OW30049   2.832   1.567   5.590 -0.4432 -0.3031 -0.3386
 6139SOL    HW130050   2.801   1.480   5.613  0.6065 -0.4491  0.5191
 6139SOL    HW230051   2.751   1.619   5.583  0.0557  0.7019  1.2825
 6140SOL     OW30052   1.021   3.949   0.830 -0.3185  0.0028 -0.0120
 6140SOL    HW130053   0.995   3.985   0.915  0.8220  0.6132  0.0877
 6140SOL    HW230054   1.111   3.922   0.850  0.5899  1.5545 -2.0828
 6141SOL     OW30055   1.395   0.226   5.519 -0.4498 -0.0299 -0.4008
 6141SOL    HW130056   1.316   0.269   5.485  0.5761  3.3537  1.5298
 6141SOL    HW230057   1.455   0.300   5.521  2.2784 -2.1698 -4.0043
 6142SOL     OW30058   4.135   3.452  14.320  0.1858 -0.1267  0.8436
 6142SOL    HW130059   4.166   3.367  14.290 -0.6583 -0.3043  0.4931
 6142SOL    HW230060   4.058   3.466  14.266 -1.2611  0.1719  2.9744
 6143SOL     OW30061   3.776   0.092   6.706 -0.5814  0.1415 -0.0370
 6143SOL    HW130062   3.751   0.108   6.615  1.6677 -1.3150 -0.8891
 6143SOL    HW230063   3.870   0.106   6.703 -0.5103 -0.3249 -0.0096
 6144SOL     OW30064   0.071   3.307   7.786  0.3583 -0.4181  0.5803
 6144SOL    HW130065   0.076   3.214   7.764 -1.8797 -0.5105  0.4560
 6144SOL    HW230066   0.084   3.306   7.880  0.2017  2.2026  0.6182
 6145SOL     OW30067   3.075   2.442   0.573  0.2880  0.3223  0.2750
 6145SOL    HW130068   2.991   2.469   0.537  0.3481  1.9910  1.3794
 6145SOL    HW230069   3.131   2.412   0.501 -1.3046 -2.9321  0.4038
 6146SOL     OW30070   0.523   0.145   5.323 -0.2169 -0.4141  0.3804
 6146SOL    HW130071   0.604   0.160   5.274 -1.1470  0.4707 -0.8774
 6146SOL    HW230072   0.510   0.230   5.365  4.7046 -0.8661  2.8113
 6147SOL     OW30073   2.192   2.311   6.369 -0.6567 -0.1813  0.6063
 6147SOL    HW130074   2.222   2.400   6.352  0.0519 -0.2557  1.4833
 6147SOL    HW230075   2.260   2.266   6.419  0.0939  0.6267  0.3219
 6148SOL     OW30076   2.206   4.725   8.381  0.0211 -0.2387 -0.0375
 6148SOL    HW130077   2.225   0.010   8.289  2.8122 -3.3439 -0.0730
 6148SOL    HW230078   2.285   0.023   8.426 -1.2260 -0.0854  2.0534
 6149SOL     OW30079   3.369   2.024   8.637 -0.5184  0.2571  0.3353
 6149SOL    HW130080   3.411   1.952   8.590 -2.1367 -1.9616  2.2575
 6149SOL    HW230081   3.372   2.099   8.578  0.6305  1.4936  1.9524
 6150SOL     OW30082   2.474   3.308  15.008 -0.7516  0.3375  0.4147
 6150SOL    HW130083   2.567   3.288  14.998 -0.1125  1.8707  3.2965
 6150SOL    HW230084   2.470   3.384  14.950 -0.7172  0.2930  0.3544
 6151SOL     OW30085   4.717   0.025   6.934  0.0390 -0.1631 -0.4454
 6151SOL    HW130086   4.671   0.089   6.988 -0.7257 -1.1232  0.0502
 6151SOL    HW230087   4.664   4.678   6.941 -1.1319  0.8221  1.7416
 6152SOL     OW30088   4.300   0.360   3.861 -0.2738 -0.5961 -0.2202
 6152SOL    HW130089   4.344   0.345   3.777  0.6402  0.9606 -0.0245
 6152SOL    HW230090   4.345   0.289   3.907  0.6760 -0.0744 -0.3561
 6153SOL     OW30091   2.071   4.658   3.116 -0.3392 -0.2441  0.0325
 6153SOL    HW130092   2.167   4.663   3.108 -0.2184 -0.6474  1.3547
 6153SOL    HW230093   2.045   0.017   3.103  0.2509  0.2875  2.5365
 6154SOL     OW30094   0.758   0.851   2.275  0.2402 -0.3074 -0.4172
 6154SOL    HW130095   0.815   0.925   2.257 -1.5843  0.8020 -1.6049
 6154SOL    HW230096   0.808   0.777   2.240 -0.4985 -0.9716 -0.0701
 6155SOL     OW30097   3.399   1.295  17.555  0.3957 -0.1765 -0.2723
 6155SOL    HW130098   3.468   1.357  17.534  1.2458 -0.9248  0.3412
 6155SOL    HW230099   3.442   1.219  17.595  0.4354  0.5174  1.0033
 6156SOL     OW30100   4.449   0.757   4.586 -0.4015  0.5150  0.3233
 6156SOL    HW130101   4.465   0.692   4.655 -2.4201 -1.3601 -0.9666
 6156SOL    HW230102   4.455   0.716   4.500 -0.3740 -0.4111  0.7628
 6157SOL     OW30103   2.216   4.200  16.523  0.3977 -0.1291  0.6285
 6157SOL    HW130104   2.160   4.183  16.599  1.1097 -2.4971  0.6133
 6157SOL    HW230105   2.303   4.194  16.563 -0.3572 -2.0596  1.9955
 6158SOL     OW30106   4.033   2.464  12.745  0.0632 -0.0126  0.0466
 6158SOL    HW130107   4.011   2.448  12.653  0.1635  1.2305 -0.1965
 6158SOL    HW230108   3.999   2.553  12.749 -0.9013 -0.2834 -2.0440
 6159SOL     OW30109   2.213   1.504   6.135 -0.1568 -0.5380 -0.5300
 6159SOL    HW130110   2.129   1.550   6.137  0.3418  0.2780  1.9207
 6159SOL    HW230111   2.270   1.567   6.092 -2.7499  0.1866 -2.8967
 6160SOL     OW30112   4.466   4.365   3.729 -0.1752  0.0100 -0.6141
 6160SOL    HW130113   4.449   4.307   3.803 -2.0931  2.5056  0.8871
 6160SOL    HW230114   4.400   4.344   3.663  1.0806  1.5510 -2.3497
 6161SOL     OW30115   4.575   1.759   5.343  0.1519 -0.1440 -0.2703
 6161SOL    HW130116   4.598   1.827   5.281 -1.5090 -0.6484 -1.4310
 6161SOL    HW230117   4.546   1.685   5.289  0.5952 -1.0997  0.7924
 6162SOL     OW30118   4.040   3.795  15.399  0.5572  0.3718 -0.1713
 6162SOL    HW130119   4.132   3.768  15.397  0.9002  1.6268 -1.0151
 6162SOL    HW230120   4.002   3.717  15.359  0.6782  0.3035 -0.1556
 6163SOL     OW30121   0.052   2.866  11.173  0.1677 -0.0440 -0.0001
 6163SOL    HW130122   0.123   2.802  11.185  1.2312  0.8459 -1.5437
 6163SOL    HW230123   4.704   2.815  11.179 -0.9681  1.7594  0.1180
 6164SOL     OW30124   2.001   0.503   6.333 -0.1479 -0.0450 -0.3672
 6164SOL    HW130125   1.976   0.427   6.280 -1.9483  0.0762  0.3194
 6164SOL    HW230126   1.969   0.575   6.280 -0.4731  1.8190  2.3535
 6165SOL     OW30127   2.342   1.247   5.545 -0.5237  0.4794  0.0378
 6165SOL    HW130128   2.356   1.194   5.467  1.0594 -1.5440  1.6990
 6165SOL    HW230129   2.295   1.178   5.593 -0.5869  1.3653  1.2609
 6166SOL     OW30130   4.255   1.420  11.244  0.1594  0.3951  0.2240
 6166SOL    HW130131   4.222   1.331  11.259  1.8299 -0.3590 -0.5356
 6166SOL    HW230132   4.351   1.413  11.242  0.1711  1.5804 -2.2314
 6167SOL     OW30133   0.598   2.150   9.297  0.2229  0.3422 -0.4424
 6167SOL    HW130134   0.524   2.181   9.351 -1.4443  0.8217 -3.0164
 6167SOL    HW230135   0.562   2.116   9.215  0.6692 -1.1576 -0.0154
 6168SOL     OW30136   2.239   2.898   3.830  0.1418 -0.5633  0.2273
 6168SOL    HW130137   2.229   2.813   3.786  1.0935 -0.4638 -0.1936
 6168SOL    HW230138   2.281   2.876   3.913  2.4428  2.0128 -0.2391
 6169SOL     OW30139   4.126   3.117   6.789  0.0149 -0.6399  0.0274
 6169SOL    HW130140   4.072   3.131   6.867  0.4211 -0.1669  0.2192
 6169SOL    HW230141   4.204   3.168   6.812 -0.9328  0.4260  0.8642
 6170SOL     OW30142   2.243   0.696   5.539 -0.3006 -0.2206  0.5560
 6170SOL    HW130143   2.223   0.763   5.604 -3.9462 -1.0589  0.2882
 6170SOL    HW230144   2.165   0.646   5.561  0.9383 -1.7481  1.5204
 6171SOL     OW30145   2.144   2.217   2.741 -0.1356  0.5124 -0.2689
 6171SOL    HW130146   2.124   2.307   2.763  1.3175  0.3955  1.5775
 6171SOL    HW230147   2.099   2.180   2.817  0.9514  0.5109  0.3794
 6172SOL     OW30148   3.822   1.514  11.008  0.3972 -0.5154 -0.4047
 6172SOL    HW130149   3.905   1.553  10.979 -0.2001  0.0562 -1.3345
 6172SOL    HW230150   3.801   1.483  10.920 -0.0630  0.7079 -0.7306
 6173SOL     OW30151   2.490   0.581   5.309 -0.3718 -0.0750  0.5985
 6173SOL    HW130152   2.457   0.502   5.266  0.2595 -0.7497  1.3304
 6173SOL    HW230153   2.410   0.633   5.309  1.1184  2.2104 -0.9808
 6174SOL     OW30154   3.739   0.600   6.814  0.6189 -0.3881  0.4546
 6174SOL    HW130155   3.649   0.588   6.844  0.6458 -0.9851  0.2969
 6174SOL    HW230156   3.743   0.692   6.787 -1.2876 -0.2907  0.5143
 6175SOL     OW30157   1.012   1.726  12.802 -0.1020  0.4918  0.1062
 6175SOL    HW130158   1.067   1.774  12.739  0.5460  0.4063  0.6188
 6175SOL    HW230159   1.056   1.642  12.800  1.1674  1.1146  2.2483
 6176SOL     OW30160   4.175   0.394   1.898 -0.3850 -0.2190  0.1918
 6176SOL    HW130161   4.180   0.304   1.865  0.0262 -0.8896  2.1192
 6176SOL    HW230162   4.094   0.381   1.946 -0.7430  2.4023  0.2845
 6177SOL     OW30163   1.769   1.824   8.202 -0.5451 -0.5487 -0.5389
 6177SOL    HW130164   1.813   1.784   8.277  0.7858  1.3212 -0.3277
 6177SOL    HW230165   1.786   1.918   8.213 -0.1154 -0.4074 -2.2806
 6178SOL     OW30166   2.237   3.265  14.084  0.0728 -0.3777  0.0352
 6178SOL    HW130167   2.242   3.298  14.173 -2.5516 -2.5130  1.0071
 6178SOL    HW230168   2.184   3.336  14.047  1.4200  0.8638  0.5209
 6179SOL     OW30169   2.189   1.677   7.982 -0.1711  0.4013  0.2248
 6179SOL    HW130170   2.189   1.714   8.070  1.0691 -1.1540  0.9000
 6179SOL    HW230171   2.284   1.676   7.966 -0.1653 -0.1006  0.2860
 6180SOL     OW30172   1.381   3.509   9.395  0.2861 -0.2284 -0.5630
 6180SOL    HW130173   1.377   3.604   9.378 -1.6032 -0.0207  0.9628
 6180SOL    HW230174   1.426   3.490   9.314  1.1834 -0.2546 -0.0570
 6181SOL     OW30175   0.044   4.704   2.574 -0.1089  0.5309 -0.1374
 6181SOL    HW130176   0.111   4.672   2.635  0.3807  1.1127 -0.3738
 6181SOL    HW230177   4.718   4.629   2.570 -0.9350  1.2492 -1.4188
 6182SOL     OW30178   3.600   4.443   5.815  0.2100  0.3466 -0.2043
 6182SOL    HW130179   3.655   4.520   5.833  0.9306 -0.3054  0.4179
 6182SOL    HW230180   3.546   4.448   5.894 -0.7333 -0.1537 -0.8313
 6183SOL     OW30181   2.558   4.136  15.969 -0.2230  0.1763  0.3692
 6183SOL    HW130182   2.555   4.077  15.894  1.5852  0.7571 -0.1612
 6183SOL    HW230183   2.575   4.220  15.925  0.1871  0.4393  1.0233
 6184SOL     OW30184   3.119   3.733   4.784 -0.8619  0.2230 -0.2775
 6184SOL    HW130185   3.122   3.650   4.736 -0.9117  0.8705 -1.3984
 6184SOL    HW230186   3.035   3.722   4.831  0.3257 -1.5973  1.4413
 6185SOL     OW30187   3.640   0.061   8.549  0.5670  0.0905  0.1642
 6185SOL    HW130188   3.666   4.706   8.521 -0.2729 -0.3525  0.7609
 6185SOL    HW230189   3.584   0.082   8.474 -1.9375 -0.3725  1.8685
 6186SOL     OW30190   3.516   0.902  13.843  0.1630  0.6480 -0.2403
 6186SOL    HW130191   3.432   0.869  13.811 -0.5731  0.5481  1.7931
 6186SOL    HW230192   3.509   0.859  13.928 -1.6004 -1.2600 -1.3534
 6187SOL     OW30193   2.982   3.528   3.124  0.2544  0.9313  0.0058
 6187SOL    HW130194   3.011   3.618   3.138 -0.4035  1.0928  0.3221
 6187SOL    HW230195   3.065   3.481   3.132 -0.3822 -0.3203 -0.7110
 6188SOL     OW30196   1.904   2.384   5.012 -0.1935 -0.1463 -0.1880
 6188SOL    HW130197   1.847   2.320   4.968  0.0702  0.2192 -1.0628
 6188SOL    HW230198   1.892   2.359   5.104  2.9178 -0.8989  0.0266
 6189SOL     OW30199   2.080   3.962   8.263 -0.0874 -0.0109 -0.2108
 6189SOL    HW130200   2.091   3.882   8.213 -2.1354  1.9554 -3.7801
 6189SOL    HW230201   2.099   4.026   8.194 -0.3026  0.3037  0.0180
 6190SOL     OW30202   4.370   4.535  14.674  0.2283  0.1783 -0.3936
 6190SOL    HW130203   4.427   4.468  14.712  0.5327  0.2693 -0.7018
 6190SOL    HW230204   4.319   4.487  14.609  3.6310 -0.4728 -2.5689
 6191SOL     OW30205   0.749   4.233   9.389 -0.0471 -0.4737 -0.8445
 6191SOL    HW130206   0.840   4.252   9.367  0.2523  0.6125  1.2903
 6191SOL    HW230207   0.723   4.316   9.430 -0.2322 -0.0886 -1.7327
 6192SOL     OW30208   3.496   2.937   6.720  0.7866  0.0594  0.3754
 6192SOL    HW130209   3.418   2.958   6.772 -1.2151 -2.4021 -1.6035
 6192SOL    HW230210   3.507   3.019   6.672  0.4380  1.2901  2.3805
 6193SOL     OW30211   4.621   1.400   3.542  0.0645 -0.5522 -0.8427
 6193SOL    HW130212   4.712   1.388   3.515  0.3955 -3.4895  1.6100
 6193SOL    HW230213   4.614   1.494   3.523 -1.6640 -0.3775  0.6809
 6194SOL     OW30214   3.029   4.021   4.898  0.4695 -0.1840 -0.9118
 6194SOL    HW130215   2.987   3.937   4.913 -1.6678  1.0350  0.0416
 6194SOL    HW230216   2.953   4.078   4.914  0.5453  0.2681 -2.1480
 6195SOL     OW30217   0.439   0.806   0.974 -0.5613  0.0073 -0.4464
 6195SOL    HW130218   0.468   0.891   0.943  2.5082 -0.1805  1.9657
 6195SOL    HW230219   0.452   0.820   1.068 -1.9061 -0.8302 -0.1291
 6196SOL     OW30220   1.344   1.601   2.655  0.4707 -0.0645  0.5702
 6196SOL    HW130221   1.295   1.528   2.617  1.2068 -1.4264  2.2475
 6196SOL    HW230222   1.344   1.668   2.587  1.5472 -1.1133 -0.4565
 6197SOL     OW30223   3.774   0.856   9.062  0.0173  0.6423 -0.2030
 6197SOL    HW130224   3.849   0.844   9.121 -0.6029 -0.3217  0.4008
 6197SOL    HW230225   3.714   0.796   9.106  0.9193  0.0825  0.2642
 6198SOL     OW30226   4.030   0.779   4.403 -0.1237  0.6260 -0.0115
 6198SOL    HW130227   4.044   0.802   4.495 -2.4525 -0.1384  0.5297
 6198SOL    HW230228   3.935   0.765   4.402 -0.2945  1.7013  1.0511
 6199SOL     OW30229   3.248   0.320   7.324 -0.2572  0.1765 -0.0704
 6199SOL    HW130230   3.169   0.285   7.366  0.0949 -1.0156 -0.4198
 6199SOL    HW230231   3.241   0.415   7.326  0.2305  0.2396 -1.6777
 6200SOL     OW30232   3.641   2.459   4.225  0.4724  0.5189  0.2886
 6200SOL    HW130233   3.602   2.525   4.282  1.6370  0.5604  1.0428
 6200SOL    HW230234   3.577   2.388   4.232  0.4454  0.7335  2.1573
 6201SOL     OW30235   0.058   1.360   7.338  0.5009 -0.4811  0.0910
 6201SOL    HW130236   0.105   1.425   7.390 -0.1890  0.8273 -0.9109
 6201SOL    HW230237   0.001   1.419   7.289  1.1986  0.1321  0.0045
 6202SOL     OW30238   3.479   1.484   4.288 -0.1956  0.6001  0.1965
 6202SOL    HW130239   3.554   1.476   4.229 -1.6260  1.4508 -1.7218
 6202SOL    HW230240   3.427   1.542   4.232 -0.2041  0.1340 -0.2735
 6203SOL     OW30241   0.615   3.495  16.542 -0.2681  0.3575 -0.5267
 6203SOL    HW130242   0.664   3.418  16.571  1.4268  1.3771 -0.6528
 6203SOL    HW230243   0.678   3.541  16.487  0.3448  0.2024  0.0428
 6204SOL     OW30244   1.186   0.754  12.964 -0.3886  0.2401  0.3066
 6204SOL    HW130245   1.239   0.678  12.989  0.5681  1.0512  0.7420
 6204SOL    HW230246   1.147   0.712  12.887 -0.7628  0.4652  0.3755
 6205SOL     OW30247   2.876   4.693   7.430 -0.0257 -0.4769 -0.3269
 6205SOL    HW130248   2.917   4.651   7.354  1.6365 -3.2999  2.1254
 6205SOL    HW230249   2.954   4.682   7.485 -0.2195 -0.7044 -0.0944
 6206SOL     OW30250   2.214   0.821  14.277 -0.3222 -0.4104 -0.0967
 6206SOL    HW130251   2.300   0.846  14.310 -0.8416  4.4499 -2.3547
 6206SOL    HW230252   2.201   0.730  14.303 -0.3062 -0.6669 -0.9762
 6207SOL     OW30253   0.318   3.850  17.207  0.1439 -0.1297 -0.5369
 6207SOL    HW130254   0.355   3.839  17.120  0.4468 -0.9192 -0.3072
 6207SOL    HW230255   0.390   3.846  17.271 -2.1922 -0.5011  2.0614
 6208SOL     OW30256   4.360   3.237   8.921 -0.0429  0.5401 -0.4384
 6208SOL    HW130257   4.376   3.196   8.836 -0.7290 -0.3234 -0.1585
 6208SOL    HW230258   4.266   3.255   8.912 -0.1246  1.4272  2.1612
 6209SOL     OW30259   4.242   0.684   1.549  0.3436  0.8294 -0.4095
 6209SOL    HW130260   4.248   0.589   1.548 -1.6328  0.7248 -2.5210
 6209SOL    HW230261   4.309   0.693   1.481 -0.1521  0.6744 -0.9147
 6210SOL     OW30262   4.167   1.853  16.057  0.1148 -0.2309 -0.1230
 6210SOL    HW130263   4.151   1.864  15.963 -0.1763 -1.5005 -0.2225
 6210SOL    HW230264   4.075   1.855  16.084  0.3461  1.1198  0.5376
 6211SOL     OW30265   1.574   3.632  13.206  0.6398  1.1599  0.0911
 6211SOL    HW130266   1.495   3.582  13.225  0.6250  1.7213  1.5284
 6211SOL    HW230267   1.610   3.584  13.132 -2.5864 -1.1266  0.0152
 6212SOL     OW30268   3.114   3.800  10.289 -0.4489 -0.1962  0.6267
 6212SOL    HW130269   3.091   3.878  10.338 -0.0553  0.4435 -0.1979
 6212SOL    HW230270   3.170   3.750  10.348 -0.2648 -0.3625  0.3149
 6213SOL     OW30271   4.525   3.538   7.740 -0.1266 -0.0131  0.0002
 6213SOL    HW130272   4.591   3.503   7.681  1.2791  0.2133  1.4317
 6213SOL    HW230273   4.452   3.561   7.682  0.0466  2.1975  0.6524
 6214SOL     OW30274   4.730   0.257  14.952  0.3872  0.2641 -0.2816
 6214SOL    HW130275   0.061   0.325  14.928  0.1058 -0.6246 -3.6143
 6214SOL    HW230276   4.703   0.279  15.041  1.6979  1.7426 -0.2541
 6215SOL     OW30277   0.938   3.932   8.409  0.1181 -0.2772  0.0238
 6215SOL    HW130278   0.864   3.954   8.353  0.2589  0.1632  0.0170
 6215SOL    HW230279   0.937   4.005   8.470 -2.2674  0.2298 -0.6519
 6216SOL     OW30280   3.986   3.379   9.160 -0.4732  0.0353 -0.0835
 6216SOL    HW130281   4.076   3.348   9.168 -0.7727  0.1375  3.6953
 6216SOL    HW230282   3.981   3.472   9.184 -1.1431 -0.1605  0.5410
 6217SOL     OW30283   2.753   3.445   9.428  0.8654 -0.5762 -0.6830
 6217SOL    HW130284   2.738   3.500   9.351  0.3136 -2.1938 -1.7219
 6217SOL    HW230285   2.669   3.402   9.441  0.9941 -0.0472  1.9823
 6218SOL     OW30286   4.397   1.407   8.178  0.1068  0.5175 -0.0028
 6218SOL    HW130287   4.327   1.344   8.194  0.3753 -0.3414 -2.2006
 6218SOL    HW230288   4.350   1.482   8.142  1.4437  1.3009 -0.1135
 6219SOL     OW30289   2.025   3.645   6.859 -0.2570 -0.4379  0.6630
 6219SOL    HW130290   1.939   3.654   6.899 -0.8840 -0.0747 -0.7666
 6219SOL    HW230291   2.046   3.738   6.849 -1.7544 -0.2496 -0.7534
 6220SOL     OW30292   1.216   1.788   1.504 -0.2865  0.0781 -0.9158
 6220SOL    HW130293   1.283   1.753   1.445  1.5385  1.6157  0.2746
 6220SOL    HW230294   1.271   1.808   1.579 -1.8035  2.4697 -0.4596
 6221SOL     OW30295   1.159   0.367   6.834  0.6126 -0.0889  0.2470
 6221SOL    HW130296   1.179   0.378   6.741  0.4630 -1.8985  0.0138
 6221SOL    HW230297   1.218   0.432   6.871 -0.8766  0.3314  1.9019
 6222SOL     OW30298   0.233   0.638   7.126 -0.0169  0.2458 -0.2227
 6222SOL    HW130299   0.213   0.720   7.083 -2.6615  0.1377  0.8079
 6222SOL    HW230300   0.328   0.642   7.136 -0.0236 -0.2542  0.0410
 6223SOL     OW30301   4.007   0.667  11.450 -0.7189  0.1347  0.2860
 6223SOL    HW130302   3.943   0.735  11.472 -0.0901  1.2990 -1.5259
 6223SOL    HW230303   3.988   0.607  11.523  2.2819  0.9716  1.7659
 6224SOL     OW30304   4.231   4.670   6.544  0.1835  0.1995 -0.1084
 6224SOL    HW130305   4.259   4.614   6.616 -1.7867  0.1064  0.5868
 6224SOL    HW230306   4.282   4.635   6.471  0.8123  0.5240  0.1779
 6225SOL     OW30307   0.152   3.982  17.021  0.0685 -0.3531 -0.3386
 6225SOL    HW130308   0.208   3.929  17.078  1.0820  1.1320  0.0466
 6225SOL    HW230309   0.217   4.036  16.975  1.2694  1.0601  2.9767
 6226SOL     OW30310   2.470   4.047  17.625  0.1417  0.0964 -0.6952
 6226SOL    HW130311   2.553   4.018  17.661  1.2229  1.5995 -1.9698
 6226SOL    HW230312   2.444   4.098  17.701 -0.5525 -0.4424 -0.5660
 6227SOL     OW30313   3.124   0.007   9.007  0.2655  0.0122  0.1913
 6227SOL    HW130314   3.092   4.719   8.919 -1.9917  0.3889  0.9174
 6227SOL    HW230315   3.047   0.051   9.044  1.9406  1.3388  2.0588
 6228SOL     OW30316   0.091   1.851   9.118 -0.1158  0.7108 -0.1422
 6228SOL    HW130317   0.091   1.943   9.145  0.3041  1.4752 -2.7344
 6228SOL    HW230318   0.011   1.844   9.067  0.6483  1.6504 -1.4817
 6229SOL     OW30319   4.378   2.562   5.245 -0.2196 -0.2992 -0.3951
 6229SOL    HW130320   4.441   2.618   5.291 -0.8800  1.8318 -2.0783
 6229SOL    HW230321   4.297   2.593   5.285  0.2791 -2.0729  1.9692
 6230SOL     OW30322   0.590   1.953   4.363 -0.5305  0.1382 -0.3103
 6230SOL    HW130323   0.624   2.041   4.345  0.6926 -0.3207 -0.2463
 6230SOL    HW230324   0.514   1.979   4.416 -0.0839  4.2659 -1.6710
 6231SOL     OW30325   3.845   0.251   1.163 -0.1089  0.4739  0.5936
 6231SOL    HW130326   3.925   0.198   1.158 -0.1233  0.2977  2.1940
 6231SOL    HW230327   3.855   0.292   1.249  0.3877  0.9842  0.2950
 6232SOL     OW30328   4.541   4.049   8.983 -0.3133 -0.0747  0.4573
 6232SOL    HW130329   4.449   4.046   9.009 -0.3384 -0.1094  0.3622
 6232SOL    HW230330   4.528   4.027   8.891 -0.2068  3.5710 -0.4287
 6233SOL     OW30331   0.152   2.533   7.204 -0.2824 -0.1436  0.2012
 6233SOL    HW130332   0.169   2.591   7.130 -1.0846  0.1763  0.2766
 6233SOL    HW230333   0.097   2.589   7.258  0.5097  1.9329 -1.1365
 6234SOL     OW30334   2.677   1.025   5.454  0.0659  0.1006  0.1007
 6234SOL    HW130335   2.742   0.993   5.392 -0.2852  1.1881 -0.8280
 6234SOL    HW230336   2.618   0.950   5.452  0.1101  0.0397  1.0134
 6235SOL     OW30337   1.457   1.132   2.718 -0.3126  0.1491  0.1101
 6235SOL    HW130338   1.469   1.226   2.729 -2.7316  0.4860  0.0608
 6235SOL    HW230339   1.515   1.094   2.784  0.2264  0.1360 -0.3768
 6236SOL     OW30340   2.660   3.591   5.994 -0.4041 -0.0703  0.0654
 6236SOL    HW130341   2.659   3.566   5.902 -0.5081  0.5997 -0.1134
 6236SOL    HW230342   2.713   3.670   5.990 -1.6923  0.7133 -1.4695
 6237SOL     OW30343   3.175   3.616   5.246  1.0106  0.0622 -0.2962
 6237SOL    HW130344   3.257   3.614   5.198  0.2384 -2.0536 -1.5390
 6237SOL    HW230345   3.119   3.670   5.190  1.9235  1.5473  0.2204
 6238SOL     OW30346   2.649   3.192   8.177  0.4182  0.5873 -0.3070
 6238SOL    HW130347   2.649   3.097   8.185  1.4269  0.9025  3.2036
 6238SOL    HW230348   2.717   3.205   8.111  1.0404  0.4598  0.3058
 6239SOL     OW30349   2.852   1.944  10.415 -0.2644 -0.2871  0.3252
 6239SOL    HW130350   2.823   2.017  10.360 -0.0942 -2.5699 -2.7703
 6239SOL    HW230351   2.926   1.909  10.366 -0.4904  0.5019 -0.5650
 6240SOL     OW30352   1.608   0.093   9.729 -0.4590  0.2330  0.3970
 6240SOL    HW130353   1.514   0.079   9.737 -0.7853  2.1197 -0.1773
 6240SOL    HW230354   1.643   0.027   9.788 -3.0019 -2.5160 -1.1661
 6241SOL     OW30355   0.703   3.159   5.071  0.0650 -0.0714  0.1092
 6241SOL    HW130356   0.637   3.195   5.011 -0.8172  2.4015  2.5805
 6241SOL    HW230357   0.788   3.193   5.043 -0.5620  1.6192  0.3013
 6242SOL     OW30358   4.435   1.610   4.404 -0.4193 -0.4104 -0.3431
 6242SOL    HW130359   4.485   1.640   4.481 -1.3048 -1.1650  0.5268
 6242SOL    HW230360   4.400   1.688   4.360  0.1282  0.5243  0.8842
 6243SOL     OW30361   3.390   4.051  14.259  0.4058 -0.4478  1.1385
 6243SOL    HW130362   3.464   4.081  14.207 -0.2249 -1.4159 -0.3406
 6243SOL    HW230363   3.384   4.115  14.330 -0.0131  0.2067  0.5142
 6244SOL     OW30364   2.232   4.411   7.790 -0.2721 -0.1561 -0.4037
 6244SOL    HW130365   2.304   4.473   7.797 -0.5926  0.1177  0.4242
 6244SOL    HW230366   2.171   4.446   7.725  1.2952  1.6157 -0.9324
 6245SOL     OW30367   4.334   4.086  13.976  0.0236  0.5796  0.1703
 6245SOL    HW130368   4.424   4.080  14.008 -0.7989  0.7076  2.4768
 6245SOL    HW230369   4.345   4.165  13.924 -1.1810 -0.3817 -1.5460
 6246SOL     OW30370   2.616   3.447   3.394  0.3033 -0.3675 -0.1142
 6246SOL    HW130371   2.559   3.370   3.396  1.1314 -0.8777  3.0341
 6246SOL    HW230372   2.580   3.508   3.329  0.5832  0.4424  0.4930
 6247SOL     OW30373   4.033   2.676   4.447  0.0595  0.1648 -0.1209
 6247SOL    HW130374   3.959   2.732   4.471  0.6377  0.7907  0.2211
 6247SOL    HW230375   4.097   2.732   4.402 -1.6921  0.7853 -1.8818
 6248SOL     OW30376   1.339   3.321   8.880 -0.4693  0.3335 -0.6667
 6248SOL    HW130377   1.298   3.407   8.892 -0.8199 -0.1191  1.4426
 6248SOL    HW230378   1.359   3.302   8.972  1.8308 -0.1776 -1.2888
 6249SOL     OW30379   4.279   3.672   3.525  0.0942  0.1831 -0.3553
 6249SOL    HW130380   4.313   3.622   3.451 -1.3026  0.4465 -1.1704
 6249SOL    HW230381   4.353   3.732   3.537  1.5640 -1.1087 -3.1097
 6250SOL     OW30382   2.816   3.785   5.821 -0.2376  0.0512 -0.0085
 6250SOL    HW130383   2.843   3.855   5.762  0.6404  0.4598  0.8661
 6250SOL    HW230384   2.895   3.771   5.873  1.9544 -0.7134 -3.5767
 6251SOL     OW30385   4.400   3.261   8.455 -0.3215  0.8999 -0.4310
 6251SOL    HW130386   4.343   3.210   8.399 -0.8590 -0.6278  1.5093
 6251SOL    HW230387   4.431   3.202   8.524  0.2132  1.4874 -0.1675
 6252SOL     OW30388   3.987   3.835   7.594 -0.1611 -0.2859  0.6581
 6252SOL    HW130389   3.975   3.808   7.685 -0.8736  1.4748  1.0971
 6252SOL    HW230390   3.981   3.750   7.550  1.3474  0.5476 -1.2009
 6253SOL     OW30391   0.505   3.122   1.788  0.2641 -0.6639  0.1699
 6253SOL    HW130392   0.505   3.218   1.783  0.1317 -0.5992  1.4055
 6253SOL    HW230393   0.446   3.100   1.860 -2.3669  1.4805 -1.3307
 6254SOL     OW30394   0.114   2.278  14.996  0.1531  0.2854  0.0304
 6254SOL    HW130395   0.134   2.212  15.061 -0.2179  1.5320  1.4099
 6254SOL    HW230396   0.186   2.263  14.934  0.9407 -1.2515  1.3361
 6255SOL     OW30397   1.829   1.891   6.109 -0.1980  0.2794 -0.1851
 6255SOL    HW130398   1.756   1.829   6.109  0.9506 -1.0434  1.8378
 6255SOL    HW230399   1.780   1.973   6.099 -1.6740 -0.4812  0.7278
 6256SOL     OW30400   0.334   1.832  11.872 -0.1109  0.1732  0.1918
 6256SOL    HW130401   0.417   1.786  11.861 -1.1079 -0.8523 -2.9540
 6256SOL    HW230402   0.332   1.839  11.968  0.1968  0.1772  0.1976
 6257SOL     OW30403   1.300   0.478   4.981 -0.1226  0.3890 -0.4311
 6257SOL    HW130404   1.226   0.512   4.930  1.3507  1.8681 -1.5765
 6257SOL    HW230405   1.263   0.447   5.063  0.1374 -0.9156 -0.8117
 6258SOL     OW30406   0.059   0.971   5.079 -0.4407  0.2619  0.3916
 6258SOL    HW130407   0.150   0.989   5.058  0.0256 -0.0414  2.1124
 6258SOL    HW230408   0.037   1.054   5.120  0.7216  0.9893 -0.4515
 6259SOL     OW30409   1.069   0.617   7.030  0.1872  0.3620 -0.1569
 6259SOL    HW130410   1.105   0.629   7.118  2.2007 -0.0103 -0.9162
 6259SOL    HW230411   1.045   0.525   7.025  0.7168  0.1535  0.9443
 6260SOL     OW30412   0.051   0.189   5.407  0.5079 -0.3447  0.0976
 6260SOL    HW130413   0.006   0.267   5.374  1.6602  0.7479  1.1159
 6260SOL    HW230414   0.067   0.138   5.327 -1.1824 -0.1300 -0.3798
 6261SOL     OW30415   1.975   2.957   6.497 -0.3230  0.1421 -0.1072
 6261SOL    HW130416   2.002   3.049   6.493  0.0409 -0.0486 -1.8009
 6261SOL    HW230417   1.945   2.947   6.588  0.2594  2.5224  0.3369
 6262SOL     OW30418   1.185   2.074  14.470 -0.2598  0.1016 -0.0599
 6262SOL    HW130419   1.105   2.068  14.418  0.2261  0.8032 -0.8895
 6262SOL    HW230420   1.216   1.984  14.455 -1.6103 -0.8986  3.1957
 6263SOL     OW30421   4.302   1.916  15.357 -0.0233 -0.4762 -0.4507
 6263SOL    HW130422   4.292   1.849  15.290 -0.6203  1.5867 -2.4170
 6263SOL    HW230423   4.363   1.869  15.413 -0.8475 -1.3782 -0.3039
 6264SOL     OW30424   1.213   0.509  11.578 -0.8497  0.1312 -0.4841
 6264SOL    HW130425   1.232   0.544  11.665 -0.1088 -0.1017 -0.5499
 6264SOL    HW230426   1.164   0.580  11.536 -0.4134  0.4875 -0.3939
 6265SOL     OW30427   4.412   2.713   1.039 -0.1531 -0.4382  0.8079
 6265SOL    HW130428   4.450   2.673   0.961  0.0277 -0.8847  1.1245
 6265SOL    HW230429   4.494   2.751   1.071 -0.2105  0.2442  0.1459
 6266SOL     OW30430   4.289   1.448  16.000  0.1442  0.1430 -0.7980
 6266SOL    HW130431   4.326   1.457  16.087  2.7445  1.4280 -2.0186
 6266SOL    HW230432   4.201   1.483  16.013 -0.9149 -3.3015  1.1528
 6267SOL     OW30433   0.157   1.022  17.116 -0.1291  0.0580 -0.1934
 6267SOL    HW130434   0.109   1.062  17.044 -0.1160 -0.2967 -0.3989
 6267SOL    HW230435   0.110   1.057  17.193 -1.0099  1.9173 -1.5778
 6268SOL     OW30436   2.038   4.201   7.754 -0.5291  0.2946  0.0000
 6268SOL    HW130437   2.072   4.116   7.783 -3.0883 -0.8134 -0.2270
 6268SOL    HW230438   2.124   4.241   7.767 -0.5887  0.7725 -1.0544
 6269SOL     OW30439   3.297   1.142   3.323  0.4843 -0.0748 -0.1917
 6269SOL    HW130440   3.325   1.231   3.299  0.0309 -0.1504 -0.9900
 6269SOL    HW230441   3.368   1.089   3.287  0.0507  0.0086 -1.1949
 6270SOL     OW30442   3.761   3.574  16.091 -1.4829 -0.4502  0.1477
 6270SOL    HW130443   3.771   3.508  16.159  1.9067  0.1561  0.2534
 6270SOL    HW230444   3.693   3.629  16.131 -1.1046 -0.3273  0.6280
 6271SOL     OW30445   1.959   4.355  15.167 -0.1998 -0.1245  0.4645
 6271SOL    HW130446   2.031   4.418  15.168 -0.1654 -0.1610  0.1671
 6271SOL    HW230447   1.902   4.388  15.098  2.4664  1.3451 -1.0257
 6272SOL     OW30448   3.251   4.208   2.779 -0.0587 -0.1762 -0.3136
 6272SOL    HW130449   3.231   4.123   2.741  1.9677  0.3762 -2.6237
 6272SOL    HW230450   3.222   4.192   2.869 -2.2739 -0.4396 -1.0803
 6273SOL     OW30451   2.599   3.675   0.284 -0.1199  0.2437 -0.0439
 6273SOL    HW130452   2.580   3.739   0.352 -3.6537 -1.0722  0.2137
 6273SOL    HW230453   2.658   3.614   0.328 -0.4230  0.3535  0.5149
 6274SOL     OW30454   3.284   0.338   2.698  0.3321 -0.0576 -0.0550
 6274SOL    HW130455   3.228   0.402   2.653 -0.2434 -2.1088 -2.2767
 6274SOL    HW230456   3.322   0.389   2.770  2.8575 -2.8265  0.5800
 6275SOL     OW30457   4.119   2.336   6.952  0.2579  0.1886 -0.5433
 6275SOL    HW130458   4.171   2.415   6.939 -1.5726  1.1200 -2.1036
 6275SOL    HW230459   4.027   2.360   6.943  0.0595  0.2508  1.6185
 6276SOL     OW30460   2.784   4.584  17.413  0.2666 -0.0958 -0.1426
 6276SOL    HW130461   2.788   4.677  17.392  1.3136 -0.3033 -0.8665
 6276SOL    HW230462   2.771   4.546  17.326 -0.6873  1.0125 -0.4746
 6277SOL     OW30463   2.832   2.891   6.773  0.2760 -0.1209  0.4354
 6277SOL    HW130464   2.823   2.959   6.706 -1.1272 -0.1874  0.5566
 6277SOL    HW230465   2.923   2.873   6.753  0.4540 -0.5532  1.6532
 6278SOL     OW30466   4.726   1.212   4.732 -0.3196  0.1935  0.3764
 6278SOL    HW130467   4.674   1.132   4.730  1.3680 -0.8482 -1.7036
 6278SOL    HW230468   4.687   1.266   4.663  0.8920 -1.8184 -1.8771
 6279SOL     OW30469   4.172   3.370   8.131 -0.0344  0.1848 -0.2642
 6279SOL    HW130470   4.248   3.347   8.079 -0.5588 -1.3051 -0.3461
 6279SOL    HW230471   4.168   3.295   8.190  0.3458 -1.0438 -1.8428
 6280SOL     OW30472   2.485   3.274  16.642 -0.2007 -0.2648  0.3201
 6280SOL    HW130473   2.479   3.346  16.580 -1.7006  0.0369  0.8019
 6280SOL    HW230474   2.401   3.228  16.647 -1.0552  1.6294  3.3565
 6281SOL     OW30475   1.358   0.370  14.111  0.1680  0.4494 -0.2263
 6281SOL    HW130476   1.394   0.425  14.041  1.0955 -0.4967 -0.4887
 6281SOL    HW230477   1.311   0.436  14.162 -1.7063 -0.6399 -0.5692
 6282SOL     OW30478   4.281   3.967   5.974 -0.2243 -0.4061  0.8989
 6282SOL    HW130479   4.344   3.926   6.032 -0.4809 -1.8675  0.1270
 6282SOL    HW230480   4.304   3.920   5.894 -0.2782  0.0561  0.6086
 6283SOL     OW30481   1.605   2.470  11.591  0.0310 -0.0196  0.0270
 6283SOL    HW130482   1.646   2.427  11.666  0.4534  0.9164  0.3416
 6283SOL    HW230483   1.657   2.551  11.590  0.7917 -0.4729  2.3870
 6284SOL     OW30484   3.914   0.454   9.637 -0.5404  0.1942  0.1043
 6284SOL    HW130485   4.009   0.444   9.641 -0.4887  0.6160 -0.0454
 6284SOL    HW230486   3.884   0.364   9.649 -0.4651  0.3210  1.2366
 6285SOL     OW30487   0.173   4.433   6.066 -0.0990  0.2506 -0.0385
 6285SOL    HW130488   0.207   4.390   6.144 -1.9495 -1.2656 -0.0645
 6285SOL    HW230489   0.089   4.390   6.055  0.6326  0.0584 -5.0208
 6286SOL     OW30490   4.428   1.485   7.444 -0.1844  0.0658 -0.9506
 6286SOL    HW130491   4.446   1.502   7.352 -1.3554 -0.8154 -1.3398
 6286SOL    HW230492   4.371   1.409   7.439 -0.3444  0.1853 -0.9513
 6287SOL     OW30493   0.518   1.829   8.945 -0.0073  0.1829 -0.2566
 6287SOL    HW130494   0.597   1.882   8.938 -0.2489  0.9127  2.3250
 6287SOL    HW230495   0.537   1.783   9.027 -0.8668  0.0545 -0.1290
 6288SOL     OW30496   3.918   4.492   9.540  0.1286  0.7757  0.6757
 6288SOL    HW130497   4.012   4.480   9.549  0.1603 -0.9556 -1.9956
 6288SOL    HW230498   3.894   4.502   9.632 -1.2235 -0.8903  0.5125
 6289SOL     OW30499   0.766   0.921   4.480 -0.4309 -0.1470  0.2477
 6289SOL    HW130500   0.728   0.897   4.395  1.0094  3.5173 -1.4104
 6289SOL    HW230501   0.686   0.932   4.531 -0.4029  1.5120 -0.0659
 6290SOL     OW30502   4.291   0.661   0.256 -0.3082  0.3063  0.0812
 6290SOL    HW130503   4.199   0.642   0.273 -0.0022 -2.3165 -1.2155
 6290SOL    HW230504   4.315   0.582   0.207 -0.6633 -0.8626  1.7991
 6291SOL     OW30505   0.925   2.021  12.727  0.3180  0.7134  0.1109
 6291SOL    HW130506   1.000   1.989  12.678  0.3005 -1.5532  1.5353
 6291SOL    HW230507   0.871   2.054  12.654 -1.4725 -3.2996 -0.3747
 6292SOL     OW30508   1.501   2.245   4.213 -0.1844  0.1397 -0.2641
 6292SOL    HW130509   1.465   2.187   4.146  2.7556 -2.1122  0.1123
 6292SOL    HW230510   1.423   2.259   4.267  0.6450  0.1281  0.9375
 6293SOL     OW30511   4.435   3.767   5.186  0.5265  0.2457  0.0396
 6293SOL    HW130512   4.365   3.832   5.177  1.3529  0.8931 -1.5983
 6293SOL    HW230513   4.387   3.684   5.190 -0.3521  0.6281 -2.5333
 6294SOL     OW30514   0.739   4.509   4.272 -0.2767  0.8600 -0.5215
 6294SOL    HW130515   0.780   4.498   4.358 -1.4861 -0.0428 -0.0689
 6294SOL    HW230516   0.731   4.605   4.277  0.3876  0.8036  1.8699
 6295SOL     OW30517   1.921   0.414   5.938  0.2588 -0.6661  0.4513
 6295SOL    HW130518   1.858   0.415   6.010 -2.1388  0.7586 -1.6572
 6295SOL    HW230519   1.871   0.376   5.866 -0.7152  0.5901  0.4587
 6296SOL     OW30520   0.132   0.823   4.710  0.3034  0.0701  1.1249
 6296SOL    HW130521   0.058   0.806   4.768  0.6630 -1.4532  1.1254
 6296SOL    HW230522   0.085   0.859   4.635  0.4908  3.3584  2.5768
 6297SOL     OW30523   0.984   2.304   7.649 -0.0895  0.3763  0.0577
 6297SOL    HW130524   0.912   2.315   7.712 -2.1807 -1.4370 -2.0125
 6297SOL    HW230525   0.954   2.363   7.579 -2.0328 -0.5679  0.0831
 6298SOL     OW30526   0.338   0.679  14.467  0.2575  0.5920  0.1004
 6298SOL    HW130527   0.421   0.716  14.496  1.5404 -1.8745 -0.3767
 6298SOL    HW230528   0.280   0.718  14.533 -0.2851  1.3297 -0.8292
 6299SOL     OW30529   1.378   0.277  17.285  0.3027  0.3464 -0.4595
 6299SOL    HW130530   1.464   0.321  17.287  0.2510  0.4581 -0.7095
 6299SOL    HW230531   1.399   0.203  17.229  1.5768  1.3953 -1.3701
 6300SOL     OW30532   2.244   1.601  13.370  0.2806 -1.0472 -0.1723
 6300SOL    HW130533   2.274   1.637  13.286 -0.8924  2.5409  0.9371
 6300SOL    HW230534   2.169   1.656  13.391  1.0671  0.0846 -0.2964
 6301SOL     OW30535   0.415   1.925  16.074 -0.3647 -0.2412  0.4407
 6301SOL    HW130536   0.332   1.928  16.121  0.0612  1.0745  1.1315
 6301SOL    HW230537   0.441   2.015  16.054 -0.9370 -0.0953  0.3738
 6302SOL     OW30538   0.522   3.682  15.282 -0.1225 -0.3256 -0.1444
 6302SOL    HW130539   0.550   3.595  15.311  0.8230  1.0140  3.0067
 6302SOL    HW230540   0.515   3.729  15.366  0.6519  0.3415 -0.4626
 6303SOL     OW30541   1.665   0.712   6.556 -0.7248  0.1328 -0.1401
 6303SOL    HW130542   1.716   0.730   6.635 -1.2694  0.3216  0.1682
 6303SOL    HW230543   1.600   0.781   6.561 -3.0940 -2.1602  0.6492
 6304SOL     OW30544   1.498   0.432   7.077  0.6993  0.2061 -0.0255
 6304SOL    HW130545   1.505   0.414   7.171  0.7207 -1.0116 -0.2691
 6304SOL    HW230546   1.578   0.484   7.066 -0.1788  2.0878  2.5467
 6305SOL     OW30547   1.648   3.860  13.034 -0.5279 -0.1713  0.2688
 6305SOL    HW130548   1.580   3.919  13.067 -0.3372  0.1246  0.1328
 6305SOL    HW230549   1.623   3.782  13.083 -0.8157 -0.0941  0.2488
 6306SOL     OW30550   0.058   0.849   3.727  0.3492 -0.0270 -0.8408
 6306SOL    HW130551   4.703   0.825   3.696  0.0987 -1.6740  1.1730
 6306SOL    HW230552   0.037   0.868   3.818 -0.4538 -3.0466 -0.4254
 6307SOL     OW30553   4.303   0.655   3.838  0.5880  0.5754  0.2682
 6307SOL    HW130554   4.310   0.575   3.892  2.5908  1.8086  1.8100
 6307SOL    HW230555   4.339   0.721   3.897 -1.4855  1.5906  0.3951
 6308SOL     OW30556   1.332   1.453   5.057 -0.1124  0.2388 -0.0209
 6308SOL    HW130557   1.245   1.433   5.023 -0.0696  1.2470 -0.7121
 6308SOL    HW230558   1.307   1.518   5.122 -0.3450  1.1236 -0.9851
 6309SOL     OW30559   3.603   4.362   3.162  0.0742 -0.0347  0.0566
 6309SOL    HW130560   3.696   4.365   3.187  0.0711  1.6296 -0.1226
 6309SOL    HW230561   3.621   4.348   3.069 -1.7246  0.1752 -0.3177
 6310SOL     OW30562   1.864   0.589   3.153 -0.1833  0.1329 -0.3998
 6310SOL    HW130563   1.802   0.651   3.116 -0.1003  0.3691 -0.1377
 6310SOL    HW230564   1.942   0.612   3.102  0.1180  0.0116  0.0071
 6311SOL     OW30565   1.203   2.931  15.000  0.3408  0.5011 -0.0961
 6311SOL    HW130566   1.262   3.003  15.021 -1.4457  1.3678  1.8764
 6311SOL    HW230567   1.191   2.891  15.086  0.5688 -0.5151 -0.5383
 6312SOL     OW30568   3.504   0.423   9.472  0.0870 -0.4508 -0.0343
 6312SOL    HW130569   3.460   0.345   9.438  0.6112 -0.8723  0.2630
 6312SOL    HW230570   3.546   0.451   9.391  1.4654 -1.8025  0.2058
 6313SOL     OW30571   0.397   2.515   6.510  0.3335  0.0104 -0.4001
 6313SOL    HW130572   0.312   2.556   6.495  1.3337  2.9660  1.9666
 6313SOL    HW230573   0.404   2.477   6.422 -1.4444  0.3025 -0.6652
 6314SOL     OW30574   1.732   2.991  16.457  0.0894  0.5714  0.7691
 6314SOL    HW130575   1.674   3.062  16.432  1.2082  1.0641 -0.3902
 6314SOL    HW230576   1.769   2.968  16.372  1.2385 -0.0051  1.4260
 6315SOL     OW30577   3.496   4.481   3.940 -0.4187 -0.4421  0.1227
 6315SOL    HW130578   3.410   4.522   3.929 -0.5155 -1.1295 -1.6703
 6315SOL    HW230579   3.465   4.407   3.991 -3.0963 -0.1733 -1.1238
 6316SOL     OW30580   1.914   3.939   7.511 -0.1238 -0.0446  0.2411
 6316SOL    HW130581   1.819   3.953   7.515  0.1678  1.1600  2.7227
 6316SOL    HW230582   1.946   4.029   7.501 -0.1195 -0.2463 -1.5437
 6317SOL     OW30583   3.712   4.709   5.869 -0.0970 -0.0264 -0.2345
 6317SOL    HW130584   3.760   0.011   5.794  1.3837  1.9246  1.5702
 6317SOL    HW230585   3.750   0.031   5.939  1.1488  1.8474 -2.3774
 6318SOL     OW30586   2.181   2.760   5.652  0.8551  0.0089  0.4669
 6318SOL    HW130587   2.275   2.767   5.638  1.1559 -1.3433  1.8982
 6318SOL    HW230588   2.153   2.711   5.574  0.9605 -0.6790  0.8641
 6319SOL     OW30589   0.726   2.349   8.619  0.5076 -0.0434  0.0623
 6319SOL    HW130590   0.653   2.324   8.676 -0.8783  4.1051  0.0973
 6319SOL    HW230591   0.682   2.389   8.544 -1.4646 -1.2541  0.5992
 6320SOL     OW30592   1.647   0.707   2.408 -0.2831  0.3293  0.2579
 6320SOL    HW130593   1.566   0.711   2.357  0.1466 -0.3746 -0.4778
 6320SOL    HW230594   1.696   0.647   2.352  0.3447  2.3333 -1.3584
 6321SOL     OW30595   0.079   2.071  11.807  0.2536  0.4266 -0.3098
 6321SOL    HW130596   0.006   2.077  11.869 -1.3959 -1.4596 -2.0648
 6321SOL    HW230597   0.152   2.031  11.854  1.0850  3.2061  0.7416
 6322SOL     OW30598   1.859   1.465   3.268  0.0938  0.2128  0.9642
 6322SOL    HW130599   1.834   1.434   3.181  1.8806  0.8294  0.2483
 6322SOL    HW230600   1.854   1.382   3.316 -1.5435  0.0597  0.5335
 6323SOL     OW30601   0.148   2.116   8.129  0.5200  0.1337 -0.1432
 6323SOL    HW130602   0.110   2.204   8.126 -0.4702 -0.2496  0.9980
 6323SOL    HW230603   0.226   2.119   8.074 -0.5541  2.3746 -1.5118
 6324SOL     OW30604   4.081   2.908  16.619  0.1226 -0.0758 -0.0032
 6324SOL    HW130605   4.099   2.817  16.597 -2.1756 -1.3380  3.2355
 6324SOL    HW230606   4.144   2.946  16.558  0.1425  0.3873  0.2998
 6325SOL     OW30607   1.302   4.446   2.900  0.3084 -0.5732  0.0579
 6325SOL    HW130608   1.228   4.443   2.839 -0.9928  0.3930  1.5809
 6325SOL    HW230609   1.379   4.437   2.844 -1.8252 -0.0049 -2.9728
 6326SOL     OW30610   4.128   2.851   3.075  0.6832 -0.6615  0.0681
 6326SOL    HW130611   4.162   2.882   2.991 -2.2351  1.3432 -0.3597
 6326SOL    HW230612   4.205   2.880   3.125 -0.4584 -1.7792  2.4556
 6327SOL     OW30613   2.056   2.161   4.781 -0.2078  0.4039 -0.1769
 6327SOL    HW130614   1.977   2.161   4.836 -1.4369 -2.3199 -1.9165
 6327SOL    HW230615   2.129   2.122   4.830 -0.4971 -0.5614 -0.5046
 6328SOL     OW30616   3.561   2.889   5.851  0.3208 -0.1899  0.0161
 6328SOL    HW130617   3.523   2.954   5.910  0.8456 -1.2455  1.5130
 6328SOL    HW230618   3.488   2.829   5.844 -0.3384  0.4751  1.1901
 6329SOL     OW30619   3.662   3.062   5.376 -0.3068 -0.9657  0.5117
 6329SOL    HW130620   3.642   3.029   5.464  1.1650 -0.6523  0.9586
 6329SOL    HW230621   3.694   3.151   5.391 -0.0239 -0.8596 -0.7155
 6330SOL     OW30622   1.571   0.498   1.451 -0.0751 -0.4085 -0.4380
 6330SOL    HW130623   1.484   0.463   1.433  0.5679 -1.4848 -1.4085
 6330SOL    HW230624   1.568   0.592   1.435 -2.4660 -0.1173  1.7327
 6331SOL     OW30625   3.738   1.323   2.123 -0.2741  0.3483  0.1601
 6331SOL    HW130626   3.812   1.382   2.138 -0.1324  0.4029 -0.7495
 6331SOL    HW230627   3.755   1.261   2.194 -1.2828  0.7081  0.7005
 6332SOL     OW30628   0.475   1.012   7.845 -0.0825 -0.5963 -0.3003
 6332SOL    HW130629   0.441   0.933   7.803 -2.1183  0.0504  0.1757
 6332SOL    HW230630   0.402   1.073   7.845  0.6886  0.3525 -2.1059
 6333SOL     OW30631   3.619   1.380  14.847  0.1470 -0.3616 -0.0713
 6333SOL    HW130632   3.695   1.427  14.813  0.4336 -0.8090 -0.0408
 6333SOL    HW230633   3.667   1.304  14.879  0.0938  0.0301  0.9515
 6334SOL     OW30634   2.260   1.694  10.786  0.0870 -0.0709  0.0149
 6334SOL    HW130635   2.340   1.678  10.737  1.4255  0.6043  1.9903
 6334SOL    HW230636   2.216   1.755  10.726  1.0448  0.6245  0.0326
 6335SOL     OW30637   1.992   1.269  15.480  0.1196 -1.0032  0.4404
 6335SOL    HW130638   1.921   1.267  15.416  0.2187 -3.2537  0.3937
 6335SOL    HW230639   2.009   1.175  15.490 -0.9010 -0.8314  3.7459
 6336SOL     OW30640   2.648   2.368   2.677  0.8131  0.0136  0.1548
 6336SOL    HW130641   2.585   2.302   2.707  0.0778  0.8984  0.5491
 6336SOL    HW230642   2.658   2.421   2.756 -0.0079 -0.4796  0.5886
 6337SOL     OW30643   2.711   1.065   2.431  0.0485 -0.2846 -0.0065
 6337SOL    HW130644   2.738   1.127   2.363  1.3015 -1.3958 -0.5314
 6337SOL    HW230645   2.794   1.054   2.477  0.1455 -0.8398 -0.3107
 6338SOL     OW30646   1.516   2.218   0.633  0.2871  0.0977  0.5802
 6338SOL    HW130647   1.515   2.154   0.704  1.0060 -0.5065  0.0496
 6338SOL    HW230648   1.424   2.213   0.606  0.2905 -1.0446  0.7896
 6339SOL     OW30649   4.075   2.992   3.634 -0.0605 -0.2769  0.6186
 6339SOL    HW130650   4.052   3.027   3.547  0.2067  2.0495  1.4709
 6339SOL    HW230651   4.161   2.952   3.621  1.2027  2.2985  0.8654
 6340SOL     OW30652   1.207   3.322   1.476  0.0096  0.0074  0.0167
 6340SOL    HW130653   1.228   3.255   1.541  0.5459 -1.5237 -1.7479
 6340SOL    HW230654   1.113   3.313   1.457 -0.4374 -1.5851  2.9365
 6341SOL     OW30655   3.508   2.811   8.822 -0.0227  0.1793 -0.0139
 6341SOL    HW130656   3.428   2.833   8.869 -0.1167 -0.3183  0.0609
 6341SOL    HW230657   3.504   2.873   8.749 -3.8233  1.9519  1.7557
 6342SOL     OW30658   2.197   1.764  10.406 -0.0589  0.6785 -0.0546
 6342SOL    HW130659   2.196   1.784  10.312  0.6761 -1.3105 -0.4715
 6342SOL    HW230660   2.220   1.850  10.442 -0.7559 -0.2188  2.5159
 6343SOL     OW30661   3.841   0.783   2.100 -0.2514 -0.1671 -0.0520
 6343SOL    HW130662   3.912   0.763   2.040 -0.3646  1.5911 -0.7689
 6343SOL    HW230663   3.889   0.765   2.181  0.5760 -2.3318 -1.0394
 6344SOL     OW30664   3.276   0.688   2.652  0.6764 -0.4750 -0.1553
 6344SOL    HW130665   3.329   0.687   2.572 -0.2846 -0.8553 -0.7898
 6344SOL    HW230666   3.200   0.639   2.621  0.0644  0.2923  0.1124
 6345SOL     OW30667   2.387   0.944  13.091 -0.3794  0.0692  0.1875
 6345SOL    HW130668   2.446   0.874  13.120 -1.7139  0.2991  3.4739
 6345SOL    HW230669   2.424   0.945  13.003 -0.8651 -1.5797 -0.0311
 6346SOL     OW30670   2.709   2.830  16.279  0.2826 -0.0090  0.7864
 6346SOL    HW130671   2.748   2.818  16.192  1.5590 -1.3227  1.5424
 6346SOL    HW230672   2.765   2.890  16.328  0.5864 -0.4808  1.0110
 6347SOL     OW30673   1.284   2.160   9.169 -0.1010  0.6367 -0.0860
 6347SOL    HW130674   1.374   2.128   9.173  0.1005  1.4504  1.7762
 6347SOL    HW230675   1.284   2.209   9.251 -1.3568  2.1113 -0.9685
 6348SOL     OW30676   1.396   4.235   9.648 -0.3655 -0.8147 -0.0315
 6348SOL    HW130677   1.365   4.161   9.595 -0.8825 -0.5781 -0.0561
 6348SOL    HW230678   1.338   4.221   9.723  4.1555 -2.0874  3.2143
 6349SOL     OW30679   3.720   1.965   0.563  0.3903 -0.7874 -0.6567
 6349SOL    HW130680   3.699   1.874   0.545 -0.3877 -0.4902 -1.2123
 6349SOL    HW230681   3.677   2.008   0.490 -0.1204 -1.6524 -0.8613
 6350SOL     OW30682   4.126   1.010   8.143  0.3015  0.1270 -0.1978
 6350SOL    HW130683   4.136   0.978   8.233 -0.7080  1.5028  0.4004
 6350SOL    HW230684   4.099   0.934   8.092  1.8957 -1.0340  0.6801
 6351SOL     OW30685   0.121   0.460  14.611  0.0788 -0.7280  0.0292
 6351SOL    HW130686   0.051   0.396  14.626 -0.6380 -0.0629 -0.4369
 6351SOL    HW230687   0.070   0.541  14.607 -2.1901 -2.1860 -0.3735
 6352SOL     OW30688   2.956   2.834   2.268 -0.1301  0.2821 -0.0342
 6352SOL    HW130689   2.887   2.802   2.210 -0.7350  0.7976  0.4021
 6352SOL    HW230690   3.023   2.767   2.252 -1.4902 -1.3874  1.2137
 6353SOL     OW30691   4.399   4.162   9.632  0.0231  0.6501 -0.4330
 6353SOL    HW130692   4.425   4.252   9.613  1.4606  0.1451 -0.8445
 6353SOL    HW230693   4.376   4.174   9.724  2.5355  2.8669 -0.0762
 6354SOL     OW30694   4.241   1.083   5.888  0.3307 -0.1620  0.7193
 6354SOL    HW130695   4.179   1.069   5.816  0.7221 -1.6698  0.6674
 6354SOL    HW230696   4.218   1.019   5.956  3.0389 -1.7515  0.1469
 6355SOL     OW30697   3.781   1.556   3.383  0.7013  0.1110  0.5228
 6355SOL    HW130698   3.739   1.595   3.306 -0.5402 -1.0273  0.6230
 6355SOL    HW230699   3.729   1.589   3.457  2.0076  2.1202  0.5327
 6356SOL     OW30700   1.910   3.027   4.473  0.0020  0.2184 -0.1355
 6356SOL    HW130701   1.975   3.040   4.404  0.3561 -2.3985 -0.3030
 6356SOL    HW230702   1.856   3.106   4.473  1.1779  1.0277 -0.9419
 6357SOL     OW30703   4.377   3.698   9.737  0.8855  1.0038  0.6514
 6357SOL    HW130704   4.299   3.642   9.731 -0.0097  2.4034 -0.9531
 6357SOL    HW230705   4.421   3.646   9.803  1.0743  0.6422  0.2430
 6358SOL     OW30706   3.353   2.949  13.973  0.0875  0.0559  0.0185
 6358SOL    HW130707   3.441   2.984  13.985 -0.2650  1.4221 -1.3834
 6358SOL    HW230708   3.322   2.994  13.894  1.1283  0.1532 -0.3346
 6359SOL     OW30709   4.151   0.777   7.317 -0.4937 -0.6237  0.3944
 6359SOL    HW130710   4.130   0.810   7.229 -0.3696  0.0061  0.5958
 6359SOL    HW230711   4.102   0.838   7.372 -2.6419 -0.2483 -1.9514
 6360SOL     OW30712   3.800   2.772   8.550 -0.1372 -0.4963  0.3179
 6360SOL    HW130713   3.811   2.731   8.636 -2.9385 -0.1659  0.8297
 6360SOL    HW230714   3.724   2.830   8.557 -0.0149 -0.1790 -0.9340
 6361SOL     OW30715   3.656   3.339  12.863 -0.1066 -0.0607 -0.1599
 6361SOL    HW130716   3.598   3.399  12.816  0.2251 -0.7721 -1.4681
 6361SOL    HW230717   3.735   3.368  12.819 -1.9690  1.3169 -2.6301
 6362SOL     OW30718   3.694   3.958   0.345 -0.3853 -0.2552  0.2288
 6362SOL    HW130719   3.687   3.992   0.434  1.2127 -3.0529  1.4161
 6362SOL    HW230720   3.604   3.935   0.323 -0.1501 -1.2858  0.3784
 6363SOL     OW30721   4.263   2.464  12.919 -1.0212  0.6790 -0.0522
 6363SOL    HW130722   4.234   2.540  12.970  4.0841  1.4648  1.7671
 6363SOL    HW230723   4.181   2.455  12.871 -0.9629  0.6517 -0.1465
 6364SOL     OW30724   0.837   3.838  15.719 -0.4577  0.2048  0.2803
 6364SOL    HW130725   0.829   3.783  15.641 -0.4515 -0.2677  0.6134
 6364SOL    HW230726   0.801   3.923  15.692  0.5524  1.2605  2.2366
 6365SOL     OW30727   4.444   1.330   6.362  0.0672 -0.2171 -0.2844
 6365SOL    HW130728   4.392   1.299   6.436 -0.7610 -0.5856 -1.0111
 6365SOL    HW230729   4.416   1.267   6.296 -0.3472 -0.5619  0.2191
 6366SOL     OW30730   2.249   1.745  13.133  0.2742 -0.2025  0.1224
 6366SOL    HW130731   2.303   1.820  13.155  0.4905 -1.1024  2.6544
 6366SOL    HW230732   2.241   1.735  13.038  3.2212 -0.9584 -0.0565
 6367SOL     OW30733   4.369   1.585   9.949  0.0387  0.4583  0.0753
 6367SOL    HW130734   4.427   1.520   9.988  0.6618  0.4069 -0.9547
 6367SOL    HW230735   4.372   1.572   9.854  1.6177 -0.5670  0.2680
 6368SOL     OW30736   0.835   1.684   6.837 -0.3334 -0.0775 -0.1439
 6368SOL    HW130737   0.854   1.618   6.903 -0.2651  0.3556  0.2615
 6368SOL    HW230738   0.757   1.643   6.798  0.0162 -0.9780  0.1146
 6369SOL     OW30739   2.336   3.923   1.142 -0.3306 -0.6952  0.2442
 6369SOL    HW130740   2.427   3.900   1.125 -0.5228 -0.6129 -0.9259
 6369SOL    HW230741   2.347   3.966   1.227 -0.7844 -3.1763  1.5403
 6370SOL     OW30742   3.642   2.628   7.067  0.2691 -0.2818 -0.1037
 6370SOL    HW130743   3.662   2.707   7.016  1.2871  0.3920  1.3715
 6370SOL    HW230744   3.662   2.665   7.152 -0.5323 -1.8704  0.7747
 6371SOL     OW30745   3.673   4.519  10.558  0.2016  0.0785 -0.2768
 6371SOL    HW130746   3.664   4.476  10.642  0.7944 -0.6315 -0.5797
 6371SOL    HW230747   3.625   4.601  10.568  1.2945  0.8641 -1.4464
 6372SOL     OW30748   3.552   0.449  14.512  0.0861 -0.0164 -0.1121
 6372SOL    HW130749   3.467   0.412  14.538  0.5843 -0.6316  0.6702
 6372SOL    HW230750   3.530   0.540  14.496  2.5324  0.7565  0.8839
 6373SOL     OW30751   3.326   2.265   8.314 -0.2595  0.3617 -0.2586
 6373SOL    HW130752   3.278   2.327   8.369 -0.7602 -0.6362  0.4326
 6373SOL    HW230753   3.384   2.332   8.278 -0.1617  0.3350 -0.1506
 6374SOL     OW30754   1.656   4.382   9.399  0.0632 -0.3018 -0.0481
 6374SOL    HW130755   1.605   4.309   9.364 -1.3813  0.2940  0.8072
 6374SOL    HW230756   1.598   4.448   9.437 -1.6060 -0.8548 -1.6209
 6375SOL     OW30757   3.588   1.201  14.462 -0.3362  0.9332  0.8339
 6375SOL    HW130758   3.530   1.167  14.529  0.4629 -0.9416  0.5801
 6375SOL    HW230759   3.668   1.189  14.513  0.3683  2.2760  0.0651
 6376SOL     OW30760   2.291   4.663  16.257 -0.2846  0.2597  0.2358
 6376SOL    HW130761   2.343   4.720  16.315 -2.0787  3.1766 -1.0000
 6376SOL    HW230762   2.316   4.577  16.290  1.3698  1.6772  2.6460
 6377SOL     OW30763   0.972   3.411  14.150  0.0929 -0.2735 -0.1562
 6377SOL    HW130764   1.068   3.407  14.157 -0.0480 -1.8120  0.8174
 6377SOL    HW230765   0.957   3.374  14.063  0.5470  0.9127 -0.7408
 6378SOL     OW30766   4.376   0.638   4.153  0.0128 -0.0892 -0.1097
 6378SOL    HW130767   4.358   0.628   4.246 -0.7568  1.9435 -0.0526
 6378SOL    HW230768   4.445   0.573   4.141  1.5800  1.8269 -1.5719
 6379SOL     OW30769   2.221   2.012  13.516 -0.8251  0.1443 -0.4397
 6379SOL    HW130770   2.172   1.931  13.533  0.8201 -0.3860  1.8073
 6379SOL    HW230771   2.211   2.030  13.423  1.3396  3.0857 -0.1019
 6380SOL     OW30772   0.928   0.095   8.969 -0.0250  1.0851  0.0200
 6380SOL    HW130773   0.993   0.056   8.911 -0.9327  1.2856 -1.1418
 6380SOL    HW230774   0.906   0.015   9.017  0.2650  2.3949  2.3408
 6381SOL     OW30775   2.671   3.736  15.624  0.2830  0.1997  0.1790
 6381SOL    HW130776   2.710   3.654  15.654  1.3997  1.5160  2.4160
 6381SOL    HW230777   2.649   3.732  15.532 -1.5279  1.4422  0.5567
 6382SOL     OW30778   1.688   3.730   7.335  0.0917  0.2508 -0.1907
 6382SOL    HW130779   1.664   3.641   7.312  0.4284 -0.0428  0.5931
 6382SOL    HW230780   1.735   3.759   7.257  2.3832  0.9293  1.4335
 6383SOL     OW30781   4.570   3.072   7.916  0.1810  0.1210 -0.3562
 6383SOL    HW130782   4.649   3.103   7.960 -0.8727 -0.4538  1.9565
 6383SOL    HW230783   4.582   2.977   7.910  0.4798  0.1658 -0.4818
 6384SOL     OW30784   2.174   4.638   2.033  0.1314 -0.8149 -0.5134
 6384SOL    HW130785   2.157   4.726   2.000 -1.0571 -1.7694 -2.4547
 6384SOL    HW230786   2.113   4.583   1.983  0.5089  0.0227 -1.8587
 6385SOL     OW30787   0.929   2.067  13.452  0.0989 -0.2144  0.2212
 6385SOL    HW130788   0.981   1.996  13.415 -1.3132 -0.2775 -1.6365
 6385SOL    HW230789   0.969   2.147  13.419 -0.2636 -0.5086 -0.9164
 6386SOL     OW30790   0.899   3.837   9.038 -1.0379 -0.1234 -0.5928
 6386SOL    HW130791   0.919   3.862   9.128 -2.6903 -2.9903  0.5715
 6386SOL    HW230792   0.890   3.923   8.996 -1.7824  0.0342 -0.0893
 6387SOL     OW30793   3.989   0.817   9.214 -0.3914  0.0314  0.1171
 6387SOL    HW130794   4.072   0.844   9.174  0.3131 -1.2372  0.6923
 6387SOL    HW230795   3.992   0.724   9.240 -0.6699 -0.6030 -2.1719
 6388SOL     OW30796   1.535   0.376   3.878 -0.0209 -0.2703 -0.5509
 6388SOL    HW130797   1.462   0.410   3.826  0.7224  1.8800 -0.1465
 6388SOL    HW230798   1.541   0.290   3.836  2.3492  0.0358 -0.8186
 6389SOL     OW30799   4.038   4.476   8.869  0.3188  0.6101  0.4093
 6389SOL    HW130800   3.957   4.499   8.915  0.9726 -0.6055  2.2013
 6389SOL    HW230801   4.085   4.405   8.914  4.0113  2.1321 -1.0100
 6390SOL     OW30802   4.635   2.511   0.609 -0.0716 -0.1420  0.0862
 6390SOL    HW130803   4.588   2.513   0.526 -0.3038  1.1282  0.2510
 6390SOL    HW230804   4.654   2.417   0.613 -0.7310 -0.3552 -1.8117
 6391SOL     OW30805   2.477   1.539   4.170  0.5299  0.3325  0.1114
 6391SOL    HW130806   2.439   1.537   4.258 -0.5911 -1.8903 -0.4045
 6391SOL    HW230807   2.496   1.445   4.165  0.1860  0.3146 -0.8283
 6392SOL     OW30808   3.758   1.426   0.357  0.2537 -0.2752 -0.9323
 6392SOL    HW130809   3.678   1.443   0.408  0.5977  0.1651 -0.5434
 6392SOL    HW230810   3.788   1.344   0.397 -0.0334  1.0696  2.0435
 6393SOL     OW30811   2.304   0.595   2.271  0.0548 -0.2796  0.0779
 6393SOL    HW130812   2.221   0.643   2.274  0.3430  0.1818  0.7405
 6393SOL    HW230813   2.282   0.521   2.328  2.6390  1.0556  2.7922
 6394SOL     OW30814   2.296   0.023   3.957 -0.2644  0.7052 -0.0618
 6394SOL    HW130815   2.366   0.035   3.893 -1.3747  0.3201 -1.3324
 6394SOL    HW230816   2.340   0.064   4.032  1.6132 -1.2540 -0.1155
 6395SOL     OW30817   4.683   2.281   5.742  0.1288 -0.3977  0.0648
 6395SOL    HW130818   4.716   2.352   5.796  1.1044 -1.0830  0.3874
 6395SOL    HW230819   4.723   2.305   5.658  0.1454 -0.6133  0.0094
 6396SOL     OW30820   1.174   1.142   3.700  0.4035  0.3616 -0.2076
 6396SOL    HW130821   1.130   1.184   3.627 -3.7284 -0.3773  1.8919
 6396SOL    HW230822   1.113   1.155   3.773 -0.5335 -0.6810 -0.8180
 6397SOL     OW30823   3.259   0.523  15.425  0.4519  0.3151  0.3846
 6397SOL    HW130824   3.171   0.496  15.398 -0.4122  3.8979 -0.2805
 6397SOL    HW230825   3.248   0.617  15.438 -1.9121  0.1215 -0.2890
 6398SOL     OW30826   4.052   4.404  11.670 -0.2864  0.3364  0.1590
 6398SOL    HW130827   3.979   4.456  11.637  0.1568  0.6988 -0.2634
 6398SOL    HW230828   4.002   4.330  11.704 -0.9082  0.0681 -1.3411
 6399SOL     OW30829   4.095   3.927   6.309 -0.2043  0.5357 -0.1387
 6399SOL    HW130830   4.148   3.873   6.249  0.8880  1.1680  0.2609
 6399SOL    HW230831   4.151   4.004   6.307 -0.5155  0.7547 -0.3192
 6400SOL     OW30832   2.200   0.082   4.341 -0.0336 -0.3325  0.4772
 6400SOL    HW130833   2.232   4.728   4.369  0.2337 -0.1945  0.6023
 6400SOL    HW230834   2.120   0.091   4.393  0.0272 -0.8672  0.6676
 6401SOL     OW30835   1.431   4.044   3.288 -0.4506  0.1401  0.0703
 6401SOL    HW130836   1.397   3.966   3.245  0.0390 -0.0616  0.0549
 6401SOL    HW230837   1.395   4.115   3.235 -1.6790 -0.6317 -0.1340
 6402SOL     OW30838   0.562   4.600  11.012  0.6643  0.1111 -0.0941
 6402SOL    HW130839   0.622   4.639  11.076 -0.6251 -0.5862  1.5557
 6402SOL    HW230840   0.622   4.621  10.940  0.0146  3.4153  0.3305
 6403SOL     OW30841   1.828   0.243   9.651  0.0005 -0.4165 -0.0286
 6403SOL    HW130842   1.752   0.214   9.702  2.0023 -1.7245  2.2083
 6403SOL    HW230843   1.825   0.338   9.659 -1.3438 -0.4432 -0.2598
 6404SOL     OW30844   1.939   0.210   8.386 -1.1004  0.3424 -0.0250
 6404SOL    HW130845   2.011   0.253   8.431  0.0526 -0.1582 -1.4130
 6404SOL    HW230846   1.962   0.225   8.294 -0.9554  1.2467  0.1639
 6405SOL     OW30847   2.680   0.509  16.059  0.1054  0.0743 -0.4660
 6405SOL    HW130848   2.695   0.479  15.969  0.7539  0.1816 -0.3951
 6405SOL    HW230849   2.593   0.548  16.061 -0.9111 -2.1047 -1.3542
 6406SOL     OW30850   2.109   2.496   2.821  0.7281 -0.4282 -0.4450
 6406SOL    HW130851   2.182   2.517   2.879  0.1303  0.5634 -0.0544
 6406SOL    HW230852   2.139   2.540   2.741  2.8181 -0.2138  0.4574
 6407SOL     OW30853   4.713   2.401   8.553 -0.0134  0.2628  0.0541
 6407SOL    HW130854   4.646   2.460   8.586 -0.4613 -0.4488  0.4161
 6407SOL    HW230855   0.060   2.409   8.606  0.7259  1.0653 -1.1769
 6408SOL     OW30856   2.568   4.225   4.027 -0.0966 -0.4179  0.2791
 6408SOL    HW130857   2.647   4.246   4.076  0.0046 -1.2808  0.4985
 6408SOL    HW230858   2.596   4.148   3.978  1.3001  1.0819 -1.2592
 6409SOL     OW30859   2.679   4.025   5.931 -0.4481 -0.4804 -0.1493
 6409SOL    HW130860   2.705   3.951   5.876 -0.4446 -0.9738  0.5089
 6409SOL    HW230861   2.606   4.052   5.877 -0.4029 -0.3635 -0.1514
 6410SOL     OW30862   1.123   4.688  11.147  0.1840  0.3987 -0.6847
 6410SOL    HW130863   1.067   4.691  11.070  1.9225  0.5339 -1.9413
 6410SOL    HW230864   1.079   0.024  11.198  0.5606 -0.5970  0.9872
 6411SOL     OW30865   3.923   2.179   9.478  0.4740 -0.1707  0.5507
 6411SOL    HW130866   4.003   2.136   9.448  1.4057 -0.1130  2.9543
 6411SOL    HW230867   3.935   2.187   9.573  0.6856 -2.0443  0.6725
 6412SOL     OW30868   3.067   4.241   5.255 -0.1422  0.4065  0.3071
 6412SOL    HW130869   2.973   4.253   5.267 -0.5620  0.0592 -2.6997
 6412SOL    HW230870   3.070   4.146   5.264  1.4201  0.4201 -0.0952
 6413SOL     OW30871   0.197   4.046   2.585  0.0861 -0.5861 -0.0080
 6413SOL    HW130872   0.234   3.962   2.556  0.1826 -0.7459  0.5661
 6413SOL    HW230873   0.280   4.093   2.599 -0.4423  0.5512 -0.7988
 6414SOL     OW30874   3.013   1.015   4.331 -0.5743  0.3649  0.1015
 6414SOL    HW130875   2.921   1.011   4.302 -0.1487  1.2346 -1.3803
 6414SOL    HW230876   3.042   1.104   4.310 -2.5796  0.5499 -1.9670
 6415SOL     OW30877   1.028   1.494  12.596 -0.2850 -0.3137 -0.1627
 6415SOL    HW130878   1.034   1.467  12.504  1.3355  3.2078 -1.0909
 6415SOL    HW230879   0.934   1.484  12.611 -0.4177  0.7646 -0.2915
 6416SOL     OW30880   4.111   3.337   8.887  0.5039 -0.0192  0.0758
 6416SOL    HW130881   4.016   3.344   8.894  0.6649  2.7788 -0.2790
 6416SOL    HW230882   4.146   3.413   8.934  1.6494 -1.5407  1.6988
 6417SOL     OW30883   1.948   4.315   9.134 -0.2626  0.0879  0.2725
 6417SOL    HW130884   1.932   4.382   9.200  1.6962 -0.2116  1.0587
 6417SOL    HW230885   2.040   4.338   9.117  0.3321 -1.8038  1.0347
 6418SOL     OW30886   3.515   3.980   4.273  1.2071 -0.3068  0.7618
 6418SOL    HW130887   3.522   4.014   4.362 -0.5941 -2.2374  1.6390
 6418SOL    HW230888   3.520   4.064   4.227 -0.1251 -1.0391 -0.7159
 6419SOL     OW30889   1.872   2.114  11.823 -0.2223 -0.2442  0.2570
 6419SOL    HW130890   1.934   2.042  11.829 -0.3312 -0.5042 -1.7583
 6419SOL    HW230891   1.922   2.195  11.809 -1.3846 -0.0249 -2.7531
 6420SOL     OW30892   0.466   0.787   5.809  0.1999  0.5182 -0.1601
 6420SOL    HW130893   0.499   0.789   5.719  0.9801  2.1123  0.1634
 6420SOL    HW230894   0.427   0.874   5.817  0.3863  0.9450 -3.8409
 6421SOL     OW30895   4.087   3.170   5.848  0.6077  0.2384 -0.1213
 6421SOL    HW130896   4.178   3.200   5.840  0.3429  1.1773  0.3720
 6421SOL    HW230897   4.095   3.091   5.796  2.6876 -0.6167  1.5253
 6422SOL     OW30898   1.842   2.071   3.640  0.1603 -0.9815  0.4327
 6422SOL    HW130899   1.838   2.097   3.732  0.6861  0.3701  0.0761
 6422SOL    HW230900   1.928   2.107   3.616 -0.3852 -0.5688 -0.8501
 6423SOL     OW30901   3.558   2.348   3.928  0.1887 -0.0542  0.0099
 6423SOL    HW130902   3.611   2.421   3.962 -1.3319  0.1661  1.9448
 6423SOL    HW230903   3.620   2.328   3.858 -2.2851 -1.3141 -1.8107
 6424SOL     OW30904   3.522   3.937   7.818  0.4243 -0.6602  0.0880
 6424SOL    HW130905   3.529   3.960   7.911 -3.7808  1.8823 -0.2323
 6424SOL    HW230906   3.427   3.946   7.813  0.5734  1.0109  0.2739
 6425SOL     OW30907   0.275   0.659   2.167  0.3213  0.1720  0.5094
 6425SOL    HW130908   0.229   0.575   2.160  1.6451 -0.6085  1.1588
 6425SOL    HW230909   0.351   0.630   2.217 -1.4352 -3.9713  0.7815
 6426SOL     OW30910   3.834   4.455   1.962  0.1657 -0.1214  0.2809
 6426SOL    HW130911   3.904   4.392   1.977  0.0157 -0.2873  0.2868
 6426SOL    HW230912   3.841   4.525   2.027 -1.2913  0.6478 -0.3793
 6427SOL     OW30913   1.206   0.280   5.739 -0.0889 -0.1097  0.3315
 6427SOL    HW130914   1.216   0.375   5.743  1.4454 -0.3293  1.7054
 6427SOL    HW230915   1.269   0.257   5.671 -0.5321  2.1104 -0.8362
 6428SOL     OW30916   4.031   2.703   4.823 -0.2422 -0.6645  0.1053
 6428SOL    HW130917   4.052   2.783   4.775 -1.2956 -1.1477 -1.1919
 6428SOL    HW230918   4.016   2.743   4.908  0.1130  1.1613 -0.6935
 6429SOL     OW30919   0.364   2.899   2.642  0.7861  0.1659  0.4800
 6429SOL    HW130920   0.346   2.946   2.560  0.6259 -1.5459 -0.4861
 6429SOL    HW230921   0.310   2.819   2.636  1.9254 -0.6184  0.7326
 6430SOL     OW30922   0.316   2.368  14.091  0.0492  0.1547 -0.3305
 6430SOL    HW130923   0.323   2.324  14.007  0.4327 -0.7794  0.1860
 6430SOL    HW230924   0.240   2.426  14.084 -1.6940 -2.0294  0.6640
 6431SOL     OW30925   0.374   1.410   4.639 -0.0154  0.0939 -0.3620
 6431SOL    HW130926   0.304   1.471   4.662  0.6396 -0.1310  2.2140
 6431SOL    HW230927   0.387   1.403   4.544 -2.7375  1.0276 -0.8044
 6432SOL     OW30928   1.506   4.144   3.735  0.0491  0.4414 -0.3501
 6432SOL    HW130929   1.561   4.082   3.783 -1.2419 -0.0538  0.4765
 6432SOL    HW230930   1.541   4.137   3.646  1.0431  0.7529  0.0242
 6433SOL     OW30931   4.441   1.540  12.099 -0.3484 -0.1446  0.1229
 6433SOL    HW130932   4.495   1.618  12.102  1.4385 -1.5101  2.9402
 6433SOL    HW230933   4.492   1.484  12.040 -1.8336 -0.8777 -0.4706
 6434SOL     OW30934   2.463   1.033   6.167 -0.2034 -0.3526 -0.5059
 6434SOL    HW130935   2.524   1.099   6.134  0.7138 -0.2493  1.3869
 6434SOL    HW230936   2.442   1.077   6.250 -1.8770 -0.7615 -0.7265
 6435SOL     OW30937   0.314   1.043   2.874  0.4097 -0.4013 -0.0742
 6435SOL    HW130938   0.255   1.107   2.914 -0.1960  0.2297 -1.9931
 6435SOL    HW230939   0.289   1.036   2.782  0.4069  2.9257 -0.3291
 6436SOL     OW30940   3.388   4.644   7.582  0.4191  0.3983  0.0917
 6436SOL    HW130941   3.422   4.587   7.651 -0.6074  1.3541  1.3792
 6436SOL    HW230942   3.464   4.700   7.568  0.4966 -0.1283 -1.6471
 6437SOL     OW30943   2.456   4.253   6.267 -0.4178  0.2617  0.0421
 6437SOL    HW130944   2.387   4.251   6.202  0.2766  0.5241 -0.6986
 6437SOL    HW230945   2.413   4.221   6.347 -0.4690 -0.0731 -0.1198
 6438SOL     OW30946   4.712   4.261  14.383  0.2239 -0.3667 -0.4059
 6438SOL    HW130947   0.066   4.247  14.422 -0.1639 -0.3038  0.4815
 6438SOL    HW230948   4.729   4.338  14.329 -0.9682 -0.2011 -0.5529
 6439SOL     OW30949   0.556   4.631   3.469  0.3030 -0.8201 -0.3873
 6439SOL    HW130950   0.507   4.620   3.551  0.7688  2.4997  0.3060
 6439SOL    HW230951   0.567   4.544   3.430 -0.6948 -0.6372 -1.1011
 6440SOL     OW30952   0.877   3.245  13.774 -0.5396 -0.8268  0.1979
 6440SOL    HW130953   0.794   3.237  13.822 -1.0019 -0.7919 -0.5995
 6440SOL    HW230954   0.848   3.238  13.684  0.4175 -1.5998 -0.0541
 6441SOL     OW30955   4.349   4.347   1.827 -0.0803 -0.0981 -0.1034
 6441SOL    HW130956   4.386   4.419   1.877  0.4946 -1.1765  1.0165
 6441SOL    HW230957   4.370   4.267   1.876  1.1975  0.9433  1.0400
 6442SOL     OW30958   3.560   0.342   3.860  0.0968  0.0919 -0.4481
 6442SOL    HW130959   3.639   0.294   3.834 -1.6323 -1.7399 -2.2352
 6442SOL    HW230960   3.524   0.279   3.922  0.6730 -0.2257 -0.4411
 6443SOL     OW30961   2.611   0.199  11.096  0.2006  0.5879  0.1573
 6443SOL    HW130962   2.659   0.117  11.090 -2.2857 -0.6159 -2.8751
 6443SOL    HW230963   2.547   0.196  11.026  0.8078 -1.1776 -0.3212
 6444SOL     OW30964   2.585   1.517  12.201  0.2510  0.1711 -0.3563
 6444SOL    HW130965   2.526   1.574  12.251 -1.0227 -0.4227 -1.1870
 6444SOL    HW230966   2.661   1.511  12.258  0.0499 -1.0922 -0.2125
 6445SOL     OW30967   0.035   0.494   9.168 -0.3646 -0.1827 -0.1353
 6445SOL    HW130968   4.700   0.529   9.110  0.7981  1.0992 -0.7004
 6445SOL    HW230969   0.113   0.541   9.141 -0.8913 -0.4120 -2.0793
 6446SOL     OW30970   3.290   3.919   7.996  0.2951 -0.3312 -0.0337
 6446SOL    HW130971   3.196   3.931   7.982  0.7348  2.1205 -1.0910
 6446SOL    HW230972   3.283   3.827   8.021 -0.3197 -0.5067 -0.8296
 6447SOL     OW30973   4.031   0.893   8.855 -0.1599 -0.1104 -0.1496
 6447SOL    HW130974   4.011   0.955   8.925 -2.2385 -2.8426  1.6729
 6447SOL    HW230975   3.990   0.939   8.781  0.1392  1.0020  0.3716
 6448SOL     OW30976   2.164   3.658   2.033 -0.2736 -0.2436  0.0448
 6448SOL    HW130977   2.215   3.728   2.075  2.4994 -0.3763 -3.0381
 6448SOL    HW230978   2.194   3.665   1.942 -0.0662  0.9453  0.2013
 6449SOL     OW30979   3.693   0.225   4.224 -0.2081  0.1884 -0.1835
 6449SOL    HW130980   3.755   0.156   4.201  0.0447 -0.6059  2.8349
 6449SOL    HW230981   3.611   0.201   4.181  0.2126 -1.7160  0.0857
 6450SOL     OW30982   4.266   3.487   3.977  0.0079 -0.5074 -0.1557
 6450SOL    HW130983   4.245   3.516   3.888  2.1248  1.8188  0.0996
 6450SOL    HW230984   4.198   3.532   4.028 -1.4950 -2.2250 -0.6562
 6451SOL     OW30985   1.793   2.543   0.608  0.5570 -0.4505  1.1048
 6451SOL    HW130986   1.742   2.502   0.677 -0.7501  0.5204  0.7265
 6451SOL    HW230987   1.726   2.586   0.555  0.0965 -1.6891  0.6791
 6452SOL     OW30988   1.157   0.137   7.058  0.0141 -0.7910  0.5313
 6452SOL    HW130989   1.242   0.143   7.015 -0.1526  1.0704  0.4618
 6452SOL    HW230990   1.125   0.051   7.029 -0.7202 -0.2205 -0.3362
 6453SOL     OW30991   3.317   0.863   2.850  0.1013 -0.1738 -0.1682
 6453SOL    HW130992   3.395   0.897   2.805 -0.9065  1.2324 -0.8437
 6453SOL    HW230993   3.272   0.819   2.778 -0.1932  0.3300 -0.2964
 6454SOL     OW30994   1.931   3.901  11.533  0.3105 -0.0384 -0.2298
 6454SOL    HW130995   1.993   3.829  11.548  0.3094 -0.1652 -0.8289
 6454SOL    HW230996   1.960   3.935  11.449  1.2917  1.9047  0.8843
 6455SOL     OW30997   4.155   3.971   0.616  0.0788  0.6263  0.1049
 6455SOL    HW130998   4.103   3.963   0.536 -1.5096  0.6383  1.1500
 6455SOL    HW230999   4.095   3.976   0.690 -0.1114 -1.9822  0.1250
 6456SOL     OW31000   4.483   2.035  17.181 -0.6015 -0.3342 -0.2442
 6456SOL    HW131001   4.554   2.095  17.206  1.1758 -2.7424  0.5427
 6456SOL    HW231002   4.423   2.046  17.255 -0.5063 -0.7542 -0.1059
 6457SOL     OW31003   2.189   0.507   3.081 -0.4448  0.1928  0.5090
 6457SOL    HW131004   2.162   0.591   3.043  0.4126  0.4288  0.4297
 6457SOL    HW231005   2.215   0.457   3.003  0.1651 -1.2571  1.6294
 6458SOL     OW31006   3.097   0.877   2.367 -0.0463  0.2812 -0.0950
 6458SOL    HW131007   3.029   0.923   2.318  0.5684 -1.2681 -2.3898
 6458SOL    HW231008   3.100   0.801   2.310 -0.8330  0.9458 -1.0061
 6459SOL     OW31009   3.015   0.986   6.943  0.3630  0.7280 -0.4097
 6459SOL    HW131010   3.043   1.055   7.003 -2.5211  0.1488  1.5543
 6459SOL    HW231011   3.058   0.910   6.982 -0.9078 -0.0569 -0.5439
 6460SOL     OW31012   4.488   3.523  12.113  0.2981 -0.0426  0.1012
 6460SOL    HW131013   4.442   3.594  12.067 -0.5709 -1.0042 -0.5156
 6460SOL    HW231014   4.415   3.486  12.162 -2.1901  2.3641 -1.8052
 6461SOL     OW31015   4.348   0.628  12.714  0.1761  0.1579  0.0368
 6461SOL    HW131016   4.407   0.611  12.787  0.1935  1.3485  0.3040
 6461SOL    HW231017   4.406   0.597  12.644  1.1976  0.3944  0.7797
 6462SOL     OW31018   4.293   3.508   2.313 -0.4338 -0.1328  0.8949
 6462SOL    HW131019   4.321   3.446   2.381  1.1153  0.2418  0.6095
 6462SOL    HW231020   4.236   3.571   2.355 -3.4317 -1.3235 -1.4142
 6463SOL     OW31021   0.036   2.422  12.086 -0.1643 -0.7121  0.0796
 6463SOL    HW131022   0.073   2.502  12.047  0.1969 -0.5952  0.6609
 6463SOL    HW231023   4.698   2.449  12.146  0.4664  2.0985 -0.4498
 6464SOL     OW31024   0.626   2.725   8.819 -0.6383  0.1775  0.1500
 6464SOL    HW131025   0.627   2.755   8.729  0.1904 -0.0847  0.0668
 6464SOL    HW231026   0.713   2.754   8.846 -0.5445  0.6214 -0.6484
 6465SOL     OW31027   3.991   4.016   6.025 -0.4906  0.1700 -0.1677
 6465SOL    HW131028   3.937   3.946   5.990  0.2663 -1.2921  1.6054
 6465SOL    HW231029   4.083   3.989   6.023 -1.0001 -1.5548 -0.3998
 6466SOL     OW31030   0.522   3.720   9.566 -0.2426 -0.3813 -0.2927
 6466SOL    HW131031   0.606   3.765   9.578  0.4222 -1.8201  0.5126
 6466SOL    HW231032   0.477   3.804   9.562 -0.4389 -0.3802  1.9683
 6467SOL     OW31033   4.577   3.133  16.383  0.0541 -0.8150  0.2883
 6467SOL    HW131034   4.505   3.188  16.414 -0.0787 -0.7249 -0.1876
 6467SOL    HW231035   4.651   3.149  16.442  0.2766 -1.4800  0.1925
 6468SOL     OW31036   0.324   2.056   6.476  0.1502  0.1741 -0.4240
 6468SOL    HW131037   0.363   2.135   6.512 -2.1068  0.2000  2.0036
 6468SOL    HW231038   0.339   1.994   6.548 -0.0758 -0.8807 -1.2688
 6469SOL     OW31039   4.053   0.584   0.269  0.1192  0.4578  0.1622
 6469SOL    HW131040   3.987   0.595   0.337  0.2058 -0.8701  0.4565
 6469SOL    HW231041   4.049   0.491   0.246  0.6136  0.8035 -1.3229
 6470SOL     OW31042   4.179   2.412  14.670  0.0896  0.2275 -0.3992
 6470SOL    HW131043   4.229   2.349  14.618  0.8786  0.4410  0.1063
 6470SOL    HW231044   4.229   2.438  14.747 -0.4921 -0.9070  0.3756
 6471SOL     OW31045   2.639   1.971   7.622 -0.0716 -0.0038  0.4449
 6471SOL    HW131046   2.677   2.059   7.625 -1.1937  0.5127 -1.1416
 6471SOL    HW231047   2.664   1.944   7.711  0.4970  0.6523  0.4881
 6472SOL     OW31048   0.910   0.622  12.375  0.2563 -0.2918 -0.5197
 6472SOL    HW131049   0.856   0.617  12.296 -1.3284  0.2032  0.5544
 6472SOL    HW231050   0.914   0.530  12.404  1.9785 -0.2175 -0.5197
 6473SOL     OW31051   4.642   3.958   7.725 -0.2623 -0.0381  0.1061
 6473SOL    HW131052   4.640   4.052   7.746 -2.7541 -0.2865  0.9973
 6473SOL    HW231053   0.005   3.947   7.733 -0.0786  2.9777  2.3654
 6474SOL     OW31054   1.695   2.860   6.476 -0.2842 -0.2814  0.1160
 6474SOL    HW131055   1.773   2.914   6.481 -0.1353 -0.4803 -0.0788
 6474SOL    HW231056   1.708   2.824   6.389  1.2898 -3.0800  1.5126
 6475SOL     OW31057   0.501   0.904   7.242  0.7276 -0.8871  0.6844
 6475SOL    HW131058   0.494   0.889   7.147 -1.0245 -0.7697  0.7872
 6475SOL    HW231059   0.431   0.838   7.248  1.7263 -2.0009  0.1639
 6476SOL     OW31060   0.985   2.535   1.783  0.0006 -0.5751 -0.2637
 6476SOL    HW131061   0.983   2.500   1.693  1.9716 -0.6846 -0.2726
 6476SOL    HW231062   0.927   2.611   1.784  2.0641  1.0146 -1.7284
 6477SOL     OW31063   1.899   3.123   3.429 -0.2127  0.3195 -0.2520
 6477SOL    HW131064   1.866   3.064   3.497  1.3881  0.2313  0.4388
 6477SOL    HW231065   1.990   3.093   3.426 -0.0657  0.9125 -1.6613
 6478SOL     OW31066   3.408   4.222  10.864  0.1044  0.3332  0.4528
 6478SOL    HW131067   3.454   4.270  10.796  1.1935 -0.3821  0.6927
 6478SOL    HW231068   3.477   4.211  10.929 -0.4702  1.0887  1.1990
 6479SOL     OW31069   0.471   4.271   7.778 -0.1403  0.0992  0.9494
 6479SOL    HW131070   0.472   4.367   7.771 -0.3975 -0.1629 -2.7840
 6479SOL    HW231071   0.510   4.276   7.865  2.4539  1.5488 -0.2888
 6480SOL     OW31072   2.225   3.956   3.815  0.2362 -0.2394 -0.0885
 6480SOL    HW131073   2.219   3.926   3.905 -1.3664  1.3821  0.3410
 6480SOL    HW231074   2.257   4.046   3.821  0.5868 -0.3871  0.2716
 6481SOL     OW31075   3.670   2.986   3.161 -0.1627  0.3739 -0.7162
 6481SOL    HW131076   3.643   3.069   3.202 -0.8662 -0.2382  0.0569
 6481SOL    HW231077   3.745   3.022   3.113  1.7618 -1.2277  1.1375
 6482SOL     OW31078   1.038   4.450   8.167 -0.1530 -0.4380 -0.4259
 6482SOL    HW131079   1.117   4.481   8.213  0.2537  1.5784 -2.5168
 6482SOL    HW231080   1.036   4.499   8.085 -0.9213  0.4313  0.1143
 6483SOL     OW31081   3.974   4.500   7.978 -0.1592  0.1590 -0.2364
 6483SOL    HW131082   3.942   4.424   7.930 -3.5882  1.9512 -0.7667
 6483SOL    HW231083   4.069   4.504   7.968 -0.1759  2.4266  0.4287
 6484SOL     OW31084   3.944   2.257  14.636 -0.2639 -0.3537 -0.3016
 6484SOL    HW131085   3.853   2.284  14.639 -0.0860  0.1802  0.2290
 6484SOL    HW231086   3.998   2.334  14.656  0.7312 -1.4877  1.3394
 6485SOL     OW31087   0.247   0.248   0.791  0.4988 -0.1705 -0.1086
 6485SOL    HW131088   0.256   0.154   0.777  0.4806  0.2481 -2.9899
 6485SOL    HW231089   0.272   0.271   0.880  2.0555 -0.9536 -0.3434
 6486SOL     OW31090   2.485   3.571   2.441 -0.3962  1.3110 -0.1303
 6486SOL    HW131091   2.470   3.493   2.495  0.2600 -0.2005 -2.1468
 6486SOL    HW231092   2.396   3.579   2.405 -0.4021 -0.4362 -0.4928
 6487SOL     OW31093   2.241   1.418  15.694 -0.2910  0.1036  0.0157
 6487SOL    HW131094   2.318   1.378  15.652 -0.4213  2.6596 -2.6441
 6487SOL    HW231095   2.197   1.453  15.617  0.6414 -2.9236 -1.9128
 6488SOL     OW31096   4.382   0.407   0.128 -0.0427 -0.5080  0.1124
 6488SOL    HW131097   4.426   0.338   0.179  3.3345  1.2353 -0.4613
 6488SOL    HW231098   4.306   0.361   0.094  0.7230 -0.4029 -1.7340
 6489SOL     OW31099   1.968   2.745   4.112  0.3029 -0.5457  0.4446
 6489SOL    HW131100   2.057   2.719   4.136 -0.2050 -1.7472  1.0027
 6489SOL    HW231101   1.919   2.674   4.153 -0.8838  1.1432  1.9685
 6490SOL     OW31102   1.100   0.225   7.461  0.9716 -0.8911 -0.2815
 6490SOL    HW131103   1.146   0.197   7.540  0.3677  1.2515  0.8382
 6490SOL    HW231104   1.074   0.316   7.478  0.8136 -1.3583  1.8949
 6491SOL     OW31105   1.673   3.161   8.196 -0.2867  0.4706 -0.6366
 6491SOL    HW131106   1.703   3.142   8.285  0.2019  0.2633 -0.8455
 6491SOL    HW231107   1.724   3.094   8.149 -0.5960 -0.2831  0.0919
 6492SOL     OW31108   4.722   0.398  15.652 -0.1802 -0.2670 -0.1508
 6492SOL    HW131109   4.650   0.460  15.652 -0.0322 -0.0938 -1.6834
 6492SOL    HW231110   4.704   0.339  15.725  0.3128 -0.1905  0.0376
 6493SOL     OW31111   4.579   1.964   2.250  0.1987 -0.4481  0.0793
 6493SOL    HW131112   4.619   1.884   2.282 -1.3952 -1.5410 -0.6906
 6493SOL    HW231113   4.535   1.986   2.332  1.3219  1.2730  0.2215
 6494SOL     OW31114   2.234   0.714   5.262  0.0676 -0.1658  0.2057
 6494SOL    HW131115   2.231   0.730   5.356  0.9282 -0.2986  0.2576
 6494SOL    HW231116   2.167   0.776   5.233  0.6706  0.4394  0.0992
 6495SOL     OW31117   2.395   3.826   4.874 -0.3238 -0.0881  0.1600
 6495SOL    HW131118   2.331   3.769   4.832  0.9889 -0.5095 -1.2990
 6495SOL    HW231119   2.397   3.890   4.803 -2.2437 -0.9512 -0.6491
 6496SOL     OW31120   0.384   2.242   2.741 -0.5939 -0.1094 -0.1849
 6496SOL    HW131121   0.465   2.209   2.780 -1.4071 -3.1504 -1.0514
 6496SOL    HW231122   0.371   2.179   2.670  2.3647 -0.8212 -0.0935
 6497SOL     OW31123   3.523   3.080  11.191  0.0520 -0.0391  0.1040
 6497SOL    HW131124   3.489   2.993  11.172 -1.7462  0.8092 -0.5346
 6497SOL    HW231125   3.612   3.048  11.203  0.4603  1.3490  0.7962
 6498SOL     OW31126   2.481   2.626  12.156 -0.5216  0.5514 -0.0869
 6498SOL    HW131127   2.410   2.667  12.205 -0.8311  2.5806 -2.2354
 6498SOL    HW231128   2.494   2.700  12.097 -0.8055  1.3888  0.8860
 6499SOL     OW31129   3.025   1.656  16.015  0.2961  0.6362 -0.9059
 6499SOL    HW131130   2.969   1.580  15.999 -0.4912  0.9300  0.4579
 6499SOL    HW231131   2.964   1.726  15.990 -1.9003 -0.1656  2.1776
 6500SOL     OW31132   4.707   1.264   8.970 -0.6535 -0.5903  0.0532
 6500SOL    HW131133   4.696   1.261   8.875 -0.7266 -1.0707  0.0761
 6500SOL    HW231134   0.006   1.175   8.987 -3.6033 -1.7642 -0.6408
 6501SOL     OW31135   2.920   4.332  13.213  0.6470  0.1301  0.2462
 6501SOL    HW131136   2.921   4.326  13.118 -1.9927 -1.3730  0.3000
 6501SOL    HW231137   2.860   4.405  13.226 -1.4844 -1.6880  0.7639
 6502SOL     OW31138   4.351   3.246   5.796 -0.5638 -0.5799  0.6134
 6502SOL    HW131139   4.428   3.191   5.814  0.7510  0.7825 -0.9041
 6502SOL    HW231140   4.347   3.253   5.701 -2.1561 -0.4987  0.6972
 6503SOL     OW31141   1.146   4.641   9.423 -0.5382  0.6275  0.1929
 6503SOL    HW131142   1.228   4.601   9.451 -0.4582 -0.6842 -1.8896
 6503SOL    HW231143   1.127   4.708   9.489 -1.9957 -1.1724  1.6040
 6504SOL     OW31144   0.402   3.481   4.772  0.4486  0.0860  0.0184
 6504SOL    HW131145   0.405   3.387   4.758 -0.0891  0.2944 -1.5023
 6504SOL    HW231146   0.438   3.487   4.861  4.4493 -0.4419 -1.5639
 6505SOL     OW31147   2.141   0.141   0.478  0.0644  0.6480 -0.3677
 6505SOL    HW131148   2.047   0.141   0.459  0.0810  1.8778 -0.4625
 6505SOL    HW231149   2.160   0.211   0.416 -1.8620  4.0531  2.8880
 6506SOL     OW31150   1.769   2.809   3.428  0.5212 -0.3525 -0.1151
 6506SOL    HW131151   1.793   2.873   3.360  0.3573 -1.7818 -1.5349
 6506SOL    HW231152   1.761   2.862   3.506  0.2886  1.7432 -1.5632
 6507SOL     OW31153   1.969   1.164   7.077  0.5068 -0.0281  0.3989
 6507SOL    HW131154   1.978   1.188   7.169 -1.0183  1.0466  0.2799
 6507SOL    HW231155   1.907   1.231   7.047 -1.4553 -2.6705 -1.4324
 6508SOL     OW31156   3.841   3.583  14.373 -0.5804  0.3831 -0.0169
 6508SOL    HW131157   3.781   3.595  14.300 -1.8292  0.7229  1.0783
 6508SOL    HW231158   3.858   3.489  14.368  0.2619  0.5208  0.1225
 6509SOL     OW31159   4.722   0.314   0.085  0.3751 -0.7950 -0.1100
 6509SOL    HW131160   0.010   0.401   0.053  4.4825 -1.5106  0.4797
 6509SOL    HW231161   4.642   0.293   0.037 -0.9614 -0.4251  1.9272
 6510SOL     OW31162   3.181   0.709   4.223  0.2388 -0.3734 -0.3523
 6510SOL    HW131163   3.142   0.793   4.197 -1.5020 -0.6116  1.5566
 6510SOL    HW231164   3.275   0.718   4.206  0.3808  0.5464  0.9852
 6511SOL     OW31165   4.399   4.230   7.677 -0.7903 -0.2391 -0.5252
 6511SOL    HW131166   4.318   4.241   7.628 -0.7830 -0.3453 -0.5618
 6511SOL    HW231167   4.463   4.246   7.607  0.6465  0.9921  1.0816
 6512SOL     OW31168   4.672   3.327   3.823  0.1096  0.0674  0.6361
 6512SOL    HW131169   4.710   3.271   3.890 -0.4032  1.7314  2.3176
 6512SOL    HW231170   4.585   3.342   3.860  0.4133  1.4199  0.7812
 6513SOL     OW31171   3.621   0.117   0.590  0.2094  0.1118 -0.0783
 6513SOL    HW131172   3.652   0.176   0.658  4.3588 -0.1594 -1.7170
 6513SOL    HW231173   3.616   0.185   0.523  0.2819  0.6123  0.4251
 6514SOL     OW31174   2.864   4.418   8.932 -0.6495 -0.2002  0.4412
 6514SOL    HW131175   2.859   4.333   8.889  2.0274 -0.3483  0.3878
 6514SOL    HW231176   2.937   4.395   8.990  0.1349  0.6617 -0.2008
 6515SOL     OW31177   4.647   4.413   8.418 -0.1275 -0.1954  0.1648
 6515SOL    HW131178   4.658   4.508   8.424  3.7544 -0.8153  2.3828
 6515SOL    HW231179   4.655   4.405   8.323 -4.6741 -1.2455 -0.1071
 6516SOL     OW31180   1.057   3.058   0.335 -0.0851 -0.3555  0.4050
 6516SOL    HW131181   0.970   3.040   0.370 -1.3946 -1.6999 -3.4944
 6516SOL    HW231182   1.033   3.101   0.253 -0.1652  2.6682  1.9808
 6517SOL     OW31183   0.009   3.408   2.826  0.0235 -0.1724 -0.5084
 6517SOL    HW131184   0.072   3.456   2.773 -1.2358  1.0888 -0.8770
 6517SOL    HW231185   0.024   3.317   2.801  0.4772  0.1772 -1.4983
 6518SOL     OW31186   1.613   0.005   7.842 -0.1886 -0.1182 -0.0854
 6518SOL    HW131187   1.570   4.658   7.875 -0.1186 -0.1200  0.0006
 6518SOL    HW231188   1.617   0.062   7.919 -0.9646  1.4089 -1.1709
 6519SOL     OW31189   2.763   2.549  15.518 -0.1333  0.1297 -0.1340
 6519SOL    HW131190   2.755   2.471  15.573  0.3193  1.1995  1.4463
 6519SOL    HW231191   2.716   2.515  15.443 -2.0431 -0.4671  1.3300
 6520SOL     OW31192   2.537   2.677   3.734  0.1774 -0.2844  0.0776
 6520SOL    HW131193   2.574   2.697   3.648 -1.5232  2.5232  0.0199
 6520SOL    HW231194   2.450   2.643   3.714 -0.8152  0.4735  3.1251
 6521SOL     OW31195   2.748   2.821  15.117 -0.1639 -0.0450 -0.7480
 6521SOL    HW131196   2.807   2.752  15.088  0.0679 -0.2217  0.1487
 6521SOL    HW231197   2.813   2.892  15.122  0.5475 -0.5735 -2.5973
 6522SOL     OW31198   2.139   0.524  11.142  0.0335  0.3327 -0.6787
 6522SOL    HW131199   2.093   0.591  11.193 -0.3759 -1.6370  1.5322
 6522SOL    HW231200   2.129   0.556  11.052 -1.0467  1.9185 -0.0072
 6523SOL     OW31201   1.671   2.613   6.730 -0.5513  0.0373  0.3792
 6523SOL    HW131202   1.629   2.601   6.645  0.6030  1.5884 -0.4111
 6523SOL    HW231203   1.756   2.571   6.714 -0.2631  0.2076  1.4981
 6524SOL     OW31204   0.864   0.969   1.558 -0.6131 -0.3745 -0.0861
 6524SOL    HW131205   0.829   1.057   1.569  1.1035  0.0723  1.7622
 6524SOL    HW231206   0.913   0.961   1.640  0.1210  1.0506 -0.3914
 6525SOL     OW31207   1.744   4.356   4.870 -0.2143  0.2536 -0.0525
 6525SOL    HW131208   1.823   4.386   4.825  1.1172 -0.1413  2.0251
 6525SOL    HW231209   1.775   4.365   4.961 -0.4748  1.4034 -0.0739
 6526SOL     OW31210   1.891   1.892   6.993 -0.2465  0.1839 -0.5926
 6526SOL    HW131211   1.951   1.966   6.984  2.6677 -1.9193  1.4795
 6526SOL    HW231212   1.806   1.929   6.969  0.5637  1.8643 -0.8622
 6527SOL     OW31213   1.132   3.557   1.252 -0.0639  0.0152  0.4847
 6527SOL    HW131214   1.186   3.488   1.291 -2.5101 -0.8462  2.3389
 6527SOL    HW231215   1.172   3.578   1.168 -0.9249  1.8139  0.5219
 6528SOL     OW31216   1.637   3.958   0.805  0.2052  0.2901 -0.0165
 6528SOL    HW131217   1.593   3.959   0.890 -0.0398 -1.6802 -0.1263
 6528SOL    HW231218   1.699   4.031   0.808 -0.4606  0.8495 -0.0031
 6529SOL     OW31219   4.260   1.890   4.307 -0.2354 -0.1926  0.1684
 6529SOL    HW131220   4.188   1.851   4.256 -0.8002 -0.0578  0.8618
 6529SOL    HW231221   4.230   1.882   4.397  0.7230  2.3187  0.7168
 6530SOL     OW31222   3.197   4.111  13.508  0.3688  0.1257  0.1917
 6530SOL    HW131223   3.292   4.125  13.502  0.3248  0.5311  0.4460
 6530SOL    HW231224   3.187   4.020  13.479 -0.8624 -0.0101  1.0445
 6531SOL     OW31225   2.481   3.467   6.922 -0.0337  0.1599  0.3701
 6531SOL    HW131226   2.466   3.377   6.893  1.5520  0.3007 -0.9027
 6531SOL    HW231227   2.527   3.508   6.849  0.3842 -1.2484 -0.1573
 6532SOL     OW31228   2.545   2.998  11.585 -0.6002  0.2078  0.1654
 6532SOL    HW131229   2.471   3.053  11.611 -1.0826  0.4007 -1.6236
 6532SOL    HW231230   2.621   3.022  11.639 -0.0729  3.5621 -2.0801
 6533SOL     OW31231   0.400   3.963   1.780  0.3986 -0.0559 -0.0382
 6533SOL    HW131232   0.399   4.042   1.833  2.4252  1.7489 -2.6949
 6533SOL    HW231233   0.310   3.934   1.793  0.2517 -0.2447 -1.3922
 6534SOL     OW31234   3.943   0.813  17.286  0.7763  0.0561 -0.7022
 6534SOL    HW131235   3.869   0.858  17.247 -0.3174 -1.6811 -0.6576
 6534SOL    HW231236   3.984   0.892  17.321  1.6768 -0.6170 -0.2425
 6535SOL     OW31237   3.372   1.774   8.021 -0.3486  0.2383  0.8371
 6535SOL    HW131238   3.281   1.755   8.044 -0.5967 -0.5395 -0.7585
 6535SOL    HW231239   3.411   1.689   8.041 -0.4587  0.1225  0.5676
 6536SOL     OW31240   3.238   1.955   6.144  0.4798  0.8527 -0.7955
 6536SOL    HW131241   3.234   1.867   6.107  0.0186  1.1783 -1.5312
 6536SOL    HW231242   3.146   1.970   6.162  0.5178  0.7772 -0.5429
 6537SOL     OW31243   2.865   2.977   2.496  0.1760 -0.3902 -0.0633
 6537SOL    HW131244   2.899   2.905   2.444 -0.5640 -0.8531  0.0975
 6537SOL    HW231245   2.938   3.038   2.506 -0.9532  1.1012 -0.8120
 6538SOL     OW31246   4.113   3.797   6.757  0.0152 -0.1571 -0.1197
 6538SOL    HW131247   4.026   3.836   6.762  0.3599  0.3725  1.8815
 6538SOL    HW231248   4.078   3.709   6.768  1.9230 -0.7733  1.0650
 6539SOL     OW31249   2.162   0.689  13.305 -0.9148  0.5726 -0.0570
 6539SOL    HW131250   2.157   0.708  13.211  1.7891  0.1978 -0.2776
 6539SOL    HW231251   2.141   0.771  13.349 -0.7225  0.8462 -0.4726
 6540SOL     OW31252   1.874   2.441   3.871  0.3595  1.1547  0.6626
 6540SOL    HW131253   1.927   2.430   3.792 -2.8974  2.0167 -1.6114
 6540SOL    HW231254   1.900   2.360   3.915 -1.5555 -1.0578 -2.3343
 6541SOL     OW31255   0.120   3.182   9.086  0.1679 -0.2831  0.1794
 6541SOL    HW131256   0.106   3.255   9.026  3.2184  0.0935 -0.0507
 6541SOL    HW231257   0.120   3.229   9.169 -0.6788 -0.2163  0.1402
 6542SOL     OW31258   1.275   1.103  12.206  0.1747  0.3348 -0.6458
 6542SOL    HW131259   1.193   1.112  12.254  0.2510 -2.8353  0.1027
 6542SOL    HW231260   1.340   1.067  12.267  2.5355  2.0071 -2.1613
 6543SOL     OW31261   4.044   2.823   6.830  0.1048  0.3265 -0.1454
 6543SOL    HW131262   3.968   2.829   6.773  1.4895  3.5675 -1.6510
 6543SOL    HW231263   4.095   2.882   6.774 -0.0293  0.5595 -0.0156
 6544SOL     OW31264   1.917   1.849   2.603 -0.2285  0.3303  0.0108
 6544SOL    HW131265   1.931   1.774   2.545 -1.5575 -0.2385  0.4297
 6544SOL    HW231266   2.001   1.895   2.591 -1.5224  2.8835  0.6840
 6545SOL     OW31267   4.000   1.982  17.044 -0.0211  0.1278  0.2053
 6545SOL    HW131268   4.013   2.021  16.957 -0.8244  2.2511  1.0467
 6545SOL    HW231269   4.088   1.945  17.051  0.4433  0.8839 -1.7077
 6546SOL     OW31270   1.991   2.348  13.634  0.3252 -0.1842 -0.1108
 6546SOL    HW131271   2.018   2.272  13.685  3.1955  0.4125 -0.6907
 6546SOL    HW231272   2.070   2.385  13.594  2.3346 -2.5869  1.5876
 6547SOL     OW31273   0.502   4.141   8.057  0.1771 -0.5231 -0.9430
 6547SOL    HW131274   0.545   4.201   8.118  1.1689 -1.0062 -1.1709
 6547SOL    HW231275   0.418   4.130   8.102  0.5039 -0.3824 -0.3061
 6548SOL     OW31276   2.347   1.502   5.513  0.2339 -0.1083 -0.6882
 6548SOL    HW131277   2.347   1.406   5.506  0.5073 -0.1651  0.0901
 6548SOL    HW231278   2.437   1.529   5.495 -0.2775  1.3738 -0.9621
 6549SOL     OW31279   2.738   4.007   8.549 -0.7565  0.5235 -0.1663
 6549SOL    HW131280   2.746   4.085   8.494  0.5073  1.2045  0.9894
 6549SOL    HW231281   2.756   3.927   8.500 -1.1565  0.8105 -0.7902
 6550SOL     OW31282   0.688   4.403   8.595 -0.1083  0.3013  0.0545
 6550SOL    HW131283   0.732   4.425   8.513 -0.6194  0.7954 -0.0886
 6550SOL    HW231284   0.631   4.479   8.607 -1.5320 -0.5824 -1.1656
 6551SOL     OW31285   1.367   0.370   8.704  0.0829 -0.0821 -0.0126
 6551SOL    HW131286   1.344   0.335   8.618  0.3408 -0.9814  0.2872
 6551SOL    HW231287   1.446   0.320   8.721  0.7826  0.4294 -1.7671
 6552SOL     OW31288   1.695   2.771   7.840 -0.4633 -0.1158 -0.8255
 6552SOL    HW131289   1.730   2.824   7.768  0.3276  1.0746  0.4241
 6552SOL    HW231290   1.610   2.760   7.799 -0.5971 -2.4051  0.0356
 6553SOL     OW31291   4.491   2.112   6.496  0.1031  0.1448 -0.0712
 6553SOL    HW131292   4.557   2.149   6.437 -1.7770  0.2196 -2.1199
 6553SOL    HW231293   4.527   2.023   6.495  0.6787  0.3940 -2.1077
 6554SOL     OW31294   1.497   0.078   7.459 -0.0141  0.5072  0.0736
 6554SOL    HW131295   1.511   4.716   7.444  1.7035  1.3054 -3.3598
 6554SOL    HW231296   1.433   0.094   7.391 -0.8236  0.3863  0.8086
 6555SOL     OW31297   1.776   3.162   8.947  0.1051 -0.0339  0.1891
 6555SOL    HW131298   1.683   3.151   8.966  0.3444  0.9667  1.9773
 6555SOL    HW231299   1.793   3.237   9.005 -0.1937  0.1911 -0.0135
 6556SOL     OW31300   2.075   0.652   1.435 -0.2431 -0.3293 -0.0504
 6556SOL    HW131301   2.135   0.702   1.379  0.1848 -1.7863 -0.9171
 6556SOL    HW231302   2.000   0.624   1.382 -0.5695 -0.2071  0.3521
 6557SOL     OW31303   4.501   1.280  13.266  0.1965 -0.0613  0.2618
 6557SOL    HW131304   4.552   1.230  13.329 -0.7814  1.1837  2.0462
 6557SOL    HW231305   4.468   1.215  13.204 -0.6348 -0.8559  1.5325
 6558SOL     OW31306   2.138   3.261   8.478  0.4146  0.0141 -0.2266
 6558SOL    HW131307   2.160   3.339   8.528  0.2607  0.1009 -0.2978
 6558SOL    HW231308   2.198   3.199   8.520 -0.8686  0.9381  2.9330
 6559SOL     OW31309   0.910   2.192   4.613  0.4191  0.8624 -0.4536
 6559SOL    HW131310   0.829   2.141   4.615  0.4761  0.7824 -0.2175
 6559SOL    HW231311   0.880   2.271   4.567 -3.3313 -1.8561 -2.7220
 6560SOL     OW31312   3.988   2.279   4.732 -0.4013 -0.0774 -0.1351
 6560SOL    HW131313   4.011   2.371   4.742  0.0891 -0.2377  0.1959
 6560SOL    HW231314   3.937   2.289   4.652  1.8912  2.6883 -1.2706
 6561SOL     OW31315   0.554   2.926   7.082 -0.1438  0.1751 -0.7389
 6561SOL    HW131316   0.536   2.834   7.106  1.3785  0.0019 -0.2881
 6561SOL    HW231317   0.581   2.956   7.168 -2.0430  0.0249 -0.0928
 6562SOL     OW31318   0.899   0.681   3.683 -0.2676 -0.0256  0.0481
 6562SOL    HW131319   0.816   0.661   3.641  0.9376 -2.2667 -1.2882
 6562SOL    HW231320   0.960   0.673   3.610  1.1297  1.5085  1.0569
 6563SOL     OW31321   2.331   1.007   0.608  0.3316 -0.0056  0.1970
 6563SOL    HW131322   2.293   1.041   0.526  1.9263  4.5200  1.2986
 6563SOL    HW231323   2.418   0.977   0.585  0.6435  1.1547 -0.1535
 6564SOL     OW31324   4.235   4.589   8.505 -0.3311 -0.0394 -0.0671
 6564SOL    HW131325   4.151   4.572   8.548 -0.5650 -2.3243 -1.4124
 6564SOL    HW231326   4.298   4.537   8.555  0.2676  0.7319 -0.0281
 6565SOL     OW31327   2.043   0.705   2.247 -0.3428  0.2854 -0.1106
 6565SOL    HW131328   1.963   0.654   2.262 -1.2328  2.1698  1.5008
 6565SOL    HW231329   2.051   0.678   2.155 -0.8432 -1.8351  0.4656
 6566SOL     OW31330   3.133   2.991   4.708  0.0354  0.1003 -0.0477
 6566SOL    HW131331   3.174   2.911   4.741 -0.4441  0.5406  1.6096
 6566SOL    HW231332   3.089   3.015   4.790 -1.2930 -2.0105 -0.1212
 6567SOL     OW31333   1.514   2.499   9.043 -0.0787  0.0120 -0.2086
 6567SOL    HW131334   1.445   2.553   9.005 -1.0600 -0.8839  0.3256
 6567SOL    HW231335   1.478   2.475   9.128  1.0598  1.2793  0.6400
 6568SOL     OW31336   0.578   0.871  12.410  0.0481 -0.0995 -0.2667
 6568SOL    HW131337   0.527   0.797  12.375 -0.3540  0.6729 -1.3252
 6568SOL    HW231338   0.531   0.872  12.493  3.2441 -3.0082  1.5908
 6569SOL     OW31339   4.140   1.584   1.728  0.4728  0.0922  0.0505
 6569SOL    HW131340   4.055   1.549   1.702  2.1342 -1.2241 -3.6534
 6569SOL    HW231341   4.101   1.628   1.803 -2.6995 -2.7272  0.0543
 6570SOL     OW31342   3.782   4.367  13.672  0.4199  0.9233  0.3062
 6570SOL    HW131343   3.782   4.366  13.577 -0.8944  0.9649  0.2999
 6570SOL    HW231344   3.689   4.346  13.686  0.3572 -0.4292 -2.2242
 6571SOL     OW31345   1.903   1.703   1.491 -0.3066  0.3966 -0.4794
 6571SOL    HW131346   1.950   1.747   1.562  0.9311 -2.5075  0.5154
 6571SOL    HW231347   1.855   1.634   1.537 -0.5998 -1.3606 -3.4040
 6572SOL     OW31348   2.849   3.548   7.620  0.1267 -0.1029 -0.1086
 6572SOL    HW131349   2.919   3.488   7.596 -1.9642 -2.7080  0.2492
 6572SOL    HW231350   2.777   3.492   7.590 -1.6740  2.4620 -0.5677
 6573SOL     OW31351   1.809   4.720   8.361 -0.2019  0.0600 -0.8770
 6573SOL    HW131352   1.872   0.060   8.354 -0.4986  0.3842 -0.2181
 6573SOL    HW231353   1.876   4.659   8.394  0.7844 -0.1700 -3.3540
 6574SOL     OW31354   3.906   0.008   5.270 -0.1987  0.4616 -0.5092
 6574SOL    HW131355   3.837   4.675   5.281 -0.0990  0.5261  0.5343
 6574SOL    HW231356   3.864   0.086   5.306  0.5212  0.3318  0.6310
 6575SOL     OW31357   0.648   4.553   6.149 -0.2422  0.6880  0.9526
 6575SOL    HW131358   0.739   4.573   6.128  0.4230 -3.2177  0.1396
 6575SOL    HW231359   0.615   4.621   6.208 -1.6896  0.3295  0.5425
 6576SOL     OW31360   2.334   2.250   1.421 -0.3418  0.5010 -0.0092
 6576SOL    HW131361   2.371   2.179   1.474  1.6670  2.9572  1.8821
 6576SOL    HW231362   2.333   2.326   1.479  3.5296  0.6198 -0.0524
 6577SOL     OW31363   4.276   3.085   4.341 -0.0042 -0.2215 -0.0872
 6577SOL    HW131364   4.322   3.151   4.392  2.1617  0.0691 -2.4104
 6577SOL    HW231365   4.236   3.144   4.277 -0.0253 -0.3008 -0.1464
 6578SOL     OW31366   4.566   0.456   4.140  0.1007  0.2317  0.2274
 6578SOL    HW131367   4.623   0.379   4.146  0.9435  0.7597 -1.0810
 6578SOL    HW231368   4.599   0.490   4.057 -1.2168  2.8586  0.7900
 6579SOL     OW31369   0.024   1.129   6.025 -0.4205  0.1858 -0.1262
 6579SOL    HW131370   0.102   1.079   6.050 -0.8173  0.2703  1.2921
 6579SOL    HW231371   4.689   1.069   6.060  0.8636 -1.1090  0.1293
 6580SOL     OW31372   0.215   0.932   2.111  0.3548 -0.2181 -0.3159
 6580SOL    HW131373   0.264   0.851   2.131  0.3302  0.0165  0.6827
 6580SOL    HW231374   0.138   0.898   2.065  1.1302 -1.1011 -0.9895
 6581SOL     OW31375   1.091   2.614   8.192 -0.3969  0.4752 -0.2968
 6581SOL    HW131376   1.145   2.617   8.271 -0.0406 -0.3699 -0.5107
 6581SOL    HW231377   1.056   2.526   8.205  0.9983  0.0044  0.2174
 6582SOL     OW31378   0.166   2.506   1.822 -0.3517  0.0769  0.3824
 6582SOL    HW131379   0.101   2.462   1.768 -0.4353 -0.2145  0.7173
 6582SOL    HW231380   0.184   2.586   1.773 -1.6697  1.6119  2.4218
 6583SOL     OW31381   3.808   1.875   7.770  0.3501  0.0122  0.0189
 6583SOL    HW131382   3.825   1.793   7.818 -0.6843 -0.2835 -0.1038
 6583SOL    HW231383   3.847   1.858   7.685 -0.8896  2.0919 -0.9388
 6584SOL     OW31384   0.630   4.218   4.703 -0.0667 -0.1246  0.5580
 6584SOL    HW131385   0.602   4.130   4.681  1.7612 -0.6574  0.3867
 6584SOL    HW231386   0.710   4.199   4.752 -0.0134 -4.0419 -1.1096
 6585SOL     OW31387   2.331   2.046   4.134 -0.1739  0.3530  0.4457
 6585SOL    HW131388   2.299   2.010   4.217 -1.2783  3.3880  1.3661
 6585SOL    HW231389   2.267   2.009   4.074 -1.7845  0.7078  1.9685
 6586SOL     OW31390   3.226   0.853   7.973 -0.2058 -0.1515 -0.1571
 6586SOL    HW131391   3.171   0.888   7.903  0.0064 -2.4001 -1.4396
 6586SOL    HW231392   3.217   0.759   7.964  0.7646 -0.1843 -0.8757
 6587SOL     OW31393   0.512   1.907   1.559  0.6220  0.3517  0.2409
 6587SOL    HW131394   0.506   1.884   1.651 -1.0609 -1.9842 -0.4658
 6587SOL    HW231395   0.594   1.863   1.535  0.3643 -0.7462  1.3713
 6588SOL     OW31396   1.395   1.104   0.927 -0.3310 -0.9307 -0.1862
 6588SOL    HW131397   1.390   1.033   0.991 -0.5554 -0.7271  0.0247
 6588SOL    HW231398   1.464   1.073   0.869  0.2836 -0.8726  0.5209
 6589SOL     OW31399   0.479   3.998   4.647 -0.0884  0.6930 -0.4025
 6589SOL    HW131400   0.385   3.993   4.633  0.0029 -1.1272 -0.4422
 6589SOL    HW231401   0.510   3.937   4.579  0.0278  0.1850  0.1003
 6590SOL     OW31402   0.179   1.483   6.543  0.4662 -0.1574 -0.1342
 6590SOL    HW131403   0.205   1.509   6.631 -0.1368  2.1170 -0.6265
 6590SOL    HW231404   0.086   1.486   6.561  0.0666 -0.4638 -2.1393
 6591SOL     OW31405   4.055   0.276   6.927  0.2113 -0.4870 -0.6638
 6591SOL    HW131406   4.150   0.266   6.938  0.0524 -0.8374  0.3974
 6591SOL    HW231407   4.050   0.253   6.834  0.0943 -0.6575 -0.6159
 6592SOL     OW31408   0.613   3.375   7.144 -0.0866  0.7091  0.8002
 6592SOL    HW131409   0.671   3.303   7.122 -1.2107  0.4575 -1.3152
 6592SOL    HW231410   0.648   3.430   7.074  1.4642 -0.3573  0.7404
 6593SOL     OW31411   2.536   3.147   4.935 -0.4340 -0.0185  0.0136
 6593SOL    HW131412   2.484   3.215   4.893  0.2825 -0.7579 -2.1226
 6593SOL    HW231413   2.475   3.077   4.957 -0.6433  0.4874  1.0498
 6594SOL     OW31414   4.334   2.337  17.332  0.0616 -0.1954 -0.2552
 6594SOL    HW131415   4.256   2.391  17.347 -0.4183 -0.5009 -1.6666
 6594SOL    HW231416   4.325   2.316  17.239  2.4448  0.2180 -0.5945
 6595SOL     OW31417   3.535   2.096   0.768  0.5593 -0.0775 -0.3248
 6595SOL    HW131418   3.571   2.091   0.680  2.4275  1.1851  0.3692
 6595SOL    HW231419   3.609   2.056   0.815 -0.5181 -0.3615  1.1426
 6596SOL     OW31420   1.524   4.727   9.164 -0.2425  0.0503  0.2319
 6596SOL    HW131421   1.614   4.708   9.139 -0.1263  1.0723 -0.1358
 6596SOL    HW231422   1.545   0.032   9.250  2.2552 -2.8157  0.8461
 6597SOL     OW31423   0.286   0.861   8.805 -0.1475 -0.6889  0.3412
 6597SOL    HW131424   0.318   0.952   8.801  0.3299 -0.8366  0.8790
 6597SOL    HW231425   0.370   0.821   8.784  0.1862  0.4985 -0.6387
 6598SOL     OW31426   0.768   4.379   6.806 -0.1103  0.1067 -0.0018
 6598SOL    HW131427   0.741   4.409   6.893 -0.6501 -1.1971  0.2704
 6598SOL    HW231428   0.850   4.430   6.806  0.0491 -0.0943  3.6853
 6599SOL     OW31429   4.529   3.751   0.212  0.6273 -0.4260  0.0414
 6599SOL    HW131430   4.518   3.839   0.178  0.7422 -0.1184  0.7967
 6599SOL    HW231431   4.477   3.767   0.291  2.5561  1.1210  0.9982
 6600SOL     OW31432   2.818   1.831   0.182  0.2516 -0.8238 -0.4270
 6600SOL    HW131433   2.760   1.785   0.243 -1.6721  0.6527 -1.1419
 6600SOL    HW231434   2.877   1.867   0.249  1.2716  1.6128 -2.6566
 6601SOL     OW31435   0.212   0.776  15.214  0.0324  0.0714 -0.4668
 6601SOL    HW131436   0.166   0.853  15.182 -0.1358  1.0525  2.1208
 6601SOL    HW231437   0.166   0.701  15.177 -1.2712  0.0212  1.2576
 6602SOL     OW31438   4.257   0.576   6.690  0.5848  0.2770 -0.2387
 6602SOL    HW131439   4.293   0.512   6.751  0.0060  0.9124  0.7667
 6602SOL    HW231440   4.163   0.556   6.690  0.2712  1.7287  1.7486
 6603SOL     OW31441   4.020   1.672   5.829  0.0412 -0.1166 -0.4362
 6603SOL    HW131442   4.073   1.714   5.761 -1.3137 -0.6673 -1.8289
 6603SOL    HW231443   3.975   1.756   5.844  0.8116 -0.0955  1.7875
 6604SOL     OW31444   3.634   3.111   9.450 -0.0284 -0.3020  0.1663
 6604SOL    HW131445   3.588   3.036   9.412 -0.3173 -0.6949  1.2996
 6604SOL    HW231446   3.633   3.084   9.542 -0.9188  1.0457  0.5508
 6605SOL     OW31447   3.336   0.611  11.207  0.3803  0.3874  0.4336
 6605SOL    HW131448   3.370   0.627  11.119  0.7085 -1.6949  0.1644
 6605SOL    HW231449   3.415   0.574  11.247  1.4726  0.3631 -1.7657
 6606SOL     OW31450   1.986   3.300   9.670 -0.5551  0.2719  0.1527
 6606SOL    HW131451   2.046   3.293   9.595 -0.3082  4.7714 -0.0956
 6606SOL    HW231452   2.016   3.227   9.723  1.8095  1.2050  0.1207
 6607SOL     OW31453   4.538   0.308   6.763 -0.5185 -0.2419 -0.3662
 6607SOL    HW131454   4.620   0.352   6.785 -0.8659  0.6864 -0.9316
 6607SOL    HW231455   4.571   0.262   6.686  0.0854  1.2114 -0.9859
 6608SOL     OW31456   3.709   3.508   6.093 -0.1011 -0.0562 -0.3087
 6608SOL    HW131457   3.617   3.530   6.102 -0.1985 -0.0698 -1.2192
 6608SOL    HW231458   3.710   3.489   5.999 -0.0475  0.5289 -0.4280
 6609SOL     OW31459   3.897   3.268  17.367  0.4768  0.0301 -0.1699
 6609SOL    HW131460   3.981   3.296  17.329 -0.7073  1.4035 -1.7913
 6609SOL    HW231461   3.880   3.351  17.411  1.4678  0.2684 -0.2268
 6610SOL     OW31462   3.110   3.254   3.079  0.6525 -0.5369 -0.1188
 6610SOL    HW131463   3.144   3.315   3.144  1.2745  0.0902 -1.0349
 6610SOL    HW231464   3.046   3.210   3.135 -1.8057  1.6187 -1.2566
 6611SOL     OW31465   3.369   0.691   0.907 -0.8831 -0.7339 -0.3181
 6611SOL    HW131466   3.465   0.688   0.916 -0.7584 -2.4966 -2.2724
 6611SOL    HW231467   3.356   0.774   0.862 -0.2458 -0.8833 -0.7849
 6612SOL     OW31468   1.623   1.918   3.916  0.0194 -0.4469 -0.2639
 6612SOL    HW131469   1.537   1.912   3.874 -0.2198 -1.7518  0.4263
 6612SOL    HW231470   1.589   1.954   3.998  1.1415  1.1889 -0.5188
 6613SOL     OW31471   0.442   2.053  13.032  0.4952 -0.0074  0.4541
 6613SOL    HW131472   0.528   2.060  12.991 -1.2442  0.2421 -3.1127
 6613SOL    HW231473   0.466   2.055  13.125  1.3652  0.2137  0.2284
 6614SOL     OW31474   3.263   0.979   7.298  0.4147 -0.4199  0.1507
 6614SOL    HW131475   3.214   0.990   7.380  0.0946  0.6267 -0.1799
 6614SOL    HW231476   3.293   0.888   7.303  3.1310  0.3646 -2.1507
 6615SOL     OW31477   2.921   0.476   0.374 -0.1997  0.0467 -0.2306
 6615SOL    HW131478   2.919   0.385   0.404  0.1069 -0.0216 -0.4121
 6615SOL    HW231479   3.002   0.478   0.323 -0.3031 -0.4861 -0.4167
 6616SOL     OW31480   4.553   2.560  12.178  0.1315 -0.1421 -0.4389
 6616SOL    HW131481   4.472   2.519  12.209 -0.1078 -1.7926 -3.2097
 6616SOL    HW231482   4.520   2.595  12.096  0.0109 -1.5578 -0.9928
 6617SOL     OW31483   3.658   0.964  12.362  0.4705 -0.2741 -1.1823
 6617SOL    HW131484   3.582   1.010  12.395  1.3965  0.2515  0.2054
 6617SOL    HW231485   3.604   0.896  12.323  1.5559 -1.3386 -0.8329
 6618SOL     OW31486   3.918   2.707  12.746  0.4090  0.8044 -0.0313
 6618SOL    HW131487   3.869   2.762  12.807 -3.4566 -0.3088 -2.1809
 6618SOL    HW231488   3.849   2.669  12.693  2.1942 -0.9662 -1.0696
 6619SOL     OW31489   2.641   2.939  17.556 -0.0738 -0.1621 -0.1532
 6619SOL    HW131490   2.568   2.890  17.517  0.0403 -0.3126 -0.1783
 6619SOL    HW231491   2.712   2.918  17.495 -0.9018 -0.8213 -0.8974
 6620SOL     OW31492   1.768   2.907   8.083  0.2073  0.5232  0.0239
 6620SOL    HW131493   1.737   2.867   8.002  1.1385 -1.7177  0.7683
 6620SOL    HW231494   1.857   2.926   8.054 -0.2409 -0.5453 -2.0629
 6621SOL     OW31495   1.640   1.011   1.811 -0.3805 -0.3292  0.3916
 6621SOL    HW131496   1.643   0.925   1.852 -0.4409 -1.0387 -1.1088
 6621SOL    HW231497   1.597   1.065   1.877 -1.6235 -0.5149 -0.2822
 6622SOL     OW31498   4.474   3.478   2.795  0.5726 -0.2325  0.4257
 6622SOL    HW131499   4.566   3.450   2.792  0.3511 -0.9480  0.1437
 6622SOL    HW231500   4.425   3.396   2.785  2.7896 -1.5187  0.0245
 6623SOL     OW31501   2.692   1.512  17.463  0.1921 -0.0415  0.4591
 6623SOL    HW131502   2.645   1.549  17.538 -1.5883 -0.2404 -0.5801
 6623SOL    HW231503   2.780   1.550  17.476 -0.3687  1.1403  0.7987
 6624SOL     OW31504   0.472   3.763   9.274  0.1126 -0.4682 -0.1381
 6624SOL    HW131505   0.531   3.718   9.213 -0.5124 -0.9898 -0.3564
 6624SOL    HW231506   0.528   3.758   9.351  2.0910 -0.6871 -1.5953
 6625SOL     OW31507   4.267   0.289  10.242  0.4908  0.2855 -0.0368
 6625SOL    HW131508   4.318   0.281  10.161  0.1991  0.7239 -0.2633
 6625SOL    HW231509   4.217   0.368  10.222 -1.8851 -0.5790  2.6278
 6626SOL     OW31510   0.139   3.381   4.027  0.0737 -0.2872  0.4873
 6626SOL    HW131511   0.205   3.450   4.028 -0.0929 -0.1169 -0.5829
 6626SOL    HW231512   0.121   3.382   4.121 -2.0554  0.3887  0.0613
 6627SOL     OW31513   2.544   4.003   9.919  0.1440 -0.9396  0.1851
 6627SOL    HW131514   2.501   3.936   9.972  0.5339 -1.3298  0.0038
 6627SOL    HW231515   2.576   4.051   9.996 -1.5445 -0.0326  0.3333
 6628SOL     OW31516   1.414   1.603   3.842  0.3625 -0.0033 -0.2062
 6628SOL    HW131517   1.327   1.594   3.881  0.4099 -3.5622 -0.8581
 6628SOL    HW231518   1.434   1.511   3.821  0.3953 -0.5837  2.3267
 6629SOL     OW31519   2.987   3.304  15.132 -0.2701  0.1315 -0.5340
 6629SOL    HW131520   2.959   3.302  15.224  2.3512  1.7950  0.2779
 6629SOL    HW231521   3.060   3.365  15.130 -0.4772  0.3065 -2.7430
 6630SOL     OW31522   0.961   2.821   3.669  0.1832  0.0625  0.3517
 6630SOL    HW131523   1.005   2.873   3.601 -0.5149 -0.7312 -0.6971
 6630SOL    HW231524   0.869   2.837   3.651 -0.2231 -0.7843  1.6253
 6631SOL     OW31525   1.668   2.502  12.279 -0.1656 -0.0656 -0.1947
 6631SOL    HW131526   1.678   2.596  12.296  1.0826  0.1025 -1.7841
 6631SOL    HW231527   1.573   2.491  12.284 -0.1127  0.2612  1.3984
 6632SOL     OW31528   0.554   3.542   6.532  0.4175 -0.2111  0.2787
 6632SOL    HW131529   0.605   3.553   6.612  1.5213  0.9993 -0.5964
 6632SOL    HW231530   0.605   3.588   6.466  1.0963 -0.5098  0.6006
 6633SOL     OW31531   1.195   2.657   5.609 -0.1368 -0.9702  0.0964
 6633SOL    HW131532   1.155   2.626   5.690 -1.2663 -2.2878 -0.9744
 6633SOL    HW231533   1.180   2.580   5.554 -2.6482 -0.8602  0.6391
 6634SOL     OW31534   0.120   1.388   3.411 -0.1607  1.3794  0.1048
 6634SOL    HW131535   0.199   1.435   3.438 -0.5780  0.7764  2.4411
 6634SOL    HW231536   0.143   1.350   3.326 -0.2456  1.3780  0.0827
 6635SOL     OW31537   1.236   2.048   1.603 -0.5693 -0.1585  0.2396
 6635SOL    HW131538   1.163   2.105   1.581 -0.0587  0.8723  1.1923
 6635SOL    HW231539   1.204   1.965   1.569 -1.6331 -0.2552  1.4757
 6636SOL     OW31540   3.500   2.493  11.629 -0.4226  0.5371  0.2332
 6636SOL    HW131541   3.568   2.427  11.616 -1.2851 -0.1102 -0.9943
 6636SOL    HW231542   3.467   2.502  11.540  0.6382  1.4704 -0.0624
 6637SOL     OW31543   3.835   0.835   9.868 -0.3890  0.4275 -0.0856
 6637SOL    HW131544   3.745   0.836   9.836 -0.4012  2.5870  0.0047
 6637SOL    HW231545   3.818   0.872   9.955 -1.5316 -0.5880  0.1152
 6638SOL     OW31546   3.102   0.436   7.757  0.0703 -0.5871  0.1109
 6638SOL    HW131547   3.121   0.461   7.848 -0.7855  2.4845 -0.5458
 6638SOL    HW231548   3.188   0.458   7.720  0.3837 -1.5157  0.3002
 6639SOL     OW31549   1.440   4.276   7.373 -0.3710 -0.1310  0.2772
 6639SOL    HW131550   1.414   4.192   7.410  1.1977  0.2225  2.1473
 6639SOL    HW231551   1.372   4.286   7.306 -0.3598 -0.1836  0.2576
 6640SOL     OW31552   2.842   0.283   7.164 -0.2303 -0.7194 -0.3170
 6640SOL    HW131553   2.750   0.309   7.171 -0.0957 -0.4341  0.4127
 6640SOL    HW231554   2.881   0.363   7.200 -0.2747 -0.6972 -0.3182
 6641SOL     OW31555   3.870   0.491   1.474  0.4649  0.4779 -0.1500
 6641SOL    HW131556   3.915   0.573   1.494 -2.5024  1.2539  3.4937
 6641SOL    HW231557   3.815   0.530   1.407 -1.5183 -1.9709  0.0760
 6642SOL     OW31558   4.450   1.366  11.467  0.0431  0.0473  0.3801
 6642SOL    HW131559   4.394   1.324  11.532 -0.9387  1.6113  0.5474
 6642SOL    HW231560   4.524   1.394  11.521  2.1371 -2.7780 -1.0026
 6643SOL     OW31561   3.704   3.792   5.617  0.5217 -0.0843 -0.1085
 6643SOL    HW131562   3.638   3.746   5.670 -0.4630  1.7945  0.2899
 6643SOL    HW231563   3.668   3.881   5.614 -1.0841 -0.7969 -2.0719
 6644SOL     OW31564   2.223   2.949   7.773  0.0913 -0.5007 -0.1394
 6644SOL    HW131565   2.308   2.944   7.817 -0.1582  0.5967  0.4880
 6644SOL    HW231566   2.219   3.044   7.779 -0.1541 -0.6433  1.9419
 6645SOL     OW31567   3.393   3.414   6.514  0.5851  0.0110 -0.2713
 6645SOL    HW131568   3.469   3.472   6.523  0.4997  0.1049 -0.1536
 6645SOL    HW231569   3.404   3.364   6.595 -2.2185  1.8314  1.2114
 6646SOL     OW31570   0.019   4.506   2.877 -0.1366 -0.4122 -0.0380
 6646SOL    HW131571   4.728   4.506   2.970 -0.8389  1.2453 -0.2092
 6646SOL    HW231572   4.667   4.502   2.831 -0.5660  2.7026  0.4578
 6647SOL     OW31573   1.743   3.838   9.066  0.4122 -0.2471 -0.5303
 6647SOL    HW131574   1.830   3.817   9.101 -0.7918  0.6506  3.0357
 6647SOL    HW231575   1.751   3.932   9.086  0.4657 -0.1213 -1.1345
 6648SOL     OW31576   3.581   1.299   5.381 -1.4083  0.1584 -0.4121
 6648SOL    HW131577   3.561   1.333   5.468 -0.9134  0.3158 -0.3540
 6648SOL    HW231578   3.516   1.229   5.375 -0.2332 -0.9221 -0.5600
 6649SOL     OW31579   4.374   0.503   3.461  0.8744  0.1748  0.4638
 6649SOL    HW131580   4.383   0.420   3.507 -3.1732 -0.4133  0.1897
 6649SOL    HW231581   4.454   0.515   3.410 -0.7259 -2.4087 -2.5982
 6650SOL     OW31582   3.237   2.105   3.124  0.2329 -0.2928  0.8695
 6650SOL    HW131583   3.142   2.109   3.136  0.3880  2.6396  1.2101
 6650SOL    HW231584   3.251   2.196   3.096 -1.2577 -0.5722 -0.7116
 6651SOL     OW31585   2.206   2.385  11.451  0.0089  0.3074 -0.9222
 6651SOL    HW131586   2.210   2.451  11.382  1.2388  2.0836  0.8359
 6651SOL    HW231587   2.278   2.335  11.413  0.0674  0.7628 -1.4127
 6652SOL     OW31588   2.311   4.386  16.342  0.6543  0.1400 -0.1471
 6652SOL    HW131589   2.392   4.342  16.317  1.0403  2.0083 -2.2004
 6652SOL    HW231590   2.260   4.314  16.380 -2.4056  2.9210  1.0850
 6653SOL     OW31591   1.545   2.808  16.892 -0.0371  0.1432  0.1316
 6653SOL    HW131592   1.544   2.827  16.798  0.9855 -0.7918 -0.0595
 6653SOL    HW231593   1.610   2.739  16.886  1.0665  1.1319  0.8294
 6654SOL     OW31594   3.350   2.257  11.031 -0.2628  0.2156 -0.4784
 6654SOL    HW131595   3.316   2.251  10.942 -0.2278 -1.7119 -0.3664
 6654SOL    HW231596   3.385   2.169  11.040 -1.8618 -0.3433  0.3378
 6655SOL     OW31597   0.163   2.421   7.602 -0.4856 -0.2723  0.1622
 6655SOL    HW131598   0.176   2.342   7.549 -0.8779  0.3796 -0.9088
 6655SOL    HW231599   0.095   2.469   7.555 -0.3927 -0.7336 -0.4526
 6656SOL     OW31600   3.399   0.677   1.685 -0.2767 -0.0017 -0.2817
 6656SOL    HW131601   3.386   0.772   1.680  0.3695  0.1047  0.0089
 6656SOL    HW231602   3.495   0.675   1.688 -0.2494 -0.8428 -1.9238
 6657SOL     OW31603   0.027   1.061   6.808  0.7658  0.3652 -0.3113
 6657SOL    HW131604   0.067   1.048   6.722  0.3714  3.2608 -0.9347
 6657SOL    HW231605   4.704   1.138   6.797 -1.1763 -1.2119 -1.6232
 6658SOL     OW31606   1.379   4.113   4.584 -0.0671 -0.1985 -0.6352
 6658SOL    HW131607   1.312   4.071   4.639 -0.1399 -0.4493 -0.9133
 6658SOL    HW231608   1.325   4.183   4.548  3.2358  2.2574 -0.7759
 6659SOL     OW31609   1.405   0.117   8.125 -0.4428 -0.4387 -0.0698
 6659SOL    HW131610   1.346   0.051   8.090  0.1940  0.8490 -3.6342
 6659SOL    HW231611   1.484   0.067   8.146  1.0842  0.9206 -2.5054
 6660SOL     OW31612   0.398   0.064   6.068  0.1687 -0.1323  0.1270
 6660SOL    HW131613   0.323   0.010   6.045 -0.8986  0.5625  1.9925
 6660SOL    HW231614   0.435   0.031   6.150 -0.5195 -0.8223  0.1570
 6661SOL     OW31615   4.013   2.704   7.950  0.1386 -0.4541 -0.4756
 6661SOL    HW131616   3.981   2.665   8.031 -0.2474  0.5886 -0.1272
 6661SOL    HW231617   4.003   2.631   7.889 -1.7325  0.1271 -0.8535
 6662SOL     OW31618   0.022   2.664  17.318  0.5327 -0.3655  0.4581
 6662SOL    HW131619   4.708   2.658  17.402  1.8379  0.8345  1.2712
 6662SOL    HW231620   4.704   2.606  17.261  1.1378 -0.1234 -0.3125
 6663SOL     OW31621   2.931   0.661   4.923 -0.3816  0.1148  0.0666
 6663SOL    HW131622   2.905   0.683   4.833 -0.7044 -1.9652 -0.3508
 6663SOL    HW231623   2.955   0.570   4.905 -0.0024 -0.2342  2.3417
 6664SOL     OW31624   2.127   0.592   9.390  0.7653  0.2870  0.2150
 6664SOL    HW131625   2.213   0.630   9.376  0.5935  0.4287 -0.4698
 6664SOL    HW231626   2.153   0.505   9.362 -0.5451  0.1495 -0.5842
 6665SOL     OW31627   2.103   2.498   7.227  0.1134  0.4818  0.2786
 6665SOL    HW131628   2.080   2.492   7.319  1.6804  0.0270  0.6419
 6665SOL    HW231629   2.123   2.591   7.221 -0.5067  0.5772 -0.4160
 6666SOL     OW31630   3.164   4.589   6.358 -0.2263 -0.8215  0.0879
 6666SOL    HW131631   3.184   4.596   6.265 -0.7649 -1.0512 -0.0511
 6666SOL    HW231632   3.081   4.540   6.353 -0.3844 -0.5765  0.3480
 6667SOL     OW31633   3.992   0.597   4.102 -0.3976 -0.2124  0.4517
 6667SOL    HW131634   4.007   0.512   4.060 -0.5404 -0.4468  0.8805
 6667SOL    HW231635   4.025   0.577   4.189  0.6394 -0.6456 -0.0355
 6668SOL     OW31636   2.876   1.639  13.328 -0.6238 -0.0559  0.2352
 6668SOL    HW131637   2.969   1.662  13.335 -0.5112  0.1752 -2.0650
 6668SOL    HW231638   2.869   1.549  13.360  2.3564 -0.4302 -0.2097
 6669SOL     OW31639   0.642   0.761  15.521  0.3756  0.6843 -0.0255
 6669SOL    HW131640   0.589   0.792  15.594  0.9679  0.6456  0.4190
 6669SOL    HW231641   0.657   0.844  15.474 -1.9009  2.0180  1.6055
 6670SOL     OW31642   2.880   0.393   5.276  0.0699  0.1207  0.4927
 6670SOL    HW131643   2.859   0.446   5.352 -0.9825 -2.2246  1.8409
 6670SOL    HW231644   2.976   0.388   5.275  0.1324  1.4960  0.4859
 6671SOL     OW31645   4.362   1.971   8.244  0.4588  0.3319 -0.1908
 6671SOL    HW131646   4.376   1.912   8.170  0.7394 -0.2441  0.3181
 6671SOL    HW231647   4.387   2.058   8.215  0.3726  0.2421 -0.5305
 6672SOL     OW31648   2.061   2.007  11.407 -0.1745  0.1418 -0.5850
 6672SOL    HW131649   2.090   2.079  11.463  0.2601 -1.6168  1.4608
 6672SOL    HW231650   2.009   1.947  11.460 -1.3752  0.9462 -0.8779
 6673SOL     OW31651   3.342   0.923   6.704 -0.5385  0.2792 -0.2902
 6673SOL    HW131652   3.277   0.992   6.697 -2.8512 -1.8892 -0.1973
 6673SOL    HW231653   3.418   0.976   6.726 -0.7642  0.4690  0.0326
 6674SOL     OW31654   3.636   0.804   8.719  0.3588  1.0703 -0.0077
 6674SOL    HW131655   3.548   0.834   8.693  0.4092  0.4411 -0.9030
 6674SOL    HW231656   3.684   0.887   8.717 -0.3365  1.4357 -1.9882
 6675SOL     OW31657   4.703   1.132   4.345 -0.2750 -0.1492  0.2843
 6675SOL    HW131658   4.695   1.200   4.411  1.5327  0.9073 -0.5742
 6675SOL    HW231659   4.701   1.054   4.401 -1.2192  0.1733  0.7009
 6676SOL     OW31660   4.445   3.387   2.511 -0.7205 -0.1118 -0.1971
 6676SOL    HW131661   4.513   3.446   2.543 -2.0882  1.8285 -0.8130
 6676SOL    HW231662   4.487   3.301   2.508  0.5342  0.3924  3.0378
 6677SOL     OW31663   0.741   2.358   3.441  0.2844  0.3120  0.7727
 6677SOL    HW131664   0.746   2.265   3.466  2.1643  0.8988  2.5351
 6677SOL    HW231665   0.832   2.386   3.438  0.0221  1.3359  2.2413
 6678SOL     OW31666   4.459   4.682   3.533  0.3186 -0.1291  0.5377
 6678SOL    HW131667   4.475   4.668   3.440 -1.0494 -0.9622  0.4316
 6678SOL    HW231668   4.363   4.684   3.535  0.2809  0.7355 -2.0680
 6679SOL     OW31669   3.603   2.290  13.147  0.4384 -0.1902 -0.4109
 6679SOL    HW131670   3.599   2.197  13.168  1.4606 -0.2860 -0.6479
 6679SOL    HW231671   3.646   2.333  13.221  2.9304 -3.2532 -0.0837
 6680SOL     OW31672   3.444   3.993   7.540  0.0047 -0.3724 -0.0567
 6680SOL    HW131673   3.531   3.961   7.565 -0.5213 -0.6782  1.3790
 6680SOL    HW231674   3.458   4.022   7.450 -0.1334  0.8939  0.3364
 6681SOL     OW31675   3.713   4.210   2.470  0.1453  0.1229 -0.0250
 6681SOL    HW131676   3.663   4.291   2.459 -0.1684  0.0412  0.8334
 6681SOL    HW231677   3.762   4.209   2.388  0.6245 -0.7149  0.2635
 6682SOL     OW31678   2.166   1.597  11.035 -0.0586 -0.2874 -0.6565
 6682SOL    HW131679   2.258   1.596  11.060 -1.0259 -0.8838  2.9168
 6682SOL    HW231680   2.167   1.623  10.943  0.8162  0.8171 -0.3478
 6683SOL     OW31681   0.534   3.003   3.944  0.2900 -0.7195  0.2901
 6683SOL    HW131682   0.478   3.021   3.869 -0.3698 -0.7935  0.7561
 6683SOL    HW231683   0.484   3.028   4.022 -0.6015 -0.2608 -0.4242
 6684SOL     OW31684   3.029   3.410   2.094 -0.1169 -0.1944  0.4475
 6684SOL    HW131685   3.094   3.409   2.164 -0.0635 -1.8266  0.3555
 6684SOL    HW231686   2.957   3.452   2.142 -0.4136 -0.8804  0.5977
 6685SOL     OW31687   2.289   1.636   6.482 -0.2397  0.0569  0.3936
 6685SOL    HW131688   2.369   1.683   6.504  0.5397  0.0658 -2.3624
 6685SOL    HW231689   2.237   1.711   6.452  1.3278  0.6142 -0.9146
 6686SOL     OW31690   3.032   1.112   3.232 -0.5881 -0.6051 -0.3694
 6686SOL    HW131691   3.116   1.099   3.277 -0.6257  0.3015 -0.0374
 6686SOL    HW231692   2.979   1.156   3.299 -0.3000  1.1415 -1.2960
 6687SOL     OW31693   1.289   3.979   4.921  0.3099  0.7190 -1.1428
 6687SOL    HW131694   1.306   4.072   4.911  1.2677  0.7066  0.3032
 6687SOL    HW231695   1.381   3.955   4.910  0.2765  1.3546 -2.7537
 6688SOL     OW31696   2.232   4.030   2.833  0.1691 -0.3032  0.4178
 6688SOL    HW131697   2.150   4.073   2.857  0.8364  0.7101  0.9025
 6688SOL    HW231698   2.274   4.095   2.776 -1.6592 -0.6836 -1.3238
 6689SOL     OW31699   0.486   0.527  16.555  0.2300 -0.8971  0.0586
 6689SOL    HW131700   0.478   0.443  16.511 -0.3945  0.2286 -2.0015
 6689SOL    HW231701   0.537   0.502  16.632  2.4917  2.8913 -0.1589
 6690SOL     OW31702   2.458   3.285   3.655  0.5644  0.4428  0.4775
 6690SOL    HW131703   2.476   3.378   3.652  1.7605  0.2316  1.2798
 6690SOL    HW231704   2.513   3.264   3.730  1.8254  0.5424 -0.4184
 6691SOL     OW31705   1.374   4.568   6.028  0.1546  0.2207  0.1960
 6691SOL    HW131706   1.409   4.488   5.988  0.1435 -0.1516  0.9220
 6691SOL    HW231707   1.400   4.631   5.962  0.2155 -0.7238 -0.6799
 6692SOL     OW31708   3.670   1.936  15.425  0.7208 -0.1115  0.2093
 6692SOL    HW131709   3.693   1.873  15.356  0.4957  0.6159 -0.5382
 6692SOL    HW231710   3.732   2.007  15.407  0.6073 -0.1076 -0.1820
 6693SOL     OW31711   2.007   3.568  10.558  0.1528 -0.7566  0.0183
 6693SOL    HW131712   1.984   3.505  10.490 -1.7424  0.3931 -0.3867
 6693SOL    HW231713   2.092   3.541  10.594  0.4240  0.0079 -0.0592
 6694SOL     OW31714   3.571   4.490   8.874  0.2254  0.4105  0.8104
 6694SOL    HW131715   3.507   4.429   8.912  0.6988 -0.4866  0.1622
 6694SOL    HW231716   3.622   4.507   8.953 -1.5154  0.0151  2.0248
 6695SOL     OW31717   4.708   0.273   7.068  0.4847 -0.3423  0.2083
 6695SOL    HW131718   4.682   0.294   7.158  1.0197  0.1398  0.2508
 6695SOL    HW231719   0.001   0.356   7.029  0.4701  0.0812  1.1079
 6696SOL     OW31720   4.563   1.304   4.531 -0.1890 -0.1396 -0.2091
 6696SOL    HW131721   4.508   1.263   4.599 -1.1123  0.7817 -0.3990
 6696SOL    HW231722   4.504   1.315   4.456  0.5510 -1.2056 -0.9363
 6697SOL     OW31723   4.643   3.009   4.367  0.1811 -0.2720 -0.4578
 6697SOL    HW131724   4.668   3.063   4.442  2.3910  0.1886 -1.5015
 6697SOL    HW231725   4.665   3.069   4.296  2.8380  1.1887  1.6064
 6698SOL     OW31726   1.094   2.278   5.834 -0.0007 -0.0243 -0.0281
 6698SOL    HW131727   1.107   2.373   5.838  0.0959  0.0441 -2.1401
 6698SOL    HW231728   1.170   2.254   5.887 -0.3289  0.5344  0.6915
 6699SOL     OW31729   1.858   1.155   7.962 -0.0795  0.0844 -0.1977
 6699SOL    HW131730   1.942   1.194   7.987 -0.2456  0.3227 -0.0088
 6699SOL    HW231731   1.793   1.215   7.999 -0.9702 -0.5050 -0.7870
 6700SOL     OW31732   0.923   2.496  17.151 -0.3015 -0.0914 -0.0476
 6700SOL    HW131733   0.976   2.479  17.073 -0.9920 -0.5111 -0.4373
 6700SOL    HW231734   0.984   2.538  17.211 -0.6812 -0.5449  0.6592
 6701SOL     OW31735   0.904   2.756   9.991 -0.5050 -0.1941 -0.3058
 6701SOL    HW131736   0.830   2.730   9.937 -1.1467 -2.9641  1.9060
 6701SOL    HW231737   0.857   2.753  10.074  1.0280  1.3654  0.6449
 6702SOL     OW31738   0.252   3.856   8.836  0.1641  0.2504  0.5151
 6702SOL    HW131739   0.283   3.923   8.897 -0.5557  2.0803 -1.1310
 6702SOL    HW231740   0.218   3.915   8.770 -1.4790  0.2794  1.3695
 6703SOL     OW31741   2.484   0.516   4.167 -0.1978  0.0465  0.0522
 6703SOL    HW131742   2.497   0.455   4.095  1.1936  0.7464 -0.2924
 6703SOL    HW231743   2.463   0.450   4.233  1.1972  0.7474  1.2165
 6704SOL     OW31744   4.730   0.066   7.641 -0.0688 -0.2614 -0.0719
 6704SOL    HW131745   0.052   4.725   7.613 -1.0162  0.2755 -3.3262
 6704SOL    HW231746   4.641   0.032   7.630 -0.6789  0.7116  1.8321
 6705SOL     OW31747   3.124   1.876   5.220 -0.6855  0.1571  0.1096
 6705SOL    HW131748   3.186   1.905   5.286 -0.9685 -1.7211  1.2030
 6705SOL    HW231749   3.175   1.797   5.202  0.6010  1.1595 -0.7015
 6706SOL     OW31750   4.387   3.469   9.501 -0.0802  0.5021 -0.0475
 6706SOL    HW131751   4.378   3.536   9.568  5.5612 -0.8560  2.1448
 6706SOL    HW231752   4.445   3.405   9.544 -0.7423  0.3178  0.5703
 6707SOL     OW31753   4.649   1.867   5.601  0.3628 -0.0527  0.2027
 6707SOL    HW131754   4.609   1.954   5.604 -1.7746 -0.8720 -4.0592
 6707SOL    HW231755   4.648   1.841   5.509  0.2395 -0.9401  0.4551
 6708SOL     OW31756   0.501   1.010  15.297  0.6158  0.3180 -0.7232
 6708SOL    HW131757   0.572   1.057  15.340 -0.8507 -0.2341  2.2900
 6708SOL    HW231758   0.527   1.025  15.206 -0.1830  0.4036 -0.9383
 6709SOL     OW31759   4.716   1.049   8.695 -0.0417 -0.4284 -0.0319
 6709SOL    HW131760   0.024   1.002   8.768  0.9537  0.5919  0.0831
 6709SOL    HW231761   4.623   1.028   8.705 -0.1238 -0.2353 -0.3786
 6710SOL     OW31762   3.177   1.080   0.629  0.6419 -0.3646  0.1117
 6710SOL    HW131763   3.115   1.149   0.652  1.7496  0.3863  0.8732
 6710SOL    HW231764   3.215   1.119   0.550 -1.2088 -1.5947 -1.3670
 6711SOL     OW31765   0.112   0.640   8.089  0.1750  0.2924  0.0822
 6711SOL    HW131766   0.118   0.581   8.165 -2.1907  0.2125  0.2208
 6711SOL    HW231767   0.129   0.579   8.017  0.2171  1.4560 -0.8777
 6712SOL     OW31768   0.372   0.733  16.165 -0.4466 -0.1578 -0.3272
 6712SOL    HW131769   0.419   0.810  16.196 -0.6493 -0.2354  0.1719
 6712SOL    HW231770   0.348   0.756  16.075  1.3385  2.8492 -0.0434
 6713SOL     OW31771   2.530   2.408   6.846 -0.1041  0.7714 -0.3852
 6713SOL    HW131772   2.556   2.488   6.892  0.9592  0.7380 -0.9123
 6713SOL    HW231773   2.499   2.446   6.764 -2.1946  0.3497  0.2184
 6714SOL     OW31774   3.307   3.540   8.179 -0.3294  0.0655 -0.2794
 6714SOL    HW131775   3.366   3.526   8.105 -0.6038  0.7404 -0.6219
 6714SOL    HW231776   3.277   3.450   8.176  0.7194 -0.3774  2.0953
 6715SOL     OW31777   4.294   0.611   5.829 -0.0220  0.5013  0.1797
 6715SOL    HW131778   4.357   0.681   5.820 -1.4363  1.5288 -1.6827
 6715SOL    HW231779   4.351   0.552   5.879 -1.1744 -1.1138 -0.3878
 6716SOL     OW31780   3.834   4.590   1.697 -0.5498  0.3331 -0.2341
 6716SOL    HW131781   3.760   4.608   1.755 -0.5340  0.4714 -0.2568
 6716SOL    HW231782   3.890   4.553   1.765  0.1383  0.2310 -0.8532
 6717SOL     OW31783   2.490   1.065   3.508 -0.3985 -0.0166  0.1284
 6717SOL    HW131784   2.503   1.108   3.423  0.7647 -0.2642  0.1785
 6717SOL    HW231785   2.520   0.977   3.486  0.5222  0.5461 -0.8789
 6718SOL     OW31786   2.411   3.179  12.908 -0.1099  0.3957  0.2182
 6718SOL    HW131787   2.465   3.131  12.845 -1.1266 -0.9899  0.3898
 6718SOL    HW231788   2.382   3.256  12.859  0.3277 -1.2349 -2.6665
 6719SOL     OW31789   3.964   3.118   3.415  0.2861  0.4407  0.6299
 6719SOL    HW131790   3.901   3.075   3.357  0.4078 -0.6245  1.2914
 6719SOL    HW231791   3.901   3.175   3.458  0.2328  2.0002 -1.5089
 6720SOL     OW31792   4.563   3.011  12.415 -0.5682  0.3853  0.1561
 6720SOL    HW131793   4.631   2.943  12.412 -0.9581  0.1410 -3.1771
 6720SOL    HW231794   4.544   3.007  12.509  0.9381  1.2709  0.4995
 6721SOL     OW31795   2.396   2.291   3.922 -0.7585  0.7780  0.4646
 6721SOL    HW131796   2.464   2.315   3.986 -1.6622 -0.4488  1.8848
 6721SOL    HW231797   2.455   2.280   3.847  0.9195  0.0383  1.8859
 6722SOL     OW31798   3.758   4.288   6.392 -0.3766  0.4873 -0.2804
 6722SOL    HW131799   3.817   4.213   6.380  2.7696  2.6040  1.8329
 6722SOL    HW231800   3.679   4.243   6.422 -0.4831  0.5110 -0.5288
 6723SOL     OW31801   0.050   3.454  16.979 -0.0976  0.4669  0.2205
 6723SOL    HW131802   4.719   3.526  16.989 -3.1483 -1.9123 -2.1214
 6723SOL    HW231803   0.110   3.475  17.050  0.9236 -0.1754 -0.4619
 6724SOL     OW31804   3.143   0.225   8.078 -0.8168  0.5197 -0.0016
 6724SOL    HW131805   3.223   0.255   8.035  0.7015  0.1775  2.6197
 6724SOL    HW231806   3.085   0.301   8.081  0.8412  1.7868  0.0399
 6725SOL     OW31807   2.112   1.800  15.543 -0.1258  0.1919  0.1402
 6725SOL    HW131808   2.175   1.815  15.473  0.9600 -0.2999  0.9966
 6725SOL    HW231809   2.111   1.704  15.540 -2.9726  0.2153  0.7028
 6726SOL     OW31810   4.577   4.712   9.258 -0.0893 -0.2307 -0.2141
 6726SOL    HW131811   4.609   0.039   9.190  0.0792 -0.6365 -0.4918
 6726SOL    HW231812   4.632   0.005   9.332 -0.3547 -1.5635  0.4287
 6727SOL     OW31813   1.537   4.406   7.673 -0.0395 -0.0140  0.3115
 6727SOL    HW131814   1.616   4.423   7.622 -0.1129 -1.1262 -0.1696
 6727SOL    HW231815   1.476   4.467   7.631  0.2587  0.5191  0.6649
 6728SOL     OW31816   2.358   3.109  17.131 -0.2534 -0.2747  0.0294
 6728SOL    HW131817   2.347   3.203  17.115 -0.7152 -0.5582 -1.2771
 6728SOL    HW231818   2.324   3.106  17.221 -0.4276  0.7109 -0.0043
 6729SOL     OW31819   4.084   4.468   0.846 -0.1987  0.3406  0.0299
 6729SOL    HW131820   4.054   4.558   0.830 -1.0075  0.3252  1.4580
 6729SOL    HW231821   4.177   4.490   0.860  0.4044 -2.7205  0.8818
 6730SOL     OW31822   2.957   1.627  10.172  0.2659  0.5954 -0.3755
 6730SOL    HW131823   2.983   1.718  10.177  1.3988  0.2453 -0.0305
 6730SOL    HW231824   3.044   1.591  10.186  0.1436  1.1278  1.7267
 6731SOL     OW31825   0.296   3.895   3.163  0.1266 -0.2706 -0.3515
 6731SOL    HW131826   0.250   3.942   3.093  0.4508 -0.5239 -0.7319
 6731SOL    HW231827   0.379   3.940   3.151 -0.0617  0.2741  0.3845
 6732SOL     OW31828   2.322   1.517  14.481 -0.3605 -0.3383 -0.3423
 6732SOL    HW131829   2.413   1.545  14.480 -0.5407  0.2334 -0.6872
 6732SOL    HW231830   2.292   1.560  14.401  1.4261 -1.6902 -1.7380
 6733SOL     OW31831   4.068   2.399   3.792 -0.0998  0.8707 -0.0884
 6733SOL    HW131832   4.141   2.461   3.795 -2.2490  3.5588 -2.0932
 6733SOL    HW231833   4.077   2.378   3.699 -0.7932 -0.0363  0.0536
 6734SOL     OW31834   1.237   2.909   7.157 -0.1254 -0.2541  0.0224
 6734SOL    HW131835   1.164   2.971   7.161  0.0276 -0.0943  0.3053
 6734SOL    HW231836   1.240   2.893   7.063 -2.1012 -0.4474 -0.0280
 6735SOL     OW31837   3.043   0.105   5.236  0.6227 -0.6484 -0.3671
 6735SOL    HW131838   3.035   0.086   5.330 -1.7818  0.9032 -0.2582
 6735SOL    HW231839   3.085   0.190   5.238 -0.4809 -0.1126  0.0687
 6736SOL     OW31840   1.712   4.335   4.509  0.1549 -0.2627  0.2068
 6736SOL    HW131841   1.775   4.264   4.518 -1.3941 -1.4431  1.8090
 6736SOL    HW231842   1.757   4.414   4.537 -0.5147  0.6033 -1.1445
 6737SOL     OW31843   2.149   1.579   7.226 -0.3177 -0.1642 -0.4104
 6737SOL    HW131844   2.068   1.625   7.208 -0.0841  0.8882  1.2420
 6737SOL    HW231845   2.181   1.629   7.301 -0.5932  0.0944 -0.4688
 6738SOL     OW31846   2.434   4.646  11.311 -0.3024 -0.2031 -0.2574
 6738SOL    HW131847   2.474   0.000  11.302  0.0297 -0.2782  0.5069
 6738SOL    HW231848   2.384   4.653  11.392 -0.2100  0.2387 -0.2403
 6739SOL     OW31849   1.946   0.151  10.752  0.2248  0.1756  0.7506
 6739SOL    HW131850   1.941   0.073  10.697 -1.0825  1.6282 -1.2067
 6739SOL    HW231851   1.859   0.181  10.728  0.5111  0.6944  0.3571
 6740SOL     OW31852   0.480   0.653   6.272  0.4322  0.0929 -0.3693
 6740SOL    HW131853   0.559   0.603   6.293 -0.5947 -1.4463 -0.1633
 6740SOL    HW231854   0.505   0.689   6.186 -1.2812 -1.5931 -1.5608
 6741SOL     OW31855   0.459   1.185  14.224 -0.1034  0.0759  0.7065
 6741SOL    HW131856   0.388   1.238  14.189 -1.7887 -1.9060  1.1663
 6741SOL    HW231857   0.462   1.216  14.314  0.3907 -1.5410  1.2589
 6742SOL     OW31858   0.195   2.993   7.752  0.2568  0.3311  0.1480
 6742SOL    HW131859   0.130   2.935   7.713 -0.1781 -0.2284  1.6776
 6742SOL    HW231860   0.270   2.970   7.697 -0.5629 -1.5844 -0.1789
 6743SOL     OW31861   2.201   0.347   2.406  0.3495  0.3401 -0.2424
 6743SOL    HW131862   2.276   0.324   2.351  0.2388 -0.5149 -0.0472
 6743SOL    HW231863   2.222   0.292   2.481 -0.9748  2.4662  1.6481
 6744SOL     OW31864   1.441   3.939   4.045  0.3813  0.2642 -0.0927
 6744SOL    HW131865   1.489   3.902   4.120 -1.1508  0.8418  1.1603
 6744SOL    HW231866   1.400   4.017   4.080  1.9411  1.5950 -1.2272
 6745SOL     OW31867   2.515   1.371  10.902  0.0326  0.1108 -0.5640
 6745SOL    HW131868   2.552   1.308  10.840  1.3836  2.3246 -1.9799
 6745SOL    HW231869   2.423   1.350  10.888  0.3672 -2.2152  0.7171
 6746SOL     OW31870   1.953   0.770  17.477 -0.0971 -0.5158  0.1881
 6746SOL    HW131871   1.945   0.845  17.535 -1.3925  0.0358 -0.6996
 6746SOL    HW231872   2.042   0.771  17.442  0.6374 -0.0534  2.1251
 6747SOL     OW31873   3.294   0.128   2.506 -0.1888  0.5064  0.3184
 6747SOL    HW131874   3.279   0.192   2.576  2.7025 -1.3974  2.6332
 6747SOL    HW231875   3.223   0.068   2.529  0.2395  0.5336  1.6965
 6748SOL     OW31876   1.452   2.603  10.120  0.7268 -0.5049  0.2826
 6748SOL    HW131877   1.438   2.594  10.214  0.0912  1.2703  0.3603
 6748SOL    HW231878   1.361   2.627  10.102  0.7132 -0.1448  0.8123
 6749SOL     OW31879   2.171   2.336   8.628 -0.2458 -0.4677 -0.3240
 6749SOL    HW131880   2.176   2.266   8.562 -0.4215  0.4453 -1.2986
 6749SOL    HW231881   2.132   2.288   8.701  0.8836 -0.6472  0.1752
 6750SOL     OW31882   2.705   1.479   6.150  1.0256  0.0803 -0.5111
 6750SOL    HW131883   2.713   1.397   6.101  1.8456  0.5525 -1.1558
 6750SOL    HW231884   2.740   1.536   6.083 -2.2706  1.6590 -0.9055
 6751SOL     OW31885   3.212   3.094   4.484  0.2894  0.5596  0.3531
 6751SOL    HW131886   3.186   3.026   4.546 -0.9073 -1.5005 -2.4258
 6751SOL    HW231887   3.305   3.102   4.505  0.4764  0.4287 -0.4304
 6752SOL     OW31888   3.836   1.696  14.944 -0.1571 -0.0262  0.1519
 6752SOL    HW131889   3.830   1.715  14.850 -0.1707  1.9916  0.5681
 6752SOL    HW231890   3.809   1.606  14.928  1.4423 -0.8458  2.1067
 6753SOL     OW31891   1.596   1.403  12.534  0.4754 -0.5093 -0.2620
 6753SOL    HW131892   1.683   1.390  12.572  1.1436 -0.7048 -1.8512
 6753SOL    HW231893   1.622   1.460  12.462  2.5373 -0.2700  0.6592
 6754SOL     OW31894   2.936   4.197   4.368 -0.3679 -0.5068  0.4965
 6754SOL    HW131895   3.012   4.195   4.310 -2.3083 -1.3794 -1.9971
 6754SOL    HW231896   2.956   4.127   4.430  1.0183 -0.7469 -0.2369
 6755SOL     OW31897   3.643   2.355  16.905 -0.2970 -0.1286  0.3947
 6755SOL    HW131898   3.690   2.335  16.986  0.9891 -0.9099 -0.5509
 6755SOL    HW231899   3.606   2.442  16.918 -2.4097 -1.3461  2.6990
 6756SOL     OW31900   4.403   2.123   2.713  0.1350 -0.1345 -0.0461
 6756SOL    HW131901   4.382   2.137   2.620  1.5309  1.8558 -0.0783
 6756SOL    HW231902   4.496   2.145   2.701 -0.1464  0.8928 -0.2856
 6757SOL     OW31903   2.539   3.179   7.773  0.1305  0.7625 -0.5253
 6757SOL    HW131904   2.521   3.089   7.802  0.1387  0.5375 -1.2205
 6757SOL    HW231905   2.606   3.161   7.707 -0.7822 -0.7345 -1.0536
 6758SOL     OW31906   1.742   0.510   1.686  0.3633 -0.4312 -0.0194
 6758SOL    HW131907   1.783   0.591   1.655  0.1181 -0.1488  0.3896
 6758SOL    HW231908   1.679   0.503   1.614  0.7817 -1.9047 -0.2260
 6759SOL     OW31909   1.263   0.394  13.807  0.1022 -0.1996 -0.3290
 6759SOL    HW131910   1.294   0.481  13.830  1.8357 -0.6980 -0.7563
 6759SOL    HW231911   1.329   0.339  13.849  0.3546  0.5208  0.2262
 6760SOL     OW31912   1.461   0.356   2.030 -0.3169  1.0298 -0.4415
 6760SOL    HW131913   1.484   0.289   1.966  1.7321  0.0330  1.3151
 6760SOL    HW231914   1.455   0.435   1.977 -0.5195  0.1285 -1.7722
 6761SOL     OW31915   0.276   2.939   8.003  0.4855  0.9466 -0.5453
 6761SOL    HW131916   0.353   2.995   8.018 -0.2829  2.0235 -0.6051
 6761SOL    HW231917   0.252   2.970   7.916  1.5555  1.6558 -0.5897
 6762SOL     OW31918   3.307   2.413   7.572 -0.2545  0.8030  0.3442
 6762SOL    HW131919   3.353   2.329   7.570 -0.8734  0.4969 -0.8768
 6762SOL    HW231920   3.268   2.422   7.485 -0.0289 -2.9792 -0.1542
 6763SOL     OW31921   3.127   3.693  12.975 -0.0864  0.2572 -0.2471
 6763SOL    HW131922   3.159   3.605  12.995  1.1934  1.0155  0.9958
 6763SOL    HW231923   3.072   3.727  13.044  0.7875  0.9983  0.0860
 6764SOL     OW31924   3.236   0.255   8.665  0.9513  0.3433 -0.0196
 6764SOL    HW131925   3.307   0.292   8.614  1.6079 -1.0873 -0.1409
 6764SOL    HW231926   3.204   0.184   8.609 -0.5665  2.1369 -1.4366
 6765SOL     OW31927   1.837   2.959  10.403 -0.2237  0.8418  0.5099
 6765SOL    HW131928   1.746   2.983  10.387  0.4438  1.8895 -1.7951
 6765SOL    HW231929   1.876   2.985  10.319 -1.3849 -0.6050 -0.4893
 6766SOL     OW31930   3.278   1.355   4.485 -0.1065  0.0322 -0.2700
 6766SOL    HW131931   3.362   1.351   4.439 -1.1359 -0.3036 -2.1596
 6766SOL    HW231932   3.249   1.440   4.453 -1.4053 -0.4392 -0.3526
 6767SOL     OW31933   2.886   1.134   2.770  0.0060 -0.1106 -0.1791
 6767SOL    HW131934   2.882   1.041   2.789 -3.2531 -0.2719 -1.7396
 6767SOL    HW231935   2.919   1.129   2.680 -0.3110 -0.3255 -0.2792
 6768SOL     OW31936   2.406   3.474   3.952  0.3770 -0.1366  0.6977
 6768SOL    HW131937   2.364   3.470   4.038 -0.5389 -0.7659  0.2204
 6768SOL    HW231938   2.334   3.524   3.912 -1.3538  0.4660  4.5411
 6769SOL     OW31939   1.795   3.721  11.343  0.1432  0.2358 -0.2088
 6769SOL    HW131940   1.807   3.786  11.412 -0.3809  0.9278 -0.7719
 6769SOL    HW231941   1.722   3.671  11.377 -0.4880  1.2877 -0.0138
 6770SOL     OW31942   0.798   1.438   5.123  0.2653  0.2416 -0.1650
 6770SOL    HW131943   0.723   1.401   5.169  1.3845 -1.7635  0.0335
 6770SOL    HW231944   0.825   1.363   5.071 -2.4113 -0.3990 -0.6183
 6771SOL     OW31945   4.367   2.425   2.020  0.0262  0.0097  0.1959
 6771SOL    HW131946   4.432   2.456   1.956  0.9597 -0.7272  0.7860
 6771SOL    HW231947   4.386   2.472   2.101  0.5619  0.5472 -0.2379
 6772SOL     OW31948   1.056   0.300  13.327  0.0658  0.2371  0.4078
 6772SOL    HW131949   1.066   0.288  13.421  1.4312 -2.5893 -0.0779
 6772SOL    HW231950   1.091   0.389  13.324  2.2148 -0.5738  1.6243
 6773SOL     OW31951   0.213   1.905   2.013 -0.2812  0.5151 -0.1059
 6773SOL    HW131952   0.272   1.967   1.969 -1.7611  1.6892 -0.4329
 6773SOL    HW231953   0.130   1.950   1.997 -0.2391  1.2084  1.7140
 6774SOL     OW31954   0.791   1.191   7.426  0.3452  0.4200 -0.4561
 6774SOL    HW131955   0.831   1.171   7.511 -1.9016 -1.0776  0.2538
 6774SOL    HW231956   0.729   1.119   7.415  1.7619 -0.6111 -1.6784
 6775SOL     OW31957   1.155   2.891   0.944 -0.4222  0.0733  0.2256
 6775SOL    HW131958   1.161   2.838   0.865 -1.1120 -2.1240  1.6497
 6775SOL    HW231959   1.168   2.838   1.023  1.2346 -0.1541 -0.2077
 6776SOL     OW31960   0.384   3.813   7.938  0.2076  0.8335 -0.3643
 6776SOL    HW131961   0.299   3.826   7.980  1.1998 -1.7261  2.4343
 6776SOL    HW231962   0.380   3.725   7.899 -3.0550  0.6457  0.3860
 6777SOL     OW31963   3.616   4.060  11.290  0.1511  0.0709  0.1454
 6777SOL    HW131964   3.631   3.979  11.339 -0.3324 -0.3731 -0.4459
 6777SOL    HW231965   3.583   4.121  11.356  0.3146  1.4951 -1.0973
 6778SOL     OW31966   3.454   0.749   8.134  0.5834 -0.4469 -0.1827
 6778SOL    HW131967   3.385   0.685   8.153 -0.3410  0.5505 -0.1845
 6778SOL    HW231968   3.527   0.716   8.186 -0.1254 -0.0751  1.0704
 6779SOL     OW31969   3.101   0.776  10.723 -0.1572 -0.5023  0.0916
 6779SOL    HW131970   3.142   0.694  10.694 -0.0608 -0.0993 -0.8869
 6779SOL    HW231971   3.160   0.798  10.795 -0.6866 -3.0902  1.3479
 6780SOL     OW31972   2.444   1.858   2.642  0.1272  0.2739 -0.1701
 6780SOL    HW131973   2.396   1.896   2.716  0.4842  1.3829 -0.5090
 6780SOL    HW231974   2.377   1.816   2.586  0.8345  0.2137 -0.9653
 6781SOL     OW31975   2.273   2.847   4.367 -0.2665 -0.4319  0.4699
 6781SOL    HW131976   2.247   2.794   4.442 -2.2549  0.4709  0.4206
 6781SOL    HW231977   2.265   2.771   4.309  0.1519  0.1593 -0.3686
 6782SOL     OW31978   3.777   3.225   1.876 -0.1493  0.0011  0.3724
 6782SOL    HW131979   3.775   3.142   1.829 -4.7498 -0.1167  0.7259
 6782SOL    HW231980   3.741   3.282   1.808 -1.3880 -0.5071  0.6066
 6783SOL     OW31981   2.298   1.817  15.373  0.2454  0.2540  0.3261
 6783SOL    HW131982   2.313   1.827  15.279 -2.1974 -0.5108 -0.1301
 6783SOL    HW231983   2.386   1.796  15.406  0.1783 -1.5637 -0.6336
 6784SOL     OW31984   2.174   1.040   9.323  0.1960 -0.3137 -0.0381
 6784SOL    HW131985   2.185   0.946   9.331 -1.6310 -0.3451  2.1117
 6784SOL    HW231986   2.089   1.059   9.363  0.8916 -1.4720  2.0081
 6785SOL     OW31987   3.254   2.597   8.405  0.0872  0.3261  0.1024
 6785SOL    HW131988   3.293   2.646   8.477  2.1565 -3.5872  1.6513
 6785SOL    HW231989   3.302   2.631   8.329  1.3147  1.0767  1.2189
 6786SOL     OW31990   0.447   4.569   2.781  0.7428  0.4056  0.3504
 6786SOL    HW131991   0.475   4.596   2.869  1.0749 -0.7467  0.6009
 6786SOL    HW231992   0.526   4.599   2.735  0.3432 -3.6207 -2.9374
 6787SOL     OW31993   3.872   3.246   5.188 -0.1989 -0.2078 -0.3114
 6787SOL    HW131994   3.953   3.201   5.214  0.5868  0.1414 -2.1234
 6787SOL    HW231995   3.911   3.311   5.130 -0.4142  0.8108  0.6877
 6788SOL     OW31996   4.335   1.748   2.483 -0.0134  0.1575 -0.1751
 6788SOL    HW131997   4.376   1.687   2.544 -1.4872 -1.1945 -0.5566
 6788SOL    HW231998   4.349   1.694   2.406 -0.8896  0.0182 -0.2357
 6789SOL     OW31999   1.407   1.327   6.414 -0.4781 -0.0916 -0.0289
 6789SOL    HW132000   1.417   1.365   6.327  1.6724 -2.6117 -0.8623
 6789SOL    HW232001   1.379   1.237   6.402 -1.3448  0.0229  1.1198
 6790SOL     OW32002   4.118   3.898  15.072 -0.2102  0.3320  0.1070
 6790SOL    HW132003   4.067   3.902  14.991 -0.1477 -1.7348 -0.0406
 6790SOL    HW232004   4.143   3.990  15.080  3.0381 -0.3144 -2.9231
 6791SOL     OW32005   0.678   1.207   3.125  0.4319  0.1691  0.1444
 6791SOL    HW132006   0.630   1.185   3.205  2.0426  0.3259  1.1498
 6791SOL    HW232007   0.750   1.145   3.133  1.8870  1.6422 -1.6687
 6792SOL     OW32008   4.449   3.477  16.923 -0.1515 -0.0118 -0.0878
 6792SOL    HW132009   4.487   3.554  16.880  0.1340 -0.1724 -0.1276
 6792SOL    HW232010   4.378   3.518  16.972  0.0800  1.7256 -1.2131
 6793SOL     OW32011   4.731   1.533   9.404 -0.1200 -0.6210 -0.2262
 6793SOL    HW132012   0.076   1.571   9.362 -2.9518  4.2708 -1.0330
 6793SOL    HW232013   0.014   1.443   9.377 -0.3341 -0.5618 -0.5443
 6794SOL     OW32014   3.748   0.849   7.516  0.1613 -0.0075  0.4635
 6794SOL    HW132015   3.730   0.764   7.475 -1.1016 -0.3003  1.6419
 6794SOL    HW232016   3.769   0.824   7.606  0.0700  2.2672  1.1288
 6795SOL     OW32017   2.525   1.254  13.112  0.8273 -0.3848 -0.1294
 6795SOL    HW132018   2.594   1.321  13.100  1.8403 -1.1561  1.3908
 6795SOL    HW232019   2.536   1.205  13.031 -0.3408 -1.6645  0.4933
 6796SOL     OW32020   0.151   2.210   7.447  0.5334 -0.1434  0.4387
 6796SOL    HW132021   0.168   2.134   7.391 -1.9025 -1.1299  1.0367
 6796SOL    HW232022   0.090   2.257   7.390  0.7956  0.7804  0.9208
 6797SOL     OW32023   1.663   0.415   9.806 -0.1039  0.2017  0.0211
 6797SOL    HW132024   1.590   0.471   9.834  1.5595  0.4366  3.9386
 6797SOL    HW232025   1.642   0.326   9.831  1.4017 -0.1478  0.0443
 6798SOL     OW32026   1.825   0.778   4.465  0.5934 -0.0076 -0.1830
 6798SOL    HW132027   1.816   0.858   4.412  0.4175 -0.9428 -1.5443
 6798SOL    HW232028   1.815   0.811   4.555  0.1726 -1.8777  0.4443
 6799SOL     OW32029   1.573   0.644   3.521  0.1707 -0.1741  0.1605
 6799SOL    HW132030   1.544   0.672   3.609 -0.2951  2.7521 -0.9250
 6799SOL    HW232031   1.646   0.704   3.511 -0.2016  0.1363 -0.6616
 6800SOL     OW32032   0.606   4.145   6.826 -0.1177  0.2176  0.3541
 6800SOL    HW132033   0.626   4.235   6.852 -2.0231  1.2848 -1.8965
 6800SOL    HW232034   0.515   4.135   6.853 -0.2256  3.0978  1.0204
 6801SOL     OW32035   2.773   3.130   8.538  0.2742  0.7899 -0.0218
 6801SOL    HW132036   2.799   3.090   8.620  0.7175  2.1811  0.5254
 6801SOL    HW232037   2.851   3.117   8.483 -1.1897  0.9422 -2.1545
 6802SOL     OW32038   1.720   0.408   5.381  0.3320 -0.1524  0.3883
 6802SOL    HW132039   1.775   0.333   5.403  0.3284 -0.4606 -0.6219
 6802SOL    HW232040   1.703   0.447   5.467  3.3573 -0.0328  0.9041
 6803SOL     OW32041   2.023   1.306   7.309 -0.1993  0.3571 -0.7025
 6803SOL    HW132042   2.053   1.336   7.395 -1.0752  2.5487 -1.1431
 6803SOL    HW232043   2.044   1.382   7.255 -0.2338  0.8541 -0.0230
 6804SOL     OW32044   0.583   2.715   3.981 -0.2539  0.3096  0.2068
 6804SOL    HW132045   0.650   2.748   4.041  0.3678  1.0485 -0.8999
 6804SOL    HW232046   0.558   2.795   3.935  0.9519  1.8635  2.2362
 6805SOL     OW32047   4.160   3.708  13.254 -0.7495  0.2224 -0.5149
 6805SOL    HW132048   4.115   3.792  13.252 -1.3271 -0.1031 -1.4524
 6805SOL    HW232049   4.111   3.667  13.183  0.6608  1.1422 -2.0377
 6806SOL     OW32050   4.606   0.763   9.045 -0.2910  0.2209  0.2273
 6806SOL    HW132051   4.654   0.802   8.972 -0.2215 -1.6547 -0.7211
 6806SOL    HW232052   4.528   0.730   9.000 -0.0597 -1.1324  0.8284
 6807SOL     OW32053   3.665   3.563   6.590  0.0523  0.3187 -0.0256
 6807SOL    HW132054   3.753   3.602   6.587  0.5500 -0.7624  0.5209
 6807SOL    HW232055   3.607   3.637   6.572  1.2491  1.1975 -0.3101
 6808SOL     OW32056   4.566   2.483  17.208  0.6146  0.6284  0.4790
 6808SOL    HW132057   4.495   2.496  17.271 -0.6480 -0.9137 -0.6338
 6808SOL    HW232058   4.519   2.450  17.132  0.3668  0.6291  0.6343
 6809SOL     OW32059   3.949   1.203   0.354  0.2221 -0.2489  0.0514
 6809SOL    HW132060   3.943   1.217   0.449  2.8255  0.4511  0.1352
 6809SOL    HW232061   3.990   1.116   0.361 -1.0876 -0.8237  0.4456
 6810SOL     OW32062   0.357   4.584   5.409  0.3318 -0.0220 -0.0071
 6810SOL    HW132063   0.306   4.604   5.330  1.4208 -1.7260 -1.1343
 6810SOL    HW232064   0.412   4.662   5.409  0.4938 -0.1366 -1.4641
 6811SOL     OW32065   1.431   3.025   4.809 -0.0830 -0.4858 -0.2930
 6811SOL    HW132066   1.489   3.072   4.868 -0.1853 -0.9600  0.1796
 6811SOL    HW232067   1.461   2.937   4.829  1.3451  0.3434  1.1219
 6812SOL     OW32068   4.383   0.489   9.554  0.1414 -0.2901  0.4204
 6812SOL    HW132069   4.302   0.474   9.602  0.0773  0.2840  0.5000
 6812SOL    HW232070   4.352   0.487   9.463  1.8561  2.2311 -0.2162
 6813SOL     OW32071   1.458   3.237   5.577  0.3361 -0.2024  0.2395
 6813SOL    HW132072   1.362   3.235   5.576  0.3042  1.5102 -0.5210
 6813SOL    HW232073   1.469   3.159   5.523 -0.0735 -2.2985  3.2312
 6814SOL     OW32074   1.225   4.007   3.710  0.4679  0.4125  0.0449
 6814SOL    HW132075   1.268   3.924   3.731  0.3384 -0.2228 -2.1661
 6814SOL    HW232076   1.296   4.072   3.715  1.6685 -1.1736  3.0599
 6815SOL     OW32077   4.067   3.780   4.890 -0.0515  0.3608  0.1830
 6815SOL    HW132078   4.028   3.840   4.826 -1.4063 -0.2218  0.4751
 6815SOL    HW232079   3.998   3.718   4.911  0.0079 -1.1035 -4.0102
 6816SOL     OW32080   1.388   2.301   3.799  0.4896  0.1112  0.0133
 6816SOL    HW132081   1.433   2.237   3.744 -2.3629 -0.3389 -1.7530
 6816SOL    HW232082   1.460   2.344   3.847 -0.0559  0.0363  0.8896
 6817SOL     OW32083   2.490   2.665  10.454 -0.1480 -0.0763 -0.1198
 6817SOL    HW132084   2.407   2.704  10.428 -0.1802  0.5875  0.9833
 6817SOL    HW232085   2.520   2.622  10.374 -2.8238 -1.8238 -0.1776
 6818SOL     OW32086   1.389   3.832   8.359  0.4282 -0.1828  0.1276
 6818SOL    HW132087   1.378   3.812   8.452 -0.1053  0.3414  0.1738
 6818SOL    HW232088   1.416   3.753   8.312 -1.4091  0.4170 -1.9222
 6819SOL     OW32089   3.628   3.476  17.285 -0.1134  0.0360 -0.1880
 6819SOL    HW132090   3.610   3.538  17.214 -0.9425 -0.2435 -0.2232
 6819SOL    HW232091   3.718   3.496  17.312  0.0904 -0.6234 -0.3687
 6820SOL     OW32092   3.261   3.405   5.378  0.0693 -0.0144  0.0354
 6820SOL    HW132093   3.184   3.359   5.413 -0.7509  0.2941 -1.3657
 6820SOL    HW232094   3.231   3.487   5.340 -0.5169  0.2739  1.1143
 6821SOL     OW32095   3.833   4.728   4.128 -0.0531  0.5731  0.5684
 6821SOL    HW132096   3.926   0.011   4.113  0.3306 -1.9806  0.3781
 6821SOL    HW232097   3.812   4.644   4.087 -0.6253  0.4403  1.1249
 6822SOL     OW32098   0.842   0.034   8.274  0.1409 -0.6429  0.1244
 6822SOL    HW132099   0.756   0.075   8.280  0.8810  1.0460 -0.6429
 6822SOL    HW232100   0.908   0.104   8.270  0.7058 -1.1633  0.3880
 6823SOL     OW32101   1.679   1.101  10.271  0.6556 -0.1913  0.6726
 6823SOL    HW132102   1.652   1.193  10.280  0.0568 -0.3078  0.0320
 6823SOL    HW232103   1.638   1.073  10.189 -1.9801  1.4966  1.4005
 6824SOL     OW32104   0.230   4.720   9.748  0.2776  0.7654  0.6999
 6824SOL    HW132105   0.285   4.678   9.814  2.8072  2.7514 -0.1041
 6824SOL    HW232106   0.191   0.062   9.794 -0.5348  1.0447 -0.4292
 6825SOL     OW32107   1.409   1.316   2.282  0.2749 -0.7166  0.1347
 6825SOL    HW132108   1.377   1.226   2.282  0.6199 -0.8371  0.4247
 6825SOL    HW232109   1.329   1.368   2.271 -0.5468 -1.8545  0.7160
 6826SOL     OW32110   4.029   4.445   3.321  0.5393 -0.3394  0.2101
 6826SOL    HW132111   4.100   4.434   3.259 -0.4393 -0.9981 -0.8008
 6826SOL    HW232112   3.954   4.456   3.263 -0.7213  0.1901  1.9167
 6827SOL     OW32113   2.562   4.395   3.097 -0.2187  0.1169 -0.7501
 6827SOL    HW132114   2.494   4.447   3.055  0.4929  1.9049  0.2983
 6827SOL    HW232115   2.542   4.314   3.050 -3.1104 -0.2049  1.0729
 6828SOL     OW32116   0.734   3.364   2.621  0.1903  0.1562 -0.6542
 6828SOL    HW132117   0.700   3.438   2.571 -1.1246  0.6322  0.9264
 6828SOL    HW232118   0.809   3.400   2.669 -0.3256  0.4603 -0.0745
 6829SOL     OW32119   2.274   1.755  15.791  0.0826 -0.6010  0.1838
 6829SOL    HW132120   2.252   1.775  15.700  1.5209  0.0904 -0.0036
 6829SOL    HW232121   2.267   1.836  15.842  3.2432  0.0787 -0.5027
 6830SOL     OW32122   1.155   2.834   2.733 -0.4266  0.7277 -0.3852
 6830SOL    HW132123   1.127   2.904   2.792  2.0523 -0.7813  2.6073
 6830SOL    HW232124   1.105   2.764   2.775 -1.4120  1.4400 -0.3674
 6831SOL     OW32125   2.658   2.793   3.313 -0.1352 -0.5648 -0.0100
 6831SOL    HW132126   2.577   2.746   3.335 -0.2556  0.1837  1.1603
 6831SOL    HW232127   2.718   2.761   3.380  0.7560 -0.6889 -0.8738
 6832SOL     OW32128   0.753   3.621   4.109 -0.1013 -0.3507 -0.0570
 6832SOL    HW132129   0.800   3.573   4.042 -3.3849 -0.9337 -1.9653
 6832SOL    HW232130   0.662   3.622   4.079  0.8089  0.2058 -2.8007
 6833SOL     OW32131   1.731   4.384  11.442  0.0756  0.1004 -0.1333
 6833SOL    HW132132   1.722   4.479  11.432 -0.1781  0.3211  2.3368
 6833SOL    HW232133   1.642   4.368  11.410 -0.3602  0.5337  0.8865
 6834SOL     OW32134   0.362   2.448  11.259 -0.3342 -0.0086  0.6845
 6834SOL    HW132135   0.329   2.535  11.236 -1.3504 -0.2247  1.3373
 6834SOL    HW232136   0.419   2.480  11.329 -1.3811  0.1352  1.4661
 6835SOL     OW32137   2.872   2.369  17.635 -0.1350 -1.0855 -0.0956
 6835SOL    HW132138   2.884   2.429  17.562 -0.1417 -1.2002 -0.1909
 6835SOL    HW232139   2.777   2.376  17.640 -0.1197 -0.2700 -0.9905
 6836SOL     OW32140   0.255   3.913   9.292 -0.1265 -0.2583  1.2072
 6836SOL    HW132141   0.341   3.877   9.313 -0.1107  0.2828  2.0731
 6836SOL    HW232142   0.204   3.833   9.288 -2.1687  1.1722 -0.9930
 6837SOL     OW32143   2.713   3.281   6.374 -0.2557  0.0381 -0.5344
 6837SOL    HW132144   2.672   3.221   6.311 -2.7325  2.2022 -1.0038
 6837SOL    HW232145   2.676   3.365   6.345 -1.9651 -0.6415 -0.3482
 6838SOL     OW32146   3.110   3.193   5.142 -0.0832  0.4518 -0.0554
 6838SOL    HW132147   3.151   3.254   5.082  1.9196  1.0516  1.9048
 6838SOL    HW232148   3.183   3.134   5.160  0.4179  0.4351 -2.2459
 6839SOL     OW32149   0.754   4.014   8.239  0.2984  0.6328 -0.4079
 6839SOL    HW132150   0.757   4.110   8.233 -1.3277  0.7836  0.8286
 6839SOL    HW232151   0.672   4.008   8.289 -1.6499 -0.2750 -3.7077
 6840SOL     OW32152   2.609   0.942  13.534  0.1628  0.0951  0.5513
 6840SOL    HW132153   2.626   0.982  13.448 -0.9524  0.8826  0.7017
 6840SOL    HW232154   2.692   0.896  13.540 -0.8363 -1.4303  2.3902
 6841SOL     OW32155   3.243   0.659   3.226 -0.2057 -0.6443  0.1275
 6841SOL    HW132156   3.255   0.676   3.319 -0.1422  1.3393 -0.2303
 6841SOL    HW232157   3.331   0.633   3.197 -0.2606 -2.1077  1.3031
 6842SOL     OW32158   3.939   0.177   3.236  0.0362 -0.1677 -0.4451
 6842SOL    HW132159   3.970   0.172   3.146  0.6382 -1.6271 -0.1625
 6842SOL    HW232160   3.899   0.263   3.223 -1.3012 -0.3867  2.0902
 6843SOL     OW32161   2.887   4.474   0.500  0.3389 -0.6601 -0.0903
 6843SOL    HW132162   2.966   4.455   0.450  0.8164  2.0750 -0.3631
 6843SOL    HW232163   2.928   4.488   0.586  0.5238  0.7275 -0.4167
 6844SOL     OW32164   0.455   2.747  13.125 -0.2359  0.3090  0.9022
 6844SOL    HW132165   0.477   2.664  13.083 -0.8103 -0.0806  1.3823
 6844SOL    HW232166   0.531   2.773  13.176  0.1654  0.3682  0.2773
 6845SOL     OW32167   4.430   0.150  14.428 -0.1055  0.1785 -0.7597
 6845SOL    HW132168   4.362   0.102  14.381  0.2125  1.6532 -2.7664
 6845SOL    HW232169   4.449   0.086  14.496 -2.1294 -0.3170 -0.6834
 6846SOL     OW32170   1.711   3.322   3.819  0.0677  0.1996 -0.3013
 6846SOL    HW132171   1.647   3.278   3.875  0.1432 -1.4644 -1.5404
 6846SOL    HW232172   1.656   3.377   3.764  0.3723  0.0138 -0.7874
 6847SOL     OW32173   3.512   2.682   6.697 -0.5323 -0.5320  0.2997
 6847SOL    HW132174   3.478   2.669   6.609 -0.2777 -0.3415  0.1721
 6847SOL    HW232175   3.515   2.777   6.706 -1.0262 -0.6593  1.8174
 6848SOL     OW32176   0.581   3.462  15.424  0.5540  0.2320 -0.2986
 6848SOL    HW132177   0.582   3.383  15.370  0.2069 -1.2849  1.8940
 6848SOL    HW232178   0.494   3.451  15.464  0.4419 -0.0243 -0.6193
 6849SOL     OW32179   0.477   2.445  16.839  0.1138 -0.1307  0.1590
 6849SOL    HW132180   0.490   2.534  16.874 -1.2296 -0.4376  1.4242
 6849SOL    HW232181   0.415   2.460  16.768  1.3861  1.4674 -0.6254
 6850SOL     OW32182   2.654   2.484   3.307 -0.4403 -0.0876  0.2080
 6850SOL    HW132183   2.630   2.440   3.388 -1.9881  1.0845  0.3746
 6850SOL    HW232184   2.592   2.556   3.308  1.5255  1.5897  2.4065
 6851SOL     OW32185   3.679   1.419  12.377  0.3616 -0.0420 -0.0028
 6851SOL    HW132186   3.718   1.444  12.461  0.2049 -1.9675  0.6373
 6851SOL    HW232187   3.600   1.472  12.372 -0.7374 -1.6781  0.4479
 6852SOL     OW32188   4.371   1.687   1.102  0.0517 -0.2190  0.2513
 6852SOL    HW132189   4.351   1.615   1.042  0.8378 -0.7375  0.6170
 6852SOL    HW232190   4.426   1.753   1.060  2.9643 -2.7022  0.2109
 6853SOL     OW32191   0.681   0.541   3.237  0.5807  0.0638 -0.0881
 6853SOL    HW132192   0.605   0.598   3.247  0.3133 -0.3635  0.2795
 6853SOL    HW232193   0.636   0.459   3.218  0.4997 -0.2456  1.3907
 6854SOL     OW32194   4.271   1.459  13.235  0.0388  0.4194  0.5530
 6854SOL    HW132195   4.343   1.400  13.252  2.3066  2.7260 -1.0064
 6854SOL    HW232196   4.318   1.522  13.181  2.5685 -3.1794 -1.4052
 6855SOL     OW32197   2.211   0.799  16.346  0.5396 -0.0611  0.3476
 6855SOL    HW132198   2.202   0.723  16.289  1.1112 -1.4608  2.1343
 6855SOL    HW232199   2.175   0.865  16.287  1.6145  0.6065  0.4384
 6856SOL     OW32200   3.346   3.688   1.940  0.2507  0.5701 -0.0027
 6856SOL    HW132201   3.269   3.722   1.985  0.0782 -0.7260  0.6862
 6856SOL    HW232202   3.359   3.761   1.880 -0.1111  0.6058 -0.0381
 6857SOL     OW32203   1.924   0.638   8.051  0.9586 -0.1172  0.5000
 6857SOL    HW132204   1.833   0.657   8.076  1.1158 -0.4671  1.3367
 6857SOL    HW232205   1.926   0.711   7.990 -0.6139 -0.0483  0.5189
 6858SOL     OW32206   2.406   4.324   6.753  0.5939  0.1032  0.0125
 6858SOL    HW132207   2.320   4.316   6.795  0.3394  1.4336 -0.2575
 6858SOL    HW232208   2.455   4.252   6.791 -1.0249  0.1801  2.2798
 6859SOL     OW32209   1.509   1.174   7.405 -0.3994  0.2110  0.0154
 6859SOL    HW132210   1.462   1.248   7.442 -2.4407 -0.8896 -0.3880
 6859SOL    HW232211   1.577   1.221   7.357  0.7063 -2.0542 -0.6675
 6860SOL     OW32212   0.330   1.560   3.073  0.0450 -0.4730  0.0992
 6860SOL    HW132213   0.348   1.468   3.096  1.6338 -0.1772 -0.0111
 6860SOL    HW232214   0.351   1.597   3.158 -0.6997 -1.2480  0.6265
 6861SOL     OW32215   0.622   4.140  11.752  0.3346  0.0586 -0.1152
 6861SOL    HW132216   0.574   4.148  11.835  0.7447 -2.2739  0.3653
 6861SOL    HW232217   0.572   4.066  11.717 -0.2399  1.0772 -1.4625
 6862SOL     OW32218   1.954   3.246   5.968  0.5960 -0.0907 -0.2963
 6862SOL    HW132219   2.037   3.208   5.940  0.1915  0.8523 -2.7464
 6862SOL    HW232220   1.896   3.235   5.893 -0.0916 -1.2984  0.4054
 6863SOL     OW32221   3.830   4.635   7.016  0.0832 -0.0055 -0.0049
 6863SOL    HW132222   3.908   4.635   6.960  0.0947  0.8973  0.0097
 6863SOL    HW232223   3.752   4.628   6.961  1.1962  0.7410 -1.6881
 6864SOL     OW32224   2.992   3.973   5.703 -0.2659  0.1169  0.0075
 6864SOL    HW132225   3.085   3.976   5.679 -0.3495 -0.9118 -0.4185
 6864SOL    HW232226   2.956   4.018   5.626  4.0387 -0.2127 -2.2088
 6865SOL     OW32227   1.208   2.401   3.617  0.2062  0.4824  0.8134
 6865SOL    HW132228   1.155   2.471   3.654  0.1515 -0.3712  2.3749
 6865SOL    HW232229   1.256   2.367   3.692 -1.4830 -1.6562  0.9195
 6866SOL     OW32230   2.681   2.808  12.792  0.1432  0.5187  0.5007
 6866SOL    HW132231   2.771   2.831  12.816  1.3781 -2.1912 -1.5676
 6866SOL    HW232232   2.640   2.894  12.796 -0.2435  0.2876  1.5862
 6867SOL     OW32233   4.246   1.858   3.936 -0.5363  0.4429 -0.1611
 6867SOL    HW132234   4.167   1.832   3.984 -0.4172 -0.2749 -0.3520
 6867SOL    HW232235   4.265   1.770   3.902 -2.5229 -0.0462 -0.0403
 6868SOL     OW32236   1.729   1.427   4.412  0.1964  0.6191 -0.2818
 6868SOL    HW132237   1.684   1.471   4.340 -0.1424  0.5185 -0.1309
 6868SOL    HW232238   1.649   1.404   4.460  0.7752  0.6324  0.7061
 6869SOL     OW32239   4.463   4.388   3.337 -0.0489 -0.2414 -0.5494
 6869SOL    HW132240   4.474   4.384   3.242  0.5112 -0.1973 -0.4839
 6869SOL    HW232241   4.551   4.416   3.363 -0.7299 -0.0505  1.6042
 6870SOL     OW32242   1.575   3.827   3.596  0.2295  1.2871  0.2723
 6870SOL    HW132243   1.664   3.794   3.584 -0.6084 -0.0748 -2.3878
 6870SOL    HW232244   1.582   3.918   3.566  0.5163  0.6084 -1.7518
 6871SOL     OW32245   0.365   1.184   5.238 -0.5530 -0.3252  0.2004
 6871SOL    HW132246   0.357   1.115   5.173  2.4789  0.0976 -0.6167
 6871SOL    HW232247   0.282   1.232   5.240 -0.4357 -0.1111 -0.1714
 6872SOL     OW32248   2.525   1.856   7.240 -0.0069 -0.3514  0.3468
 6872SOL    HW132249   2.447   1.888   7.287  0.0454  1.0048 -0.4947
 6872SOL    HW232250   2.593   1.910   7.280  1.5803  0.3967 -3.3477
 6873SOL     OW32251   2.616   3.042   3.243  0.7054 -0.3020 -0.4635
 6873SOL    HW132252   2.571   3.021   3.160  0.1480 -2.3779  0.3579
 6873SOL    HW232253   2.650   2.956   3.270  2.9606  1.2281  1.5187
 6874SOL     OW32254   1.011   3.543   9.254  0.1537 -0.1306 -0.5872
 6874SOL    HW132255   0.921   3.526   9.282  0.3602 -3.0604 -1.6744
 6874SOL    HW232256   1.062   3.516   9.331  1.6728  1.4497 -1.0401
 6875SOL     OW32257   2.898   3.041  15.055 -0.0855 -0.4160 -0.2138
 6875SOL    HW132258   2.976   3.005  15.013  0.1410 -0.9878  0.6836
 6875SOL    HW232259   2.915   3.135  15.049  2.2580 -0.7954  0.4619
 6876SOL     OW32260   1.841   0.017   3.315  0.2109  0.2518 -0.1781
 6876SOL    HW132261   1.777   4.681   3.298  2.3817 -1.4090 -1.6718
 6876SOL    HW232262   1.852   0.013   3.410 -0.2929 -1.3386 -0.1961
 6877SOL     OW32263   2.543   3.121   2.466 -0.2081  0.5787  0.2501
 6877SOL    HW132264   2.563   3.188   2.531  0.0626  0.3231  0.4248
 6877SOL    HW232265   2.524   3.054   2.531 -0.3345 -0.0495 -0.4314
 6878SOL     OW32266   1.715   4.587   2.685 -0.1861 -0.4468  0.0695
 6878SOL    HW132267   1.664   4.538   2.750  0.0755 -0.2614  0.4145
 6878SOL    HW232268   1.649   4.616   2.622  0.2000  0.1683 -0.0500
 6879SOL     OW32269   0.849   2.089   8.553  0.1712  0.2263  0.0993
 6879SOL    HW132270   0.802   2.159   8.599  3.9359  1.2702  2.3216
 6879SOL    HW232271   0.788   2.015   8.560  0.3657 -0.1000 -1.6843
 6880SOL     OW32272   3.123   2.504  11.471  0.1521  0.0780  0.3634
 6880SOL    HW132273   3.031   2.530  11.464 -0.5076 -1.8624  1.9494
 6880SOL    HW232274   3.114   2.410  11.481 -0.0909  0.0388 -0.1797
 6881SOL     OW32275   0.338   4.017  14.620  0.0204  0.4944 -0.1814
 6881SOL    HW132276   0.399   3.968  14.565 -0.2789  3.2069 -2.8742
 6881SOL    HW232277   0.307   3.955  14.687 -0.5994  1.6318  0.5768
 6882SOL     OW32278   3.795   1.822   6.482 -0.2883  0.3058  0.1051
 6882SOL    HW132279   3.875   1.820   6.534 -0.5701  0.1167  0.5291
 6882SOL    HW232280   3.739   1.794   6.554 -0.3090  1.5852  0.5896
 6883SOL     OW32281   0.264   1.807   8.751  0.1537  0.8494  0.0863
 6883SOL    HW132282   0.247   1.713   8.753  2.1534  0.4352 -2.6944
 6883SOL    HW232283   0.322   1.806   8.827  1.0119 -1.4327 -0.6017
 6884SOL     OW32284   1.438   2.734   5.885  0.5634  0.1010 -0.2307
 6884SOL    HW132285   1.483   2.709   5.804 -2.0496  1.4358 -2.0576
 6884SOL    HW232286   1.511   2.724   5.946  1.2958 -1.2184 -1.3316
 6885SOL     OW32287   2.481   3.613   8.859 -0.5566 -0.2759  0.1179
 6885SOL    HW132288   2.478   3.696   8.811 -1.2466 -1.5112 -1.9594
 6885SOL    HW232289   2.478   3.553   8.785 -0.3521 -1.5108  1.1143
 6886SOL     OW32290   0.802   2.896  12.916 -0.8526 -0.1516  0.0742
 6886SOL    HW132291   0.846   2.839  12.979  0.6017  0.6402 -0.2261
 6886SOL    HW232292   0.869   2.961  12.897 -2.6489  1.7870  0.3032
 6887SOL     OW32293   2.461   0.501   7.350  0.0018  0.7250 -0.2385
 6887SOL    HW132294   2.548   0.524   7.384 -0.2419  2.0529 -0.4972
 6887SOL    HW232295   2.445   0.574   7.290  1.9411  1.1375 -0.2792
 6888SOL     OW32296   1.712   1.538   6.786  0.2732  0.1900 -0.4289
 6888SOL    HW132297   1.692   1.589   6.707 -2.5638  0.0338  0.1811
 6888SOL    HW232298   1.681   1.456   6.749  0.1625  0.5986 -1.2688
 6889SOL     OW32299   4.705   3.648   6.823 -0.4182  0.3041 -0.7202
 6889SOL    HW132300   4.729   3.732   6.860  2.1350 -0.7007 -0.1045
 6889SOL    HW232301   4.720   3.583   6.892 -3.2872  0.4265  0.0187
 6890SOL     OW32302   0.315   4.673  15.185 -0.0249 -0.5015 -0.4315
 6890SOL    HW132303   0.238   4.640  15.139 -0.8978  1.5199 -0.4012
 6890SOL    HW232304   0.338   0.018  15.134 -2.1421  0.9142  0.7638
 6891SOL     OW32305   3.138   0.166   4.413 -0.1378  0.7406 -0.1015
 6891SOL    HW132306   3.073   0.098   4.397 -1.4407  2.1776 -0.9932
 6891SOL    HW232307   3.137   0.224   4.337  3.6216  0.8418 -0.0431
 6892SOL     OW32308   4.309   4.695   5.663 -0.2322 -0.2601 -0.2578
 6892SOL    HW132309   4.350   0.048   5.647 -0.6459 -0.0760 -0.3240
 6892SOL    HW232310   4.285   4.694   5.756  1.4069 -0.6696  0.1742
 6893SOL     OW32311   1.382   4.134   7.119  0.1200 -0.1837 -0.6691
 6893SOL    HW132312   1.293   4.154   7.091  0.4243 -0.1343 -1.6269
 6893SOL    HW232313   1.355   4.101   7.204  1.4508  0.6617  0.0955
 6894SOL     OW32314   0.365   2.191  14.328  0.0666 -0.1368  0.2608
 6894SOL    HW132315   0.319   2.254  14.272  1.9219  1.1894  0.2075
 6894SOL    HW232316   0.370   2.116  14.270  0.6828 -0.2952  0.5213
 6895SOL     OW32317   1.806   3.343   3.297  0.7738 -0.2344 -0.7371
 6895SOL    HW132318   1.844   3.286   3.364  1.6928  1.3642  0.0980
 6895SOL    HW232319   1.883   3.390   3.267  0.8494  0.5668  0.6907
 6896SOL     OW32320   4.675   3.249   5.944 -0.1765 -0.4067  0.0147
 6896SOL    HW132321   4.706   3.270   6.032 -0.2575 -1.6638  0.3390
 6896SOL    HW232322   4.597   3.200   5.969 -0.3050  0.8589  2.0987
 6897SOL     OW32323   1.105   0.560   4.823  0.0597  0.1972  0.5202
 6897SOL    HW132324   1.018   0.576   4.858 -0.6418 -0.3540 -0.9622
 6897SOL    HW232325   1.104   0.549   4.728  0.1394 -0.5821  0.6108
 6898SOL     OW32326   3.336   2.671   7.224 -0.2879 -0.2783  0.1474
 6898SOL    HW132327   3.358   2.668   7.131  0.1560 -0.6988  0.2623
 6898SOL    HW232328   3.406   2.720   7.267 -1.3940  0.8339  0.6684
 6899SOL     OW32329   2.847   1.205   8.719  0.0967 -0.0638 -0.1372
 6899SOL    HW132330   2.919   1.265   8.699  0.2570 -0.0250  0.5776
 6899SOL    HW232331   2.907   1.131   8.720  1.4951  1.1211  1.4163
 6900SOL     OW32332   1.948   3.429   7.898 -0.1533  0.0100  0.2343
 6900SOL    HW132333   1.858   3.430   7.933  0.1025 -0.8495  0.9108
 6900SOL    HW232334   1.937   3.365   7.827  0.9519 -0.1199  0.1871
 6901SOL     OW32335   0.960   1.690  10.170  0.3551  0.3635 -0.5356
 6901SOL    HW132336   0.979   1.739  10.250  0.6934 -1.1802  0.3261
 6901SOL    HW232337   0.888   1.742  10.134  1.4227  1.9679 -0.3515
 6902SOL     OW32338   2.500   2.808  11.961  0.2642 -0.7633 -0.2121
 6902SOL    HW132339   2.540   2.788  11.876 -0.3477 -2.4964 -0.0846
 6902SOL    HW232340   2.490   2.903  11.956  0.7319 -0.7915 -1.6961
 6903SOL     OW32341   4.184   0.139   8.567  0.5799 -0.4190  0.0642
 6903SOL    HW132342   4.095   0.168   8.548  0.8194  1.8350  2.3784
 6903SOL    HW232343   4.194   0.046   8.545  1.3438 -0.5994  1.1298
 6904SOL     OW32344   2.525   2.469  17.086 -0.3506 -0.2462  0.4338
 6904SOL    HW132345   2.553   2.477  16.995 -3.3896  0.4116 -0.4401
 6904SOL    HW232346   2.440   2.425  17.082 -0.9969  1.3370 -3.6260
 6905SOL     OW32347   3.037   4.616   4.926 -0.6224 -0.4668 -0.1183
 6905SOL    HW132348   3.083   4.659   4.855  1.5088  0.1453  1.6349
 6905SOL    HW232349   3.118   4.586   4.966 -0.1162  1.1043  0.0203
 6906SOL     OW32350   1.440   2.232  15.889  0.4861 -0.4323 -0.4657
 6906SOL    HW132351   1.400   2.231  15.803 -0.1741 -0.5502 -0.1561
 6906SOL    HW232352   1.415   2.324  15.899  1.7544 -0.3669  2.2113
 6907SOL     OW32353   2.227   3.925  15.572 -0.4761  0.1584 -0.1470
 6907SOL    HW132354   2.272   4.001  15.608 -1.2041  0.7641 -0.5379
 6907SOL    HW232355   2.299   3.876  15.532 -1.1236 -1.7899  1.0653
 6908SOL     OW32356   0.174   0.541  17.502  0.9056 -0.0015  0.3919
 6908SOL    HW132357   0.086   0.566  17.473  2.1197  1.4240 -2.0668
 6908SOL    HW232358   0.195   0.477  17.434  1.8915  2.2431 -1.4160
 6909SOL     OW32359   0.379   0.110  12.405  0.0052  0.3954  0.0602
 6909SOL    HW132360   0.285   0.097  12.412  0.0757 -1.4825 -2.5046
 6909SOL    HW232361   0.397   0.192  12.451 -0.3641  1.1571 -1.1462
 6910SOL     OW32362   2.621   1.983   5.371  0.2095  0.3572 -0.2655
 6910SOL    HW132363   2.629   1.905   5.426  0.0400  0.8123  0.4126
 6910SOL    HW232364   2.712   1.994   5.343  0.5551  0.4285  0.8968
 6911SOL     OW32365   2.136   3.197  14.560 -0.0122  0.2247 -0.0437
 6911SOL    HW132366   2.047   3.179  14.530  0.2465  1.7301 -1.7077
 6911SOL    HW232367   2.127   3.293  14.557 -2.6577 -0.0727 -2.1019
 6912SOL     OW32368   1.728   2.397   6.939 -0.4582 -0.1419  0.4934
 6912SOL    HW132369   1.646   2.446   6.938 -1.8773 -2.5164  1.1398
 6912SOL    HW232370   1.790   2.469   6.954  0.1684 -0.3761 -0.9255
 6913SOL     OW32371   3.292   1.206   4.707  0.6027 -0.4598  0.0793
 6913SOL    HW132372   3.212   1.156   4.723  1.3593 -0.8281  2.8164
 6913SOL    HW232373   3.279   1.263   4.631  0.4343  0.5577  0.8669
 6914SOL     OW32374   3.858   4.060   6.261 -0.0778 -0.2087  0.4064
 6914SOL    HW132375   3.907   4.056   6.180 -0.9339 -0.3231 -0.1068
 6914SOL    HW232376   3.918   3.998   6.303  2.0235  1.5454  0.0105
 6915SOL     OW32377   4.324   0.370  10.948 -0.4710  0.1302 -0.9407
 6915SOL    HW132378   4.275   0.379  10.866 -0.3769 -0.3005 -1.0443
 6915SOL    HW232379   4.251   0.359  11.009  0.1092 -1.9525 -0.6337
 6916SOL     OW32380   3.540   4.714   1.544  0.4548  0.0003 -0.0610
 6916SOL    HW132381   3.514   0.074   1.537 -0.7742 -0.3362 -0.0278
 6916SOL    HW232382   3.631   4.727   1.520  0.2332 -1.2718 -1.5355
 6917SOL     OW32383   3.268   2.268   3.755 -0.2554  0.0344  0.6242
 6917SOL    HW132384   3.352   2.295   3.793  0.1539 -1.5363  0.8044
 6917SOL    HW232385   3.237   2.354   3.726 -1.5908  0.0016  1.9404
 6918SOL     OW32386   1.044   3.056   5.403  0.0919  0.4382  0.1107
 6918SOL    HW132387   0.960   3.018   5.376  0.5055 -0.2007 -0.2722
 6918SOL    HW232388   1.060   3.025   5.492 -0.1668 -1.7395 -0.5976
 6919SOL     OW32389   0.970   0.260   8.331  0.3416  0.5682  0.5959
 6919SOL    HW132390   1.058   0.235   8.301 -0.2107 -1.0732  0.3478
 6919SOL    HW232391   0.991   0.256   8.425 -1.4848  0.2315  0.9726
 6920SOL     OW32392   2.440   4.649   6.020  0.2574  0.3402  0.7001
 6920SOL    HW132393   2.416   0.006   6.046  0.0913 -0.0102  1.7343
 6920SOL    HW232394   2.356   4.602   6.024  0.8865 -0.9979 -1.6282
 6921SOL     OW32395   3.922   2.973  11.405  0.3187 -0.4541 -0.2848
 6921SOL    HW132396   3.897   2.971  11.313 -1.6857 -1.8927  0.2935
 6921SOL    HW232397   4.017   2.960  11.402  0.4655 -0.0112  2.0735
 6922SOL     OW32398   1.919   0.948   3.264 -0.1655 -0.3962  0.3351
 6922SOL    HW132399   1.984   0.932   3.195  1.0474  0.5876  1.2489
 6922SOL    HW232400   1.841   0.962   3.209 -0.7884 -1.3075  0.9933
 6923SOL     OW32401   0.892   3.504   3.694 -0.1187  0.2182 -0.5193
 6923SOL    HW132402   0.868   3.583   3.646  0.0631  1.4830  1.4616
 6923SOL    HW232403   0.916   3.447   3.621  0.0281 -0.0672 -0.2494
 6924SOL     OW32404   3.672   2.720   6.185  0.0881 -0.2132  0.1838
 6924SOL    HW132405   3.599   2.663   6.161  0.7662 -0.7013 -0.7132
 6924SOL    HW232406   3.721   2.702   6.105  1.0327 -0.1065  0.7458
 6925SOL     OW32407   0.202   0.536   0.467 -0.6832  0.1454  0.1452
 6925SOL    HW132408   0.214   0.620   0.422 -0.5544  0.8404  1.4578
 6925SOL    HW232409   0.292   0.506   0.475  0.4959  4.0615  1.9642
 6926SOL     OW32410   0.311   4.703   1.199 -0.2443  0.2746  0.2583
 6926SOL    HW132411   0.230   4.698   1.148  0.8491 -0.0926 -1.4060
 6926SOL    HW232412   0.370   4.725   1.128 -1.8679  0.9662 -0.8677
 6927SOL     OW32413   2.398   4.223   2.656 -0.1845  0.0140  0.6872
 6927SOL    HW132414   2.357   4.300   2.617 -0.5868 -0.0037  1.0755
 6927SOL    HW232415   2.489   4.252   2.655 -0.7838  1.9502  1.6357
 6928SOL     OW32416   3.722   0.662  11.657  0.1386 -0.3222  0.3281
 6928SOL    HW132417   3.657   0.608  11.614 -0.5934  0.7790  0.0471
 6928SOL    HW232418   3.799   0.610  11.682 -0.3239 -0.3347  1.7183
 6929SOL     OW32419   1.786   4.188   6.285  0.1551  0.7049 -0.4656
 6929SOL    HW132420   1.724   4.154   6.349 -0.8023  0.5624 -1.4639
 6929SOL    HW232421   1.759   4.279   6.268  1.1225  1.3533  1.4736
 6930SOL     OW32422   4.570   1.789  17.268  0.2144  0.0230 -0.4962
 6930SOL    HW132423   4.523   1.858  17.220  0.8103  0.1712 -0.8721
 6930SOL    HW232424   4.570   1.720  17.202 -0.5711 -0.1192 -0.3424
 6931SOL     OW32425   0.879   1.646   7.979  0.3869 -0.1645  0.4218
 6931SOL    HW132426   0.964   1.661   7.937 -0.4852  1.4368 -0.7790
 6931SOL    HW232427   0.823   1.711   7.938 -1.0917 -1.3327  0.5854
 6932SOL     OW32428   0.763   0.138   5.225  0.4895 -0.9755  0.6251
 6932SOL    HW132429   0.773   0.058   5.173  0.9436  0.2869 -1.2387
 6932SOL    HW232430   0.772   0.195   5.149 -1.2193  0.6566  1.6560
 6933SOL     OW32431   3.453   3.879  10.974  0.1964  0.1693  0.1279
 6933SOL    HW132432   3.476   3.950  10.913 -0.5639 -0.2377 -0.6272
 6933SOL    HW232433   3.539   3.871  11.016  0.5716  3.8569  0.0639
 6934SOL     OW32434   2.212   3.977   8.705 -0.7036  0.8184 -0.0205
 6934SOL    HW132435   2.120   3.956   8.690 -0.4552  0.9248 -1.6606
 6934SOL    HW232436   2.221   4.029   8.785 -1.1840 -1.1119  1.2927
 6935SOL     OW32437   1.830   3.886   6.625 -0.0532  0.6110 -0.0198
 6935SOL    HW132438   1.855   3.797   6.598 -0.6044  0.5768 -0.4038
 6935SOL    HW232439   1.774   3.852   6.695 -0.0465 -1.2852 -0.9390
 6936SOL     OW32440   1.998   0.720   5.968 -0.0240 -0.3999 -0.1862
 6936SOL    HW132441   1.987   0.773   6.047  1.9081  1.0206 -0.8636
 6936SOL    HW232442   1.958   0.635   5.987 -0.6889 -0.7216 -3.0494
 6937SOL     OW32443   0.299   4.395   4.317  0.1855  0.0504 -0.3357
 6937SOL    HW132444   0.358   4.372   4.389  0.4540  0.1320 -0.5265
 6937SOL    HW232445   0.341   4.344   4.248 -0.8040 -1.0818 -0.1065
 6938SOL     OW32446   4.583   1.287  17.020 -0.1695 -0.1542  0.0515
 6938SOL    HW132447   4.525   1.240  16.961  1.4868 -2.4168  0.1935
 6938SOL    HW232448   4.670   1.268  16.984 -0.0016 -1.0537  0.9285
 6939SOL     OW32449   2.458   1.989   3.052 -0.2111 -0.1279 -0.6310
 6939SOL    HW132450   2.533   1.930   3.067 -0.4809 -0.1790  0.5619
 6939SOL    HW232451   2.424   1.951   2.972 -1.3647 -1.5030  0.5065
 6940SOL     OW32452   3.180   1.174   1.789 -0.0914  0.3626  0.0247
 6940SOL    HW132453   3.202   1.264   1.763 -0.4776  0.8953  1.5670
 6940SOL    HW232454   3.203   1.180   1.882 -1.7464 -0.0513  0.4550
 6941SOL     OW32455   2.756   3.084  13.270 -0.2981 -0.1465 -0.2723
 6941SOL    HW132456   2.700   3.128  13.206  0.9885  0.3594 -1.0574
 6941SOL    HW232457   2.773   3.000  13.228 -1.8040  0.7008 -2.5863
 6942SOL     OW32458   3.824   2.911   6.684  0.2537 -0.2812  0.0310
 6942SOL    HW132459   3.843   2.988   6.631 -2.0154 -0.3232 -0.8314
 6942SOL    HW232460   3.738   2.900   6.644 -0.4848 -0.4940  1.6585
 6943SOL     OW32461   3.438   3.519   5.567 -1.1859  0.3442  0.2720
 6943SOL    HW132462   3.444   3.478   5.480  0.3230 -1.8275  1.4136
 6943SOL    HW232463   3.393   3.602   5.553  0.1441  1.0746  0.3023
 6944SOL     OW32464   2.969   1.189   5.243 -0.1863  0.1068 -0.2593
 6944SOL    HW132465   2.951   1.220   5.332 -0.2915 -1.0674  0.1337
 6944SOL    HW232466   3.004   1.103   5.267  1.5065  1.8438  3.6030
 6945SOL     OW32467   0.907   1.283   8.582  0.0315  0.4568  0.0197
 6945SOL    HW132468   0.893   1.279   8.487 -1.9586 -0.7239  0.3665
 6945SOL    HW232469   0.917   1.192   8.612  0.0773  0.2345 -0.6650
 6946SOL     OW32470   1.130   1.683  16.243  0.1701 -0.3347 -0.1833
 6946SOL    HW132471   1.067   1.754  16.229  0.3569  0.1725  1.5370
 6946SOL    HW232472   1.210   1.734  16.237  0.3424 -0.8938 -2.3711
 6947SOL     OW32473   2.943   3.864   6.556 -0.2614  0.4950  0.4700
 6947SOL    HW132474   2.974   3.945   6.598  2.3586 -0.3752  0.2327
 6947SOL    HW232475   2.913   3.893   6.470  0.0874 -1.0655 -0.1729
 6948SOL     OW32476   4.484   3.248  11.670 -0.0929  0.5903  0.3871
 6948SOL    HW132477   4.550   3.181  11.655  0.1201  0.9210 -0.1449
 6948SOL    HW232478   4.488   3.267  11.764 -0.2527 -0.3818  0.5949
 6949SOL     OW32479   0.454   1.565  14.307 -0.1940  0.6388 -0.2232
 6949SOL    HW132480   0.475   1.552  14.215 -3.5104  1.4109 -1.0768
 6949SOL    HW232481   0.360   1.577  14.301 -0.3625 -0.6660 -0.1735
 6950SOL     OW32482   0.625   3.966   7.917 -0.1850  0.3482 -0.0924
 6950SOL    HW132483   0.601   4.040   7.972 -0.0466  0.4592 -0.1813
 6950SOL    HW232484   0.536   3.932   7.903  0.0904  0.6419 -2.4721
 6951SOL     OW32485   3.288   2.298  10.730 -0.0676  0.2993  0.4052
 6951SOL    HW132486   3.196   2.325  10.727  0.2171  1.0319 -2.0266
 6951SOL    HW232487   3.309   2.317  10.638  0.2282  0.4811  0.5121
 6952SOL     OW32488   2.497   3.346   9.040  0.3941  0.3807 -0.0213
 6952SOL    HW132489   2.466   3.376   8.954  1.4927  0.1340 -0.5026
 6952SOL    HW232490   2.484   3.253   9.024  1.8364  0.1987 -0.0837
 6953SOL     OW32491   0.188   4.012   2.954 -0.2671 -0.0168  0.6791
 6953SOL    HW132492   0.094   4.016   2.936  0.3000  1.2108 -2.0633
 6953SOL    HW232493   0.208   4.083   2.893 -1.1508  0.2206  0.6627
 6954SOL     OW32494   0.227   0.111  14.821 -0.6246  0.0579  0.4870
 6954SOL    HW132495   0.177   0.115  14.903 -1.6351 -1.6340 -0.0356
 6954SOL    HW232496   0.247   0.202  14.804 -0.4285 -0.2630 -0.9395
 6955SOL     OW32497   2.453   1.198   5.864 -0.1227 -0.1219 -0.0349
 6955SOL    HW132498   2.381   1.219   5.923 -0.2276 -1.2333  0.2319
 6955SOL    HW232499   2.424   1.261   5.798 -0.9197  0.6131  1.0287
 6956SOL     OW32500   3.416   0.890   5.075 -0.1420  0.1013  0.0241
 6956SOL    HW132501   3.329   0.881   5.114 -0.0394 -2.8007 -0.4449
 6956SOL    HW232502   3.384   0.923   4.991  0.4737  1.0460  0.1640
 6957SOL     OW32503   4.665   1.364   9.692 -0.3518  0.0857  0.7851
 6957SOL    HW132504   4.670   1.326   9.604  0.7951  0.9104  0.5057
 6957SOL    HW232505   0.026   1.361   9.712  0.1966 -0.3697 -1.9289
 6958SOL     OW32506   4.190   0.181   0.277 -0.0663 -0.4980  0.8889
 6958SOL    HW132507   4.157   0.122   0.210 -2.1782  0.7864  0.7988
 6958SOL    HW232508   4.202   0.119   0.348  3.0377  0.0358  0.8237
 6959SOL     OW32509   1.129   4.089   2.406 -0.0264 -0.1432 -0.0724
 6959SOL    HW132510   1.113   4.086   2.311  0.3655  0.9637 -0.1740
 6959SOL    HW232511   1.098   4.007   2.444  3.4318 -1.7953 -0.8135
 6960SOL     OW32512   1.472   0.341  17.549 -0.2302 -0.5480 -0.0771
 6960SOL    HW132513   1.412   0.317  17.619  1.7247 -1.0328  1.4376
 6960SOL    HW232514   1.424   0.300  17.477  3.2471 -0.0049 -2.6914
 6961SOL     OW32515   4.220   0.508  10.050 -0.1523 -0.6651  0.3595
 6961SOL    HW132516   4.308   0.528  10.082  0.7609  0.8957 -3.1880
 6961SOL    HW232517   4.191   0.589  10.008  1.1086 -1.1363 -1.4104
 6962SOL     OW32518   1.808   3.248   2.986  0.0129  0.4775  0.6800
 6962SOL    HW132519   1.848   3.309   2.924  0.9848 -1.7986 -0.9384
 6962SOL    HW232520   1.787   3.169   2.935 -2.6548  0.5201  1.7005
 6963SOL     OW32521   0.581   3.750   2.707 -0.1060 -0.0075  0.3202
 6963SOL    HW132522   0.591   3.723   2.616  0.0889  0.4094  0.2213
 6963SOL    HW232523   0.555   3.840   2.689 -3.0814 -0.9689 -0.1862
 6964SOL     OW32524   2.146   3.499   8.610 -0.2679 -0.3187 -0.3290
 6964SOL    HW132525   2.108   3.577   8.651 -1.1788  0.8367 -3.3537
 6964SOL    HW232526   2.189   3.535   8.533 -0.5063 -0.0018 -0.3142
 6965SOL     OW32527   1.704   1.014   4.346 -0.4112 -0.3762 -0.1672
 6965SOL    HW132528   1.643   1.081   4.376 -0.4033  0.0233 -1.0270
 6965SOL    HW232529   1.652   0.935   4.361 -1.7535  1.1398  3.0154
 6966SOL     OW32530   3.820   2.768   2.498  0.1213  0.4468  0.2545
 6966SOL    HW132531   3.764   2.826   2.447 -2.4661  0.3597  2.9633
 6966SOL    HW232532   3.883   2.827   2.540  2.2850  0.5537 -3.1471
 6967SOL     OW32533   0.898   1.318   4.820 -0.2277  0.2092  0.1080
 6967SOL    HW132534   0.946   1.328   4.738  1.0378  2.4838  1.1268
 6967SOL    HW232535   0.807   1.315   4.789 -0.8642 -0.4894  2.0507
 6968SOL     OW32536   2.786   3.499   8.893  0.1780  0.1865 -0.1524
 6968SOL    HW132537   2.756   3.414   8.858 -1.2651  0.0261  1.5012
 6968SOL    HW232538   2.731   3.566   8.853 -1.4344  0.4532  2.5936
 6969SOL     OW32539   3.803   2.186   5.587  0.4197  0.6739  0.4529
 6969SOL    HW132540   3.795   2.275   5.553  1.0077  0.1079 -1.1643
 6969SOL    HW232541   3.819   2.135   5.508  0.4643  0.0077  0.8929
 6970SOL     OW32542   4.426   1.690   6.561 -0.3962 -0.1987 -0.1455
 6970SOL    HW132543   4.482   1.763   6.534  0.2392 -1.1024 -1.2761
 6970SOL    HW232544   4.381   1.734   6.633  2.1244 -0.5328  1.6267
 6971SOL     OW32545   4.164   4.297   6.535 -0.2844 -0.2964  0.2666
 6971SOL    HW132546   4.136   4.224   6.590 -1.2371 -0.0057  0.1662
 6971SOL    HW232547   4.232   4.336   6.590  1.0702 -1.3969 -0.6622
 6972SOL     OW32548   1.024   1.701   8.419  0.0190  0.0932 -0.1371
 6972SOL    HW132549   0.928   1.691   8.421 -0.1992  2.2118 -0.1435
 6972SOL    HW232550   1.036   1.758   8.496  0.2905 -2.1374  1.4762
 6973SOL     OW32551   2.843   3.040  11.696 -0.2918  0.0903 -0.7357
 6973SOL    HW132552   2.839   2.991  11.614  0.8957 -1.5330  0.1732
 6973SOL    HW232553   2.887   2.985  11.761  0.3695  0.1944 -1.0986
 6974SOL     OW32554   1.845   3.793  10.506  0.2941  0.4532  0.6122
 6974SOL    HW132555   1.779   3.768  10.442  1.9535  0.8007 -1.2309
 6974SOL    HW232556   1.906   3.720  10.503 -0.5282 -0.1913 -0.1580
 6975SOL     OW32557   3.727   2.959   7.810  0.1908  0.3160 -0.8193
 6975SOL    HW132558   3.699   2.901   7.881 -1.8605 -0.5219 -2.3236
 6975SOL    HW232559   3.666   3.032   7.816 -0.0022  0.1945 -1.3298
 6976SOL     OW32560   0.000   1.183   0.288 -0.0299 -0.2344 -0.0094
 6976SOL    HW132561   4.717   1.240   0.213  0.9237  0.4514  0.3064
 6976SOL    HW232562   0.043   1.101   0.263  0.0702 -0.2113  0.0839
 6977SOL     OW32563   3.961   3.120   6.556 -0.0191  0.1955  0.2760
 6977SOL    HW132564   4.006   3.092   6.476  1.4049 -1.7209  1.7554
 6977SOL    HW232565   4.030   3.098   6.619 -0.7907 -0.1725  0.9933
 6978SOL     OW32566   0.584   4.673  12.332  0.2961 -0.1184  0.0595
 6978SOL    HW132567   0.513   0.001  12.355 -0.3442 -1.4692  1.6640
 6978SOL    HW232568   0.577   4.611  12.405 -1.8543 -1.2028 -1.0606
 6979SOL     OW32569   2.872   3.318  15.418 -0.2478 -0.9814  0.5206
 6979SOL    HW132570   2.923   3.300  15.497  2.0561 -1.6861 -1.1449
 6979SOL    HW232571   2.802   3.369  15.460 -0.0012 -1.2146  1.2109
 6980SOL     OW32572   1.195   0.605   8.654 -0.5311  0.2457 -0.0953
 6980SOL    HW132573   1.260   0.665   8.616 -0.4874  2.0167  2.7693
 6980SOL    HW232574   1.239   0.526   8.685 -0.3328  0.1165 -0.6922
 6981SOL     OW32575   0.430   0.671  12.338  0.3448 -0.3357  0.3239
 6981SOL    HW132576   0.428   0.661  12.433  1.7783  1.2679  0.5414
 6981SOL    HW232577   0.347   0.717  12.331  0.8811  0.8627  1.7495
 6982SOL     OW32578   3.070   3.697   8.360 -0.0429  0.0704  0.2715
 6982SOL    HW132579   3.164   3.707   8.374  0.0665  0.2524 -0.5894
 6982SOL    HW232580   3.067   3.624   8.298  0.8173  0.8954 -0.7407
 6983SOL     OW32581   1.179   2.939   4.907 -0.1980 -0.2319 -0.1428
 6983SOL    HW132582   1.112   2.914   4.844  0.3604 -2.9107  0.3526
 6983SOL    HW232583   1.258   2.944   4.854  0.4428  0.7365  0.8896
 6984SOL     OW32584   1.394   4.176   0.725  0.1430 -0.3776 -0.1500
 6984SOL    HW132585   1.359   4.098   0.681  0.8920 -0.4990 -0.5244
 6984SOL    HW232586   1.473   4.193   0.673 -0.8762  2.1294 -0.9118
 6985SOL     OW32587   0.804   0.395  13.288  0.1897  0.2972  0.0276
 6985SOL    HW132588   0.882   0.361  13.331  2.3774  1.5241 -2.9206
 6985SOL    HW232589   0.764   0.445  13.359  1.6562  0.6570  0.5912
 6986SOL     OW32590   1.367   1.331   3.725  0.2104 -0.2300  0.2437
 6986SOL    HW132591   1.307   1.258   3.708 -0.8743  1.1432 -1.8627
 6986SOL    HW232592   1.417   1.289   3.794 -0.5629 -0.6597  0.5492
 6987SOL     OW32593   2.219   2.381   5.559  0.3977  0.3985 -0.5329
 6987SOL    HW132594   2.154   2.377   5.629 -0.3416 -2.2895 -1.3603
 6987SOL    HW232595   2.168   2.393   5.478  1.3255  1.4313 -0.9634
 6988SOL     OW32596   4.416   2.941  10.711  0.5109  0.1924 -0.7310
 6988SOL    HW132597   4.499   2.975  10.677  0.5884  1.6963  0.9776
 6988SOL    HW232598   4.435   2.853  10.742  0.6557  0.2088 -0.7719
 6989SOL     OW32599   2.928   3.362   4.907 -0.3799  0.5651 -0.1271
 6989SOL    HW132600   2.847   3.353   4.856  0.9323 -0.1373 -2.0568
 6989SOL    HW232601   2.981   3.389   4.832  0.5831  0.0724  0.3776
 6990SOL     OW32602   3.482   2.217   4.311 -0.5929 -0.5042 -0.1845
 6990SOL    HW132603   3.449   2.175   4.232 -0.3780 -0.5021 -0.2757
 6990SOL    HW232604   3.555   2.160   4.335 -1.5114 -1.0910  1.2194
 6991SOL     OW32605   2.831   1.781   2.772  0.3613 -0.2439  0.1423
 6991SOL    HW132606   2.922   1.752   2.763  0.3436 -0.4429  0.5653
 6991SOL    HW232607   2.837   1.862   2.823  0.6161 -0.7591  0.9449
 6992SOL     OW32608   2.494   0.928   4.245 -0.1010  0.8323  0.9091
 6992SOL    HW132609   2.582   0.955   4.218 -0.6471  1.5073 -0.1528
 6992SOL    HW232610   2.513   0.840   4.277  1.7035  1.3834  1.3526
 6993SOL     OW32611   3.333   3.851   5.847 -0.3282  0.1513  0.0140
 6993SOL    HW132612   3.423   3.870   5.874 -0.2227 -0.6303  0.2146
 6993SOL    HW232613   3.281   3.911   5.901 -1.6499  0.4433 -1.5592
 6994SOL     OW32614   2.794   2.622  10.212  0.8115 -0.0508 -0.0887
 6994SOL    HW132615   2.841   2.663  10.140 -1.6342  4.0980  0.6946
 6994SOL    HW232616   2.840   2.659  10.287  1.3723 -1.9056  0.4694
 6995SOL     OW32617   4.175   4.146  14.303  0.3456  0.0618 -0.0729
 6995SOL    HW132618   4.177   4.056  14.336 -2.2969 -0.7631 -2.0802
 6995SOL    HW232619   4.266   4.156  14.277  0.8740  0.9591  2.1327
 6996SOL     OW32620   2.932   3.727  16.754 -0.5264  0.0837 -0.1423
 6996SOL    HW132621   2.921   3.641  16.793 -1.7821 -0.4643 -1.7167
 6996SOL    HW232622   2.852   3.729  16.701  1.0217  1.1795 -2.4527
 6997SOL     OW32623   3.899   1.772   8.936 -0.6895 -0.0032  0.5197
 6997SOL    HW132624   3.914   1.809   9.023  1.1738 -2.2374  1.1596
 6997SOL    HW232625   3.874   1.682   8.954 -2.5272  0.6424  1.2062
 6998SOL     OW32626   3.261   1.002   4.480  0.4873 -0.0062 -0.0699
 6998SOL    HW132627   3.217   1.039   4.404 -0.8094  3.0956  2.1517
 6998SOL    HW232628   3.238   1.067   4.547 -0.6787  0.7807 -1.2400
 6999SOL     OW32629   1.512   1.020   0.028  0.3070 -0.1804 -1.0999
 6999SOL    HW132630   1.592   1.069   0.050 -1.5018  2.5738 -0.6071
 6999SOL    HW232631   1.454   1.092   0.005  2.1578  1.1709 -1.5785
 7000SOL     OW32632   3.412   3.673   7.701 -0.3092  0.4592  0.4241
 7000SOL    HW132633   3.395   3.659   7.608  0.0335 -1.6022  0.6798
 7000SOL    HW232634   3.438   3.765   7.699 -1.4186  0.7705  0.5716
 7001SOL     OW32635   1.238   0.816   0.449  0.7773 -0.0124 -0.4704
 7001SOL    HW132636   1.299   0.881   0.413  0.6964 -0.7688 -1.9720
 7001SOL    HW232637   1.198   0.787   0.367 -1.4075  1.3094  0.1471
 7002SOL     OW32638   2.327   2.834   2.420 -0.2497 -0.0745  0.2829
 7002SOL    HW132639   2.371   2.847   2.335 -0.2374 -0.1849  0.2726
 7002SOL    HW232640   2.282   2.750   2.425 -1.9722  0.9248  1.2955
 7003SOL     OW32641   4.228   1.111   4.550  0.0321  0.3906 -0.3866
 7003SOL    HW132642   4.260   1.199   4.572 -0.4579  0.2633  0.8771
 7003SOL    HW232643   4.138   1.136   4.573 -0.4757 -0.8081 -1.1061
 7004SOL     OW32644   3.824   2.165   3.751 -0.1815 -0.0942 -0.3980
 7004SOL    HW132645   3.824   2.182   3.657  2.2256 -0.8147 -0.5174
 7004SOL    HW232646   3.810   2.251   3.792 -1.6992  0.5427 -2.2628
 7005SOL     OW32647   0.363   1.023   5.899 -0.0624  0.5162  0.4604
 7005SOL    HW132648   0.424   1.034   5.972  0.5168 -0.1931  0.0807
 7005SOL    HW232649   0.366   1.105   5.850  2.2620  0.2996  0.2569
 7006SOL     OW32650   3.551   0.402   5.735  0.2297  0.0299 -0.6114
 7006SOL    HW132651   3.516   0.457   5.805  0.4789  0.3856 -0.7671
 7006SOL    HW232652   3.528   0.319   5.777  1.5650 -0.5232 -0.9734
 7007SOL     OW32653   3.967   2.165   5.883 -0.5151 -0.5763  0.2867
 7007SOL    HW132654   4.034   2.227   5.911  0.4430 -0.2679 -2.7255
 7007SOL    HW232655   3.920   2.228   5.828 -0.4076  1.2672  2.3046
 7008SOL     OW32656   3.548   1.137   6.741 -0.0906  0.3520  0.2551
 7008SOL    HW132657   3.571   1.227   6.718 -0.5183  0.1949 -0.8077
 7008SOL    HW232658   3.569   1.143   6.834 -0.4987 -2.7029  0.5649
 7009SOL     OW32659   1.264   3.929   5.825 -0.1085  0.4415 -0.1338
 7009SOL    HW132660   1.179   3.938   5.869  0.4332  0.1515  0.9566
 7009SOL    HW232661   1.300   4.017   5.821  0.3323  0.3070  1.0170
 7010SOL     OW32662   4.107   4.157   7.874  0.1450 -0.5730 -0.2534
 7010SOL    HW132663   4.045   4.168   7.802  0.7066  2.5794 -0.2267
 7010SOL    HW232664   4.058   4.090   7.922 -0.3691  0.7127  0.9982
 7011SOL     OW32665   4.042   3.968   3.904  0.6246  0.2270  0.1666
 7011SOL    HW132666   4.100   3.977   3.828 -0.5492 -1.7108 -0.9480
 7011SOL    HW232667   4.014   3.877   3.901 -0.5043  0.4994  2.1751
 7012SOL     OW32668   0.521   0.342   9.525 -0.0317  0.1616 -0.3252
 7012SOL    HW132669   0.610   0.372   9.505  0.5329 -1.1440  0.2435
 7012SOL    HW232670   0.545   0.252   9.505  0.0116  0.1575 -0.2548
 7013SOL     OW32671   1.320   4.056   7.429  0.3513 -0.5098  0.0849
 7013SOL    HW132672   1.344   4.023   7.516  1.9934  3.0945  0.9990
 7013SOL    HW232673   1.242   4.010   7.399  0.6853  0.2490 -1.9458
 7014SOL     OW32674   4.631   3.162  16.774  0.0509 -0.1246 -0.4804
 7014SOL    HW132675   4.715   3.177  16.729 -0.9580  1.7123 -1.7508
 7014SOL    HW232676   4.601   3.088  16.720  1.0383 -1.6624  1.0744
 7015SOL     OW32677   3.241   3.854  14.187 -0.4132 -0.4468 -0.8749
 7015SOL    HW132678   3.278   3.940  14.204 -0.0854 -0.6178 -0.7210
 7015SOL    HW232679   3.312   3.793  14.205 -0.2343  0.5541  1.6928
 7016SOL     OW32680   3.311   0.581   5.248 -0.0969  0.4779  0.2082
 7016SOL    HW132681   3.275   0.667   5.267  0.5775  0.6572  0.6462
 7016SOL    HW232682   3.371   0.563   5.321 -2.4961 -0.6618  1.9170
 7017SOL     OW32683   2.892   3.770  15.978  0.3007 -0.5985 -0.4180
 7017SOL    HW132684   2.880   3.843  15.917 -0.3645  0.9804  1.5920
 7017SOL    HW232685   2.814   3.719  15.958 -0.5253  0.5326 -0.0930
 7018SOL     OW32686   0.462   1.404   1.712 -0.1961  0.3159  0.4158
 7018SOL    HW132687   0.370   1.428   1.721 -0.3000 -0.1601  0.6231
 7018SOL    HW232688   0.470   1.344   1.787  0.4724 -0.7004 -0.4722
 7019SOL     OW32689   3.981   1.934   3.700  0.1309 -0.4285 -0.5861
 7019SOL    HW132690   3.912   1.999   3.712 -0.2095 -0.4893 -2.2183
 7019SOL    HW232691   4.001   1.937   3.606  0.2754 -1.1624 -0.5753
 7020SOL     OW32692   3.485   1.350   1.987 -0.0052 -0.2448  0.5875
 7020SOL    HW132693   3.575   1.353   2.019  0.4920  1.9250 -1.0245
 7020SOL    HW232694   3.435   1.394   2.055  1.3114  0.0840  1.3438
 7021SOL     OW32695   2.186   1.538   4.935  0.0668  0.1579 -0.3486
 7021SOL    HW132696   2.264   1.500   4.896  0.1492  0.5183 -0.5284
 7021SOL    HW232697   2.221   1.620   4.969 -0.6727  0.5234 -0.4780
 7022SOL     OW32698   3.064   4.333   2.996  0.0133  0.1985  0.4563
 7022SOL    HW132699   3.015   4.408   3.029 -0.1118  0.5850 -0.6027
 7022SOL    HW232700   3.003   4.284   2.940 -0.9888 -0.3113  1.9776
 7023SOL     OW32701   3.859   3.243  12.343  0.6057  0.3244 -0.1845
 7023SOL    HW132702   3.888   3.326  12.307  2.2009  0.8451  2.2522
 7023SOL    HW232703   3.942   3.196  12.328  1.3305  2.0299 -1.4688
 7024SOL     OW32704   4.710   0.817   1.992  0.2764 -0.3232 -0.3518
 7024SOL    HW132705   4.713   0.747   1.927  1.1481 -1.0666  0.4818
 7024SOL    HW232706   4.622   0.820   2.030  2.0638  2.1269  3.5988
 7025SOL     OW32707   4.135   1.025  17.644 -0.0734 -0.2880  0.2605
 7025SOL    HW132708   4.104   1.113  17.666 -0.7848 -0.5176  0.2022
 7025SOL    HW232709   4.140   0.993   0.006 -0.2790  0.4243  0.5236
 7026SOL     OW32710   3.071   1.011  17.633 -0.0994  0.1608  0.3870
 7026SOL    HW132711   3.127   1.027  17.709  0.0029  0.5574  0.2304
 7026SOL    HW232712   3.087   1.093  17.586 -2.7370  0.7055  0.4571
 7027SOL     OW32713   0.932   3.790  15.366 -0.1494 -0.4238  0.4706
 7027SOL    HW132714   1.004   3.848  15.345 -1.7534  1.8016  1.1700
 7027SOL    HW232715   0.916   3.741  15.286 -1.9988 -0.4508  0.8555
 7028SOL     OW32716   1.877   2.477   3.217 -0.2893 -0.4704 -0.4725
 7028SOL    HW132717   1.897   2.385   3.235  0.4247 -0.1967  0.1453
 7028SOL    HW232718   1.825   2.498   3.295  0.5974 -2.7515  0.7480
 7029SOL     OW32719   0.069   4.178   6.806  0.4347 -0.1365  0.3271
 7029SOL    HW132720   0.058   4.235   6.730  1.6868 -0.2641  0.0398
 7029SOL    HW232721   0.045   4.236   6.878  0.7586  1.8729 -1.1780
 7030SOL     OW32722   2.310   4.597   8.681 -0.0326 -0.1414 -0.3781
 7030SOL    HW132723   2.355   4.641   8.609  0.3746 -1.0666 -0.6797
 7030SOL    HW232724   2.278   4.668   8.737  0.0524 -0.2852 -0.1473
 7031SOL     OW32725   0.412   2.623   9.815  0.0263  0.3553  0.1906
 7031SOL    HW132726   0.389   2.553   9.877 -1.7869  0.8991  0.1435
 7031SOL    HW232727   0.378   2.581   9.736 -2.9792  1.8021  0.7207
 7032SOL     OW32728   2.073   0.373   4.851 -0.3517  0.5275  0.3852
 7032SOL    HW132729   2.062   0.409   4.940  0.0001 -1.4500  1.2283
 7032SOL    HW232730   2.168   0.364   4.856 -0.2127  1.4501 -0.5424
 7033SOL     OW32731   4.514   1.367   9.146  0.1634 -0.4564  0.3664
 7033SOL    HW132732   4.582   1.334   9.087 -0.4418 -0.5874 -0.2620
 7033SOL    HW232733   4.454   1.419   9.093  0.7013 -0.3470 -0.1352
 7034SOL     OW32734   1.111   3.403  16.993 -0.1962  0.6076  0.0286
 7034SOL    HW132735   1.081   3.493  16.982 -1.6791 -0.2846 -3.2907
 7034SOL    HW232736   1.029   3.354  17.007 -0.8752  1.1033 -2.0719
 7035SOL     OW32737   4.434   2.849  12.151 -0.1925 -0.2840  0.1642
 7035SOL    HW132738   4.529   2.850  12.161 -0.1657 -0.9629  0.0315
 7035SOL    HW232739   4.425   2.763  12.110  0.1980 -0.5087  0.5533
 7036SOL     OW32740   0.674   3.600  13.457 -0.1372  0.0647  0.3322
 7036SOL    HW132741   0.650   3.691  13.475  0.4747  0.4197 -0.6034
 7036SOL    HW232742   0.770   3.600  13.459 -0.1647 -4.1830  2.3796
 7037SOL     OW32743   4.638   2.643   7.045  0.5246  0.3892 -0.1487
 7037SOL    HW132744   4.694   2.681   6.977 -1.6462  0.5638 -1.8263
 7037SOL    HW232745   4.594   2.576   6.992  1.8608  1.2625 -2.3593
 7038SOL     OW32746   3.495   2.584  16.893 -0.2106 -0.3817  0.0065
 7038SOL    HW132747   3.409   2.543  16.896 -0.6310  0.5521  0.6282
 7038SOL    HW232748   3.465   2.671  16.921  0.5049  0.0519 -0.5673
 7039SOL     OW32749   2.794   4.684   0.712  0.6081  0.3481 -0.2588
 7039SOL    HW132750   2.767   0.037   0.745  0.6185 -0.7204  2.4714
 7039SOL    HW232751   2.842   4.653   0.789  3.2768  0.7042 -1.7543
 7040SOL     OW32752   2.576   4.400   4.862 -0.2399 -0.2604  0.0225
 7040SOL    HW132753   2.503   4.459   4.845 -1.8906 -2.1348  0.5664
 7040SOL    HW232754   2.534   4.324   4.902  0.2859 -0.8676 -0.5616
 7041SOL     OW32755   4.225   3.715   6.502  0.0313 -0.1439  0.2272
 7041SOL    HW132756   4.307   3.758   6.527  0.2749 -0.3230 -0.2784
 7041SOL    HW232757   4.168   3.744   6.573 -0.8291 -2.1975  0.3866
 7042SOL     OW32758   0.918   4.312   7.927 -0.4925 -0.5419  0.1004
 7042SOL    HW132759   0.989   4.267   7.881 -0.3084  2.4557 -2.5688
 7042SOL    HW232760   0.848   4.296   7.864  1.6878 -3.1662 -1.6680
 7043SOL     OW32761   4.066   1.294  12.078 -0.3416 -0.3679 -0.0234
 7043SOL    HW132762   3.993   1.259  12.129 -0.4398  1.7357  1.2906
 7043SOL    HW232763   4.114   1.212  12.071  1.4913  0.8131 -1.4136
 7044SOL     OW32764   3.948   4.035  12.245  0.0557 -0.6228  0.0474
 7044SOL    HW132765   3.892   4.055  12.169 -0.6413 -0.1860  0.6815
 7044SOL    HW232766   3.897   4.059  12.322  0.4030  1.7284 -0.4542
 7045SOL     OW32767   1.712   3.529  13.695 -0.1355 -0.0226  0.0625
 7045SOL    HW132768   1.792   3.581  13.700 -2.0971  3.1711 -1.7189
 7045SOL    HW232769   1.693   3.535  13.602  0.2609 -0.3138 -0.0371
 7046SOL     OW32770   1.865   0.548  16.188 -0.5817 -0.3004  0.1996
 7046SOL    HW132771   1.907   0.477  16.140  0.1390  1.1694 -1.3705
 7046SOL    HW232772   1.806   0.577  16.118 -0.8472 -2.8125 -0.6119
 7047SOL     OW32773   0.502   0.859   3.907 -0.0461 -0.5748  0.0155
 7047SOL    HW132774   0.425   0.853   3.850  0.0427 -0.8375 -0.0814
 7047SOL    HW232775   0.517   0.765   3.915 -0.4659 -0.3014  3.7645
 7048SOL     OW32776   3.637   4.157   6.112 -0.2720  0.6106 -0.2919
 7048SOL    HW132777   3.641   4.233   6.054  0.3121  0.2734 -0.6920
 7048SOL    HW232778   3.708   4.180   6.172 -0.5196 -1.9793  0.9884
 7049SOL     OW32779   4.663   3.791  12.894  0.0371 -0.4764 -0.4056
 7049SOL    HW132780   0.006   3.849  12.883 -0.0902 -0.2921 -0.3055
 7049SOL    HW232781   4.629   3.842  12.968  1.5653 -0.0693  0.0121
 7050SOL     OW32782   1.157   0.048   4.358  0.4221  0.1725 -0.2679
 7050SOL    HW132783   1.199   0.133   4.344  0.8640  0.1587  1.0020
 7050SOL    HW232784   1.175   0.009   4.273 -2.8150 -0.5446 -0.6329
 7051SOL     OW32785   1.879   0.785   6.235 -0.1724 -0.1879  0.1727
 7051SOL    HW132786   1.789   0.816   6.224  0.3055  1.1593  0.0715
 7051SOL    HW232787   1.911   0.851   6.297  1.1728 -1.7816  1.1782
 7052SOL     OW32788   2.854   0.163   9.041  0.3123 -0.6217  0.6834
 7052SOL    HW132789   2.904   0.226   9.093 -0.3968 -0.6537  1.4068
 7052SOL    HW232790   2.773   0.149   9.090  0.1252 -0.9632  0.2708
 7053SOL     OW32791   0.954   1.664   6.151  0.0375 -0.2073 -0.0847
 7053SOL    HW132792   0.944   1.742   6.206 -1.0801  1.1415 -2.1933
 7053SOL    HW232793   0.867   1.628   6.166  0.3666 -1.1166 -0.3975
 7054SOL     OW32794   1.892   3.146   3.781  0.1296 -0.4896  0.6032
 7054SOL    HW132795   1.932   3.113   3.861 -0.7024 -1.3230  0.6621
 7054SOL    HW232796   1.812   3.185   3.816  0.0220 -1.5071  1.4942
 7055SOL     OW32797   2.658   4.586   7.596 -0.1869 -0.1056  0.1093
 7055SOL    HW132798   2.601   4.535   7.538 -0.0758 -0.4773  0.3246
 7055SOL    HW232799   2.720   4.619   7.531 -1.0252 -1.7761 -1.5510
 7056SOL     OW32800   4.353   2.192   7.140  0.1712  0.2651  0.1053
 7056SOL    HW132801   4.344   2.287   7.150 -1.1226  0.1615 -0.0181
 7056SOL    HW232802   4.415   2.177   7.069  0.9469 -0.2202  0.8740
 7057SOL     OW32803   1.920   1.104  11.187 -0.1043  0.4170 -0.0266
 7057SOL    HW132804   1.997   1.157  11.171  0.4389 -0.8517 -1.5802
 7057SOL    HW232805   1.868   1.176  11.224 -1.2427 -0.7121  0.5891
 7058SOL     OW32806   0.505   1.045  15.919  0.4890 -0.1769  0.3604
 7058SOL    HW132807   0.598   1.056  15.903  0.6662  0.3911  1.7846
 7058SOL    HW232808   0.494   1.003  16.004  3.7613 -0.0898  0.8154
 7059SOL     OW32809   0.007   2.051   7.067  0.2457 -0.2016 -0.6164
 7059SOL    HW132810   0.060   2.033   7.145 -1.2778  0.4386  0.5676
 7059SOL    HW232811   0.023   2.144   7.058  1.9664 -0.2212  2.2504
 7060SOL     OW32812   1.346   2.192  11.058 -0.2012 -0.5609  0.6663
 7060SOL    HW132813   1.366   2.280  11.088 -0.0601 -0.6935  0.9669
 7060SOL    HW232814   1.433   2.154  11.071 -0.5190 -1.2103  0.9423
 7061SOL     OW32815   4.523   0.399   1.908 -0.3061  0.0361  0.2893
 7061SOL    HW132816   4.513   0.476   1.852 -0.9440  0.1539  0.5745
 7061SOL    HW232817   4.436   0.364   1.926  0.2398 -1.4178  0.0759
 7062SOL     OW32818   1.889   4.074   5.978  0.2599 -0.3563  0.4342
 7062SOL    HW132819   1.964   4.096   6.032  0.6427 -0.9984  0.1711
 7062SOL    HW232820   1.839   4.021   6.040  1.2728 -0.1810  1.4029
 7063SOL     OW32821   3.595   2.974   8.570  0.2865  0.0365 -0.0712
 7063SOL    HW132822   3.531   3.008   8.507 -1.3000 -2.5132  0.1719
 7063SOL    HW232823   3.646   3.053   8.589  0.0555 -0.1597  1.3425
 7064SOL     OW32824   2.748   3.760   3.976 -0.2326 -0.1432 -0.0454
 7064SOL    HW132825   2.674   3.738   4.032  0.8370 -0.9082  1.0711
 7064SOL    HW232826   2.742   3.688   3.912  2.7486  0.6939 -1.2667
 7065SOL     OW32827   2.080   1.638  11.294 -0.3896  0.2457 -0.2536
 7065SOL    HW132828   2.075   1.582  11.216 -3.1243  0.7858 -0.4711
 7065SOL    HW232829   2.004   1.695  11.283  0.1236  0.1473 -4.4267
 7066SOL     OW32830   4.378   3.835  14.856 -0.0242 -0.4057 -0.0123
 7066SOL    HW132831   4.329   3.759  14.827  1.7527 -1.1669 -1.0348
 7066SOL    HW232832   4.318   3.858  14.927  0.4461  0.9770 -0.0661
 7067SOL     OW32833   4.530   3.798   7.173  0.0357 -0.2484 -0.5120
 7067SOL    HW132834   4.600   3.771   7.231 -1.4130  0.2525  1.4721
 7067SOL    HW232835   4.457   3.752   7.215  1.3699 -1.0870  0.8484
 7068SOL     OW32836   0.687   2.407   2.150  0.1816 -0.1298 -0.6706
 7068SOL    HW132837   0.607   2.357   2.160 -0.2019 -0.1850 -3.9746
 7068SOL    HW232838   0.754   2.341   2.166 -0.1033 -0.4214 -0.6835
 7069SOL     OW32839   4.130   0.769   8.010  0.1225  0.1426  0.1065
 7069SOL    HW132840   4.145   0.784   7.916  1.1504  0.6901  0.3550
 7069SOL    HW232841   4.109   0.675   8.008  1.0657 -0.0970  1.4523
 7070SOL     OW32842   1.605   1.518   7.698 -0.1741 -0.1628  0.1536
 7070SOL    HW132843   1.552   1.456   7.748 -0.0511 -0.9639 -0.7123
 7070SOL    HW232844   1.606   1.600   7.748  1.5511  0.5245 -1.0120
 7071SOL     OW32845   1.745   3.117  13.221  0.1038  0.6427  0.6188
 7071SOL    HW132846   1.785   3.143  13.304  1.9706 -0.4661  0.0469
 7071SOL    HW232847   1.821   3.109  13.163 -1.6010 -0.3112 -1.4915
 7072SOL     OW32848   0.975   1.823   5.356 -0.0852 -0.4529 -0.4902
 7072SOL    HW132849   0.993   1.737   5.395 -1.5038 -0.7338 -0.4781
 7072SOL    HW232850   0.880   1.828   5.363 -0.1303  0.4772 -1.7913
 7073SOL     OW32851   3.439   3.552   3.520 -0.6087  0.1520  0.4748
 7073SOL    HW132852   3.414   3.499   3.595 -1.9694  0.9280  0.5505
 7073SOL    HW232853   3.353   3.589   3.502 -0.7068 -2.3265 -4.2204
 7074SOL     OW32854   4.056   0.787   1.905  0.1258  0.1598  0.3401
 7074SOL    HW132855   4.074   0.877   1.935 -0.7646  0.2130  0.7090
 7074SOL    HW232856   4.141   0.753   1.877  0.3216 -0.4622  1.6932
 7075SOL     OW32857   0.033   3.242   2.035  0.1066  0.5023  0.0534
 7075SOL    HW132858   0.075   3.185   1.972 -0.2570 -1.2055  1.3525
 7075SOL    HW232859   4.682   3.267   1.995 -0.4842 -0.1938  0.8359
 7076SOL     OW32860   0.188   1.708   5.239  0.0334 -0.3442 -0.0591
 7076SOL    HW132861   0.203   1.775   5.172 -3.7218 -1.7705 -2.3078
 7076SOL    HW232862   0.125   1.755   5.293  0.8593  1.2239 -0.4518
 7077SOL     OW32863   4.170   4.398  10.544  0.3287 -0.0232 -0.1830
 7077SOL    HW132864   4.202   4.341  10.474 -0.3299  0.3476 -0.7878
 7077SOL    HW232865   4.075   4.392  10.535  0.0500  2.0637  1.5725
 7078SOL     OW32866   0.815   1.426   7.287  0.1542 -0.1117 -0.1854
 7078SOL    HW132867   0.899   1.455   7.324  0.7751 -2.5396  0.3333
 7078SOL    HW232868   0.799   1.345   7.336  0.8625 -0.6437 -0.8329
 7079SOL     OW32869   3.026   2.633   7.214  0.0389 -0.2312  0.5431
 7079SOL    HW132870   3.058   2.641   7.124  0.7049  1.8697  0.9708
 7079SOL    HW232871   3.104   2.597   7.256  0.2538  0.3473  0.6376
 7080SOL     OW32872   0.419   3.564  11.622  0.4989  0.1879 -0.1270
 7080SOL    HW132873   0.380   3.506  11.687 -0.5561 -0.2589 -1.1438
 7080SOL    HW232874   0.343   3.621  11.605  2.0743  1.9708 -1.2301
 7081SOL     OW32875   2.448   3.018   3.021  0.3509  0.1658 -0.1712
 7081SOL    HW132876   2.464   3.108   3.050  0.8545  0.8699 -2.5884
 7081SOL    HW232877   2.359   3.008   3.055  0.2496  0.4703 -0.3378
 7082SOL     OW32878   0.381   2.996  17.034  0.8148 -0.1576 -0.1115
 7082SOL    HW132879   0.427   2.982  16.951 -0.4285 -1.0613 -0.6359
 7082SOL    HW232880   0.298   3.041  17.019  1.1068  0.3972 -0.0881
 7083SOL     OW32881   3.125   2.324   9.761  0.2014  0.3477  0.0013
 7083SOL    HW132882   3.095   2.353   9.847 -0.1284  1.4425 -0.4812
 7083SOL    HW232883   3.213   2.288   9.776  0.5031  1.5353  1.0614
 7084SOL     OW32884   2.495   0.603   9.042 -0.4860 -0.2067 -0.5100
 7084SOL    HW132885   2.583   0.636   9.059 -1.4293  2.3861 -0.6489
 7084SOL    HW232886   2.509   0.564   8.955  0.7227  2.0520 -1.3428
 7085SOL     OW32887   3.121   3.146   5.886 -0.1896  0.5877 -0.1091
 7085SOL    HW132888   3.172   3.164   5.964 -2.8018 -0.0826  1.7556
 7085SOL    HW232889   3.049   3.208   5.901 -1.2922 -0.3859 -1.2427
 7086SOL     OW32890   1.099   1.527   6.436  0.4758  0.6605 -0.1376
 7086SOL    HW132891   1.119   1.605   6.385 -0.7493  1.0769  0.0301
 7086SOL    HW232892   1.016   1.499   6.398  0.1283 -0.0554  1.1339
 7087SOL     OW32893   4.595   1.469   6.579  0.1169 -0.5100  0.4281
 7087SOL    HW132894   4.569   1.420   6.501 -0.9808  1.5925 -0.5244
 7087SOL    HW232895   4.537   1.545   6.583  0.6109 -0.0827 -0.4498
 7088SOL     OW32896   2.007   3.030   8.016 -0.1102 -0.7748  0.5636
 7088SOL    HW132897   2.073   2.999   8.078 -0.0777 -2.4432 -0.2976
 7088SOL    HW232898   2.052   3.081   7.949 -0.9227  1.7741  1.9498
 7089SOL     OW32899   0.531   1.075  13.424 -0.3566  0.0326 -0.3752
 7089SOL    HW132900   0.438   1.059  13.438 -0.6204  2.3762  0.4289
 7089SOL    HW232901   0.570   1.089  13.511 -1.5730  2.9288 -0.3075
 7090SOL     OW32902   2.535   4.357   5.126 -0.3088 -0.1446  0.0420
 7090SOL    HW132903   2.532   4.452   5.118 -0.0325 -0.0151  1.3947
 7090SOL    HW232904   2.441   4.338   5.119 -0.5179  0.1768  1.8961
 7091SOL     OW32905   3.357   1.275   8.384 -0.6939  0.0494  0.1171
 7091SOL    HW132906   3.286   1.333   8.412 -0.8779 -0.4037  0.5943
 7091SOL    HW232907   3.431   1.305   8.437 -0.0696  0.7306 -1.1468
 7092SOL     OW32908   4.281   0.450  14.667  0.0906  1.0415  0.2112
 7092SOL    HW132909   4.197   0.445  14.621  0.6726 -2.2086 -0.5063
 7092SOL    HW232910   4.340   0.441  14.592 -1.1497 -1.1426 -0.4941
 7093SOL     OW32911   1.785   0.075   7.381  0.0824 -0.2260  0.3306
 7093SOL    HW132912   1.818   0.069   7.471 -0.8678  1.5762  0.8115
 7093SOL    HW232913   1.695   0.104   7.400 -0.3300 -1.9772  1.0833
 7094SOL     OW32914   3.508   3.318   9.323 -0.1511  0.2848 -0.2923
 7094SOL    HW132915   3.538   3.401   9.359  0.7629  0.4261 -1.3737
 7094SOL    HW232916   3.560   3.255   9.372 -1.3950 -0.5423 -0.0243
 7095SOL     OW32917   2.439   1.443   2.946  0.2530  0.2064 -0.3494
 7095SOL    HW132918   2.474   1.402   2.867  0.6051 -1.5590  0.7273
 7095SOL    HW232919   2.467   1.533   2.928 -0.5216  0.7352  1.1056
 7096SOL     OW32920   0.715   1.623  14.408 -0.0000 -0.5124  0.2074
 7096SOL    HW132921   0.628   1.600  14.375  0.6782  1.5315 -2.9504
 7096SOL    HW232922   0.701   1.715  14.427  3.2566  0.2391 -0.9455
 7097SOL     OW32923   3.973   4.155   7.640 -0.4058  0.7317 -0.3653
 7097SOL    HW132924   3.968   4.060   7.654  0.4108  0.9194  1.1373
 7097SOL    HW232925   3.880   4.175   7.645 -0.0818  2.0602  0.2579
 7098SOL     OW32926   0.505   1.453   2.233 -0.1933  0.1266 -0.5932
 7098SOL    HW132927   0.485   1.491   2.148 -2.4197 -0.1416 -0.1909
 7098SOL    HW232928   0.430   1.496   2.273  1.4184  2.5763 -0.1751
 7099SOL     OW32929   4.166   1.702   5.353 -0.3715  0.1921 -0.0210
 7099SOL    HW132930   4.083   1.673   5.315  0.5081 -2.2611 -0.0879
 7099SOL    HW232931   4.221   1.656   5.289  0.0541  0.5372  0.0948
 7100SOL     OW32932   0.277   3.667  15.199 -0.2782 -0.0293 -0.3975
 7100SOL    HW132933   0.216   3.654  15.272 -0.8573 -1.3870 -1.1268
 7100SOL    HW232934   0.363   3.651  15.237  0.5148 -1.3591 -2.7356
 7101SOL     OW32935   0.921   3.035   6.962 -0.1589  0.2191 -0.3228
 7101SOL    HW132936   0.974   3.050   7.040 -1.8637  0.6179  0.7541
 7101SOL    HW232937   0.847   3.095   6.972  1.9448  2.8404 -0.4844
 7102SOL     OW32938   0.415   1.572  11.550 -0.5636  0.5979  0.2933
 7102SOL    HW132939   0.370   1.647  11.512  0.9246  1.0620 -0.5698
 7102SOL    HW232940   0.346   1.507  11.559 -1.1802  1.1306 -0.6620
 7103SOL     OW32941   0.740   2.757  11.297  0.6758 -0.2953  0.0915
 7103SOL    HW132942   0.659   2.716  11.326  0.3060  0.7955  0.6096
 7103SOL    HW232943   0.729   2.731  11.205 -0.6957 -1.8710  0.7014
 7104SOL     OW32944   1.619   1.258   4.662  0.2586 -0.2086 -0.4683
 7104SOL    HW132945   1.593   1.230   4.574  0.6896  0.5635 -0.8337
 7104SOL    HW232946   1.715   1.264   4.661  0.2021  0.2551 -2.3936
 7105SOL     OW32947   4.682   3.289  16.159 -0.3108 -0.3405  0.1696
 7105SOL    HW132948   4.628   3.367  16.171 -0.9773 -0.7282 -0.2934
 7105SOL    HW232949   4.658   3.242  16.238 -0.3581 -2.0476 -0.8589
 7106SOL     OW32950   1.254   3.070   0.552  0.3918 -0.2790  0.1071
 7106SOL    HW132951   1.280   3.152   0.594  3.0561 -0.7331 -0.6944
 7106SOL    HW232952   1.209   3.103   0.474  0.9099 -2.0355 -0.9249
 7107SOL     OW32953   0.213   0.581   4.045 -0.2592  0.0869  0.2257
 7107SOL    HW132954   0.202   0.671   4.015  0.1305 -0.1991 -0.7558
 7107SOL    HW232955   0.122   0.556   4.026 -0.2208  1.1498 -1.3465
 7108SOL     OW32956   3.226   1.394   5.172  0.5096  0.1549  0.1906
 7108SOL    HW132957   3.179   1.336   5.112 -0.3993  1.6628 -0.5634
 7108SOL    HW232958   3.179   1.477   5.156 -1.9743 -1.3653 -0.4293
 7109SOL     OW32959   2.435   3.039   8.940  0.4585  0.3076  0.6098
 7109SOL    HW132960   2.413   2.971   8.876  2.4679 -0.4147  0.6810
 7109SOL    HW232961   2.347   3.067   8.967  0.3605  1.0564 -0.4680
 7110SOL     OW32962   0.090   2.378  11.173  0.3645  0.1190  0.1678
 7110SOL    HW132963   0.176   2.405  11.207  0.4963 -1.0271  0.7319
 7110SOL    HW232964   0.103   2.290  11.137  2.2682 -0.4330  2.1835
 7111SOL     OW32965   1.615   3.640   6.064 -0.3756 -0.4271 -0.4941
 7111SOL    HW132966   1.520   3.632   6.056 -0.5480  0.8195  0.2197
 7111SOL    HW232967   1.658   3.555   6.059 -0.6215 -0.7330  2.3897
 7112SOL     OW32968   3.231   0.965  11.677  0.2643  0.3774  0.2702
 7112SOL    HW132969   3.311   0.934  11.634 -1.1556  0.4633 -2.4547
 7112SOL    HW232970   3.235   0.909  11.754  2.2999  1.1645  0.7197
 7113SOL     OW32971   1.898   4.695   1.625  0.8760  0.1430  0.3748
 7113SOL    HW132972   1.940   0.040   1.586 -0.2014  0.2889 -0.4833
 7113SOL    HW232973   1.971   4.644   1.662 -0.8411 -0.0905  3.4165
 7114SOL     OW32974   2.981   3.054  17.135  0.2924  0.3902 -0.4594
 7114SOL    HW132975   3.019   2.988  17.077  0.8960  0.8269 -0.5613
 7114SOL    HW232976   2.986   3.010  17.220  2.4322 -1.7920 -1.7133
 7115SOL     OW32977   4.189   1.545   7.235  0.3198 -0.1600 -0.1795
 7115SOL    HW132978   4.204   1.451   7.235 -0.7726 -0.3194  1.1855
 7115SOL    HW232979   4.154   1.547   7.324 -0.1096 -1.8513 -0.3046
 7116SOL     OW32980   0.402   2.835   5.646 -0.3654  0.4308 -0.0533
 7116SOL    HW132981   0.485   2.879   5.668 -0.4897  0.4956  0.2961
 7116SOL    HW232982   0.337   2.895   5.682 -2.0152 -1.1950 -0.3401
 7117SOL     OW32983   0.078   1.895  12.186 -0.1228  0.1046  0.5906
 7117SOL    HW132984   0.143   1.889  12.256 -0.2879  2.2389  0.9235
 7117SOL    HW232985   0.069   1.988  12.164 -0.2379 -0.2141 -0.7103
 7118SOL     OW32986   2.848   1.293   5.722  0.2635  0.2286 -0.7029
 7118SOL    HW132987   2.855   1.232   5.796  2.1524 -0.2483 -1.2847
 7118SOL    HW232988   2.920   1.270   5.664  0.6954 -1.6197  0.5378
 7119SOL     OW32989   0.396   2.369   9.168 -0.3694  0.0957 -0.0388
 7119SOL    HW132990   0.486   2.335   9.172 -0.6028 -0.0336  4.3911
 7119SOL    HW232991   0.404   2.453   9.214  0.5208 -0.3255  0.5831
 7120SOL     OW32992   0.393   3.374   4.362  0.6280  0.9635 -0.6008
 7120SOL    HW132993   0.476   3.409   4.330  0.3161  1.2035 -1.1403
 7120SOL    HW232994   0.370   3.434   4.434 -0.9477  1.2044 -1.2981
 7121SOL     OW32995   1.766   2.786   8.813 -0.3600  0.2517  0.3627
 7121SOL    HW132996   1.747   2.801   8.906  2.2517  2.3555  0.5724
 7121SOL    HW232997   1.705   2.849   8.775 -0.3020  1.2087  1.8584
 7122SOL     OW32998   4.210   0.233   9.873  0.1236  0.0606 -0.5255
 7122SOL    HW132999   4.250   0.231   9.960 -1.8897 -0.5803  0.3943
 7122SOL    HW233000   4.120   0.233   9.906 -0.2459 -2.7138 -1.5086
 7123SOL     OW33001   0.098   0.858  11.905 -0.3232  0.5632  0.3476
 7123SOL    HW133002   0.070   0.890  11.819  1.2163 -0.5970 -0.5970
 7123SOL    HW233003   0.015   0.829  11.942 -0.3596 -0.0877 -0.2491
 7124SOL     OW33004   3.026   0.553  17.495 -0.1258  0.9182 -0.0252
 7124SOL    HW133005   3.062   0.560  17.407 -2.1281  0.9800 -0.8433
 7124SOL    HW233006   3.053   0.638  17.528 -0.9310  1.2259 -0.1671
 7125SOL     OW33007   3.969   1.144   3.433 -0.1476  0.3119 -0.3140
 7125SOL    HW133008   4.033   1.211   3.455  0.8910  0.5970 -4.1271
 7125SOL    HW233009   4.023   1.077   3.390  2.7126  0.5920  2.8096
 7126SOL     OW33010   2.323   1.766   5.042 -0.4999 -0.0523  0.2390
 7126SOL    HW133011   2.419   1.760   5.044 -0.5014 -0.8677 -1.9625
 7126SOL    HW233012   2.305   1.799   5.129 -1.6099  1.4052 -0.5433
 7127SOL     OW33013   2.111   1.918   4.560  0.1947 -0.3773  0.3831
 7127SOL    HW133014   2.034   1.903   4.504  0.7467 -0.7086 -0.2848
 7127SOL    HW233015   2.079   1.987   4.618  0.5860 -0.5733  0.8250
 7128SOL     OW33016   2.049   2.375  11.093  0.2127 -0.3872  0.3075
 7128SOL    HW133017   2.101   2.348  11.018  1.8485 -0.6744  1.5583
 7128SOL    HW233018   2.101   2.441  11.139 -2.2067  0.4496  1.8228
 7129SOL     OW33019   3.932   1.831   5.374 -0.3073  0.4090 -0.1308
 7129SOL    HW133020   3.923   1.921   5.345  0.0673  0.2290 -0.8164
 7129SOL    HW233021   4.027   1.821   5.379 -0.4941 -1.8520 -1.0127
 7130SOL     OW33022   0.900   3.144   4.452  0.1371 -0.1594 -0.0228
 7130SOL    HW133023   0.851   3.164   4.533 -0.7985 -0.6995 -0.4487
 7130SOL    HW233024   0.986   3.150   4.493  0.8249 -2.2507 -1.1412
 7131SOL     OW33025   0.701   4.396  11.744  0.0944 -0.6593 -0.2472
 7131SOL    HW133026   0.620   4.442  11.725  0.8113  0.5274 -0.4186
 7131SOL    HW233027   0.675   4.304  11.747  0.3727 -0.7163  0.7342
 7132SOL     OW33028   1.725   3.294  11.548 -0.5851  0.2746 -0.2223
 7132SOL    HW133029   1.717   3.300  11.643 -2.0306 -4.5084 -0.0230
 7132SOL    HW233030   1.735   3.384  11.519 -1.0866  0.7777  1.1661
 7133SOL     OW33031   1.410   3.745   9.253 -0.0755 -0.1137  0.3187
 7133SOL    HW133032   1.449   3.710   9.174 -2.9373 -1.3956 -0.5499
 7133SOL    HW233033   1.367   3.825   9.221 -0.7535 -0.8529 -0.6095
 7134SOL     OW33034   4.113   1.306   0.754 -0.7068  0.5243  0.0832
 7134SOL    HW133035   4.157   1.248   0.692  1.3068  1.4039  0.6805
 7134SOL    HW233036   4.134   1.391   0.715  3.0963 -0.7187 -0.6142
 7135SOL     OW33037   3.283   3.750   6.994 -0.4631  0.3622  0.0818
 7135SOL    HW133038   3.313   3.739   6.904  1.3978 -0.2137  0.7714
 7135SOL    HW233039   3.191   3.772   6.979 -0.4291 -0.4261 -1.2016
 7136SOL     OW33040   1.588   1.652   9.901 -0.1231 -0.4218 -0.2036
 7136SOL    HW133041   1.514   1.672   9.957  0.0117  0.7549 -0.4440
 7136SOL    HW233042   1.589   1.557   9.917  2.8386 -0.2695  0.6794
 7137SOL     OW33043   4.165   1.499  14.032 -0.1338  0.4323 -0.3239
 7137SOL    HW133044   4.147   1.534  13.945  2.4846  1.1468 -0.5616
 7137SOL    HW233045   4.091   1.526  14.087  0.7033  1.5714  0.2434
 7138SOL     OW33046   4.563   0.826   3.582 -0.3889  0.3536 -0.4524
 7138SOL    HW133047   4.542   0.918   3.591 -0.5912  0.3408 -0.7664
 7138SOL    HW233048   4.475   0.788   3.573 -0.4396  0.5472 -0.7749
 7139SOL     OW33049   3.658   0.971  14.952  0.4262  0.0530 -0.5775
 7139SOL    HW133050   3.644   0.962  15.047 -0.1963  1.6534 -0.5233
 7139SOL    HW233051   3.707   0.890  14.934 -1.7296 -0.9874 -1.7661
 7140SOL     OW33052   1.848   4.695   8.677 -0.0525 -0.0820 -0.1244
 7140SOL    HW133053   1.886   4.647   8.604  0.0855  2.6231 -1.8044
 7140SOL    HW233054   1.820   4.627   8.739 -3.4126  0.6700 -0.8193
 7141SOL     OW33055   0.706   3.754   8.122 -0.2458 -0.4722 -0.2766
 7141SOL    HW133056   0.770   3.819   8.149 -3.6165  1.8722  1.9693
 7141SOL    HW233057   0.645   3.815   8.081  0.7664  0.1635 -0.8156
 7142SOL     OW33058   3.582   3.540  14.232  0.3587 -0.5558  0.0830
 7142SOL    HW133059   3.560   3.632  14.218  0.6099 -0.1832  2.1819
 7142SOL    HW233060   3.572   3.532  14.327 -1.1462 -1.7296 -0.1613
 7143SOL     OW33061   1.900   4.328   6.708  0.9258  0.4234 -0.1490
 7143SOL    HW133062   1.836   4.262   6.681 -1.4548  1.2877  3.3929
 7143SOL    HW233063   1.881   4.320   6.802 -0.6981 -0.9411 -0.5711
 7144SOL     OW33064   4.117   1.212   6.493 -0.5590  0.7140 -0.3702
 7144SOL    HW133065   4.061   1.286   6.469 -2.1139  0.9403  3.8996
 7144SOL    HW233066   4.069   1.140   6.453 -0.6361  0.8429 -0.5099
 7145SOL     OW33067   1.214   3.830   7.099 -0.1365 -0.3372 -0.1346
 7145SOL    HW133068   1.242   3.769   7.167  1.1023 -0.7010 -0.9729
 7145SOL    HW233069   1.248   3.796   7.017 -0.0972 -0.0743 -0.2280
 7146SOL     OW33070   3.976   3.204   6.989 -0.3739  0.0587  0.2477
 7146SOL    HW133071   3.923   3.159   7.054  0.2050  2.2077  2.1754
 7146SOL    HW233072   4.007   3.283   7.033  0.8772 -0.1281 -0.2946
 7147SOL     OW33073   1.307   1.345   5.827  1.0721 -0.2250 -0.5089
 7147SOL    HW133074   1.295   1.290   5.750  1.9986 -0.4695 -0.4800
 7147SOL    HW233075   1.229   1.400   5.833  1.5860  0.6634 -1.7990
 7148SOL     OW33076   1.579   1.715   6.099 -1.0424  0.3399  1.3832
 7148SOL    HW133077   1.580   1.767   6.180  0.8662  1.9072  0.3478
 7148SOL    HW233078   1.498   1.737   6.053  0.5621  1.0728 -1.0907
 7149SOL     OW33079   1.693   3.919   9.371  0.7520  0.4749  0.1134
 7149SOL    HW133080   1.765   3.858   9.390  1.0201  0.2102 -1.7645
 7149SOL    HW233081   1.617   3.866   9.350  1.4720 -0.4114 -0.2664
 7150SOL     OW33082   3.722   3.964  17.517 -0.5485 -0.6799  0.3888
 7150SOL    HW133083   3.807   4.008  17.522 -0.6659 -0.4876  0.7098
 7150SOL    HW233084   3.671   4.021  17.459 -0.5935 -0.5297  0.5760
 7151SOL     OW33085   1.513   2.313   7.134  0.1072  0.0845  0.1932
 7151SOL    HW133086   1.584   2.311   7.070 -1.0993  4.7257 -1.2803
 7151SOL    HW233087   1.532   2.382   7.197  0.1619  2.3916 -2.3160
 7152SOL     OW33088   4.360   3.778   7.961 -0.4031  0.1360  0.0622
 7152SOL    HW133089   4.393   3.863   7.993  1.5738 -0.9762  0.9978
 7152SOL    HW233090   4.374   3.788   7.867 -1.4812  0.6979 -0.0385
 7153SOL     OW33091   1.278   1.663   8.708  0.4880  0.0919 -0.0184
 7153SOL    HW133092   1.220   1.591   8.681 -0.7312  0.8152  0.7052
 7153SOL    HW233093   1.226   1.727   8.661  0.5446  0.6802  0.7238
 7154SOL     OW33094   3.991   2.954   0.037  0.0827 -0.4021 -0.2405
 7154SOL    HW133095   4.079   2.917   0.047 -0.9338 -2.3652  1.4453
 7154SOL    HW233096   4.000   3.041   0.078 -0.8119 -0.1665 -0.5558
 7155SOL     OW33097   3.020   1.703  10.494  0.0202  0.8553 -0.2457
 7155SOL    HW133098   3.070   1.647  10.435  1.0408  2.5115 -0.9502
 7155SOL    HW233099   3.091   1.723  10.554 -1.2342  1.3839  1.0662
 7156SOL     OW33100   4.239   1.327   2.710 -0.4664  0.0396 -0.9042
 7156SOL    HW133101   4.229   1.315   2.805  1.1004  1.9240 -0.5086
 7156SOL    HW233102   4.160   1.377   2.686  1.5681  3.0697 -1.2424
 7157SOL     OW33103   2.817   2.749   7.821  0.0265  0.1868 -0.4205
 7157SOL    HW133104   2.770   2.781   7.899 -0.8551  0.0611 -0.8945
 7157SOL    HW233105   2.748   2.746   7.755 -0.9515  0.2839  0.5871
 7158SOL     OW33106   4.640   1.461  11.629 -0.7035 -0.1268 -0.0840
 7158SOL    HW133107   4.634   1.443  11.723 -2.2692 -2.0503 -0.5672
 7158SOL    HW233108   0.003   1.453  11.620 -0.7391 -3.0542  2.0670
 7159SOL     OW33109   3.754   4.662   3.220 -0.6227  0.5183  0.0401
 7159SOL    HW133110   3.790   4.632   3.136  1.9380 -1.0887  1.7161
 7159SOL    HW233111   3.784   0.020   3.212 -0.4837  0.6349  1.9570
 7160SOL     OW33112   0.497   3.064   6.212  0.2772 -0.3989 -0.4015
 7160SOL    HW133113   0.585   3.090   6.237 -0.0681 -0.9499  1.3985
 7160SOL    HW233114   0.480   3.133   6.147 -1.4664 -1.0834 -0.6874
 7161SOL     OW33115   4.237   1.826  13.479  0.3779 -0.4221 -0.1484
 7161SOL    HW133116   4.333   1.825  13.482  0.4168  3.5909 -0.1257
 7161SOL    HW233117   4.217   1.848  13.570  0.3896 -0.2017 -0.1986
 7162SOL     OW33118   2.368   0.190  12.362  0.4902  0.3565  0.1910
 7162SOL    HW133119   2.342   0.182  12.270  3.1746  1.0457 -0.6036
 7162SOL    HW233120   2.413   0.274  12.368  0.2998  0.3846  1.2223
 7163SOL     OW33121   2.490   0.613  16.438 -0.5174 -0.1097 -0.2727
 7163SOL    HW133122   2.585   0.614  16.421 -0.6527  0.0858 -1.0032
 7163SOL    HW233123   2.486   0.697  16.483  0.6255 -0.3265  0.2484
 7164SOL     OW33124   3.226   1.555   3.908 -0.0454 -0.2548  0.2608
 7164SOL    HW133125   3.288   1.507   3.852  1.4306  1.5454  0.3350
 7164SOL    HW233126   3.222   1.633   3.853 -0.9433 -0.5979 -0.1572
 7165SOL     OW33127   4.689   3.495   5.778 -0.5620  0.2536  0.4051
 7165SOL    HW133128   4.657   3.437   5.847 -0.8927 -0.4357 -0.3332
 7165SOL    HW233129   4.702   3.425   5.714  1.3498 -0.2380  1.3427
 7166SOL     OW33130   3.998   0.579   7.694  0.3767 -0.3875 -0.4780
 7166SOL    HW133131   3.977   0.652   7.751 -1.3595 -1.1285 -0.1892
 7166SOL    HW233132   4.094   0.579   7.689  0.3247 -2.9708 -1.5604
 7167SOL     OW33133   4.280   1.919  17.065 -0.1485 -0.2430 -0.0440
 7167SOL    HW133134   4.335   1.915  16.987 -1.2416  1.3585 -0.9027
 7167SOL    HW233135   4.341   1.972  17.115 -0.0128  1.2923 -1.8366
 7168SOL     OW33136   3.061   2.526  13.473 -0.0691  0.0208 -0.5171
 7168SOL    HW133137   3.071   2.537  13.378 -0.4812  1.4741 -0.3952
 7168SOL    HW233138   3.133   2.572  13.516 -0.1761 -1.7567  1.5065
 7169SOL     OW33139   2.712   0.217   6.158  0.0639 -0.2833 -0.6695
 7169SOL    HW133140   2.624   0.201   6.124 -0.2299  0.2747 -0.1683
 7169SOL    HW233141   2.750   0.247   6.075 -2.6898  0.8505 -1.5061
 7170SOL     OW33142   1.614   0.992   1.526 -0.6128  0.0921  0.2309
 7170SOL    HW133143   1.600   0.993   1.620 -2.1292 -0.4322  0.0133
 7170SOL    HW233144   1.674   0.917   1.519 -0.4266  0.3281 -0.7804
 7171SOL     OW33145   0.317   2.675  14.287  0.5151  0.4594  0.3400
 7171SOL    HW133146   0.397   2.709  14.245  0.0067  0.4280 -0.6368
 7171SOL    HW233147   0.262   2.661  14.211 -1.2209  0.3815  1.6241
 7172SOL     OW33148   1.444   1.390  16.837 -0.0542 -0.3185  0.1890
 7172SOL    HW133149   1.530   1.383  16.798  0.1987 -0.3242  0.7430
 7172SOL    HW233150   1.380   1.384  16.766  2.2025 -0.7889 -1.7568
 7173SOL     OW33151   0.699   4.424  16.700  0.0512  0.1841 -0.1591
 7173SOL    HW133152   0.753   4.453  16.773  1.8033  1.3739 -1.9256
 7173SOL    HW233153   0.724   4.479  16.626  0.0928 -0.5461 -0.6927
 7174SOL     OW33154   0.318   1.145  12.808  0.3032  0.1295 -0.4180
 7174SOL    HW133155   0.252   1.214  12.806  0.9481  0.7599 -0.0761
 7174SOL    HW233156   0.284   1.073  12.755  0.0214  0.3413 -0.5247
 7175SOL     OW33157   3.101   4.367  13.885  0.3899  0.5817 -0.0326
 7175SOL    HW133158   3.016   4.365  13.929 -0.1734  1.7418 -1.0618
 7175SOL    HW233159   3.078   4.308  13.813  0.9203  1.2782 -0.7641
 7176SOL     OW33160   3.842   4.610   7.324 -0.3771 -0.3506 -0.2911
 7176SOL    HW133161   3.876   4.520   7.325 -0.4198 -0.3457  2.6492
 7176SOL    HW233162   3.837   4.622   7.230  0.6147  2.0125 -0.0223
 7177SOL     OW33163   1.784   1.266  15.306 -0.3373  0.1531  0.1930
 7177SOL    HW133164   1.735   1.327  15.251  1.1806  0.7540 -0.5226
 7177SOL    HW233165   1.715   1.203  15.324 -0.0808 -0.4814 -1.1125
 7178SOL     OW33166   2.909   3.545   5.107  0.0668  0.4273 -0.0714
 7178SOL    HW133167   2.892   3.467   5.159 -0.0886  0.8314  0.4793
 7178SOL    HW233168   2.907   3.493   5.027  3.6105  0.9744 -0.4899
 7179SOL     OW33169   2.287   0.017   7.521 -0.0531 -0.2457 -0.2371
 7179SOL    HW133170   2.277   0.104   7.482  1.3036  0.2617  0.5716
 7179SOL    HW233171   2.382   0.016   7.532  0.1232 -0.8982 -1.7206
 7180SOL     OW33172   4.687   4.595   7.900  0.4291 -0.2890  0.7070
 7180SOL    HW133173   4.630   4.613   7.825  2.7289  0.2560 -0.8984
 7180SOL    HW233174   0.044   4.583   7.867  0.0971 -0.6030 -0.0709
 7181SOL     OW33175   1.105   2.858   9.878 -0.2455  0.7001  0.1423
 7181SOL    HW133176   1.076   2.927   9.819 -1.1266 -0.5765 -0.9168
 7181SOL    HW233177   1.029   2.831   9.930  1.3406 -1.2632  1.4422
 7182SOL     OW33178   2.278   2.072   4.398  0.3063  0.1540 -0.3182
 7182SOL    HW133179   2.217   2.042   4.466 -1.0055  1.8891 -0.7509
 7182SOL    HW233180   2.331   2.123   4.460  0.4094 -3.0132  2.2391
 7183SOL     OW33181   0.991   1.768   3.378 -0.4679  0.3716  0.4287
 7183SOL    HW133182   1.037   1.782   3.461  0.9023  0.3288 -0.3161
 7183SOL    HW233183   1.060   1.729   3.324 -0.4835  1.3070 -0.2768
 7184SOL     OW33184   0.489   0.380   5.526  0.1629 -0.1373 -0.2676
 7184SOL    HW133185   0.518   0.465   5.492 -0.6482 -0.2752 -1.3151
 7184SOL    HW233186   0.575   0.339   5.536  0.1710  0.1073  0.7556
 7185SOL     OW33187   2.096   3.948   9.538 -0.1143 -0.0871 -0.1839
 7185SOL    HW133188   2.135   3.862   9.528  0.8846  0.3321  0.1039
 7185SOL    HW233189   2.132   3.971   9.623  0.1825  2.6083 -1.0115
 7186SOL     OW33190   2.735   4.216   0.574  1.5040 -0.7286 -0.3979
 7186SOL    HW133191   2.682   4.211   0.493  1.1074  2.5380 -0.3604
 7186SOL    HW233192   2.784   4.296   0.554  1.3315 -0.4719  0.2007
 7187SOL     OW33193   0.753   2.018   8.224  0.2585 -0.2063  0.7098
 7187SOL    HW133194   0.832   2.071   8.212 -1.1003  1.5808 -0.3142
 7187SOL    HW233195   0.714   2.075   8.290 -2.4488 -0.4521 -0.7037
 7188SOL     OW33196   1.864   0.696   9.242 -0.9288 -0.4111 -0.1702
 7188SOL    HW133197   1.800   0.723   9.176 -0.0755  1.1608 -0.3680
 7188SOL    HW233198   1.934   0.658   9.190 -0.2380  0.2269  0.2915
 7189SOL     OW33199   2.352   0.950   2.183 -0.6556 -0.1377 -0.0903
 7189SOL    HW133200   2.433   0.916   2.221  0.7799  3.8771  0.5306
 7189SOL    HW233201   2.320   0.879   2.127 -0.9738 -0.1075  0.0510
 7190SOL     OW33202   0.494   0.004  13.597 -0.1139  0.0527  0.3430
 7190SOL    HW133203   0.526   0.089  13.565 -1.1915  0.7683  1.1801
 7190SOL    HW233204   0.400   0.018  13.599 -0.4392 -1.5566 -3.4511
 7191SOL     OW33205   3.670   2.162   3.150 -0.0103  0.1757  0.3302
 7191SOL    HW133206   3.739   2.227   3.160 -0.2871  0.8347 -1.9178
 7191SOL    HW233207   3.725   2.092   3.116 -2.0538 -0.0846 -2.4662
 7192SOL     OW33208   3.101   4.109   8.637  0.3591  0.3172 -0.2358
 7192SOL    HW133209   3.187   4.145   8.660 -0.6774  1.6201  1.5589
 7192SOL    HW233210   3.106   4.042   8.706  0.9359 -1.1347 -1.6867
 7193SOL     OW33211   3.551   1.355   3.750  0.2015  0.2386  0.1902
 7193SOL    HW133212   3.475   1.372   3.696 -0.1348 -0.1158  0.5530
 7193SOL    HW233213   3.517   1.281   3.799  0.0280 -0.2896 -0.7379
 7194SOL     OW33214   4.258   4.583   0.154  0.3134  0.1833  0.3349
 7194SOL    HW133215   4.258   4.508   0.213 -0.9957  2.2677  2.9593
 7194SOL    HW233216   4.169   4.618   0.161 -0.9378 -2.9035 -0.2681
 7195SOL     OW33217   3.494   4.431  16.900  0.6458  0.0033  0.2209
 7195SOL    HW133218   3.507   4.336  16.900  1.5352  0.1228 -1.0814
 7195SOL    HW233219   3.406   4.439  16.863  0.9050 -0.8598 -0.5870
 7196SOL     OW33220   1.301   0.953   5.153 -0.5058 -0.2352  0.2698
 7196SOL    HW133221   1.266   0.887   5.212 -2.9205 -0.0897 -1.0195
 7196SOL    HW233222   1.317   0.909   5.070  0.9865 -1.8016  1.3879
 7197SOL     OW33223   0.748   0.537  12.138  0.0996  0.2280  0.0955
 7197SOL    HW133224   0.684   0.608  12.130 -0.4498 -0.4581 -1.7774
 7197SOL    HW233225   0.732   0.478  12.063  1.0903 -1.7654  1.4486
 7198SOL     OW33226   4.132   1.475   1.408  0.1064  0.5571 -0.5102
 7198SOL    HW133227   4.073   1.416   1.361  0.1506 -0.2887  0.4957
 7198SOL    HW233228   4.215   1.457   1.363  0.0598 -1.2891  0.1078
 7199SOL     OW33229   4.385   0.032  15.359  0.4985 -0.7868 -0.0693
 7199SOL    HW133230   4.465   0.055  15.312 -0.3520 -1.0274 -1.6511
 7199SOL    HW233231   4.326   0.050  15.286 -1.1398 -1.8318  0.9877
 7200SOL     OW33232   0.041   3.587   6.127 -0.6869  0.3132 -0.3678
 7200SOL    HW133233   0.084   3.591   6.041  3.0145 -1.6856  1.4234
 7200SOL    HW233234   4.684   3.566   6.099 -0.9689  0.6726  0.2777
 7201SOL     OW33235   0.312   0.151   6.380  0.3119 -0.6094  0.2288
 7201SOL    HW133236   0.390   0.206   6.382  0.9015 -1.4109 -0.3771
 7201SOL    HW233237   0.273   0.145   6.467 -1.0683  2.6432 -0.1628
 7202SOL     OW33238   2.549   0.907   5.144  0.4603  0.2350 -0.0902
 7202SOL    HW133239   2.523   0.910   5.236  1.8172  0.1762  0.2913
 7202SOL    HW233240   2.637   0.872   5.150  0.8102  1.3903  1.4396
 7203SOL     OW33241   1.963   0.963   2.138 -0.4023 -0.0058  0.0839
 7203SOL    HW133242   2.019   1.008   2.074  0.5233  0.0173  0.9032
 7203SOL    HW233243   1.986   0.871   2.129 -0.6645 -0.3557  2.9991
 7204SOL     OW33244   2.917   3.007   6.213  0.6683 -0.2865 -0.0803
 7204SOL    HW133245   2.825   3.008   6.240  0.4923  0.0313 -0.7111
 7204SOL    HW233246   2.927   3.091   6.169  2.2601 -1.1697 -1.3952
 7205SOL     OW33247   2.121   4.166  13.998  0.1190  0.0531  0.0574
 7205SOL    HW133248   2.163   4.250  13.979  0.7096 -0.2930 -0.1638
 7205SOL    HW233249   2.035   4.188  13.960  0.2455  1.5181  0.6160
 7206SOL     OW33250   1.742   4.000   7.119 -0.2731  0.2266  0.1538
 7206SOL    HW133251   1.684   4.015   7.044 -0.7467  0.1966  0.5130
 7206SOL    HW233252   1.724   4.076   7.174  0.2522 -0.7891  1.7213
 7207SOL     OW33253   3.838   4.575   2.702  0.3857 -0.0089  0.2608
 7207SOL    HW133254   3.782   4.644   2.666  3.2072  0.5215 -3.0779
 7207SOL    HW233255   3.770   4.510   2.716 -0.0399  0.4276  0.2268
 7208SOL     OW33256   4.505   2.063  12.953 -0.5037 -0.1953  0.3310
 7208SOL    HW133257   4.592   2.037  12.921 -0.2683  0.6396  0.2900
 7208SOL    HW233258   4.506   2.152  12.919  1.5978 -0.0557  0.6987
 7209SOL     OW33259   0.191   3.128   5.330  0.0725 -0.1805  0.3273
 7209SOL    HW133260   0.231   3.214   5.343 -0.4682  0.2109 -0.5729
 7209SOL    HW233261   0.217   3.085   5.411  0.1011  0.0394  0.4361
 7210SOL     OW33262   0.105   1.641  17.373 -0.7803 -0.3282 -0.3194
 7210SOL    HW133263   0.188   1.599  17.349 -1.5565 -2.7869  1.2739
 7210SOL    HW233264   0.112   1.707  17.304  2.1856 -0.1041  0.1873
 7211SOL     OW33265   1.310   4.380   8.501 -0.0959 -0.2215 -0.1276
 7211SOL    HW133266   1.365   4.332   8.563  1.0880  1.3548  0.0283
 7211SOL    HW233267   1.305   4.318   8.428  3.1254 -0.8796  0.2247
 7212SOL     OW33268   1.459   2.271   7.758  0.1742  0.7586  0.1588
 7212SOL    HW133269   1.484   2.252   7.667 -0.0474 -1.7925  0.6346
 7212SOL    HW233270   1.366   2.292   7.754  0.2045  1.2405  1.9690
 7213SOL     OW33271   3.401   4.551   9.888 -0.1106 -0.3264  0.6283
 7213SOL    HW133272   3.447   4.470   9.909 -0.4704 -0.4704  0.8574
 7213SOL    HW233273   3.391   4.545   9.793 -1.8234 -0.5204  0.8243
 7214SOL     OW33274   3.300   0.046   6.132 -0.6251 -0.6830 -0.2908
 7214SOL    HW133275   3.251   0.122   6.162 -1.9830 -1.9998  0.8536
 7214SOL    HW233276   3.226   4.728   6.099 -0.4301 -0.5020 -0.9917
 7215SOL     OW33277   2.728   1.563   1.960 -0.4964  0.2157  0.1584
 7215SOL    HW133278   2.783   1.636   1.989  0.0465  0.2813 -1.0124
 7215SOL    HW233279   2.642   1.604   1.968  0.1716  1.7706 -0.5595
 7216SOL     OW33280   1.603   3.417   6.543 -0.0085  0.0476 -0.7219
 7216SOL    HW133281   1.664   3.473   6.591  0.5666 -0.8900 -0.3563
 7216SOL    HW233282   1.666   3.375   6.485 -0.7655  3.4921 -4.0370
 7217SOL     OW33283   3.268   1.772  10.077  0.0279  0.2538 -0.4231
 7217SOL    HW133284   3.278   1.818   9.993  0.4595  1.6558  0.3906
 7217SOL    HW233285   3.334   1.702  10.067 -1.1863 -0.6466 -2.1446
 7218SOL     OW33286   0.438   3.270   5.228  0.1351  0.3229 -0.4651
 7218SOL    HW133287   0.452   3.203   5.295 -3.4236  1.0033  0.9352
 7218SOL    HW233288   0.527   3.297   5.208  0.3255  0.4190  0.4947
 7219SOL     OW33289   4.569   1.366   7.667 -0.2873  0.5129 -0.3560
 7219SOL    HW133290   4.652   1.401   7.698 -0.9750  0.2273  1.7637
 7219SOL    HW233291   4.578   1.396   7.576 -1.5572  4.6426  0.8810
 7220SOL     OW33292   4.459   0.274  10.055  0.0578 -0.0817  0.0316
 7220SOL    HW133293   4.466   0.305   9.965  0.1798  1.5204  0.5992
 7220SOL    HW233294   4.549   0.268  10.089  0.0951  0.3586  0.0059
 7221SOL     OW33295   1.998   1.627   2.457  0.3125  0.1019  0.2461
 7221SOL    HW133296   1.996   1.552   2.516  0.6818  0.5155  0.7862
 7221SOL    HW233297   1.930   1.605   2.393  0.7528 -0.6452  0.0321
 7222SOL     OW33298   3.853   3.819   5.869  0.3004  0.2801 -0.6720
 7222SOL    HW133299   3.812   3.795   5.786 -2.8868 -1.3055  1.3763
 7222SOL    HW233300   3.936   3.772   5.875 -0.2261 -0.7147 -1.3396
 7223SOL     OW33301   1.433   0.727   8.514 -0.3663 -0.1279 -0.5621
 7223SOL    HW133302   1.411   0.814   8.480 -1.9763 -0.6564 -0.8542
 7223SOL    HW233303   1.507   0.700   8.460  0.9855 -1.4583  1.9664
 7224SOL     OW33304   3.277   2.557   4.398  0.4192  0.0370  0.3478
 7224SOL    HW133305   3.286   2.632   4.339 -3.1694 -0.0438 -0.2801
 7224SOL    HW233306   3.370   2.534   4.407  0.1730 -1.8583 -2.0892
 7225SOL     OW33307   1.115   1.685  13.131 -0.0734 -0.1234 -0.4769
 7225SOL    HW133308   1.086   1.740  13.058 -2.6283  0.9887  1.3709
 7225SOL    HW233309   1.208   1.708  13.134  0.6193 -2.9202 -0.2183
 7226SOL     OW33310   1.844   1.297   9.678  0.0508 -0.6515 -0.4785
 7226SOL    HW133311   1.875   1.291   9.768 -3.2227  0.4644  0.7094
 7226SOL    HW233312   1.837   1.392   9.666  1.5531 -0.7006 -1.8192
 7227SOL     OW33313   2.928   4.358   6.961 -0.1477 -0.1666  0.1941
 7227SOL    HW133314   2.868   4.431   6.976  1.6067  1.3947 -0.3337
 7227SOL    HW233315   2.874   4.279   6.964 -2.0173  1.1328  0.4459
 7228SOL     OW33316   3.073   2.264   7.636 -0.0832 -0.0668  0.2715
 7228SOL    HW133317   3.133   2.337   7.651  0.7655 -0.8476  0.6281
 7228SOL    HW233318   3.124   2.183   7.629 -0.8347 -0.5471  0.3404
 7229SOL     OW33319   0.180   4.626   8.193 -0.4660  0.5736  0.6158
 7229SOL    HW133320   0.088   4.653   8.194 -0.6409  0.0409 -1.1979
 7229SOL    HW233321   0.201   4.688   8.263  1.6601 -1.3152  1.6447
 7230SOL     OW33322   4.426   2.874  14.903 -0.0863  0.2422 -0.4355
 7230SOL    HW133323   4.357   2.899  14.842  1.4075  2.0245 -1.4155
 7230SOL    HW233324   4.389   2.897  14.988  0.6583 -1.2786  0.3079
 7231SOL     OW33325   2.564   1.236   3.735 -0.6547  0.0688  0.3639
 7231SOL    HW133326   2.504   1.221   3.662  0.5327  0.3635 -0.6686
 7231SOL    HW233327   2.578   1.146   3.766 -0.6541 -0.5252 -1.3516
 7232SOL     OW33328   2.674   2.817  13.171  0.6174 -0.1169  0.2354
 7232SOL    HW133329   2.652   2.750  13.235  1.1539 -2.0926 -1.6559
 7232SOL    HW233330   2.586   2.815  13.131 -0.4268  2.4976  2.4103
 7233SOL     OW33331   2.472   0.610  12.974  0.2515  0.2560 -0.4605
 7233SOL    HW133332   2.547   0.568  12.931 -0.2832 -1.2370  0.0750
 7233SOL    HW233333   2.515   0.656  13.046  2.1964 -0.9702 -0.8367
 7234SOL     OW33334   3.302   2.149   2.598  0.4121  0.0479 -0.0039
 7234SOL    HW133335   3.276   2.147   2.506  4.2815 -0.2146 -1.1021
 7234SOL    HW233336   3.298   2.058   2.627  0.9104 -0.1981 -0.7025
 7235SOL     OW33337   2.582   1.151   7.992 -0.0258 -0.5646 -0.5559
 7235SOL    HW133338   2.543   1.110   8.069  1.5446 -1.1486 -0.0626
 7235SOL    HW233339   2.528   1.226   7.968 -1.0841 -0.9575  0.6339
 7236SOL     OW33340   4.043   2.931  14.991  0.0707 -0.2989 -0.3971
 7236SOL    HW133341   4.054   2.997  15.061 -0.7340  1.0188 -1.5198
 7236SOL    HW233342   3.988   2.985  14.934  0.1480  0.6510  0.4203
 7237SOL     OW33343   2.667   0.091   4.436 -0.0766 -0.7558 -0.4102
 7237SOL    HW133344   2.658   0.016   4.376 -0.7776 -0.7865 -0.2698
 7237SOL    HW233345   2.727   0.150   4.392 -0.2542 -0.5350 -0.3565
 7238SOL     OW33346   2.896   1.422   0.091 -0.1320  0.0607 -0.3108
 7238SOL    HW133347   2.880   1.341   0.041  0.1809 -1.4556  2.0299
 7238SOL    HW233348   2.909   1.490   0.024  1.6158  3.1056  3.1541
 7239SOL     OW33349   1.929   0.098   9.033  0.5497 -0.0926  1.1326
 7239SOL    HW133350   1.879   0.179   9.041  0.1623 -0.4767  2.5650
 7239SOL    HW233351   2.019   0.126   9.048  1.5619 -1.4752 -2.3990
 7240SOL     OW33352   0.167   0.994   6.581  0.1348 -0.1689  0.3071
 7240SOL    HW133353   0.209   1.071   6.542 -3.0964  0.5915 -1.6819
 7240SOL    HW233354   0.108   0.972   6.508  0.3015 -0.1663  0.1712
 7241SOL     OW33355   4.076   1.610  11.215 -0.1076  0.1507  0.5554
 7241SOL    HW133356   4.144   1.543  11.223  1.1344  1.3749  0.2707
 7241SOL    HW233357   4.063   1.616  11.120  1.2644 -1.5030  0.2547
 7242SOL     OW33358   4.505   3.568   6.058 -0.3199 -0.5382 -0.0550
 7242SOL    HW133359   4.489   3.661   6.077  1.2018 -0.3663  0.3655
 7242SOL    HW233360   4.420   3.534   6.031 -0.9283  1.5744 -0.8198
 7243SOL     OW33361   2.512   3.375   7.936 -0.5866 -0.6311  0.4273
 7243SOL    HW133362   2.526   3.307   7.871  3.8467 -1.8222  2.6220
 7243SOL    HW233363   2.427   3.344   7.966 -1.4047  1.0136 -0.1977
 7244SOL     OW33364   2.374   3.866  12.701  0.1602 -0.5476 -0.2291
 7244SOL    HW133365   2.295   3.870  12.756 -0.0509  0.5747 -0.6337
 7244SOL    HW233366   2.392   3.959  12.694  0.6944 -0.3961  3.0208
 7245SOL     OW33367   2.544   2.320   4.150  0.2321  0.3351 -0.6400
 7245SOL    HW133368   2.530   2.246   4.210 -1.9836 -1.1092 -2.8966
 7245SOL    HW233369   2.606   2.374   4.199  1.4459 -0.7458 -0.9939
 7246SOL     OW33370   1.256   0.909   3.361 -0.1072 -0.4193  1.2574
 7246SOL    HW133371   1.174   0.948   3.330  0.0592 -1.9822 -1.1034
 7246SOL    HW233372   1.217   0.833   3.403  1.1197 -1.9725 -0.4399
 7247SOL     OW33373   2.400   0.878   5.964 -0.1108 -0.4876  0.1973
 7247SOL    HW133374   2.408   0.923   6.048 -1.1460  0.0790 -0.0119
 7247SOL    HW233375   2.470   0.919   5.913  1.3123 -2.9028  0.2146
 7248SOL     OW33376   4.658   1.506   8.153 -0.2617  0.1296 -0.3506
 7248SOL    HW133377   4.567   1.509   8.182  0.3368 -0.2135  1.5319
 7248SOL    HW233378   4.697   1.587   8.185 -0.8681  0.4337 -0.3808
 7249SOL     OW33379   4.603   4.071   0.349  0.3079  0.6487 -0.3371
 7249SOL    HW133380   4.565   4.143   0.400 -0.8832  0.2989 -0.7324
 7249SOL    HW233381   4.658   4.025   0.412  1.5657  0.7421 -1.3498
 7250SOL     OW33382   2.145   1.140   2.644  0.6340  0.3382  0.1859
 7250SOL    HW133383   2.132   1.230   2.615  2.3876  1.2060  2.1444
 7250SOL    HW233384   2.140   1.090   2.562  1.3295 -0.3707  0.5735
 7251SOL     OW33385   4.643   2.612   6.341 -0.3753  0.0964 -0.0650
 7251SOL    HW133386   4.623   2.685   6.283  2.2425  0.2565 -0.7732
 7251SOL    HW233387   4.558   2.568   6.337 -0.7872  1.0996 -1.8857
 7252SOL     OW33388   2.194   3.825   5.234  0.2562  0.6171  0.1326
 7252SOL    HW133389   2.281   3.813   5.195  0.0688 -0.5120  0.0455
 7252SOL    HW233390   2.204   3.901   5.291 -0.5155  1.1747 -0.4796
 7253SOL     OW33391   0.770   1.425  12.612 -0.1587  0.2275 -0.6575
 7253SOL    HW133392   0.714   1.422  12.690  1.2044  0.5231  0.3300
 7253SOL    HW233393   0.790   1.332  12.598 -1.3940 -0.4148  1.7186
 7254SOL     OW33394   3.658   3.123  13.798 -0.0001 -0.5886  0.1560
 7254SOL    HW133395   3.619   3.177  13.729  0.9374 -0.6203 -0.4032
 7254SOL    HW233396   3.699   3.064  13.735  0.5887 -0.0531  0.0359
 7255SOL     OW33397   0.856   4.471   3.084 -0.5229  0.0782 -0.5945
 7255SOL    HW133398   0.778   4.425   3.052 -0.2778  1.4776 -3.2317
 7255SOL    HW233399   0.846   4.558   3.046  2.7498  0.1024 -1.4328
 7256SOL     OW33400   1.354   0.731   7.810 -0.0039  0.1066  0.1222
 7256SOL    HW133401   1.310   0.653   7.844  0.8140 -0.5665 -0.3759
 7256SOL    HW233402   1.446   0.703   7.810 -0.4327 -1.2484 -2.1470
 7257SOL     OW33403   0.506   0.920   4.183  0.0523 -0.1521  0.4066
 7257SOL    HW133404   0.501   0.923   4.087  2.5287  0.5444  0.2865
 7257SOL    HW233405   0.582   0.863   4.196  0.7727  1.2523  2.4062
 7258SOL     OW33406   2.526   3.761   7.306  0.5738 -0.1753 -0.1185
 7258SOL    HW133407   2.473   3.837   7.331 -1.3455 -2.3588  2.4781
 7258SOL    HW233408   2.498   3.693   7.367  1.6180  0.2294  0.7972
 7259SOL     OW33409   1.529   3.983   6.934  0.0155 -0.1100  0.0193
 7259SOL    HW133410   1.477   4.019   7.006 -2.0908 -1.0474 -1.0417
 7259SOL    HW233411   1.461   3.927   6.896 -0.7048  0.5877  0.2713
 7260SOL     OW33412   1.877   4.064   2.071  0.1639 -0.1585  0.4904
 7260SOL    HW133413   1.845   3.974   2.073  0.1441 -0.1900 -1.2227
 7260SOL    HW233414   1.891   4.085   1.979 -2.7837 -0.9564 -0.1482
 7261SOL     OW33415   1.275   2.118   2.185  0.6663 -0.1516  0.0348
 7261SOL    HW133416   1.221   2.080   2.116  3.0634  0.0809 -1.9807
 7261SOL    HW233417   1.327   2.168   2.122 -0.7434  0.5951 -0.5319
 7262SOL     OW33418   4.610   2.963   6.416 -0.6936  0.2002  0.3877
 7262SOL    HW133419   4.566   2.919   6.344 -0.0267  1.5701 -0.8357
 7262SOL    HW233420   4.602   2.891   6.479  0.6547 -1.3088 -1.1462
 7263SOL     OW33421   1.381   2.292   1.733 -0.1105 -0.3230  0.5208
 7263SOL    HW133422   1.401   2.261   1.821  0.7995  0.2396  0.5098
 7263SOL    HW233423   1.344   2.219   1.683 -1.2253  0.6822 -0.1472
 7264SOL     OW33424   4.465   1.786  10.137 -0.6198  0.0494 -0.5729
 7264SOL    HW133425   4.518   1.716  10.176  0.3007 -0.7761 -3.3496
 7264SOL    HW233426   4.424   1.727  10.074  3.1590 -0.9731 -2.0427
 7265SOL     OW33427   0.423   0.251  10.093  0.5195 -0.0787  0.4253
 7265SOL    HW133428   0.487   0.180  10.087 -0.5826 -1.0904  0.4899
 7265SOL    HW233429   0.475   0.330  10.078 -0.9415  0.7967 -0.1060
 7266SOL     OW33430   0.414   2.048   1.923  0.9031  0.0606  0.2368
 7266SOL    HW133431   0.509   2.039   1.932  0.8666 -0.7050 -0.1669
 7266SOL    HW233432   0.407   2.064   1.829 -0.5480 -1.4288  0.0888
 7267SOL     OW33433   1.105   1.866   2.455 -0.1381  0.2596  0.4015
 7267SOL    HW133434   1.178   1.894   2.511 -0.1912 -1.1787  1.1900
 7267SOL    HW233435   1.036   1.874   2.521 -0.4607 -0.9760  0.2047
 7268SOL     OW33436   0.932   0.546   8.338 -1.0335 -0.0854  0.0779
 7268SOL    HW133437   0.944   0.452   8.326 -2.2146 -0.2936  0.5346
 7268SOL    HW233438   0.935   0.574   8.247  1.1892  0.7211  0.3993
 7269SOL     OW33439   2.686   1.940   6.971 -0.0563  0.1181  0.2108
 7269SOL    HW133440   2.723   2.017   7.014  0.4542  0.5448 -0.9824
 7269SOL    HW233441   2.592   1.952   6.976 -0.4501 -2.5644 -0.4776
 7270SOL     OW33442   1.580   0.119   3.758 -0.2165 -0.1364 -0.0973
 7270SOL    HW133443   1.535   0.077   3.685  0.9363 -1.5956  0.0267
 7270SOL    HW233444   1.573   0.039   3.811  1.0706 -0.4008 -0.3258
 7271SOL     OW33445   3.685   4.241  16.024 -0.1049  0.1774  0.0624
 7271SOL    HW133446   3.767   4.262  16.069  1.0923 -0.3309 -1.8649
 7271SOL    HW233447   3.635   4.320  16.047  2.4350  1.4068  1.3895
 7272SOL     OW33448   3.351   2.486   5.570 -0.8227 -0.3853 -0.1525
 7272SOL    HW133449   3.393   2.436   5.641 -0.8402  1.5954  1.2455
 7272SOL    HW233450   3.276   2.515   5.622  0.5649  1.7238  0.6745
 7273SOL     OW33451   2.086   0.688  15.033 -0.8511 -0.5283 -0.1645
 7273SOL    HW133452   2.098   0.777  15.001  0.0438 -0.0956  1.3614
 7273SOL    HW233453   2.124   0.709  15.118  2.8036  2.1080 -2.4547
 7274SOL     OW33454   2.050   3.957   9.251  0.0819  0.0570  0.0675
 7274SOL    HW133455   2.002   3.938   9.331  0.8233 -2.8556 -0.1464
 7274SOL    HW233456   2.134   3.979   9.291  0.0035  0.7815 -0.1745
 7275SOL     OW33457   1.723   2.819   7.394 -0.4459  0.5322  0.1533
 7275SOL    HW133458   1.767   2.748   7.347  0.1416  2.2516 -1.8684
 7275SOL    HW233459   1.633   2.799   7.369  0.2702 -1.2503 -1.0544
 7276SOL     OW33460   0.756   3.927  12.917 -0.2254 -0.4043  0.2129
 7276SOL    HW133461   0.763   3.854  12.979 -0.9454 -0.5965  0.0761
 7276SOL    HW233462   0.752   3.885  12.831  1.8982  0.8967 -0.5156
 7277SOL     OW33463   3.412   2.802   7.551  1.0042 -0.4617  0.5426
 7277SOL    HW133464   3.438   2.713   7.528 -0.4410 -0.6594 -0.3190
 7277SOL    HW233465   3.494   2.851   7.543  0.4112 -0.0440 -2.7723
 7278SOL     OW33466   2.614   2.416  17.611  0.3504  0.1682 -0.3591
 7278SOL    HW133467   2.583   2.327  17.599  0.5170 -0.0623  0.8719
 7278SOL    HW233468   2.560   2.469  17.553 -1.1013  0.3870  1.1999
 7279SOL     OW33469   3.152   2.608   8.785 -0.0062  0.1097 -0.6140
 7279SOL    HW133470   3.060   2.589   8.768 -0.0249  0.5982 -1.0691
 7279SOL    HW233471   3.165   2.535   8.846  0.6358  0.6298 -0.1286
 7280SOL     OW33472   1.537   4.473   9.666 -0.1221 -0.2855  0.6732
 7280SOL    HW133473   1.631   4.461   9.683  0.2903  0.4571 -1.0456
 7280SOL    HW233474   1.504   4.383   9.660  0.0853 -0.3849  1.0302
 7281SOL     OW33475   3.885   1.268   7.564 -0.8577 -0.1688 -0.0410
 7281SOL    HW133476   3.869   1.294   7.473 -0.1436 -2.8055 -0.9026
 7281SOL    HW233477   3.819   1.199   7.572  0.8549 -1.5580  2.0045
 7282SOL     OW33478   2.818   4.533  17.142  0.0865 -0.3822 -0.1907
 7282SOL    HW133479   2.759   4.483  17.085 -0.1610 -2.8479  2.2346
 7282SOL    HW233480   2.802   4.622  17.110 -1.7849 -0.6317  0.0188
 7283SOL     OW33481   0.024   2.048  15.868  0.3837 -0.1092  0.3202
 7283SOL    HW133482   4.706   2.014  15.942  0.0997 -0.0856  0.1382
 7283SOL    HW233483   0.033   2.138  15.899 -1.7008  0.1871  0.0530
 7284SOL     OW33484   3.012   2.744   3.707  0.0370 -0.2408  0.2443
 7284SOL    HW133485   3.033   2.669   3.763  1.3422  0.5376  0.7771
 7284SOL    HW233486   3.001   2.815   3.770 -0.6693  1.7943 -2.1653
 7285SOL     OW33487   3.276   0.067  13.282  0.1672  0.4507  0.7498
 7285SOL    HW133488   3.297   4.709  13.306  2.1476  0.7519  0.1387
 7285SOL    HW233489   3.356   0.080  13.231  0.3497 -0.4681  0.8131
 7286SOL     OW33490   3.151   1.669   2.288 -0.2234 -0.1898 -0.6621
 7286SOL    HW133491   3.057   1.653   2.292 -0.0071 -1.1031  0.7383
 7286SOL    HW233492   3.183   1.614   2.359 -0.0091 -0.5587 -1.0435
 7287SOL     OW33493   2.034   1.714   5.715  0.3638 -0.3785  0.1141
 7287SOL    HW133494   2.060   1.702   5.624 -0.0670  1.8215 -0.3046
 7287SOL    HW233495   1.954   1.766   5.710 -1.0795 -2.7003 -0.7428
 7288SOL     OW33496   3.178   0.225  10.793 -0.0258  0.4181  0.4556
 7288SOL    HW133497   3.149   0.225  10.884  0.7537 -1.9532  0.6994
 7288SOL    HW233498   3.127   0.296  10.755 -0.0627  0.0730 -0.1421
 7289SOL     OW33499   2.678   0.957   7.779 -0.4446  0.2244  0.2306
 7289SOL    HW133500   2.669   1.041   7.733 -1.6466 -1.0853 -1.9332
 7289SOL    HW233501   2.643   0.985   7.863 -2.0147 -1.7713  0.2253
 7290SOL     OW33502   3.740   0.097  14.318 -0.0911  0.4533  0.3805
 7290SOL    HW133503   3.779   0.107  14.232 -1.8852  2.1907 -0.2414
 7290SOL    HW233504   3.747   0.186  14.352  3.0604  0.4341 -0.1775
 7291SOL     OW33505   2.057   0.564   1.115 -0.3742 -0.5859 -0.2953
 7291SOL    HW133506   2.051   0.546   1.021 -1.9953 -2.4838  0.1758
 7291SOL    HW233507   2.083   0.656   1.109 -3.7255  0.2852 -1.9461
 7292SOL     OW33508   2.941   1.753   8.479 -0.0086 -0.0237  0.0708
 7292SOL    HW133509   2.849   1.735   8.462 -0.3077  0.4152  1.1902
 7292SOL    HW233510   2.955   1.818   8.410 -1.6872  1.6744  1.3233
 7293SOL     OW33511   4.184   3.317  14.942 -0.6510  0.0133 -0.1605
 7293SOL    HW133512   4.175   3.262  14.864  0.4623 -0.1584 -0.1685
 7293SOL    HW233513   4.278   3.330  14.954 -0.4069 -0.8799 -1.1645
 7294SOL     OW33514   0.084   1.242   2.885  0.2078 -0.0022 -0.1135
 7294SOL    HW133515   0.081   1.330   2.924  2.3165 -0.2369  0.5790
 7294SOL    HW233516   0.113   1.262   2.796 -0.1520  3.1721  0.4578
 7295SOL     OW33517   0.648   2.736   4.509  0.1723 -0.4091  0.4090
 7295SOL    HW133518   0.697   2.799   4.456  0.2595 -0.5818  0.2825
 7295SOL    HW233519   0.723   2.706   4.561  0.0830 -0.0340  0.7581
 7296SOL     OW33520   3.900   1.969   2.892  0.2936  0.4827  0.0587
 7296SOL    HW133521   3.981   2.016   2.870 -0.5042  1.1878 -1.3512
 7296SOL    HW233522   3.874   1.948   2.802  0.1390  0.3363  0.1394
 7297SOL     OW33523   2.566   0.752   1.582 -0.3511  0.1831  0.1522
 7297SOL    HW133524   2.557   0.822   1.648  0.9165 -0.5595  1.1123
 7297SOL    HW233525   2.631   0.693   1.619  0.0053 -2.0427 -4.1027
 7298SOL     OW33526   3.831   1.494  14.716  0.1646 -0.0285 -0.1263
 7298SOL    HW133527   3.882   1.469  14.639 -0.0020  0.5853 -0.4409
 7298SOL    HW233528   3.797   1.580  14.690  0.5833  0.2870  0.3437
 7299SOL     OW33529   3.798   0.362   8.163  0.0438 -0.0390  0.2458
 7299SOL    HW133530   3.821   0.426   8.230  1.5839  0.5045 -0.8002
 7299SOL    HW233531   3.771   0.417   8.089 -0.9829  1.0930  1.4665
 7300SOL     OW33532   0.233   0.383  16.483 -0.0075 -0.1733 -0.0219
 7300SOL    HW133533   0.285   0.333  16.545 -2.5790 -1.7741  0.8444
 7300SOL    HW233534   0.255   0.344  16.398  1.2260  3.0441 -1.1820
 7301SOL     OW33535   0.100   2.788  15.364  0.1717 -0.2261 -0.0869
 7301SOL    HW133536   0.130   2.872  15.398  1.0145 -1.8234  3.1081
 7301SOL    HW233537   0.187   2.777  15.326 -0.2035 -1.2329 -0.6535
 7302SOL     OW33538   3.961   3.463   5.326  0.2770  0.3593 -0.1076
 7302SOL    HW133539   3.901   3.505   5.388 -1.6719 -1.0129 -1.0781
 7302SOL    HW233540   3.896   3.398   5.300  0.3865  0.5828 -0.9270
 7303SOL     OW33541   4.712   2.539   3.600 -0.4969  0.2331 -0.8074
 7303SOL    HW133542   0.075   2.526   3.602 -0.4593  0.6613  0.1649
 7303SOL    HW233543   4.695   2.592   3.522 -0.6705  0.1229 -0.8463
 7304SOL     OW33544   0.709   1.857   5.439 -0.1159 -0.7717  0.1739
 7304SOL    HW133545   0.737   1.841   5.529  2.0429  0.6893 -0.2386
 7304SOL    HW233546   0.705   1.768   5.404 -0.5251 -1.0483  0.9227
 7305SOL     OW33547   4.198   1.649   4.685 -0.2024 -0.0915 -0.2493
 7305SOL    HW133548   4.163   1.635   4.774  1.2609 -0.1083  0.3260
 7305SOL    HW233549   4.204   1.559   4.655 -1.5655  0.0893 -1.0531
 7306SOL     OW33550   1.687   0.402   0.711  0.0592 -0.3393 -0.0564
 7306SOL    HW133551   1.720   0.416   0.799 -0.5964 -2.7916  0.5673
 7306SOL    HW233552   1.603   0.449   0.717  0.1650 -0.2798  0.8688
 7307SOL     OW33553   1.897   1.622   0.984  0.5608 -0.1479 -0.1346
 7307SOL    HW133554   1.960   1.555   0.960  0.9082  0.0946  0.1043
 7307SOL    HW233555   1.874   1.580   1.067 -0.2524 -0.4053 -0.4840
 7308SOL     OW33556   1.756   2.662   3.926  0.2131  0.6109 -0.0873
 7308SOL    HW133557   1.820   2.691   3.991 -0.3383  0.9839  0.2832
 7308SOL    HW233558   1.814   2.589   3.903  0.7303  0.4795  1.6725
 7309SOL     OW33559   2.421   4.541   6.618  0.5316 -0.0981  0.2207
 7309SOL    HW133560   2.421   4.455   6.661 -3.2119 -0.4210 -0.4678
 7309SOL    HW233561   2.365   4.590   6.678  1.8027  2.6404 -0.8515
 7310SOL     OW33562   1.450   3.673   6.616  0.7852  0.0525 -0.3839
 7310SOL    HW133563   1.485   3.731   6.548 -0.7368 -0.6435 -1.7589
 7310SOL    HW233564   1.457   3.591   6.568  0.2959  0.5580 -1.3241
 7311SOL     OW33565   4.124   3.726   2.434 -0.2908  0.4157  0.2607
 7311SOL    HW133566   4.063   3.681   2.492  0.7972  0.4300  1.4182
 7311SOL    HW233567   4.132   3.809   2.481  1.2150  0.6034 -0.3149
 7312SOL     OW33568   0.036   3.525   7.074  0.1143 -0.4753 -0.3241
 7312SOL    HW133569   4.725   3.441   7.087 -1.9462  0.6643  0.0487
 7312SOL    HW233570   0.004   3.569   7.152  2.0402 -2.0745  1.3645
 7313SOL     OW33571   1.853   0.000   9.403  0.0999  0.3576  0.1636
 7313SOL    HW133572   1.913   0.001   9.477 -1.1223  0.0739  1.1563
 7313SOL    HW233573   1.848   0.093   9.379 -2.7667  0.3141  0.5569
 7314SOL     OW33574   2.720   0.514   5.477 -0.3118 -0.1960  0.3898
 7314SOL    HW133575   2.652   0.521   5.410 -0.5022 -1.3509  0.4674
 7314SOL    HW233576   2.713   0.600   5.519  0.6075  0.9821 -1.8967
 7315SOL     OW33577   1.066   2.982   1.271  0.2999  0.0751 -0.0873
 7315SOL    HW133578   1.093   2.922   1.340 -0.8290 -0.6091 -0.2290
 7315SOL    HW233579   1.002   2.922   1.231  0.4107 -0.0567 -0.0672
 7316SOL     OW33580   4.123   1.405   5.864  0.3067  0.3660 -0.1762
 7316SOL    HW133581   4.202   1.376   5.816  0.7217  0.0449  0.7066
 7316SOL    HW233582   4.118   1.495   5.833  3.5995  1.0246  1.1688
 7317SOL     OW33583   3.480   2.645  10.896  0.5705  0.1609  0.3994
 7317SOL    HW133584   3.428   2.650  10.977  0.1591 -0.4769  0.1727
 7317SOL    HW233585   3.547   2.711  10.916  1.5586 -0.3523 -1.3000
 7318SOL     OW33586   2.125   2.031   2.556  0.3854  0.2963  0.0477
 7318SOL    HW133587   2.142   2.103   2.617  1.8568  0.6619 -0.8034
 7318SOL    HW233588   2.165   2.074   2.480  1.7873 -1.1663 -0.0466
 7319SOL     OW33589   4.013   4.245  10.998 -0.5043  0.3620  0.2436
 7319SOL    HW133590   4.067   4.323  10.984  0.6631 -0.3636  0.7349
 7319SOL    HW233591   3.986   4.260  11.089 -1.8644  1.9908 -0.4188
 7320SOL     OW33592   4.536   0.599  15.677 -0.3041 -0.6503 -0.2162
 7320SOL    HW133593   4.538   0.675  15.735 -1.6080 -0.3571 -0.5409
 7320SOL    HW233594   4.441   0.591  15.661 -0.5478  2.3113 -0.2165
 7321SOL     OW33595   4.166   4.306   4.683 -0.3159 -0.0404  0.1866
 7321SOL    HW133596   4.079   4.342   4.669  1.1836  3.8302  0.7981
 7321SOL    HW233597   4.166   4.231   4.624 -0.0914  1.3243 -1.5530
 7322SOL     OW33598   1.340   1.709   2.245  0.2313  0.5810  0.4281
 7322SOL    HW133599   1.398   1.707   2.320 -0.4217 -0.2751  0.9076
 7322SOL    HW233600   1.359   1.800   2.221  1.5860  0.1420 -0.1521
 7323SOL     OW33601   3.353   3.465   0.715  0.2035 -0.5374  0.1318
 7323SOL    HW133602   3.360   3.381   0.669  0.8720 -0.8378  0.7806
 7323SOL    HW233603   3.267   3.500   0.692  0.6302 -0.2937 -1.0930
 7324SOL     OW33604   2.036   0.009   4.019 -0.5076  0.0906  0.1013
 7324SOL    HW133605   1.995   0.010   3.933  0.0533 -3.3177 -0.1868
 7324SOL    HW233606   2.126   0.027   3.991 -1.5353  2.7288 -1.3971
 7325SOL     OW33607   4.573   2.709   5.382  0.3690 -0.5705  0.0408
 7325SOL    HW133608   4.660   2.668   5.391 -0.0433 -1.5602 -0.4490
 7325SOL    HW233609   4.606   2.797   5.366  2.7916 -1.6018 -0.6955
 7326SOL     OW33610   0.745   3.868   2.436  0.2112 -1.1475 -0.6139
 7326SOL    HW133611   0.738   3.961   2.456 -2.6203 -1.5881  0.5125
 7326SOL    HW233612   0.659   3.852   2.397 -0.9530  1.6021  0.8802
 7327SOL     OW33613   3.245   2.324   5.989  0.4491 -0.3129 -0.2447
 7327SOL    HW133614   3.236   2.232   5.962 -0.9801 -0.8517  2.0430
 7327SOL    HW233615   3.286   2.309   6.074 -2.4279 -0.0179  1.2056
 7328SOL     OW33616   4.412   4.455   6.012 -0.7593 -0.5744 -0.1156
 7328SOL    HW133617   4.373   4.426   5.930 -2.1297  0.7801  0.0565
 7328SOL    HW233618   4.329   4.487   6.049 -0.7156 -0.0301 -0.4910
 7329SOL     OW33619   3.532   4.598   5.154 -0.7566  0.3916  0.2443
 7329SOL    HW133620   3.506   4.506   5.160  0.7798 -0.0315  0.5469
 7329SOL    HW233621   3.449   4.644   5.148 -0.6977  0.4734  0.0331
 7330SOL     OW33622   1.378   0.028   4.683  0.3354  0.0210 -0.1384
 7330SOL    HW133623   1.326   4.680   4.668  0.0847  0.0012  0.8536
 7330SOL    HW233624   1.396   0.013   4.776 -0.7512 -1.3668 -0.1406
 7331SOL     OW33625   0.029   3.920   6.852  0.1815 -0.6427  0.2422
 7331SOL    HW133626   0.020   4.015   6.842  0.7411 -0.4678  1.3463
 7331SOL    HW233627   0.054   3.898   6.763 -3.4010 -1.3237 -0.5694
 7332SOL     OW33628   4.265   0.140   4.734  0.1584  0.4257 -0.1812
 7332SOL    HW133629   4.192   0.171   4.679 -0.0406  1.8431  0.8843
 7332SOL    HW233630   4.286   0.052   4.701 -0.2297 -0.3787  1.7136
 7333SOL     OW33631   2.167   3.774   8.102 -0.1572 -0.5743  0.1873
 7333SOL    HW133632   2.236   3.839   8.118  1.4223 -1.9801 -0.8897
 7333SOL    HW233633   2.232   3.704   8.096 -0.6414 -1.0223  0.1658
 7334SOL     OW33634   0.479   0.114   5.745 -0.2142 -0.1457 -0.1078
 7334SOL    HW133635   0.411   0.140   5.807 -1.0503 -2.6034  0.0054
 7334SOL    HW233636   0.426   0.090   5.669  0.0307 -0.0952 -0.2957
 7335SOL     OW33637   2.955   1.979   9.855  0.4957 -0.0906 -0.6773
 7335SOL    HW133638   3.033   1.925   9.840  1.2229  0.7133  0.2012
 7335SOL    HW233639   2.991   2.056   9.899 -0.6628 -0.5183  1.0155
 7336SOL     OW33640   1.873   3.718   9.378 -0.2076 -0.1550 -0.1537
 7336SOL    HW133641   1.857   3.628   9.406 -1.4020 -0.2406 -1.1113
 7336SOL    HW233642   1.965   3.703   9.356 -0.4808 -2.5516  0.3161
 7337SOL     OW33643   1.860   4.424  10.997 -0.8210 -0.5315  0.4008
 7337SOL    HW133644   1.841   4.514  10.972  1.5189 -0.0522  0.2885
 7337SOL    HW233645   1.909   4.440  11.078 -0.2327  0.6823 -0.1985
 7338SOL     OW33646   0.187   1.595   4.086 -0.1428  0.4401 -0.1562
 7338SOL    HW133647   0.206   1.653   4.160  2.8530 -0.7818  0.0100
 7338SOL    HW233648   0.266   1.542   4.085 -0.3388  0.1432  0.5125
 7339SOL     OW33649   1.670   0.682   8.174 -0.1671  0.0232  0.6063
 7339SOL    HW133650   1.623   0.765   8.167  0.4136  0.1545 -1.8083
 7339SOL    HW233651   1.702   0.689   8.264  1.0953  0.6099  0.1138
 7340SOL     OW33652   2.412   1.225   2.178  0.0525 -0.1671 -0.2208
 7340SOL    HW133653   2.363   1.285   2.234  0.5491  0.3184 -0.3113
 7340SOL    HW233654   2.370   1.142   2.199  2.1229 -1.5787 -1.5909
 7341SOL     OW33655   1.860   2.739   1.370 -0.1992  1.0369  0.2006
 7341SOL    HW133656   1.917   2.815   1.361  1.7188 -0.4228  0.2425
 7341SOL    HW233657   1.773   2.779   1.357  0.8739  3.9463  2.0235
 7342SOL     OW33658   4.470   0.419  12.493 -0.0133 -0.5044  0.1383
 7342SOL    HW133659   4.479   0.515  12.488 -2.5567 -0.2850 -0.3170
 7342SOL    HW233660   4.376   0.424  12.509  0.5122  1.0811  2.7471
 7343SOL     OW33661   4.515   1.051  16.265  0.0701  0.2531  0.4632
 7343SOL    HW133662   4.560   1.134  16.281  0.8847  0.2568 -1.7606
 7343SOL    HW233663   4.501   1.010  16.350 -0.4340 -1.1261 -0.2847
 7344SOL     OW33664   4.593   0.049   4.637 -0.2206 -0.4120  0.0462
 7344SOL    HW133665   4.558   0.004   4.560  1.6498 -1.4910 -0.1874
 7344SOL    HW233666   4.602   0.135   4.595 -1.5121 -2.1784 -3.8509
 7345SOL     OW33667   2.693   1.855  12.290  0.4524 -0.7537  0.0162
 7345SOL    HW133668   2.680   1.916  12.217  0.9301 -1.8989 -1.0467
 7345SOL    HW233669   2.605   1.846  12.325 -0.3549 -0.5042 -1.9338
 7346SOL     OW33670   3.500   0.219   7.364 -0.3697 -0.0298 -0.5946
 7346SOL    HW133671   3.536   0.250   7.281  0.5619 -3.3283 -1.4546
 7346SOL    HW233672   3.415   0.262   7.364  0.0851  0.8180  2.2536
 7347SOL     OW33673   1.871   3.666   3.883  0.5290  0.4524 -0.7791
 7347SOL    HW133674   1.924   3.608   3.938  0.0387  0.7505  0.0131
 7347SOL    HW233675   1.802   3.696   3.942 -0.3037  1.3692 -2.2094
 7348SOL     OW33676   0.920   0.344  14.865  0.0814  0.5458 -0.1195
 7348SOL    HW133677   0.843   0.390  14.830  0.5370  1.6960  0.3955
 7348SOL    HW233678   0.966   0.320  14.784  0.1602 -1.5165  0.5320
 7349SOL     OW33679   1.826   1.477   7.515 -0.1394 -0.1459 -0.4323
 7349SOL    HW133680   1.896   1.426   7.556 -0.4176 -0.1526  0.0303
 7349SOL    HW233681   1.752   1.457   7.572 -0.3875  0.0345 -0.6930
 7350SOL     OW33682   1.536   3.735   7.578  0.0781 -0.4185 -0.2519
 7350SOL    HW133683   1.553   3.760   7.487 -0.2960 -1.1378 -0.5246
 7350SOL    HW233684   1.613   3.773   7.620 -1.9390  1.1506  1.9966
 7351SOL     OW33685   4.572   3.408   8.127  0.2254 -0.4564  0.1946
 7351SOL    HW133686   4.512   3.365   8.066  0.8714 -1.5691  0.3443
 7351SOL    HW233687   4.578   3.494   8.086 -0.6781 -0.4582  0.0507
 7352SOL     OW33688   4.344   1.351   4.400 -0.5610 -0.5788  0.3348
 7352SOL    HW133689   4.352   1.447   4.395 -3.8635 -0.3943 -1.1732
 7352SOL    HW233690   4.286   1.337   4.325 -0.2016  0.0387 -0.0576
 7353SOL     OW33691   2.320   3.685  15.166  0.0170 -0.1423 -0.1066
 7353SOL    HW133692   2.323   3.591  15.179  0.5315 -0.2686 -1.1882
 7353SOL    HW233693   2.295   3.708  15.076 -1.5559  0.7584  0.5474
 7354SOL     OW33694   2.268   0.366   8.378  0.6809  0.7122  0.2021
 7354SOL    HW133695   2.312   0.281   8.389  0.6455  0.7758  0.8169
 7354SOL    HW233696   2.263   0.404   8.466 -2.5308  2.3442 -0.6870
 7355SOL     OW33697   1.811   1.334   4.019 -0.3522  0.3154 -0.0666
 7355SOL    HW133698   1.894   1.297   4.047  0.4453  2.0647 -0.1429
 7355SOL    HW233699   1.809   1.424   4.051 -1.0529  0.4153 -0.3706
 7356SOL     OW33700   1.101   2.097   5.291 -0.0298  0.3428 -0.9666
 7356SOL    HW133701   1.087   2.122   5.382  1.9057 -0.0193 -0.5877
 7356SOL    HW233702   1.046   2.018   5.291  0.7147 -0.1658 -0.4671
 7357SOL     OW33703   3.075   3.825   7.637 -0.4671  0.2901  0.1689
 7357SOL    HW133704   3.119   3.748   7.601 -0.0255  1.5700 -2.0276
 7357SOL    HW233705   3.044   3.788   7.719 -1.3757 -1.1661 -0.8377
 7358SOL     OW33706   1.527   4.707   2.154  0.1666  0.1285 -0.0073
 7358SOL    HW133707   1.598   4.643   2.145  0.1930  0.1795 -0.1632
 7358SOL    HW233708   1.465   4.670   2.218  1.2112 -0.5230  0.6218
 7359SOL     OW33709   1.169   1.680  17.725  0.3565 -0.1361  0.1985
 7359SOL    HW133710   1.185   1.618  17.654  1.6530  0.3811  0.0410
 7359SOL    HW233711   1.216   1.758  17.694  2.4670 -1.3457  0.3568
 7360SOL     OW33712   1.518   2.394   1.022  0.2130  0.4201 -0.2495
 7360SOL    HW133713   1.534   2.460   1.090  1.2312 -1.5467  1.4017
 7360SOL    HW233714   1.471   2.332   1.077  0.3035  0.1887 -0.4322
 7361SOL     OW33715   1.995   4.184   2.918  0.1717 -0.3584  0.4003
 7361SOL    HW133716   1.936   4.112   2.941 -1.7275  1.2787  0.5588
 7361SOL    HW233717   2.040   4.205   3.000 -1.2307  0.9371  0.8217
 7362SOL     OW33718   0.067   1.019   9.012 -0.2476  0.7715 -0.3876
 7362SOL    HW133719   0.030   0.976   9.089  2.2056 -0.4920  0.1069
 7362SOL    HW233720   0.143   0.965   8.991  0.2998  1.2299  0.4090
 7363SOL     OW33721   4.323   1.525   5.209 -0.0643 -0.3882  0.0896
 7363SOL    HW133722   4.406   1.530   5.163  0.0404 -1.9419  0.1285
 7363SOL    HW233723   4.342   1.445   5.257 -1.9588 -1.0451 -0.2517
 7364SOL     OW33724   4.475   0.625  17.723  0.3115  0.4405  0.1288
 7364SOL    HW133725   4.563   0.643   0.027  1.3323 -3.6389 -0.3213
 7364SOL    HW233726   4.443   0.567   0.064 -0.9268 -0.2219 -0.9841
 7365SOL     OW33727   0.754   0.883   5.934  0.3552 -0.1468  0.0973
 7365SOL    HW133728   0.788   0.868   5.846  2.7573  1.0309  0.8479
 7365SOL    HW233729   0.835   0.906   5.979 -0.3924 -0.0380  1.3981
 7366SOL     OW33730   2.329   0.067  13.589 -0.2887  0.5530  0.0590
 7366SOL    HW133731   2.325   0.066  13.494  3.2435 -1.3039 -0.0898
 7366SOL    HW233732   2.349   0.159  13.607 -1.8258  0.5839  1.5797
 7367SOL     OW33733   0.960   1.305   6.076 -0.1285 -0.5250 -0.7501
 7367SOL    HW133734   0.946   1.399   6.065  0.5281 -0.3170  0.1415
 7367SOL    HW233735   0.945   1.261   5.993  1.5178  0.8975 -1.7949
 7368SOL     OW33736   2.098   4.114  11.839 -0.2687 -0.0242  0.1657
 7368SOL    HW133737   2.022   4.142  11.787 -1.4103 -2.4105  0.5406
 7368SOL    HW233738   2.110   4.196  11.887 -1.8924 -0.1135  0.7368
 7369SOL     OW33739   2.624   3.152  14.550  0.3417  0.2392  0.0072
 7369SOL    HW133740   2.665   3.066  14.543 -1.3977 -0.6301  0.6162
 7369SOL    HW233741   2.535   3.127  14.575  0.2452  1.7189  1.1380
 7370SOL     OW33742   4.557   0.687   8.043 -0.4635  0.1002 -0.1570
 7370SOL    HW133743   4.590   0.687   7.953 -1.3102 -1.5426 -0.4567
 7370SOL    HW233744   4.640   0.669   8.087  0.0118  1.1433 -0.6315
 7371SOL     OW33745   0.949   4.620  11.918  0.1128 -0.0399 -0.6665
 7371SOL    HW133746   0.894   4.650  11.991 -0.6642  1.8920 -2.0421
 7371SOL    HW233747   1.026   4.675  11.926 -1.1097  1.2395  2.1584
 7372SOL     OW33748   4.096   4.284   0.637  0.0833  1.0181  0.7925
 7372SOL    HW133749   4.081   4.355   0.699 -0.3481  1.5882  0.0384
 7372SOL    HW233750   4.190   4.280   0.623  0.3799  1.6269  2.6368
 7373SOL     OW33751   0.115   4.329  11.639  0.3001 -0.2266 -0.0089
 7373SOL    HW133752   0.085   4.393  11.704  1.8020  0.1104  0.3693
 7373SOL    HW233753   0.159   4.268  11.700  0.0250 -0.4304 -0.0160
 7374SOL     OW33754   2.943   0.207  13.111 -0.3408  0.1996  0.4739
 7374SOL    HW133755   2.967   0.222  13.020  0.5211  0.7749  0.7890
 7374SOL    HW233756   2.861   0.256  13.120 -1.1159 -1.2659  1.2793
 7375SOL     OW33757   4.630   2.266   6.290  0.4591  0.3778 -0.1034
 7375SOL    HW133758   4.702   2.209   6.318  0.9626  1.3520  0.5575
 7375SOL    HW233759   4.685   2.335   6.254  0.4695  0.0818 -0.6558
 7376SOL     OW33760   0.776   4.677   5.000  0.4738 -0.1622  0.2009
 7376SOL    HW133761   0.729   4.632   4.929  0.1747  0.9076 -0.2766
 7376SOL    HW233762   0.868   4.666   4.977  0.4339  0.2415 -0.1544
 7377SOL     OW33763   2.481   0.487   0.356  0.1010 -0.1482 -0.0737
 7377SOL    HW133764   2.460   0.564   0.409 -1.5379 -0.9005  0.3750
 7377SOL    HW233765   2.559   0.517   0.310  0.9546  1.3971  2.3548
 7378SOL     OW33766   1.921   2.104   2.046  0.0678  0.2628  0.0273
 7378SOL    HW133767   1.894   2.120   2.136 -0.9742  0.8915 -0.3952
 7378SOL    HW233768   1.877   2.181   2.009  1.0078 -0.0995 -1.8022
 7379SOL     OW33769   0.547   4.388   8.219  0.0178  0.7461  0.4726
 7379SOL    HW133770   0.546   4.400   8.124  0.1470 -0.6263  0.3058
 7379SOL    HW233771   0.641   4.377   8.231 -0.1665  0.2488  1.3779
 7380SOL     OW33772   3.355   3.946   1.843 -0.2197 -0.0503  0.5243
 7380SOL    HW133773   3.282   3.970   1.785 -0.6537  1.1148  1.5460
 7380SOL    HW233774   3.321   3.990   1.921 -0.1334  0.3777  0.3242
 7381SOL     OW33775   3.981   0.821   1.383 -0.0370 -0.1678 -0.5048
 7381SOL    HW133776   3.932   0.757   1.330  0.6135  0.3859 -1.7637
 7381SOL    HW233777   3.953   0.896   1.331  0.4501  0.1930 -0.2435
 7382SOL     OW33778   3.024   1.568   6.162 -0.3863 -0.4575 -0.2357
 7382SOL    HW133779   2.938   1.609   6.164  0.8586  2.0610  1.1158
 7382SOL    HW233780   2.998   1.513   6.088 -3.1305  0.0825  0.3275
 7383SOL     OW33781   1.704   4.540   5.728  0.2568 -0.3468  0.2215
 7383SOL    HW133782   1.748   4.461   5.759  1.8115  1.1916  1.9390
 7383SOL    HW233783   1.695   4.525   5.634 -0.1597  3.1190 -0.3122
 7384SOL     OW33784   2.582   2.705   7.622 -0.1383  0.3780 -0.0634
 7384SOL    HW133785   2.530   2.638   7.576  0.1504  1.6812 -2.2795
 7384SOL    HW233786   2.595   2.767   7.550  0.1422 -2.3328 -2.3764
 7385SOL     OW33787   4.257   3.025  14.712 -0.3812  0.2696 -0.3449
 7385SOL    HW133788   4.225   2.961  14.649 -2.7603 -0.7986  1.9482
 7385SOL    HW233789   4.172   3.061  14.737  1.4386  3.6323  1.0965
 7386SOL     OW33790   3.677   1.905   8.058  0.8266  0.1640  0.1720
 7386SOL    HW133791   3.718   1.899   8.144  0.4476 -0.6597  0.2946
 7386SOL    HW233792   3.743   1.883   7.992  1.5275 -0.2512  1.0230
 7387SOL     OW33793   0.618   1.704   4.634 -0.3808  0.0889  0.3520
 7387SOL    HW133794   0.564   1.782   4.624  1.1085  0.8613 -1.8095
 7387SOL    HW233795   0.581   1.663   4.712 -0.2270  0.7088  0.7456
 7388SOL     OW33796   3.894   4.241   4.714 -0.7088  0.1001 -0.3173
 7388SOL    HW133797   3.840   4.240   4.635  0.1817 -2.2307 -0.8956
 7388SOL    HW233798   3.850   4.298   4.778  1.8830  1.3301  0.3479
 7389SOL     OW33799   2.554   2.892   4.531  0.3208 -0.1424  0.5789
 7389SOL    HW133800   2.636   2.922   4.492  1.2142  0.1409  2.6530
 7389SOL    HW233801   2.524   2.832   4.462 -0.0508 -0.6730  1.2005
 7390SOL     OW33802   3.116   2.420  12.924  0.2742 -0.3873 -0.1004
 7390SOL    HW133803   3.077   2.335  12.941  1.1748 -0.8455 -0.3351
 7390SOL    HW233804   3.207   2.392  12.919  0.7805  1.0508  1.1796
 7391SOL     OW33805   0.015   4.186   9.050  0.3083 -0.6571  0.6458
 7391SOL    HW133806   4.716   4.261   8.999  1.0631  0.6628  2.1015
 7391SOL    HW233807   4.673   4.128   9.034 -1.6430  1.9991  0.0539
 7392SOL     OW33808   2.378   1.382   8.021 -0.0021  0.1199  0.3918
 7392SOL    HW133809   2.411   1.398   8.109  0.6803  0.0676  0.1514
 7392SOL    HW233810   2.292   1.344   8.035  0.1278 -0.4992 -0.4493
 7393SOL     OW33811   4.320   1.444  12.543 -0.4365  0.1922  0.4338
 7393SOL    HW133812   4.338   1.369  12.601  0.0132 -0.8229 -1.0090
 7393SOL    HW233813   4.333   1.397  12.460  1.4426  2.5588 -0.6240
 7394SOL     OW33814   3.869   2.204   4.501 -0.1157 -0.5160  0.4588
 7394SOL    HW133815   3.787   2.159   4.520  0.0817  0.0005  2.5000
 7394SOL    HW233816   3.935   2.138   4.520  1.0035  0.4076 -0.2162
 7395SOL     OW33817   1.249   2.401   1.346 -0.2719 -0.0015  0.1950
 7395SOL    HW133818   1.316   2.416   1.413 -0.0273  0.4497 -0.1543
 7395SOL    HW233819   1.279   2.321   1.302 -0.4131  1.2504 -2.1644
 7396SOL     OW33820   1.646   2.392   0.781  0.0640  0.4179 -0.1186
 7396SOL    HW133821   1.599   2.393   0.864 -0.3447  2.5956 -0.3804
 7396SOL    HW233822   1.600   2.322   0.734  1.3057 -2.6321  3.2485
 7397SOL     OW33823   3.532   3.138   2.248  0.4740 -0.6525  0.0374
 7397SOL    HW133824   3.459   3.197   2.266  0.1018 -0.4373 -2.2109
 7397SOL    HW233825   3.516   3.066   2.310  0.5626 -1.2055 -0.5789
 7398SOL     OW33826   1.935   2.505   5.951 -0.1403  0.0563 -0.3025
 7398SOL    HW133827   2.025   2.531   5.934  0.5285 -3.4123 -1.9886
 7398SOL    HW233828   1.955   2.427   6.002 -2.6060  0.6447  1.6355
 7399SOL     OW33829   1.048   0.136   3.934  0.0780 -0.2670  0.2367
 7399SOL    HW133830   0.999   0.073   3.881  0.2262 -0.1359 -0.0549
 7399SOL    HW233831   1.086   0.189   3.864  1.1162 -1.8948 -0.4440
 7400SOL     OW33832   3.766   1.479   4.395 -0.0970 -0.3874  0.2458
 7400SOL    HW133833   3.766   1.510   4.304  1.3194  0.8999  0.6828
 7400SOL    HW233834   3.741   1.390   4.368  1.1121 -1.4587  2.6910
 7401SOL     OW33835   4.496   2.673  10.754 -0.0742 -0.3406  0.0490
 7401SOL    HW133836   4.543   2.603  10.708  1.0675  0.7753 -0.4737
 7401SOL    HW233837   4.413   2.628  10.769  0.3523 -0.6767  1.3593
 7402SOL     OW33838   3.561   4.191  12.516 -0.4053 -0.3857 -0.5862
 7402SOL    HW133839   3.573   4.258  12.583 -0.2196  1.4154 -2.3924
 7402SOL    HW233840   3.471   4.214  12.491 -1.2179 -2.2712  0.5926
 7403SOL     OW33841   2.249   3.065  14.339  0.5631  0.5557 -0.2480
 7403SOL    HW133842   2.182   3.110  14.390 -0.9102 -0.0080 -1.6946
 7403SOL    HW233843   2.202   3.058  14.255 -2.4113  0.2972  1.4465
 7404SOL     OW33844   4.143   1.432   0.397  0.4405 -0.2060  0.6334
 7404SOL    HW133845   4.080   1.366   0.368  0.7885 -0.9525  1.6022
 7404SOL    HW233846   4.178   1.447   0.309  3.0949 -1.0147  1.5715
 7405SOL     OW33847   1.032   2.847   8.637  0.3898  0.4872  0.3285
 7405SOL    HW133848   1.026   2.753   8.655 -2.5986  0.5610 -0.3069
 7405SOL    HW233849   1.001   2.894   8.715 -2.4899  0.4949 -0.8123
 7406SOL     OW33850   3.528   0.552   7.218  0.2708 -0.7486 -0.0902
 7406SOL    HW133851   3.570   0.468   7.201 -0.5215 -0.9327 -1.1431
 7406SOL    HW233852   3.588   0.584   7.286 -2.2428 -0.8506  2.2138
 7407SOL     OW33853   0.517   3.963   5.212 -0.1666 -0.1641  1.0245
 7407SOL    HW133854   0.611   3.975   5.225  0.2877 -2.2542 -0.2964
 7407SOL    HW233855   0.507   3.896   5.144  0.6059  2.0253 -1.2611
 7408SOL     OW33856   0.639   0.169  17.545 -0.6870 -0.3551  0.3930
 7408SOL    HW133857   0.702   0.110  17.504  0.2305  0.3225  0.8040
 7408SOL    HW233858   0.573   0.160  17.476 -0.4513 -1.2736  0.2944
 7409SOL     OW33859   4.369   3.374   5.271  0.4982 -0.2042 -0.2505
 7409SOL    HW133860   4.304   3.441   5.249  0.6773  0.0443 -0.0232
 7409SOL    HW233861   4.326   3.340   5.349 -0.8979 -0.3702 -1.0929
 7410SOL     OW33862   2.650   2.520   2.906 -0.4838  0.4933  0.2807
 7410SOL    HW133863   2.708   2.505   2.980 -2.1974  0.2099  1.5689
 7410SOL    HW233864   2.593   2.590   2.937  2.8559  1.6544  3.7783
 7411SOL     OW33865   4.103   3.418   4.507 -0.0136 -0.0565 -0.0600
 7411SOL    HW133866   4.089   3.334   4.463 -0.7574 -0.2303  0.5096
 7411SOL    HW233867   4.128   3.390   4.595 -1.9855  0.4268  0.6554
 7412SOL     OW33868   0.999   1.526   8.221  0.0630  0.5729 -0.2459
 7412SOL    HW133869   0.964   1.593   8.163  1.1550  1.4977  0.1487
 7412SOL    HW233870   1.019   1.580   8.297 -0.4077 -0.1681  0.4038
 7413SOL     OW33871   1.695   3.228   2.570 -0.0017  0.0425  0.2548
 7413SOL    HW133872   1.765   3.167   2.593  0.9356  0.6254 -1.0354
 7413SOL    HW233873   1.743   3.310   2.558  1.5731 -1.2438 -2.4403
 7414SOL     OW33874   2.236   3.441   7.267  0.3102 -0.3949 -0.0741
 7414SOL    HW133875   2.161   3.499   7.284  0.9852  0.7310 -0.9891
 7414SOL    HW233876   2.228   3.400   7.353 -0.2366  0.2359  0.1783
 7415SOL     OW33877   2.851   2.750  16.012  0.7993 -0.5793 -0.2178
 7415SOL    HW133878   2.818   2.665  16.043 -0.2137 -0.9342 -2.3080
 7415SOL    HW233879   2.878   2.714  15.928  0.0393 -0.2998 -0.5840
 7416SOL     OW33880   4.322   0.499   9.274  0.3113  0.1758 -0.4638
 7416SOL    HW133881   4.240   0.455   9.295  0.9709 -0.3293  1.0436
 7416SOL    HW233882   4.303   0.592   9.283 -1.2425 -0.1803 -0.0023
 7417SOL     OW33883   0.487   3.539   5.683  0.3319  0.2024  0.0927
 7417SOL    HW133884   0.408   3.589   5.661 -0.8310 -2.2434 -1.2645
 7417SOL    HW233885   0.464   3.451   5.656 -1.1379  0.4735  0.4239
 7418SOL     OW33886   4.194   2.209   4.297 -0.6909  0.1408 -0.0154
 7418SOL    HW133887   4.224   2.119   4.281  2.1609  1.2765 -1.1976
 7418SOL    HW233888   4.132   2.219   4.225  0.0434  1.3007 -0.4872
 7419SOL     OW33889   3.990   1.133  17.164  0.0656 -0.4180 -0.1523
 7419SOL    HW133890   4.055   1.113  17.231  2.0419  1.9603 -1.3808
 7419SOL    HW233891   4.036   1.112  17.083  1.5916  0.5180  0.4661
 7420SOL     OW33892   2.724   0.802  15.732 -0.0068  0.3286  0.8401
 7420SOL    HW133893   2.744   0.791  15.825  1.7811  0.2251  0.4370
 7420SOL    HW233894   2.768   0.735  15.679 -1.1562  0.2416 -0.0119
 7421SOL     OW33895   1.541   2.967  17.116  0.1549 -0.3465  0.2622
 7421SOL    HW133896   1.555   2.912  17.039  1.8833 -1.3201  1.2818
 7421SOL    HW233897   1.455   2.945  17.152  0.7650  0.5957  2.3077
 7422SOL     OW33898   0.031   3.701   8.946 -0.1870  0.2187 -0.4553
 7422SOL    HW133899   0.027   3.715   9.041  1.6041  1.1529 -0.5353
 7422SOL    HW233900   0.097   3.765   8.919  0.8993 -1.0183 -0.7255
 7423SOL     OW33901   4.216   0.961   1.448 -0.7295 -0.1648  0.4086
 7423SOL    HW133902   4.154   0.888   1.444 -0.1943 -0.5682 -0.4850
 7423SOL    HW233903   4.252   0.945   1.361  0.3634  2.6209  0.3504
 7424SOL     OW33904   3.021   2.671  15.539 -0.5822 -0.3351 -0.2543
 7424SOL    HW133905   3.007   2.751  15.489 -0.3790 -0.1194  0.0266
 7424SOL    HW233906   2.945   2.618  15.518 -0.7838 -0.1829  0.0791
 7425SOL     OW33907   0.071   3.229   7.144 -0.1239 -0.3268 -0.6409
 7425SOL    HW133908   0.075   3.137   7.116 -1.2641  0.0114 -1.9172
 7425SOL    HW233909   0.137   3.238   7.212 -0.2131 -0.0269 -0.5956
 7426SOL     OW33910   2.157   2.042   1.959  0.2059  0.3443  0.1486
 7426SOL    HW133911   2.175   2.131   1.988  1.5301  0.1857 -0.1674
 7426SOL    HW233912   2.066   2.051   1.987  0.3790 -0.1256  0.8759
 7427SOL     OW33913   0.153   2.537   8.983 -0.0869  0.1133  0.7931
 7427SOL    HW133914   0.081   2.476   8.970  0.1394 -0.0473  0.2819
 7427SOL    HW233915   0.213   2.489   9.040  0.7971  0.2388 -0.0269
 7428SOL     OW33916   0.318   1.330  16.659 -0.5387  0.3435 -0.7368
 7428SOL    HW133917   0.271   1.367  16.733  1.8160 -0.8302  1.3345
 7428SOL    HW233918   0.379   1.272  16.705 -0.3997  0.6288 -0.5674
 7429SOL     OW33919   2.856   1.761   5.186  1.0471  0.2227 -0.3492
 7429SOL    HW133920   2.865   1.687   5.126 -0.1610 -0.2388  0.0346
 7429SOL    HW233921   2.852   1.715   5.270  1.7004 -1.1425 -1.0697
 7430SOL     OW33922   3.159   1.415  11.555  0.1864 -0.4104 -0.0755
 7430SOL    HW133923   3.143   1.469  11.633 -0.2096 -0.9205  0.1957
 7430SOL    HW233924   3.243   1.379  11.581  0.2580 -0.7673 -0.8090
 7431SOL     OW33925   3.691   3.524   9.386 -0.1384 -0.3587 -0.0917
 7431SOL    HW133926   3.711   3.600   9.331  0.5183 -1.7517 -1.7970
 7431SOL    HW233927   3.764   3.525   9.448 -1.1633  1.1806  1.0557
 7432SOL     OW33928   4.059   1.641   2.392  0.0092 -0.0019 -0.5021
 7432SOL    HW133929   4.039   1.701   2.320  1.5505 -0.4414 -1.2763
 7432SOL    HW233930   4.133   1.693   2.422  0.5393 -1.0100 -0.0713
 7433SOL     OW33931   3.556   0.231   6.905  0.4463  0.0371  0.5079
 7433SOL    HW133932   3.628   0.227   6.842 -0.4086  0.4128 -0.5014
 7433SOL    HW233933   3.477   0.220   6.852  0.3333 -1.4562  0.9829
 7434SOL     OW33934   3.203   2.761   3.032  0.3277  0.5207  0.2123
 7434SOL    HW133935   3.171   2.768   2.942 -1.0826  0.1282  0.6853
 7434SOL    HW233936   3.247   2.842   3.058 -1.4278  0.8451  2.0710
 7435SOL     OW33937   1.319   3.031   6.219  0.9392 -0.0924 -0.3322
 7435SOL    HW133938   1.228   3.049   6.244  0.7038 -0.5786 -0.8397
 7435SOL    HW233939   1.363   3.111   6.193  0.0695  0.6534  0.4870
 7436SOL     OW33940   2.035   2.556  11.641  0.4735 -0.4861  0.0980
 7436SOL    HW133941   1.968   2.588  11.582  0.9257  1.2379  0.5404
 7436SOL    HW233942   2.094   2.515  11.577 -2.1927 -4.8128  0.3974
 7437SOL     OW33943   3.692   2.372   7.074 -0.4158  0.0433  0.1828
 7437SOL    HW133944   3.672   2.464   7.057 -1.3246 -0.6151 -2.2449
 7437SOL    HW233945   3.709   2.346   6.984 -0.5396 -2.0346  0.7750
 7438SOL     OW33946   2.273   3.448   4.184 -0.4790 -0.2091 -0.7713
 7438SOL    HW133947   2.332   3.498   4.241 -0.1776 -1.8260  0.3127
 7438SOL    HW233948   2.184   3.470   4.212 -0.2102 -1.7365  1.2329
 7439SOL     OW33949   1.426   0.158   6.972  0.4283  0.4015 -0.0118
 7439SOL    HW133950   1.519   0.136   6.971  1.1446  3.3625  1.8878
 7439SOL    HW233951   1.446   0.249   6.949 -2.9170  1.3088  0.6398
 7440SOL     OW33952   1.426   0.966  12.388  0.4193 -0.3413  0.2822
 7440SOL    HW133953   1.491   0.907  12.351 -0.0851  0.1338 -1.3950
 7440SOL    HW233954   1.480   1.002  12.458 -1.6320 -1.2918  2.3743
 7441SOL     OW33955   1.994   3.695   8.723 -0.5005  0.4066  0.0955
 7441SOL    HW133956   1.902   3.717   8.733 -0.1218  0.3209  3.9251
 7441SOL    HW233957   2.028   3.724   8.808 -1.2318 -1.8998  1.2000
 7442SOL     OW33958   2.577   3.790   6.310  0.1427 -0.3957 -0.3882
 7442SOL    HW133959   2.642   3.856   6.284 -0.6139  0.3448 -0.3814
 7442SOL    HW233960   2.491   3.820   6.283 -0.3445 -0.7038  0.8170
 7443SOL     OW33961   2.030   3.694   6.277 -0.1336 -0.2267 -0.1226
 7443SOL    HW133962   2.001   3.712   6.188  0.0184  1.7256  0.2085
 7443SOL    HW233963   2.081   3.772   6.299 -1.3067  1.0181 -1.7902
 7444SOL     OW33964   0.685   1.990  17.332 -0.3218  0.5319  0.4475
 7444SOL    HW133965   0.763   2.026  17.373  0.2055  0.3278 -0.3980
 7444SOL    HW233966   0.613   2.042  17.369 -1.1299 -0.4030  0.2070
 7445SOL     OW33967   2.800   0.587  13.804  0.3404  0.1324  0.9427
 7445SOL    HW133968   2.747   0.519  13.761 -1.4036  2.4825 -0.5922
 7445SOL    HW233969   2.889   0.555  13.813  0.1422  0.2945  3.4662
 7446SOL     OW33970   3.788   0.770   7.799  0.2052 -0.3716  0.4508
 7446SOL    HW133971   3.714   0.811   7.845  0.7547  0.8998  0.1981
 7446SOL    HW233972   3.846   0.846   7.794 -0.8985  0.5170  1.3236
 7447SOL     OW33973   4.548   0.042   6.328 -0.3195 -0.5520 -0.5007
 7447SOL    HW133974   4.575   4.730   6.248  1.3924  0.3056 -0.3951
 7447SOL    HW233975   4.477   4.716   6.355  1.3682 -1.5944  1.6732
 7448SOL     OW33976   4.442   0.225   8.604 -0.3953 -0.3952  0.9121
 7448SOL    HW133977   4.348   0.206   8.606  0.2573 -3.6511  1.0169
 7448SOL    HW233978   4.475   0.145   8.645 -2.2917 -1.3472  0.5821
 7449SOL     OW33979   1.805   3.611   1.770 -0.1330  0.0936  0.7025
 7449SOL    HW133980   1.847   3.545   1.825 -3.0651 -0.8494  1.8218
 7449SOL    HW233981   1.833   3.581   1.684 -0.9145  2.3203 -0.3311
 7450SOL     OW33982   4.097   0.630  14.545 -0.3736  0.3074 -0.2919
 7450SOL    HW133983   4.074   0.697  14.609  2.1113 -1.2680  2.2790
 7450SOL    HW233984   4.154   0.686  14.492  3.4377 -2.2618  1.0514
 7451SOL     OW33985   1.804   2.338   8.766  0.0652 -0.4251  0.4293
 7451SOL    HW133986   1.887   2.291   8.761  0.0387 -0.4146 -0.1455
 7451SOL    HW233987   1.781   2.327   8.859 -2.9232  1.0741 -0.1237
 7452SOL     OW33988   1.611   0.921   6.264 -0.1346  0.6944  0.2644
 7452SOL    HW133989   1.656   1.002   6.288  0.1684  0.4556  0.5058
 7452SOL    HW233990   1.560   0.940   6.185  1.1529  1.9201 -0.2623
 7453SOL     OW33991   3.599   0.009  17.543 -0.1002 -0.1229  0.2012
 7453SOL    HW133992   3.551   0.014  17.460  2.0869 -1.7314 -1.1613
 7453SOL    HW233993   3.535   0.052  17.599  2.6313 -0.8980  3.9352
 7454SOL     OW33994   3.218   3.799   5.564 -0.2694 -0.7968  0.4319
 7454SOL    HW133995   3.170   3.716   5.567 -2.4809  0.4794  1.3007
 7454SOL    HW233996   3.256   3.808   5.651  1.4326 -2.6111 -0.1463
 7455SOL     OW33997   0.120   1.733   1.649 -0.5670  0.0127 -0.0006
 7455SOL    HW133998   0.148   1.653   1.693 -0.8884 -0.8208 -1.2986
 7455SOL    HW233999   0.041   1.752   1.699 -0.5106 -0.3952  0.2421
 7456SOL     OW34000   4.654   2.628   3.331 -0.0070 -0.5178  0.6654
 7456SOL    HW134001   4.568   2.586   3.327  0.7414 -1.9294 -0.3926
 7456SOL    HW234002   4.645   2.696   3.264 -0.7560  0.5962  1.8954
 7457SOL     OW34003   3.694   0.129  17.191  0.4739 -0.7479  0.5857
 7457SOL    HW134004   3.630   0.174  17.247  2.3710  0.6533  1.6066
 7457SOL    HW234005   3.636   0.063  17.153 -0.3008  1.2703 -1.7864
 7458SOL     OW34006   3.161   2.404  13.914  0.1325 -0.6588 -0.2197
 7458SOL    HW134007   3.136   2.481  13.864  2.0052  1.3604  1.9831
 7458SOL    HW234008   3.227   2.364  13.858  2.1105  0.4000  1.3564
 7459SOL     OW34009   2.733   4.340   5.440 -0.0787 -0.1251  0.3366
 7459SOL    HW134010   2.639   4.357   5.447  0.0996 -0.3113  3.1972
 7459SOL    HW234011   2.771   4.417   5.482 -0.5072  1.9048 -3.0433
 7460SOL     OW34012   3.510   0.871   7.100 -0.6859 -0.4062  0.4360
 7460SOL    HW134013   3.601   0.854   7.125 -0.7777  1.3758  1.9529
 7460SOL    HW234014   3.519   0.965   7.090  1.2130 -0.3664  2.5385
 7461SOL     OW34015   1.076   3.106  15.536 -0.0199 -0.2932 -0.2583
 7461SOL    HW134016   1.001   3.164  15.552 -0.9909 -2.0250  1.4577
 7461SOL    HW234017   1.126   3.168  15.482 -1.7857 -0.4001 -2.0101
 7462SOL     OW34018   4.541   3.781   3.538 -0.1682  0.4591  0.5984
 7462SOL    HW134019   4.567   3.856   3.485 -1.0939 -0.9914 -1.9040
 7462SOL    HW234020   4.574   3.804   3.624 -1.4821  2.4997  0.5640
 7463SOL     OW34021   0.577   0.251   4.834  0.5362  0.0896  0.4008
 7463SOL    HW134022   0.500   0.308   4.835  1.0841  0.8889 -1.9011
 7463SOL    HW234023   0.562   0.186   4.765  0.5220  0.2268  0.2738
 7464SOL     OW34024   3.611   1.875   7.107 -0.3520  0.1754  0.0758
 7464SOL    HW134025   3.565   1.801   7.147  1.7410 -1.1031  0.1477
 7464SOL    HW234026   3.533   1.908   7.063 -0.3757  0.3612  0.2555
 7465SOL     OW34027   0.632   3.185   5.895 -0.1664 -0.7527  0.2849
 7465SOL    HW134028   0.727   3.188   5.910 -0.1983 -0.3749  0.4207
 7465SOL    HW234029   0.626   3.237   5.815 -2.1408 -1.8282 -0.2608
 7466SOL     OW34030   2.426   2.290  11.340  0.3460  0.0137  0.1323
 7466SOL    HW134031   2.476   2.229  11.394 -0.5926  0.4947  1.5373
 7466SOL    HW234032   2.484   2.308  11.266 -0.8576 -1.6428 -1.2134
 7467SOL     OW34033   0.115   2.397  14.404 -0.6300 -0.0441  0.2386
 7467SOL    HW134034   0.057   2.435  14.470 -0.4663 -0.5151  0.6518
 7467SOL    HW234035   0.189   2.458  14.405  0.2954 -1.1650 -0.0035
 7468SOL     OW34036   2.800   1.987   7.389  0.4884 -0.0426  0.6659
 7468SOL    HW134037   2.747   1.978   7.468 -0.0109 -2.2433  0.0691
 7468SOL    HW234038   2.880   1.942   7.416 -0.0256 -0.3011  1.7922
 7469SOL     OW34039   3.402   4.613   2.759 -0.0959 -0.2345  0.8049
 7469SOL    HW134040   3.395   4.665   2.839  1.0901  0.5265  0.4162
 7469SOL    HW234041   3.404   4.523   2.792 -2.0243 -0.5927 -0.0826
 7470SOL     OW34042   1.992   4.305   7.478 -0.0152 -0.1072 -0.2479
 7470SOL    HW134043   2.083   4.330   7.495 -1.1096  4.5906 -1.2217
 7470SOL    HW234044   1.977   4.261   7.561  1.1251 -0.6238 -0.3263
 7471SOL     OW34045   2.241   2.575   6.284  0.3076 -0.0742 -0.4202
 7471SOL    HW134046   2.190   2.646   6.245  0.8394  0.7483  0.3948
 7471SOL    HW234047   2.271   2.527   6.207 -1.1802  1.6039 -2.0625
 7472SOL     OW34048   0.442   2.562   5.083 -0.0859 -0.5323  0.0023
 7472SOL    HW134049   0.519   2.506   5.095  0.6978  0.0751 -2.1106
 7472SOL    HW234050   0.465   2.614   5.006 -0.3298 -0.2690  0.1061
 7473SOL     OW34051   2.449   2.194  14.383  0.4733 -0.1026  0.1848
 7473SOL    HW134052   2.536   2.164  14.408  0.4865  0.3993  0.7492
 7473SOL    HW234053   2.418   2.126  14.324  0.7154 -0.1909  0.1602
 7474SOL     OW34054   3.724   1.868   1.755 -0.5851  0.2566 -0.2279
 7474SOL    HW134055   3.766   1.927   1.693 -0.6434  0.6054  0.0636
 7474SOL    HW234056   3.717   1.927   1.831 -0.4194  1.4843 -1.1700
 7475SOL     OW34057   3.326   3.353   2.240 -0.2044 -0.1665 -0.1703
 7475SOL    HW134058   3.374   3.391   2.166  0.3559  1.2278  0.9192
 7475SOL    HW234059   3.292   3.435   2.276  2.7359  1.3701 -0.8430
 7476SOL     OW34060   2.573   3.285   8.410  0.4369  0.1888  0.1274
 7476SOL    HW134061   2.592   3.262   8.319  0.3973  1.6410 -0.2550
 7476SOL    HW234062   2.653   3.248   8.447  0.5881 -1.5569 -1.8979
 7477SOL     OW34063   2.881   4.572   7.801 -0.5706 -0.3618  0.3604
 7477SOL    HW134064   2.920   4.647   7.845 -1.9240  0.5508 -0.0182
 7477SOL    HW234065   2.796   4.601   7.767 -0.1721  0.3908  0.0003
 7478SOL     OW34066   0.840   4.148  11.573 -0.0040 -0.0055 -0.1082
 7478SOL    HW134067   0.766   4.158  11.632 -1.4533  1.1379 -2.1163
 7478SOL    HW234068   0.896   4.080  11.610  1.0513  1.4677  1.0186
 7479SOL     OW34069   4.594   1.485  16.419 -0.0444  0.4905 -0.3396
 7479SOL    HW134070   4.664   1.430  16.384  0.5418 -0.0138  1.5866
 7479SOL    HW234071   4.637   1.518  16.498  2.0032  0.4251 -1.4500
 7480SOL     OW34072   1.170   0.078   2.873  0.0330  0.4136  0.4527
 7480SOL    HW134073   1.211   0.043   2.952 -0.0724 -1.2155 -0.2225
 7480SOL    HW234074   1.126   4.729   2.850 -1.7198  1.1553  1.1609
 7481SOL     OW34075   3.863   0.889  14.467 -0.0167 -0.3725 -0.3644
 7481SOL    HW134076   3.848   0.837  14.546 -0.9741 -2.6016 -1.9824
 7481SOL    HW234077   3.775   0.892  14.429 -0.0524 -3.2596 -0.4908
 7482SOL     OW34078   1.056   0.499   7.549  0.3318  0.3015 -0.1293
 7482SOL    HW134079   0.962   0.517   7.556 -0.0702 -2.4958  1.5745
 7482SOL    HW234080   1.086   0.572   7.495 -0.4807 -0.5621 -1.7521
 7483SOL     OW34081   2.259   3.601   3.021 -0.2512 -0.4073 -0.4249
 7483SOL    HW134082   2.278   3.688   3.056 -0.6079 -0.7707  0.6711
 7483SOL    HW234083   2.346   3.562   3.011  0.4916  0.5827  2.1645
 7484SOL     OW34084   4.584   2.150  11.189 -0.0803  0.1130  0.3154
 7484SOL    HW134085   4.673   2.118  11.182 -0.0430  0.5067 -1.0055
 7484SOL    HW234086   4.568   2.167  11.096 -0.2635  0.1154  0.3469
 7485SOL     OW34087   0.785   3.661   6.418 -0.2709 -0.1348 -0.1217
 7485SOL    HW134088   0.783   3.687   6.326  0.6598  0.8275  0.1256
 7485SOL    HW234089   0.835   3.580   6.426  0.9855  0.7995  1.5181
 7486SOL     OW34090   3.351   1.472   0.249 -0.1579  0.0204  0.1332
 7486SOL    HW134091   3.422   1.502   0.191 -0.8089 -0.3054 -0.8121
 7486SOL    HW234092   3.282   1.461   0.185  1.0859 -3.0327 -0.6642
 7487SOL     OW34093   4.308   4.183   5.611  0.5583 -0.1826  0.1310
 7487SOL    HW134094   4.370   4.163   5.541  2.0369  1.6986  0.9178
 7487SOL    HW234095   4.233   4.139   5.570 -0.7850  0.7668  1.5552
 7488SOL     OW34096   3.314   0.465   6.844  0.0477  0.3652  0.3847
 7488SOL    HW134097   3.270   0.526   6.785 -1.0730 -0.6612  0.1442
 7488SOL    HW234098   3.388   0.520   6.870  0.0485 -0.5899  2.4315
 7489SOL     OW34099   1.281   2.945   2.133 -0.1793 -0.0411  0.0001
 7489SOL    HW134100   1.204   2.889   2.143  0.4992 -1.2110 -1.2719
 7489SOL    HW234101   1.274   2.994   2.215 -1.8981  1.1475 -0.8718
 7490SOL     OW34102   2.070   0.611   3.548  0.4636  0.0574 -0.1287
 7490SOL    HW134103   1.988   0.614   3.498  0.9954  1.1288 -0.9456
 7490SOL    HW234104   2.090   0.704   3.558 -3.1417  0.9198 -0.8290
 7491SOL     OW34105   3.494   4.539   5.594  0.1875  0.4802 -0.5437
 7491SOL    HW134106   3.480   4.624   5.635 -1.2010 -0.5584  1.1616
 7491SOL    HW234107   3.509   4.480   5.668 -0.6298 -1.1105 -1.6453
 7492SOL     OW34108   1.303   4.631   8.033 -0.2196  0.9721 -0.8055
 7492SOL    HW134109   1.380   4.600   7.985  0.1346 -1.1387  1.1260
 7492SOL    HW234110   1.229   4.595   7.983  1.7565 -2.3066 -1.4199
 7493SOL     OW34111   4.345   1.033  14.386  0.1483 -0.2545  0.4283
 7493SOL    HW134112   4.281   0.963  14.375 -0.9681  1.0467 -1.3252
 7493SOL    HW234113   4.292   1.111  14.370 -1.2541 -0.6107  3.3208
 7494SOL     OW34114   0.448   3.022   9.265  0.0049 -0.3542 -0.0166
 7494SOL    HW134115   0.364   2.976   9.258 -0.0638 -0.2978  0.4341
 7494SOL    HW234116   0.460   3.025   9.170 -0.1573  1.5293  0.0189
 7495SOL     OW34117   3.086   4.617   6.089  0.4023  1.0070 -0.5948
 7495SOL    HW134118   3.062   4.629   5.997  0.1042 -1.3170 -0.8041
 7495SOL    HW234119   2.998   4.617   6.127 -0.4026 -1.8304 -2.4829
 7496SOL     OW34120   4.389   3.526  15.672 -0.1156 -0.0627  0.0691
 7496SOL    HW134121   4.309   3.571  15.699 -0.2794  0.2073 -0.8728
 7496SOL    HW234122   4.434   3.502  15.753 -0.1834  0.0459  0.1392
 7497SOL     OW34123   2.208   1.832   6.731 -0.4738 -0.0892  0.3093
 7497SOL    HW134124   2.153   1.791   6.665 -2.5652 -0.4596  2.2416
 7497SOL    HW234125   2.142   1.828   6.801  1.6583 -1.3169  2.2503
 7498SOL     OW34126   3.440   1.587  14.979  0.6889 -0.2079 -0.1943
 7498SOL    HW134127   3.464   1.675  14.950  0.7376 -0.7623 -1.8460
 7498SOL    HW234128   3.481   1.531  14.914 -1.7245  0.9786 -2.7446
 7499SOL     OW34129   2.137   1.197   7.990 -0.1315  0.1460  0.0424
 7499SOL    HW134130   2.153   1.130   8.056  0.5696 -0.9354 -1.2192
 7499SOL    HW234131   2.180   1.151   7.918 -0.1936  1.4791 -0.8547
 7500SOL     OW34132   3.995   2.730  13.421  0.1639 -0.5692  0.0889
 7500SOL    HW134133   4.038   2.651  13.451  2.0254 -0.3050 -1.8833
 7500SOL    HW234134   4.063   2.798  13.419 -0.8630  0.4276 -1.2700
 7501SOL     OW34135   1.076   3.687  17.312  0.0830 -0.1048 -0.3821
 7501SOL    HW134136   1.064   3.595  17.337  1.4766 -0.4090 -0.8070
 7501SOL    HW234137   0.991   3.688  17.269 -0.7246  1.5152  1.2430
 7502SOL     OW34138   2.855   3.332   1.588  0.5310 -0.2487  0.7560
 7502SOL    HW134139   2.835   3.252   1.637  1.3663  1.4929  3.9913
 7502SOL    HW234140   2.795   3.399   1.620 -0.3155 -0.6462 -0.0351
 7503SOL     OW34141   3.721   2.937  13.619 -0.0524 -0.3365 -0.2587
 7503SOL    HW134142   3.699   2.908  13.530  2.1614 -0.4726 -0.7599
 7503SOL    HW234143   3.692   2.872  13.684  4.0134 -1.2210  0.6570
 7504SOL     OW34144   3.856   1.792   4.313 -0.8236 -0.4769  0.7050
 7504SOL    HW134145   3.875   1.885   4.331  0.8160 -0.7200  0.2812
 7504SOL    HW234146   3.840   1.756   4.400 -0.9213  0.8244  1.2287
 7505SOL     OW34147   0.120   0.823  10.363 -0.1707  0.1307 -0.4344
 7505SOL    HW134148   0.199   0.877  10.371  0.9979 -1.3280 -2.2740
 7505SOL    HW234149   0.116   0.776  10.446 -3.7985 -0.1133 -0.7779
 7506SOL     OW34150   2.888   3.474   8.012  0.1652  0.4856 -0.3965
 7506SOL    HW134151   2.923   3.436   8.092 -0.0935  0.3840 -0.3330
 7506SOL    HW234152   2.795   3.485   8.031  0.1243 -1.3168  0.4141
 7507SOL     OW34153   2.482   2.144   5.785  0.1638  0.4446  0.0824
 7507SOL    HW134154   2.409   2.195   5.821  0.7989  1.5647 -0.2072
 7507SOL    HW234155   2.464   2.057   5.821 -0.0961 -0.2721 -1.7944
 7508SOL     OW34156   4.137   1.625   8.861 -0.2615 -0.3492 -0.1981
 7508SOL    HW134157   4.065   1.688   8.866  0.5853  0.4440  1.9444
 7508SOL    HW234158   4.202   1.676   8.813 -1.2980  2.7340  1.6159
 7509SOL     OW34159   1.700   3.194   4.414  0.1636 -0.2161  0.0576
 7509SOL    HW134160   1.626   3.160   4.465  0.5145 -0.0026  0.7040
 7509SOL    HW234161   1.702   3.152   4.328  1.9951 -1.4306  0.6826
 7510SOL     OW34162   2.802   1.909   3.922  0.2757  0.1669 -0.0017
 7510SOL    HW134163   2.811   1.878   3.832  0.2862 -0.0987  0.0896
 7510SOL    HW234164   2.709   1.905   3.944 -0.2672 -1.0159 -2.5750
 7511SOL     OW34165   3.896   2.285   7.865 -0.1195 -0.5973 -0.0385
 7511SOL    HW134166   3.896   2.279   7.770 -0.2607  0.7973 -0.1195
 7511SOL    HW234167   3.865   2.374   7.880 -1.3878 -0.9234 -0.6963
 7512SOL     OW34168   2.683   1.566   7.339  0.2026  0.3201  0.4101
 7512SOL    HW134169   2.588   1.574   7.333  0.1978  0.0217  0.0769
 7512SOL    HW234170   2.696   1.495   7.276  1.6744  1.2573 -0.3407
 7513SOL     OW34171   4.245   4.094   0.315 -0.4610  0.1751 -0.6132
 7513SOL    HW134172   4.309   4.068   0.249 -0.7453  0.5939 -1.0474
 7513SOL    HW234173   4.187   4.018   0.321  0.6426 -0.5352  1.5073
 7514SOL     OW34174   1.058   4.166   4.363  0.3695 -0.3071 -0.1087
 7514SOL    HW134175   1.084   4.074   4.360 -0.7852 -0.6158 -0.3125
 7514SOL    HW234176   1.000   4.180   4.289 -0.2177 -2.1220  0.0114
 7515SOL     OW34177   2.462   0.563   3.130 -0.5477 -0.3929  0.1799
 7515SOL    HW134178   2.380   0.514   3.138 -0.5198 -0.5315 -0.3575
 7515SOL    HW234179   2.455   0.608   3.046  1.8309  1.0954  0.8039
 7516SOL     OW34180   2.313   3.033   2.172 -0.2642 -0.1929 -0.1492
 7516SOL    HW134181   2.229   3.033   2.219 -1.2456 -1.7405 -1.8945
 7516SOL    HW234182   2.330   3.115   2.218 -0.5426 -1.4053  2.1150
 7517SOL     OW34183   2.391   2.519  11.656  0.8094  0.0384 -0.4020
 7517SOL    HW134184   2.388   2.598  11.602 -1.6613 -0.6340 -1.2859
 7517SOL    HW234185   2.344   2.466  11.592  1.0837  2.2767 -2.4752
 7518SOL     OW34186   2.271   4.095   3.129 -0.4387  0.3361  0.7752
 7518SOL    HW134187   2.269   4.099   3.033 -0.2636 -0.2045  0.7486
 7518SOL    HW234188   2.224   4.171   3.161  1.3532  1.7885 -0.0576
 7519SOL     OW34189   0.324   0.731  11.947 -0.4009  0.2005 -0.6346
 7519SOL    HW134190   0.302   0.693  11.861 -0.2483 -1.6683  0.1608
 7519SOL    HW234191   0.242   0.781  11.952 -0.8719 -1.0354  3.2459
 7520SOL     OW34192   0.377   4.086   5.486  0.5214 -0.1384  0.4088
 7520SOL    HW134193   0.340   4.170   5.457  0.0471 -0.1182  1.0701
 7520SOL    HW234194   0.432   4.069   5.410 -0.6776  0.7878 -0.6667
 7521SOL     OW34195   0.358   0.902   6.756 -0.7287  0.2195  0.7870
 7521SOL    HW134196   0.285   0.933   6.703  0.2384  2.2670  0.6469
 7521SOL    HW234197   0.424   0.920   6.689 -1.0749 -0.1295  0.3487
 7522SOL     OW34198   4.339   0.494   1.115 -0.2018  0.4877 -0.0180
 7522SOL    HW134199   4.263   0.511   1.061  0.4132  1.1150 -0.6870
 7522SOL    HW234200   4.298   0.440   1.182  0.4597  0.0594  0.0371
 7523SOL     OW34201   1.685   2.110   6.922 -0.1096 -0.5119 -0.5767
 7523SOL    HW134202   1.746   2.171   6.879  0.4796 -0.8511 -0.2180
 7523SOL    HW234203   1.604   2.139   6.880  0.7198  1.9510 -0.4715
 7524SOL     OW34204   2.652   1.794   3.031 -0.0951  0.0878 -0.3027
 7524SOL    HW134205   2.608   1.752   2.958 -1.3395 -1.5147  1.3843
 7524SOL    HW234206   2.675   1.721   3.089  0.3175  0.9224  0.5930
 7525SOL     OW34207   4.538   0.018  14.975 -0.0357  0.5644 -0.2044
 7525SOL    HW134208   4.623   0.057  14.999  1.0618 -1.3953 -0.9335
 7525SOL    HW234209   4.543   4.671  15.028 -0.6063  0.8222  0.2373
 7526SOL     OW34210   4.560   1.200   1.812 -0.0129 -0.4436 -0.0807
 7526SOL    HW134211   4.479   1.252   1.811  1.4841  1.8797  0.5065
 7526SOL    HW234212   4.530   1.124   1.862 -0.3677 -1.1034 -1.2962
 7527SOL     OW34213   4.440   4.242  17.132 -0.6609 -0.3258  0.5258
 7527SOL    HW134214   4.427   4.170  17.193 -2.6963 -0.7931 -0.4791
 7527SOL    HW234215   4.364   4.293  17.159 -1.0890 -0.3180 -0.6825
 7528SOL     OW34216   1.630   4.062   6.498  0.5166 -0.0346 -0.1404
 7528SOL    HW134217   1.586   4.101   6.573 -0.1886 -0.8450 -0.1399
 7528SOL    HW234218   1.697   4.011   6.544 -0.3351 -0.2798  0.8306
 7529SOL     OW34219   0.650   4.312   5.426  0.6148  0.3225 -0.3268
 7529SOL    HW134220   0.624   4.373   5.357  2.6825  1.7158  0.1343
 7529SOL    HW234221   0.636   4.355   5.511  1.0206  0.8879 -0.5499
 7530SOL     OW34222   2.320   3.407  12.767  0.0610 -0.2137  0.2344
 7530SOL    HW134223   2.347   3.460  12.842  0.8898 -2.0371  1.2468
 7530SOL    HW234224   2.342   3.471  12.699  2.1373 -1.9717 -0.7620
 7531SOL     OW34225   0.207   1.582   8.507 -0.3745  0.1855  0.1035
 7531SOL    HW134226   0.163   1.553   8.587  0.2136  0.5404  0.5468
 7531SOL    HW234227   0.299   1.591   8.529 -0.9261  3.7666  0.8857
 7532SOL     OW34228   1.545   1.823  10.912  0.4318 -0.1483  0.0795
 7532SOL    HW134229   1.623   1.773  10.889  0.3616  0.4620 -1.4736
 7532SOL    HW234230   1.591   1.897  10.950  0.0716 -0.3933  0.9846
 7533SOL     OW34231   3.377   2.446  11.870 -0.0945  0.4443 -0.9661
 7533SOL    HW134232   3.415   2.464  11.784  0.3436 -0.7966 -1.0324
 7533SOL    HW234233   3.395   2.524  11.923 -0.2252  0.4841 -0.9796
 7534SOL     OW34234   3.560   2.873   9.113  0.2200  0.6206 -0.1645
 7534SOL    HW134235   3.653   2.895   9.102  0.4420 -0.6815 -0.8746
 7534SOL    HW234236   3.549   2.847   9.205 -0.1709  0.0850 -0.3625
 7535SOL     OW34237   0.570   1.577   5.977 -0.1958 -0.1581  0.0556
 7535SOL    HW134238   0.641   1.606   5.919 -0.2015  2.5782  1.4450
 7535SOL    HW234239   0.542   1.500   5.928  2.7997  0.4364 -2.6237
 7536SOL     OW34240   0.267   4.635  10.014  0.4359  0.1287  0.3422
 7536SOL    HW134241   0.350   4.614  10.057  0.8356  0.9629 -0.0134
 7536SOL    HW234242   0.202   4.588  10.066 -0.9190  0.7919 -0.7242
 7537SOL     OW34243   1.112   2.020  10.992  0.1187 -0.3377 -0.1777
 7537SOL    HW134244   1.026   2.045  11.027 -0.1018  0.2560 -1.1321
 7537SOL    HW234245   1.179   2.080  11.024 -1.6810  1.1686  0.7513
 7538SOL     OW34246   4.152   2.270   3.526 -0.2158 -0.0375  0.2571
 7538SOL    HW134247   4.063   2.240   3.506 -0.5192  1.2142 -0.2416
 7538SOL    HW234248   4.156   2.353   3.478 -1.6488  0.2025  0.5643
 7539SOL     OW34249   3.074   2.193   8.073 -0.2266 -0.3945 -0.2928
 7539SOL    HW134250   3.167   2.216   8.069  0.0749 -1.7354 -0.9581
 7539SOL    HW234251   3.066   2.114   8.020 -0.2766 -0.5882 -0.0005
 7540SOL     OW34252   2.613   2.735   5.018  0.0059 -0.7085 -0.1003
 7540SOL    HW134253   2.535   2.760   4.969  0.5032  2.3643  0.6628
 7540SOL    HW234254   2.655   2.704   4.938  1.3665 -2.1766  1.1921
 7541SOL     OW34255   0.160   1.287  13.267 -0.3702  0.3347  0.2430
 7541SOL    HW134256   0.141   1.304  13.359 -0.0239  0.2488  0.3316
 7541SOL    HW234257   0.214   1.208  13.261 -1.3395 -0.2821 -0.2326
 7542SOL     OW34258   3.334   4.496   3.052 -0.0915  0.6285  0.1559
 7542SOL    HW134259   3.253   4.445   3.059 -0.3601  1.1144  0.6780
 7542SOL    HW234260   3.389   4.464   3.124 -0.6023 -1.0040 -0.1722
 7543SOL     OW34261   3.580   3.331   7.059  0.5069  0.6509 -0.2389
 7543SOL    HW134262   3.487   3.349   7.044 -0.3772 -3.1283  0.6023
 7543SOL    HW234263   3.606   3.282   6.981 -1.1615  2.1023 -1.7085
 7544SOL     OW34264   0.530   0.038  16.342  0.4286 -0.2426  0.3469
 7544SOL    HW134265   0.582   4.705  16.296  2.0581  0.3670  1.3012
 7544SOL    HW234266   0.480   4.721  16.407  1.2959 -1.5285  0.0345
 7545SOL     OW34267   4.411   4.319  15.376  0.1656  0.5917 -0.0782
 7545SOL    HW134268   4.455   4.257  15.318 -0.3553 -1.3120  1.5740
 7545SOL    HW234269   4.322   4.335  15.343  0.9740  0.8739 -2.1045
 7546SOL     OW34270   4.302   2.091   3.823 -0.2167  0.3811 -0.0629
 7546SOL    HW134271   4.281   2.019   3.883  2.3931 -2.2156 -2.2701
 7546SOL    HW234272   4.323   2.040   3.745  0.4868 -2.8087  2.2100
 7547SOL     OW34273   2.231   3.332   9.901  0.2467  0.1440 -0.5479
 7547SOL    HW134274   2.237   3.294   9.988 -1.7015  0.8490 -0.1116
 7547SOL    HW234275   2.156   3.282   9.870 -0.7186  0.1161  1.8340
 7548SOL     OW34276   4.703   0.409   5.047  0.9092 -0.2069 -0.2152
 7548SOL    HW134277   4.618   0.369   5.027  1.0603  0.7193 -2.8033
 7548SOL    HW234278   0.015   0.387   4.965 -1.3148 -1.8903 -0.9673
 7549SOL     OW34279   0.713   0.213   8.795  0.3349 -0.0249 -0.3789
 7549SOL    HW134280   0.803   0.225   8.826  0.6469 -2.0008 -0.5202
 7549SOL    HW234281   0.669   0.254   8.870  0.9023 -1.2442  0.6289
 7550SOL     OW34282   4.408   4.721  15.631  0.3251  0.0374 -0.2967
 7550SOL    HW134283   4.406   4.627  15.617 -3.4907 -0.0903  1.0140
 7550SOL    HW234284   4.404   0.010  15.538  0.8707  2.4588  0.2326
 7551SOL     OW34285   0.433   4.683   8.066 -0.1672  1.0488 -0.6013
 7551SOL    HW134286   0.446   0.044   8.087 -1.1540  0.8751  0.7780
 7551SOL    HW234287   0.345   4.671   8.101  0.7250  0.3033  1.3923
 7552SOL     OW34288   3.292   0.409  14.530 -0.6145  0.3593 -0.5900
 7552SOL    HW134289   3.258   0.398  14.619  0.8199 -1.4233 -0.2670
 7552SOL    HW234290   3.213   0.425  14.479 -1.2119 -0.0037  0.2222
 7553SOL     OW34291   0.017   0.679   0.085  0.3748 -0.3473  0.2288
 7553SOL    HW134292   0.066   0.718   0.013 -2.0382  3.8815  0.9211
 7553SOL    HW234293   0.075   0.689   0.161 -0.8889  0.1151  1.1264
 7554SOL     OW34294   4.659   2.271   4.239  0.0166  0.9017  0.3737
 7554SOL    HW134295   4.694   2.334   4.176  2.6461  1.0627  2.0059
 7554SOL    HW234296   4.568   2.296   4.250 -1.3658 -3.8861 -0.0877
 7555SOL     OW34297   4.460   0.402   2.625 -0.9641  0.3955 -0.5478
 7555SOL    HW134298   4.470   0.307   2.625 -2.3199  0.2590  0.5511
 7555SOL    HW234299   4.547   0.435   2.602 -0.1297 -0.3317  1.6002
 7556SOL     OW34300   4.445   2.259   4.474  0.3239  0.4872 -0.7717
 7556SOL    HW134301   4.395   2.281   4.395 -1.5603  2.5464  0.9897
 7556SOL    HW234302   4.390   2.287   4.547 -1.6283 -2.4274 -1.1224
 7557SOL     OW34303   0.883   2.022   3.051 -0.0794  0.4479 -0.0109
 7557SOL    HW134304   0.977   2.029   3.041  0.2588 -1.3768  1.7872
 7557SOL    HW234305   0.867   1.945   2.996 -1.3909  1.0937 -0.5224
 7558SOL     OW34306   0.644   2.139   5.201 -0.3918 -0.2046 -0.4542
 7558SOL    HW134307   0.642   2.232   5.223  0.3907 -0.4104  0.4480
 7558SOL    HW234308   0.555   2.115   5.174 -1.4670  1.2964  1.7559
 7559SOL     OW34309   0.176   1.632  14.328  0.1219 -0.0198  0.4981
 7559SOL    HW134310   0.144   1.696  14.265  0.6476 -1.2083 -0.9639
 7559SOL    HW234311   0.103   1.570  14.331 -0.5490  0.7477  0.1546
 7560SOL     OW34312   1.987   2.999   5.540 -0.2215 -0.7562 -0.2202
 7560SOL    HW134313   1.898   2.967   5.525 -0.3856 -0.1090 -0.6161
 7560SOL    HW234314   2.005   2.963   5.627 -1.3830 -0.9394 -0.0524
 7561SOL     OW34315   2.284   4.422   8.889 -0.1179  0.0711 -0.2880
 7561SOL    HW134316   2.332   4.479   8.830  2.1515  0.0192  1.5208
 7561SOL    HW234317   2.198   4.427   8.847 -0.5119 -3.5700  0.0695
 7562SOL     OW34318   1.735   4.078   4.826  0.0724  0.2765 -0.1953
 7562SOL    HW134319   1.830   4.068   4.828 -0.0933 -1.1331  0.2219
 7562SOL    HW234320   1.734   4.173   4.811  1.0070  0.4765  0.9874
 7563SOL     OW34321   3.138   3.645   2.845 -0.4334  0.6661 -0.3152
 7563SOL    HW134322   3.151   3.625   2.753 -3.1666  0.1479 -0.5870
 7563SOL    HW234323   3.057   3.598   2.864  0.7156 -1.2179 -0.0960
 7564SOL     OW34324   1.822   0.646  15.127 -0.0739 -0.1220 -0.6134
 7564SOL    HW134325   1.916   0.642  15.109  0.2638 -0.8258  1.3011
 7564SOL    HW234326   1.796   0.737  15.111 -2.5831 -0.8908 -0.9494
 7565SOL     OW34327   3.478   1.856   5.902 -0.1670 -0.2482  0.7337
 7565SOL    HW134328   3.498   1.794   5.972  0.3340 -1.9130 -0.8902
 7565SOL    HW234329   3.524   1.810   5.832  0.3303  0.2396  0.7345
 7566SOL     OW34330   0.227   0.381  17.272  0.3518 -1.1338  0.6923
 7566SOL    HW134331   0.193   0.377  17.182 -0.4031 -0.5039  0.9487
 7566SOL    HW234332   0.174   0.311  17.310 -1.2625  0.5302  1.5057
 7567SOL     OW34333   1.489   0.145  14.181  0.7252 -0.0350  0.1643
 7567SOL    HW134334   1.441   0.227  14.173  3.2732  1.4415 -0.0073
 7567SOL    HW234335   1.557   0.154  14.249 -0.5808  0.4407  1.4094
 7568SOL     OW34336   4.017   0.220   7.853  0.2810  0.5589  0.2465
 7568SOL    HW134337   3.930   0.261   7.847 -0.0402 -0.1586  0.0638
 7568SOL    HW234338   4.050   0.257   7.935 -3.3535  0.1426  1.8780
 7569SOL     OW34339   0.673   3.532  15.072 -0.7507 -0.2314  0.2340
 7569SOL    HW134340   0.623   3.608  15.101 -0.4595 -0.8628  2.4652
 7569SOL    HW234341   0.764   3.560  15.082  0.1135 -2.4575 -1.4087
 7570SOL     OW34342   0.596   0.055   6.281 -0.5177 -0.0393  0.2590
 7570SOL    HW134343   0.573   0.056   6.374  1.4853  0.1278  0.7653
 7570SOL    HW234344   0.628   0.142   6.259  3.5203 -1.1432  1.6341
 7571SOL     OW34345   0.921   3.967   4.073 -0.2296  0.0638 -0.3738
 7571SOL    HW134346   0.999   4.021   4.074  1.0845 -1.8275 -1.9668
 7571SOL    HW234347   0.940   3.901   4.140 -1.3072  0.5024  0.3640
 7572SOL     OW34348   3.692   2.036   9.909 -0.2373  0.2802 -0.1297
 7572SOL    HW134349   3.656   2.089   9.980  0.9051 -0.5414  1.0642
 7572SOL    HW234350   3.695   1.951   9.953 -0.2338 -0.0784 -0.8203
 7573SOL     OW34351   0.355   0.689   1.879 -0.4838  0.8198  0.3435
 7573SOL    HW134352   0.334   0.680   1.972  1.1860  1.8199  0.8103
 7573SOL    HW234353   0.441   0.730   1.878 -0.0996 -0.0544 -1.9552
 7574SOL     OW34354   1.221   0.459   7.750  0.3215 -0.2293 -0.1103
 7574SOL    HW134355   1.197   0.411   7.830 -0.2988 -1.8035 -1.2274
 7574SOL    HW234356   1.140   0.456   7.698  0.0720  1.6409  0.1915
 7575SOL     OW34357   4.343   2.912   2.269  0.4149 -0.2194  0.0680
 7575SOL    HW134358   4.275   2.976   2.247 -1.3221 -1.2854  2.3928
 7575SOL    HW234359   4.417   2.955   2.227 -0.8666 -1.3240 -3.3273
 7576SOL     OW34360   1.748   0.749  16.531  0.2478  0.3577  0.0263
 7576SOL    HW134361   1.667   0.699  16.522  1.5727 -2.0971  1.8112
 7576SOL    HW234362   1.738   0.796  16.614 -1.0957 -0.1671  0.1633
 7577SOL     OW34363   3.163   0.588   7.999 -0.0516 -0.2491 -0.5927
 7577SOL    HW134364   3.196   0.547   8.079 -0.0555 -1.2228 -1.0808
 7577SOL    HW234365   3.069   0.572   8.004  0.1618 -0.9295  1.3043
 7578SOL     OW34366   0.538   0.190   6.577 -0.3826  0.1330  0.7171
 7578SOL    HW134367   0.562   0.166   6.667 -1.3409 -0.5996  0.7840
 7578SOL    HW234368   0.551   0.284   6.567 -1.1626  0.1084 -0.4856
 7579SOL     OW34369   0.775   0.737   7.472 -0.6722  0.2206 -0.0438
 7579SOL    HW134370   0.761   0.643   7.461 -1.0172  0.2172  0.4115
 7579SOL    HW234371   0.681   0.758   7.475 -0.8948 -1.0523  1.9279
 7580SOL     OW34372   0.632   2.909   5.805 -0.1489  0.0760  0.1606
 7580SOL    HW134373   0.605   2.993   5.842  0.9277  0.7059 -0.4832
 7580SOL    HW234374   0.727   2.915   5.813 -0.0461  1.0428 -1.6636
 7581SOL     OW34375   3.659   0.786  11.089  0.0372  0.0860 -0.5034
 7581SOL    HW134376   3.652   0.710  11.148 -2.7895  0.6873 -0.0632
 7581SOL    HW234377   3.575   0.831  11.101  1.5310  2.6996  0.1090
 7582SOL     OW34378   3.164   3.049  14.937 -0.2677  0.2541 -0.6492
 7582SOL    HW134379   3.216   3.114  14.889 -0.6648  1.4325  0.5103
 7582SOL    HW234380   3.223   3.040  15.011 -0.2232 -1.2747 -0.8836
 7583SOL     OW34381   2.426   2.243   2.736 -0.2720 -0.3745  0.5658
 7583SOL    HW134382   2.350   2.185   2.727 -0.9909  0.4439  1.4256
 7583SOL    HW234383   2.392   2.321   2.691 -2.4402 -1.0881  0.9605
 7584SOL     OW34384   3.382   4.709   3.296  0.5561 -0.0324 -0.0289
 7584SOL    HW134385   3.413   4.643   3.357  0.7187 -1.5854 -1.7836
 7584SOL    HW234386   3.461   0.021   3.266  1.3584  0.0511  2.2120
 7585SOL     OW34387   3.414   2.248   1.740  0.3718  0.6342  0.8319
 7585SOL    HW134388   3.414   2.193   1.661 -0.6312  0.7456  0.7492
 7585SOL    HW234389   3.448   2.329   1.702  0.7655 -1.1633 -2.7264
 7586SOL     OW34390   1.431   2.297   6.523 -0.5423  0.0172  0.8684
 7586SOL    HW134391   1.380   2.274   6.446  1.6679 -1.0153 -0.3027
 7586SOL    HW234392   1.407   2.390   6.523  3.2568  0.9940 -0.8110
 7587SOL     OW34393   3.583   3.261   7.357  0.6050 -0.4503 -0.1319
 7587SOL    HW134394   3.564   3.190   7.296  0.3685  1.0082 -1.7687
 7587SOL    HW234395   3.671   3.289   7.333  0.7109  1.7601  2.7750
 7588SOL     OW34396   2.775   3.376   2.990 -0.0280  0.0269 -0.7009
 7588SOL    HW134397   2.793   3.304   3.051 -1.5079  1.1286  1.0461
 7588SOL    HW234398   2.847   3.433   3.018 -0.1244  0.7052 -1.8353
 7589SOL     OW34399   3.247   2.542   8.052 -0.0809 -0.4097  0.4014
 7589SOL    HW134400   3.328   2.495   8.072 -0.5431 -1.4583 -0.1813
 7589SOL    HW234401   3.276   2.568   7.964 -1.4031  2.8607  0.9369
 7590SOL     OW34402   3.301   2.182   5.471 -0.6631 -0.2690  0.3586
 7590SOL    HW134403   3.257   2.206   5.389 -0.1681 -1.6494 -0.3151
 7590SOL    HW234404   3.363   2.252   5.493  0.6441 -1.4988  0.6163
 7591SOL     OW34405   4.716   2.277   3.481  0.3629  0.5345  0.2573
 7591SOL    HW134406   4.672   2.251   3.562  1.7517 -0.5436  0.6502
 7591SOL    HW234407   4.730   2.371   3.495  1.0362  0.4819 -0.0669
 7592SOL     OW34408   1.514   0.303   4.140  0.1076 -0.0739 -0.1378
 7592SOL    HW134409   1.559   0.219   4.147  0.8893  0.3489 -0.0419
 7592SOL    HW234410   1.523   0.320   4.046  0.6714 -0.9331 -0.2360
 7593SOL     OW34411   4.682   0.880  10.154 -0.3016  0.6852 -0.0154
 7593SOL    HW134412   0.011   0.847  10.220  2.0267  1.3555 -1.8139
 7593SOL    HW234413   4.728   0.869  10.071  0.6680  1.8214  0.3660
 7594SOL     OW34414   0.059   0.210  17.389 -0.0756 -0.4419  0.6883
 7594SOL    HW134415   4.704   0.245  17.375  0.0778 -1.0593 -1.7749
 7594SOL    HW234416   0.036   0.139  17.449 -3.3878  0.7350  0.7561
 7595SOL     OW34417   3.893   0.210  12.875  0.1499 -0.0767 -0.0509
 7595SOL    HW134418   3.903   0.285  12.934  0.8799 -3.1996  3.7244
 7595SOL    HW234419   3.868   0.151  12.946 -1.3035 -1.9171 -2.0947
 7596SOL     OW34420   2.844   1.364  13.825 -0.3640 -0.0156  0.0280
 7596SOL    HW134421   2.849   1.275  13.791  1.1591  0.0862 -0.0145
 7596SOL    HW234422   2.886   1.414  13.754 -0.6278 -0.2095 -0.2674
 7597SOL     OW34423   1.906   1.002  16.441 -0.2316 -0.1340  0.5346
 7597SOL    HW134424   1.893   0.926  16.498 -0.9147  0.2482  0.8853
 7597SOL    HW234425   1.888   0.963  16.355  0.5719 -0.5709  0.5603
 7598SOL     OW34426   2.857   1.116   8.058 -0.1463 -0.2411 -0.7430
 7598SOL    HW134427   2.874   1.034   8.012  2.8571 -0.5410  0.9305
 7598SOL    HW234428   2.765   1.133   8.037 -0.4812  1.6161  2.2172
 7599SOL     OW34429   3.563   0.257   2.691  0.2703  0.4891 -0.3556
 7599SOL    HW134430   3.472   0.285   2.685  0.1033 -0.0594 -0.4252
 7599SOL    HW234431   3.622   0.316   2.643  2.4514 -0.1084  1.5787
 7600SOL     OW34432   0.125   0.475   3.235 -0.3924 -0.0773  0.3137
 7600SOL    HW134433   0.189   0.492   3.166 -0.8013 -3.0645 -0.8204
 7600SOL    HW234434   0.105   0.384   3.212  3.1853 -0.7072 -0.2583
 7601SOL     OW34435   0.676   1.718   5.060  0.0707  0.1249 -0.4715
 7601SOL    HW134436   0.723   1.635   5.059 -0.0423  0.0745 -1.8156
 7601SOL    HW234437   0.597   1.695   5.011 -1.0136  1.2874  0.7394
 7602SOL     OW34438   2.485   4.072   5.733 -0.0716  0.1955  0.0130
 7602SOL    HW134439   2.522   4.085   5.645 -0.1093 -0.4026 -0.0944
 7602SOL    HW234440   2.416   4.009   5.713 -0.3295  0.4774  0.0251
 7603SOL     OW34441   3.586   4.408   8.591 -0.0445  0.4664 -0.2280
 7603SOL    HW134442   3.599   4.447   8.677  0.6004 -1.4621  0.5660
 7603SOL    HW234443   3.636   4.466   8.533 -0.0793 -0.0624 -0.7891
 7604SOL     OW34444   3.340   0.852  14.642 -0.5568 -0.1819 -0.0752
 7604SOL    HW134445   3.386   0.936  14.644 -0.1849 -0.4240  2.2047
 7604SOL    HW234446   3.252   0.887  14.661 -0.8859  0.1122 -2.1775
 7605SOL     OW34447   2.788   3.559  15.818 -0.5073  0.1198  0.1561
 7605SOL    HW134448   2.751   3.482  15.775 -0.6720 -0.0683  0.6449
 7605SOL    HW234449   2.878   3.552  15.784 -0.5931 -1.5288  0.3114
 7606SOL     OW34450   1.147   0.708   3.528 -0.8506 -0.1716 -0.5390
 7606SOL    HW134451   1.208   0.723   3.600 -1.3445 -0.6114 -0.0337
 7606SOL    HW234452   1.207   0.655   3.475  0.1927 -1.3530  1.8197
 7607SOL     OW34453   3.816   1.498   8.685 -0.5217  0.6515 -0.0938
 7607SOL    HW134454   3.764   1.555   8.628 -3.1981 -0.0852  1.6550
 7607SOL    HW234455   3.844   1.439   8.614  3.0892  3.0617 -0.7177
 7608SOL     OW34456   0.745   4.224   7.721  0.5124  0.2107  0.0335
 7608SOL    HW134457   0.654   4.198   7.732  1.0862 -1.4036  1.0047
 7608SOL    HW234458   0.779   4.137   7.698  2.6303  1.3793 -1.2280
 7609SOL     OW34459   4.330   0.268   6.925  0.1854 -0.1457  0.4075
 7609SOL    HW134460   4.399   0.277   6.859 -0.4965 -0.5408 -0.3615
 7609SOL    HW234461   4.368   0.324   6.992 -0.2767  0.4463  0.1730
 7610SOL     OW34462   3.446   2.134   4.057  0.7138 -0.5412  0.3825
 7610SOL    HW134463   3.478   2.214   4.015 -0.4040  0.2782  1.0817
 7610SOL    HW234464   3.515   2.076   4.026  0.0371 -1.3429  0.3714
 7611SOL     OW34465   0.873   0.353   0.318 -0.2322 -0.4505 -0.0066
 7611SOL    HW134466   0.943   0.386   0.262  0.5392 -1.3200  0.4436
 7611SOL    HW234467   0.902   0.390   0.401  0.6393 -0.9220 -0.1031
 7612SOL     OW34468   3.928   0.396   0.587 -0.2161 -0.1082  0.3389
 7612SOL    HW134469   4.014   0.394   0.629 -0.6743  0.9685  1.3667
 7612SOL    HW234470   3.915   0.313   0.542  0.2723 -1.2787  2.3330
 7613SOL     OW34471   0.459   1.780   7.209  0.1749 -0.0123 -0.0554
 7613SOL    HW134472   0.512   1.729   7.271  0.7865 -0.4433 -0.9374
 7613SOL    HW234473   0.524   1.846   7.187  0.5143 -0.0082  0.9398
 7614SOL     OW34474   2.960   0.913  13.851  0.3111  0.0191  0.1953
 7614SOL    HW134475   2.922   0.958  13.926 -0.6001  0.5131 -0.5657
 7614SOL    HW234476   3.035   0.863  13.884 -0.1379  1.5423  3.4935
 7615SOL     OW34477   4.674   4.166   9.319  0.0071 -0.5930 -0.2735
 7615SOL    HW134478   4.632   4.080   9.315 -0.6583 -0.3736  2.0384
 7615SOL    HW234479   4.684   4.175   9.224 -1.3583 -1.7036 -0.5211
 7616SOL     OW34480   2.112   2.935   2.833 -0.1280  0.4619 -0.1588
 7616SOL    HW134481   2.156   2.964   2.753 -0.0285 -0.8032 -0.5662
 7616SOL    HW234482   2.130   3.004   2.897 -0.9590 -1.5219  2.2527
 7617SOL     OW34483   2.547   0.465   3.533 -0.0581 -0.4551 -0.6223
 7617SOL    HW134484   2.614   0.532   3.543 -0.5471  0.3318 -2.6482
 7617SOL    HW234485   2.487   0.482   3.606 -0.8682  1.4175 -1.7441
 7618SOL     OW34486   1.965   3.493  11.327 -0.5140  0.3278  0.5157
 7618SOL    HW134487   1.909   3.570  11.317  1.2233  1.1840 -2.6517
 7618SOL    HW234488   1.997   3.475  11.238 -0.2543 -0.7291  0.8238
 7619SOL     OW34489   0.098   0.214   9.847 -0.1547  0.0233  0.5756
 7619SOL    HW134490   0.005   0.201   9.830  0.1223 -3.0362  1.5687
 7619SOL    HW234491   0.113   0.295   9.798  1.6098  0.0625  1.1774
 7620SOL     OW34492   2.475   4.605   5.108 -0.1433  0.2329  0.5075
 7620SOL    HW134493   2.535   4.675   5.082 -1.8435  1.9849  1.2386
 7620SOL    HW234494   2.392   4.643   5.077 -1.6058 -1.9433  1.7705
 7621SOL     OW34495   2.442   4.346   9.543  0.1958 -0.0285 -0.2649
 7621SOL    HW134496   2.352   4.336   9.514 -0.0928 -2.3546  1.4231
 7621SOL    HW234497   2.463   4.253   9.545  0.3118 -0.0229 -1.1609
 7622SOL     OW34498   4.231   1.081   2.615 -0.1099  0.1324 -0.2577
 7622SOL    HW134499   4.249   1.109   2.526  1.1741 -0.4205 -0.1730
 7622SOL    HW234500   4.241   1.163   2.663  0.9682  0.3337 -0.8423
 7623SOL     OW34501   1.504   1.234   6.001  0.2412  0.1732  0.3143
 7623SOL    HW134502   1.415   1.266   5.983  0.6933  1.1626 -0.1846
 7623SOL    HW234503   1.540   1.301   6.060 -0.5198 -0.7768  1.8433
 7624SOL     OW34504   0.759   3.060   6.339 -0.0793 -0.0151 -0.1517
 7624SOL    HW134505   0.808   3.006   6.401  4.0833  2.1343 -1.5196
 7624SOL    HW234506   0.721   3.126   6.397 -2.5795 -1.8226  0.2530
 7625SOL     OW34507   0.162   4.321   8.398 -0.0404 -0.8192 -0.6025
 7625SOL    HW134508   0.140   4.228   8.403 -1.1281 -0.5185  0.4539
 7625SOL    HW234509   0.081   4.360   8.431  0.8365 -1.0946  1.8953
 7626SOL     OW34510   0.448   2.288   9.491 -0.2109 -0.0499 -0.2710
 7626SOL    HW134511   0.405   2.202   9.489 -2.5726  1.1644 -2.7927
 7626SOL    HW234512   0.370   2.344   9.494 -0.8271 -0.9220  0.1178
 7627SOL     OW34513   1.646   0.053  11.118 -0.2775  0.1524  0.0357
 7627SOL    HW134514   1.582   0.099  11.174 -0.3154  1.9155 -1.4643
 7627SOL    HW234515   1.580   0.028  11.054  1.3912 -2.2724 -0.7108
 7628SOL     OW34516   3.294   3.849   8.593  0.0256  0.6819 -0.0420
 7628SOL    HW134517   3.312   3.767   8.547  3.0952  2.1363 -1.4479
 7628SOL    HW234518   3.371   3.861   8.649 -0.3211 -0.3958  0.6591
 7629SOL     OW34519   2.658   3.175   4.192 -0.2545  0.3117  0.1706
 7629SOL    HW134520   2.567   3.191   4.216  0.4955  3.7266  0.7269
 7629SOL    HW234521   2.682   3.094   4.238 -0.6809 -1.8224 -3.3618
 7630SOL     OW34522   4.194   4.553  14.876  0.1247 -0.3003 -0.0238
 7630SOL    HW134523   4.214   4.600  14.794 -1.2891  2.2723  1.1250
 7630SOL    HW234524   4.276   4.506  14.891  0.3693  0.6418  1.5518
 7631SOL     OW34525   1.559   0.798  15.011  0.1312  0.4825  0.2853
 7631SOL    HW134526   1.636   0.850  15.034  0.3409  0.1815  0.2781
 7631SOL    HW234527   1.487   0.857  15.030  0.9906  2.4224 -2.5900
 7632SOL     OW34528   3.576   2.222  16.693 -0.7109 -0.1140  0.0976
 7632SOL    HW134529   3.595   2.276  16.770 -0.5421  0.1607 -0.1389
 7632SOL    HW234530   3.497   2.174  16.717 -0.7405  0.8651  1.9956
 7633SOL     OW34531   2.923   3.900   1.053  0.1443  0.0562  0.1893
 7633SOL    HW134532   2.962   3.950   1.125  3.5305 -0.8779 -1.0297
 7633SOL    HW234533   2.859   3.845   1.099  0.4209  0.9266  1.6354
 7634SOL     OW34534   4.516   4.664   3.856  0.0840 -0.0095  0.1573
 7634SOL    HW134535   4.461   4.639   3.783  0.9738 -0.3665 -0.3836
 7634SOL    HW234536   4.597   4.694   3.814  0.6652 -0.4447  0.9495
 7635SOL     OW34537   3.582   1.452   8.981 -0.1936 -0.3703 -0.4219
 7635SOL    HW134538   3.545   1.434   9.068  0.7815 -0.1455  0.0432
 7635SOL    HW234539   3.576   1.365   8.943 -3.5896 -0.6585  0.7290
 7636SOL     OW34540   2.774   1.018   4.973 -0.3372  0.9192 -0.1371
 7636SOL    HW134541   2.725   1.094   5.005 -1.0969  0.3180  0.1340
 7636SOL    HW234542   2.702   0.964   4.941  0.4819 -0.8249  0.9259
 7637SOL     OW34543   2.325   0.415  11.325  0.2887  0.0318  0.0505
 7637SOL    HW134544   2.261   0.446  11.261 -0.0659  0.6121  0.6943
 7637SOL    HW234545   2.338   0.495  11.376 -0.9708  0.8354 -0.9066
 7638SOL     OW34546   4.338   3.322  10.596  0.1104 -0.1340  0.1535
 7638SOL    HW134547   4.298   3.241  10.565  3.7184 -1.4813 -1.0783
 7638SOL    HW234548   4.319   3.319  10.690  0.1545  0.4552  0.1769
 7639SOL     OW34549   4.435   4.561   4.819 -0.4393  0.3553 -0.0187
 7639SOL    HW134550   4.503   4.607   4.770 -0.1688 -0.3456 -0.3024
 7639SOL    HW234551   4.357   4.590   4.772  0.8404 -0.1448 -2.4843
 7640SOL     OW34552   2.633   3.114   7.523  0.1311  0.3547  0.1287
 7640SOL    HW134553   2.668   3.195   7.487  0.1882  0.3450  0.1622
 7640SOL    HW234554   2.559   3.107   7.463 -0.0011  2.0935  0.1042
 7641SOL     OW34555   2.449   3.694   8.461 -0.6604 -0.0039  0.5135
 7641SOL    HW134556   2.499   3.759   8.510  2.0099 -2.0728  0.5770
 7641SOL    HW234557   2.360   3.698   8.494 -1.3587 -1.5996 -1.1335
 7642SOL     OW34558   1.594   0.068   4.524  0.3266 -0.2419  0.1636
 7642SOL    HW134559   1.517   0.047   4.578  1.2193  0.7981  1.8269
 7642SOL    HW234560   1.655   0.005   4.562 -0.4451 -0.9432  0.2382
 7643SOL     OW34561   4.044   0.667   2.263  0.5623 -0.3469 -0.4194
 7643SOL    HW134562   4.077   0.645   2.176 -2.3553 -1.9036 -1.1092
 7643SOL    HW234563   4.109   0.619   2.315 -1.5083 -1.5174  1.0932
 7644SOL     OW34564   0.996   1.331  11.418  0.0292 -0.1172 -0.3950
 7644SOL    HW134565   0.975   1.342  11.326  0.6585  0.5158 -0.4667
 7644SOL    HW234566   1.091   1.326  11.432 -0.3413 -0.6051  2.0073
 7645SOL     OW34567   4.390   0.428   5.068  0.1486  0.4541  0.1814
 7645SOL    HW134568   4.306   0.430   5.021  0.5288 -0.3873 -0.5323
 7645SOL    HW234569   4.375   0.468   5.154  0.1855 -0.8977  0.8080
 7646SOL     OW34570   0.764   1.015  14.660  0.0457 -0.0208  0.0232
 7646SOL    HW134571   0.729   1.096  14.695 -0.8487 -0.3811 -0.0407
 7646SOL    HW234572   0.756   0.958  14.737  2.6873  0.0305  0.3270
 7647SOL     OW34573   0.761   3.392  11.208  0.2048 -0.2615  0.2606
 7647SOL    HW134574   0.696   3.377  11.139  1.0174  0.8220 -0.7355
 7647SOL    HW234575   0.764   3.487  11.217 -0.3242 -0.3127  0.9263
 7648SOL     OW34576   2.931   0.244   8.359  0.1320 -0.2064  0.4036
 7648SOL    HW134577   2.852   0.190   8.363 -0.8973  1.3819  1.1785
 7648SOL    HW234578   3.002   0.180   8.367 -0.2010 -0.7082 -0.5974
 7649SOL     OW34579   0.421   3.745   8.482  0.1407  0.4285 -0.8550
 7649SOL    HW134580   0.333   3.709   8.473 -0.1264  0.4429  1.9819
 7649SOL    HW234581   0.406   3.839   8.473  0.9156  0.7397  1.1781
 7650SOL     OW34582   1.215   4.543   7.363  0.3049 -0.0576  0.2091
 7650SOL    HW134583   1.251   4.524   7.449  0.8251 -2.8092 -0.6210
 7650SOL    HW234584   1.255   4.629   7.348 -0.5916  0.1162 -1.2297
 7651SOL     OW34585   3.896   1.288   4.050  0.3482 -0.3940 -0.5130
 7651SOL    HW134586   3.942   1.325   3.974  1.7548  0.7944  0.9131
 7651SOL    HW234587   3.914   1.197   4.027 -2.2682 -1.0292 -0.0615
 7652SOL     OW34588   2.495   1.886   8.221 -0.7852 -0.1457  0.1556
 7652SOL    HW134589   2.565   1.949   8.236 -1.4217  0.8192 -0.8806
 7652SOL    HW234590   2.465   1.910   8.133  2.6716  0.9484 -0.7225
 7653SOL     OW34591   1.363   2.552   8.069  0.0632 -0.9515 -0.1992
 7653SOL    HW134592   1.434   2.529   8.128 -1.1505  0.8354  1.9377
 7653SOL    HW234593   1.291   2.582   8.124  1.9988  0.4864  1.5444
 7654SOL     OW34594   1.859   2.594   8.632 -0.4216  0.3111  0.2553
 7654SOL    HW134595   1.826   2.650   8.703 -2.8152  2.2110 -2.3589
 7654SOL    HW234596   1.850   2.504   8.664 -0.2682 -0.5849 -2.2193
 7655SOL     OW34597   0.027   0.165  15.482  0.1615  0.0136  0.0796
 7655SOL    HW134598   0.030   0.203  15.570  1.9801 -0.6202  0.2881
 7655SOL    HW234599   0.090   0.222  15.439  1.9778 -0.5262  2.0006
 7656SOL     OW34600   4.205   4.701   3.545 -0.6890  0.0350  0.5940
 7656SOL    HW134601   4.179   4.609   3.537  0.1222 -0.2571  1.4647
 7656SOL    HW234602   4.117   0.005   3.536  0.1431  1.5724 -1.4285
 7657SOL     OW34603   3.745   3.767   7.807 -0.3539 -0.2137 -0.3969
 7657SOL    HW134604   3.785   3.784   7.892  2.3135 -0.4622 -1.6190
 7657SOL    HW234605   3.660   3.810   7.821  0.0627  0.4036  0.2601
 7658SOL     OW34606   0.213   0.389  14.859  0.2656 -0.2632  0.3275
 7658SOL    HW134607   0.293   0.434  14.886  1.8325 -2.0983 -1.2153
 7658SOL    HW234608   0.178   0.458  14.803  1.1241 -1.1554 -1.3274
 7659SOL     OW34609   3.233   2.790   4.856  0.4190  0.8385  0.0225
 7659SOL    HW134610   3.297   2.732   4.815 -1.1656  0.2536 -1.5792
 7659SOL    HW234611   3.186   2.725   4.909  0.6045 -0.1964 -1.0794
 7660SOL     OW34612   3.147   2.580   5.729 -0.5765 -0.0793 -0.0966
 7660SOL    HW134613   3.156   2.612   5.818 -0.2742 -1.0181  0.2156
 7660SOL    HW234614   3.110   2.655   5.682  0.2669  0.2090 -0.2937
 7661SOL     OW34615   3.104   1.332  10.895 -0.3913 -0.4423  0.6151
 7661SOL    HW134616   3.036   1.279  10.854 -1.4260  0.4103  1.2566
 7661SOL    HW234617   3.125   1.265  10.960  0.3251 -0.3880  0.4423
 7662SOL     OW34618   4.577   2.423   5.060 -0.3777  0.4233 -0.1678
 7662SOL    HW134619   4.524   2.456   5.133  1.4445  1.3792  0.7415
 7662SOL    HW234620   4.605   2.509   5.027  0.6336  0.8076  1.7103
 7663SOL     OW34621   4.040   2.309   3.008 -0.3678  0.4061 -0.1123
 7663SOL    HW134622   4.001   2.347   2.930 -1.2112 -0.3913 -0.0765
 7663SOL    HW234623   4.084   2.230   2.974 -2.5816 -0.2431 -1.4268
 7664SOL     OW34624   3.857   1.613   7.863 -0.3320  0.1108 -0.0508
 7664SOL    HW134625   3.849   1.523   7.833 -0.8495  0.2653 -0.3789
 7664SOL    HW234626   3.950   1.623   7.881 -0.0807  1.5352 -2.1918
 7665SOL     OW34627   1.229   1.689  15.624  0.5029 -0.0295 -0.2588
 7665SOL    HW134628   1.298   1.667  15.563  0.1780 -1.4673 -0.1023
 7665SOL    HW234629   1.171   1.613  15.620  0.8649 -0.3278  0.0754
 7666SOL     OW34630   0.247   0.738   2.895  1.1595 -0.2807 -0.2551
 7666SOL    HW134631   0.156   0.750   2.920  1.4833 -0.3600  0.9628
 7666SOL    HW234632   0.245   0.732   2.799 -1.7218  1.0264 -0.2561
 7667SOL     OW34633   1.344   1.035   6.408  0.4234  0.4632 -0.0147
 7667SOL    HW134634   1.395   0.969   6.454  0.1271 -1.7730 -2.8895
 7667SOL    HW234635   1.271   1.041   6.470 -0.6714  0.2476 -1.2741
 7668SOL     OW34636   2.877   2.109   6.541  0.1118 -0.0413  0.2526
 7668SOL    HW134637   2.833   2.101   6.457 -1.3728 -1.1704  1.1500
 7668SOL    HW234638   2.812   2.157   6.592  0.1332 -0.5059  0.7203
 7669SOL     OW34639   0.789   4.559   9.338 -0.5776  0.0014  0.2904
 7669SOL    HW134640   0.858   4.499   9.367  0.2015  0.2411 -1.0366
 7669SOL    HW234641   0.805   4.568   9.244  2.1578 -1.7552  0.5880
 7670SOL     OW34642   1.637   0.823   5.383  0.7823 -0.0108 -0.5847
 7670SOL    HW134643   1.645   0.902   5.329 -0.3572  0.0842 -0.6171
 7670SOL    HW234644   1.716   0.772   5.366  0.1255 -2.0403  2.4626
 7671SOL     OW34645   2.311   2.950   5.007  0.2485 -0.3836  0.4055
 7671SOL    HW134646   2.280   2.866   5.040 -0.9202 -0.0994  0.0301
 7671SOL    HW234647   2.297   2.939   4.913 -0.8400 -1.7616  0.7221
 7672SOL     OW34648   0.199   0.947  12.630  0.5203  0.4494  0.2639
 7672SOL    HW134649   0.288   0.912  12.633  1.1036  1.9497  0.4704
 7672SOL    HW234650   0.189   0.965  12.537 -2.2467  1.7372  0.8229
 7673SOL     OW34651   2.538   2.969  10.489  0.2769 -0.0447 -0.2389
 7673SOL    HW134652   2.573   2.880  10.486 -1.7932 -0.8478 -0.5575
 7673SOL    HW234653   2.597   3.003  10.557 -1.1308 -1.3973  1.6389
 7674SOL     OW34654   2.480   0.427  17.160  0.1086 -0.0799  0.3897
 7674SOL    HW134655   2.558   0.389  17.202 -0.1066 -0.3918  0.5068
 7674SOL    HW234656   2.409   0.405  17.220  0.6040 -0.2432  0.9252
 7675SOL     OW34657   1.688   2.213   8.462 -0.0763  0.1635  0.1681
 7675SOL    HW134658   1.594   2.197   8.451 -0.3502  0.2028  2.5373
 7675SOL    HW234659   1.708   2.305   8.447 -0.4456  0.0999 -0.7302
 7676SOL     OW34660   1.830   4.680  17.393  0.2472 -0.0836 -0.1064
 7676SOL    HW134661   1.884   4.730  17.331 -1.7349 -1.5570 -3.0009
 7676SOL    HW234662   1.804   0.016  17.455 -0.5043  0.5328 -1.0892
 7677SOL     OW34663   2.202   1.004  14.857 -0.8997 -0.5220 -0.1105
 7677SOL    HW134664   2.166   1.086  14.889 -0.2185  0.2821 -1.3972
 7677SOL    HW234665   2.123   0.980  14.808 -1.1112 -0.5881  0.2626
 7678SOL     OW34666   1.843   0.733   3.825 -0.1640  0.3889  0.3025
 7678SOL    HW134667   1.821   0.771   3.910 -2.5208  0.4841 -0.3494
 7678SOL    HW234668   1.924   0.683   3.831 -1.2242 -0.9494  3.3382
 7679SOL     OW34669   1.724   2.832   4.493  0.1954  0.3306  0.0080
 7679SOL    HW134670   1.794   2.896   4.482 -0.2669  1.4285  3.6417
 7679SOL    HW234671   1.767   2.762   4.543 -0.0458  0.6506  0.6506
 7680SOL     OW34672   3.922   3.770   8.158 -0.0925  0.3112 -0.3168
 7680SOL    HW134673   3.936   3.706   8.228  2.5793  0.0483 -1.0876
 7680SOL    HW234674   3.836   3.740   8.128 -0.8991  1.9685  0.3451
 7681SOL     OW34675   2.835   1.773   6.171 -0.0746  0.2150  0.7246
 7681SOL    HW134676   2.755   1.780   6.224 -1.3865 -2.4320 -0.8701
 7681SOL    HW234677   2.807   1.827   6.098  0.8018 -0.9870 -0.4946
 7682SOL     OW34678   0.971   2.531   7.861  0.3100 -0.1777 -0.0360
 7682SOL    HW134679   0.937   2.525   7.950  0.7238  0.8134  0.1938
 7682SOL    HW234680   1.054   2.484   7.866  0.0725 -0.4990  0.7867
 7683SOL     OW34681   4.350   4.705   7.373  0.0197  0.1005 -0.0511
 7683SOL    HW134682   4.278   4.686   7.313 -1.4536 -1.4497  2.1928
 7683SOL    HW234683   4.317   4.662   7.452  0.1672  1.7996  0.9594
 7684SOL     OW34684   2.953   0.860   2.766  0.2573  0.3518 -0.4545
 7684SOL    HW134685   2.942   0.776   2.721  3.3090 -1.3193  1.9732
 7684SOL    HW234686   3.033   0.838   2.813 -0.0114 -0.9408 -0.5834
 7685SOL     OW34687   2.111   1.504  15.478 -0.0897 -0.4165 -0.2290
 7685SOL    HW134688   2.134   1.504  15.385  1.2002  1.0055  0.0987
 7685SOL    HW234689   2.050   1.432  15.494  0.0183 -0.3982  0.2608
 7686SOL     OW34690   0.933   4.052   1.105 -0.0430  0.0633 -0.2834
 7686SOL    HW134691   0.949   4.137   1.064 -1.8134 -0.1579 -1.4070
 7686SOL    HW234692   0.838   4.052   1.101 -0.1000  2.1153  1.2236
 7687SOL     OW34693   4.316   1.816   3.439 -0.3191 -0.2540 -0.0206
 7687SOL    HW134694   4.223   1.822   3.459 -0.0639  1.9290  0.5831
 7687SOL    HW234695   4.336   1.904   3.471 -0.7923 -0.0930 -0.1744
 7688SOL     OW34696   3.110   1.939   4.734 -0.5985  0.1107  0.2008
 7688SOL    HW134697   3.067   1.957   4.818 -1.5550 -0.9796 -0.0554
 7688SOL    HW234698   3.092   1.845   4.731 -0.3877  0.1152 -1.5355
 7689SOL     OW34699   0.061   2.719   4.763 -0.3090  0.1687 -0.3152
 7689SOL    HW134700   4.722   2.742   4.703 -1.0037  0.4200  0.5949
 7689SOL    HW234701   0.067   2.802   4.811  0.6953  0.0116 -0.1664
 7690SOL     OW34702   1.053   1.780   5.033 -0.2497 -0.0679 -0.3261
 7690SOL    HW134703   0.966   1.802   5.068  0.1572  1.5753 -0.3567
 7690SOL    HW234704   1.053   1.685   5.047 -0.2695  0.0242  0.3184
 7691SOL     OW34705   0.767   3.019   8.055 -0.5035  0.1679  0.1904
 7691SOL    HW134706   0.810   3.073   7.989 -1.0533 -0.1986 -0.4685
 7691SOL    HW234707   0.826   3.038   8.128  1.3029  2.7413 -1.9881
 7692SOL     OW34708   2.946   3.716   7.328  0.3048  1.0089  0.3019
 7692SOL    HW134709   2.995   3.645   7.286 -0.1197  1.3751 -0.7980
 7692SOL    HW234710   2.944   3.674   7.414  0.7938 -2.6785 -1.4621
 7693SOL     OW34711   0.593   0.553   5.313  0.0123 -0.9064  0.0558
 7693SOL    HW134712   0.560   0.626   5.261  2.9042  0.1134 -0.3707
 7693SOL    HW234713   0.667   0.528   5.258  0.7897  0.7181  0.3584
 7694SOL     OW34714   2.575   4.028   3.274  0.5052 -0.1602  0.2102
 7694SOL    HW134715   2.505   4.041   3.210 -1.6680  2.1596  3.0372
 7694SOL    HW234716   2.650   4.026   3.215 -0.2457  1.2302 -0.7982
 7695SOL     OW34717   3.094   3.576   4.156  0.2001  0.6992 -0.1136
 7695SOL    HW134718   3.045   3.642   4.107 -2.2040  0.3715  1.8352
 7695SOL    HW234719   3.038   3.501   4.136  0.9132 -0.1724  1.2168
 7696SOL     OW34720   0.292   0.725   3.754  0.1566 -0.0183  0.4788
 7696SOL    HW134721   0.274   0.726   3.659 -0.3791  1.3837  0.5869
 7696SOL    HW234722   0.217   0.782   3.773 -1.4303 -1.7685 -0.5099
 7697SOL     OW34723   4.197   0.191   8.843 -0.5399  0.3614  0.1253
 7697SOL    HW134724   4.188   0.286   8.851  1.3349  0.6709 -1.2672
 7697SOL    HW234725   4.224   0.191   8.751 -0.2837 -1.7003  0.2028
 7698SOL     OW34726   0.308   2.745  17.258 -0.3312 -0.3271  0.1861
 7698SOL    HW134727   0.290   2.651  17.253 -0.6260 -0.3912  2.1936
 7698SOL    HW234728   0.357   2.750  17.177  1.2460 -0.8186  1.1173
 7699SOL     OW34729   2.000   0.267  16.356 -0.0811 -0.0407  0.3792
 7699SOL    HW134730   1.920   0.219  16.378  0.7142 -1.7581 -0.4477
 7699SOL    HW234731   1.995   0.337  16.421  0.8313  0.0667  0.3340
 7700SOL     OW34732   3.109   1.390   5.875  0.2720  0.1848 -1.0581
 7700SOL    HW134733   3.068   1.388   5.788 -1.0520  1.1413 -0.4573
 7700SOL    HW234734   3.123   1.298   5.896 -0.8230  0.1373 -0.5109
 7701SOL     OW34735   1.810   2.547   4.531 -0.0398  0.4040 -0.2358
 7701SOL    HW134736   1.805   2.579   4.621 -0.7452  0.2088 -0.2016
 7701SOL    HW234737   1.874   2.477   4.541  0.2255  0.6670 -0.0841
 7702SOL     OW34738   3.707   2.907   1.977 -0.2201  0.1744 -0.8132
 7702SOL    HW134739   3.788   2.864   2.006 -0.3656 -0.7907 -1.8163
 7702SOL    HW234740   3.719   2.910   1.882  0.0737 -3.0777 -0.8716
 7703SOL     OW34741   0.149   0.369   8.059 -0.6323 -0.4377 -0.0211
 7703SOL    HW134742   0.074   0.352   8.001 -1.9222  0.0766  1.4933
 7703SOL    HW234743   0.222   0.356   7.999 -0.0067  1.5632  0.3366
 7704SOL     OW34744   1.661   4.122   7.960 -0.3652 -0.7251  0.3866
 7704SOL    HW134745   1.706   4.041   7.983  2.1976  1.0957  1.8928
 7704SOL    HW234746   1.731   4.182   7.985 -0.7013  0.2122 -0.9460
 7705SOL     OW34747   3.040   0.743  14.486  0.3109  0.0064  0.3402
 7705SOL    HW134748   3.113   0.776  14.434  1.3629 -1.9366  0.5726
 7705SOL    HW234749   2.963   0.797  14.466  0.6016  0.0100 -0.7553
 7706SOL     OW34750   3.749   0.085  13.691 -0.2452  0.2757 -0.5846
 7706SOL    HW134751   3.816   0.149  13.717 -1.0954  0.2890  1.5747
 7706SOL    HW234752   3.737   0.043  13.776  3.4100  0.4291  0.0447
 7707SOL     OW34753   1.457   0.102   6.125 -0.2611  0.0568 -0.8254
 7707SOL    HW134754   1.494   0.055   6.200 -0.7672 -0.6624 -1.0326
 7707SOL    HW234755   1.530   0.100   6.062  0.0170 -1.7801 -0.4497
 7708SOL     OW34756   0.182   2.969  12.850  0.0840  0.2202  0.1863
 7708SOL    HW134757   0.211   3.005  12.934 -1.7548  0.2487  0.7901
 7708SOL    HW234758   0.087   2.974  12.852  0.0904  1.4438 -2.1473
 7709SOL     OW34759   0.037   0.090   1.800  0.2651  0.2754  0.1702
 7709SOL    HW134760   0.130   0.097   1.780  0.7272 -0.0420  2.1890
 7709SOL    HW234761   0.009   0.053   1.717 -1.0400  0.3652  0.5693
 7710SOL     OW34762   3.219   3.749   9.036 -0.0506  0.5204 -0.9192
 7710SOL    HW134763   3.213   3.687   9.109 -1.4990  1.3658 -0.3332
 7710SOL    HW234764   3.158   3.701   8.981 -1.3450  1.0178  0.0965
 7711SOL     OW34765   0.662   1.584   6.239  0.2868 -0.1953 -0.1183
 7711SOL    HW134766   0.592   1.604   6.300 -0.1558  2.2436 -1.4334
 7711SOL    HW234767   0.620   1.602   6.154  0.5545 -0.6171 -0.3433
 7712SOL     OW34768   2.679   4.676   3.123 -0.2593 -0.2739  0.4811
 7712SOL    HW134769   2.657   0.033   3.150  1.9551 -0.1793  1.9032
 7712SOL    HW234770   2.661   4.638   3.209 -0.8884  0.4057  0.6484
 7713SOL     OW34771   1.457   0.910   5.568 -0.2275  0.0837 -0.3803
 7713SOL    HW134772   1.453   1.002   5.543 -0.8841  0.5195  1.3065
 7713SOL    HW234773   1.502   0.868   5.495  0.5443 -1.3519  0.9201
 7714SOL     OW34774   4.226   2.559   7.456 -0.5637  0.3166  0.0003
 7714SOL    HW134775   4.242   2.635   7.399  1.7132 -0.2261 -0.0901
 7714SOL    HW234776   4.216   2.494   7.386  4.0304  0.0491 -0.4064
 7715SOL     OW34777   2.987   2.599  15.821 -0.3316 -0.2598  0.0702
 7715SOL    HW134778   2.950   2.512  15.811  0.0509 -0.2869 -1.1651
 7715SOL    HW234779   3.019   2.617  15.733 -0.7381  2.6348  0.4895
 7716SOL     OW34780   0.214   0.171   6.861  0.9595 -0.3464  0.5601
 7716SOL    HW134781   0.133   0.131   6.892  0.5337 -1.0674 -1.5114
 7716SOL    HW234782   0.221   0.230   6.936 -0.1612 -1.1702  1.3151
 7717SOL     OW34783   0.855   2.682   4.680  0.2972  0.1948 -0.0331
 7717SOL    HW134784   0.872   2.635   4.762 -2.5964  0.2162  0.5931
 7717SOL    HW234785   0.866   2.773   4.708 -0.5401  0.5332 -0.7944
 7718SOL     OW34786   3.595   3.100  16.410 -0.3618 -0.7186 -0.2607
 7718SOL    HW134787   3.625   3.038  16.477  1.5764  1.1040  0.5503
 7718SOL    HW234788   3.651   3.175  16.428  0.1430 -1.2047  0.2106
 7719SOL     OW34789   0.702   3.118   2.703  0.2430 -0.0930 -0.6656
 7719SOL    HW134790   0.719   3.206   2.668  0.7778 -0.5513 -1.5550
 7719SOL    HW234791   0.766   3.135   2.772 -0.2323 -2.8139  0.4549
 7720SOL     OW34792   4.656   3.128   9.842 -0.0667  0.1273 -0.1157
 7720SOL    HW134793   0.017   3.150   9.849  0.6040 -2.6277 -0.4884
 7720SOL    HW234794   4.652   3.051   9.898  0.9412  0.5455  0.5283
 7721SOL     OW34795   1.777   1.868  11.106 -0.7942  0.1236 -0.3216
 7721SOL    HW134796   1.822   1.949  11.128 -0.7269 -0.4368  1.6049
 7721SOL    HW234797   1.794   1.821  11.188  0.3728 -0.1535 -0.7150
 7722SOL     OW34798   0.436   2.588  10.951 -0.2308 -0.3357 -0.3695
 7722SOL    HW134799   0.341   2.594  10.950 -0.2244  0.0659  0.5024
 7722SOL    HW234800   0.453   2.494  10.952 -2.2771 -0.7128 -1.6175
 7723SOL     OW34801   0.440   0.556   0.907  0.7422 -0.0504  0.5031
 7723SOL    HW134802   0.402   0.565   0.820  2.0919  0.1569 -0.0709
 7723SOL    HW234803   0.424   0.644   0.940 -0.1254  0.6908 -1.8874
 7724SOL     OW34804   2.608   3.608  15.357  0.1264 -0.9600 -0.0820
 7724SOL    HW134805   2.674   3.577  15.296 -0.6969 -2.1311 -0.3652
 7724SOL    HW234806   2.543   3.541  15.336 -0.0106 -0.9678  0.3637
 7725SOL     OW34807   0.683   2.679   7.870 -0.3498 -0.1699 -0.5539
 7725SOL    HW134808   0.738   2.666   7.947 -0.0103 -0.4451 -0.8445
 7725SOL    HW234809   0.604   2.633   7.899 -0.1196 -0.3028 -0.1432
 7726SOL     OW34810   1.516   2.057  17.129  0.0558  1.0855  0.2280
 7726SOL    HW134811   1.467   1.982  17.095  0.5476  0.8298  0.0751
 7726SOL    HW234812   1.587   2.014  17.177  0.2349 -0.0252 -1.0227
 7727SOL     OW34813   1.095   1.198   7.320  0.4216 -0.1790  0.5760
 7727SOL    HW134814   1.057   1.128   7.373 -1.5613  0.5213  0.0852
 7727SOL    HW234815   1.091   1.273   7.380 -0.6828 -0.5941  1.0190
 7728SOL     OW34816   1.637   3.257  15.291  0.3594 -0.0623 -0.1274
 7728SOL    HW134817   1.681   3.183  15.249  1.0958  1.5450 -2.1882
 7728SOL    HW234818   1.689   3.252  15.371 -0.7784 -0.6083  0.5848
 7729SOL     OW34819   1.184   1.479   2.219 -0.1564 -0.4510 -0.5571
 7729SOL    HW134820   1.235   1.558   2.200  0.2612 -0.6722 -0.3347
 7729SOL    HW234821   1.146   1.456   2.134 -2.5450  2.6776 -0.3334
 7730SOL     OW34822   0.203   0.088   4.863  0.0282  0.1239 -0.2069
 7730SOL    HW134823   0.176   0.015   4.806 -1.1207 -0.3516  0.9663
 7730SOL    HW234824   0.286   0.047   4.890 -0.3849  1.2526  2.6871
 7731SOL     OW34825   1.155   1.889  12.640  0.5211  0.0663  0.4294
 7731SOL    HW134826   1.218   1.833  12.595 -0.8865  0.4650 -2.0631
 7731SOL    HW234827   1.186   1.972  12.604  0.1245  0.2498  0.5022
 7732SOL     OW34828   1.362   2.615   0.639  0.0043  0.0626 -0.1970
 7732SOL    HW134829   1.287   2.575   0.595 -0.2105  2.1891 -1.7476
 7732SOL    HW234830   1.336   2.706   0.627  0.2990  0.0064 -1.2736
 7733SOL     OW34831   2.415   4.587   1.802  0.3445 -0.5613  0.5638
 7733SOL    HW134832   2.476   4.523   1.838  0.3914 -0.9236 -0.1624
 7733SOL    HW234833   2.446   4.621   1.719  0.0188  0.5124  0.8794
 7734SOL     OW34834   2.008   0.210   6.846 -0.0192  0.2015 -0.1705
 7734SOL    HW134835   1.919   0.243   6.839 -0.5505 -0.8562  1.4747
 7734SOL    HW234836   2.009   0.162   6.763  1.8729  2.3050 -1.3659
 7735SOL     OW34837   1.492   2.416   6.243 -0.3980  0.0510 -0.8397
 7735SOL    HW134838   1.428   2.485   6.230  1.2539  1.3438 -2.1627
 7735SOL    HW234839   1.559   2.453   6.301 -1.4845  2.0890 -0.9019
 7736SOL     OW34840   2.496   0.694   6.306 -0.2321 -0.5784  0.5804
 7736SOL    HW134841   2.472   0.753   6.377 -0.4454 -0.4970  0.4410
 7736SOL    HW234842   2.549   0.627   6.349  1.4071 -0.6665 -1.5672
 7737SOL     OW34843   4.373   2.730   5.018  0.0464  0.5312 -0.0302
 7737SOL    HW134844   4.319   2.687   5.084  0.2718  0.6806  0.2499
 7737SOL    HW234845   4.459   2.694   5.041 -0.1817 -2.5630 -3.9718
 7738SOL     OW34846   4.483   0.057  14.697  0.4896 -0.0986  0.0843
 7738SOL    HW134847   4.444   4.703  14.710  0.7298 -0.1841  0.2432
 7738SOL    HW234848   4.480   0.098  14.783 -0.1039 -1.7843  0.8697
 7739SOL     OW34849   2.367   4.230   4.843  0.6758  0.2578  0.0718
 7739SOL    HW134850   2.301   4.298   4.855 -0.2517 -0.4005 -1.2463
 7739SOL    HW234851   2.384   4.207   4.934 -1.6195 -0.6477  0.2707
 7740SOL     OW34852   3.090   0.520   8.985 -1.0019  0.8369  0.0192
 7740SOL    HW134853   3.067   0.438   8.943 -0.8647  2.0205 -2.3669
 7740SOL    HW234854   3.183   0.523   8.963 -1.0662  0.9822 -0.2275
 7741SOL     OW34855   0.482   3.852  15.066  0.2312  0.4569 -0.2969
 7741SOL    HW134856   0.477   3.785  15.133  1.1002  0.6901  0.0006
 7741SOL    HW234857   0.573   3.869  15.090  0.1859  2.3224 -1.3669
 7742SOL     OW34858   2.543   0.945  16.301 -0.0548 -0.9040 -0.5034
 7742SOL    HW134859   2.525   0.926  16.393  0.1818 -2.3832 -0.7660
 7742SOL    HW234860   2.471   1.006  16.282 -0.4236 -0.6123  1.9270
 7743SOL     OW34861   3.622   2.033  13.240 -0.0145 -0.2766 -0.1939
 7743SOL    HW134862   3.557   1.975  13.199  1.1138 -0.9411 -1.0389
 7743SOL    HW234863   3.623   2.015  13.334  1.8470 -0.8062 -0.3195
 7744SOL     OW34864   0.629   2.854   3.349 -0.0803 -0.3694  0.2006
 7744SOL    HW134865   0.657   2.765   3.327  0.0981 -0.6142  1.4166
 7744SOL    HW234866   0.635   2.889   3.260  0.5139  0.5606  0.6076
 7745SOL     OW34867   1.472   1.034   2.469 -0.6619  0.0440  0.1740
 7745SOL    HW134868   1.476   1.056   2.562 -1.3969 -0.8279  0.4175
 7745SOL    HW234869   1.379   1.027   2.447 -1.6362  2.8249  3.4557
 7746SOL     OW34870   3.355   3.633  16.088  0.1271  0.0143  0.0923
 7746SOL    HW134871   3.391   3.690  16.019  1.3690 -1.2689 -0.3191
 7746SOL    HW234872   3.393   3.552  16.053  0.9992  1.2360 -1.8072
 7747SOL     OW34873   2.181   0.193   9.071  0.4205  0.2821 -0.3443
 7747SOL    HW134874   2.200   0.281   9.105  3.1163 -0.4264 -0.0196
 7747SOL    HW234875   2.217   0.141   9.142 -1.3341 -1.1537 -0.5042
 7748SOL     OW34876   3.216   0.137   2.917  0.1844  0.2096  0.0356
 7748SOL    HW134877   3.269   0.160   2.840  0.3773 -2.1694 -0.5420
 7748SOL    HW234878   3.227   0.218   2.966 -1.5767 -0.1839  1.0587
 7749SOL     OW34879   1.737   4.675  17.007  0.1397 -0.1036  0.1987
 7749SOL    HW134880   1.780   0.020  17.044  1.4982 -0.8872  0.2678
 7749SOL    HW234881   1.725   4.621  17.085  0.5038  0.3411  0.5621
 7750SOL     OW34882   0.736   1.063   1.949 -0.8863 -0.6435 -0.0590
 7750SOL    HW134883   0.783   1.134   1.993  1.7351 -3.1704  1.2566
 7750SOL    HW234884   0.806   1.014   1.905  0.6447  2.2656 -0.9173
 7751SOL     OW34885   4.033   0.815   0.996  0.5097  0.6904  0.7049
 7751SOL    HW134886   4.095   0.741   1.000 -0.6634 -0.2742  0.9566
 7751SOL    HW234887   4.027   0.834   0.903  0.2770 -1.6976  0.2341
 7752SOL     OW34888   3.431   0.881  13.021 -0.1463  0.1167 -0.0614
 7752SOL    HW134889   3.520   0.864  13.053  0.2220  1.0047 -0.6429
 7752SOL    HW234890   3.414   0.788  13.009  0.1514 -0.1005  1.1414
 7753SOL     OW34891   3.133   1.545   6.421  0.2084  0.2788  0.1672
 7753SOL    HW134892   3.077   1.534   6.344 -1.3059  2.3944  0.9631
 7753SOL    HW234893   3.216   1.551   6.375 -0.1990 -0.8441 -0.7260
 7754SOL     OW34894   1.069   2.800   1.476 -0.3993 -0.3104 -0.2115
 7754SOL    HW134895   1.162   2.783   1.463 -0.4701  0.6783 -1.9723
 7754SOL    HW234896   1.059   2.826   1.568  0.9393 -2.2598  0.5023
 7755SOL     OW34897   0.767   0.515   6.141 -0.3111 -0.5000  0.6152
 7755SOL    HW134898   0.761   0.438   6.084 -0.5466 -0.0550  0.0430
 7755SOL    HW234899   0.698   0.568   6.102  0.5905 -1.3680 -2.1482
 7756SOL     OW34900   0.012   2.323   1.664 -0.7815 -0.1220 -0.5613
 7756SOL    HW134901   0.037   2.340   1.573  2.1208 -0.0293  0.2681
 7756SOL    HW234902   4.695   2.242   1.650  0.8786 -1.3824  0.9001
 7757SOL     OW34903   2.181   2.037   3.201 -0.0116 -0.6274 -0.3706
 7757SOL    HW134904   2.142   1.953   3.226  2.7593 -1.7390  0.1990
 7757SOL    HW234905   2.274   2.016   3.205 -0.1711 -1.0710  0.9810
 7758SOL     OW34906   4.600   1.749  16.697  0.2242 -0.6072  0.4951
 7758SOL    HW134907   4.629   1.737  16.787  0.9167  0.0041  0.3516
 7758SOL    HW234908   4.657   1.684  16.656 -0.6302 -0.7481 -0.4752
 7759SOL     OW34909   4.213   2.141   6.788 -0.0811 -0.1401  0.0483
 7759SOL    HW134910   4.184   2.211   6.847 -2.5710  0.2398 -1.6476
 7759SOL    HW234911   4.300   2.111   6.815  0.0713  0.5013  0.2820
 7760SOL     OW34912   1.592   4.178   5.066 -0.4750 -0.0606 -0.1946
 7760SOL    HW134913   1.634   4.134   4.992  1.9520  1.3022  0.3957
 7760SOL    HW234914   1.606   4.122   5.142 -1.8367  0.1792  0.2303
 7761SOL     OW34915   0.769   1.609   5.360  0.1344 -0.0665 -0.5067
 7761SOL    HW134916   0.689   1.569   5.396  0.6662 -0.4673  0.2324
 7761SOL    HW234917   0.791   1.549   5.288 -0.9889 -0.6870 -0.3407
 7762SOL     OW34918   3.513   3.998   2.712  0.3723 -0.1567  0.5887
 7762SOL    HW134919   3.442   4.009   2.648  2.5158  1.0976 -1.5586
 7762SOL    HW234920   3.481   3.942   2.783 -3.1717  0.8442 -0.2449
 7763SOL     OW34921   0.315   3.602   4.545 -0.0763 -0.1826  0.1372
 7763SOL    HW134922   0.385   3.666   4.532 -0.8294  0.1373 -2.3182
 7763SOL    HW234923   0.340   3.564   4.629  2.6237 -0.1290 -0.6427
 7764SOL     OW34924   1.476   2.965   0.867 -0.3479 -0.9584 -0.3247
 7764SOL    HW134925   1.555   2.910   0.867  0.7190  0.5765 -1.8124
 7764SOL    HW234926   1.453   2.950   0.959 -0.7323  0.7673 -0.1483
 7765SOL     OW34927   4.455   2.893   7.087  0.0576 -0.2236 -0.1108
 7765SOL    HW134928   4.446   2.915   6.994 -0.0978 -0.9960 -0.2817
 7765SOL    HW234929   4.454   2.979   7.128 -0.9991 -1.4273  2.3813
 7766SOL     OW34930   4.534   1.272  16.639 -0.8561  0.0498 -0.2335
 7766SOL    HW134931   4.621   1.281  16.601 -0.6886 -3.6031 -0.6971
 7766SOL    HW234932   4.501   1.193  16.596 -2.4009  0.7533 -0.3558
 7767SOL     OW34933   4.160   2.592   8.859 -0.4488  0.0895 -0.7435
 7767SOL    HW134934   4.239   2.537   8.851 -0.9379 -0.6897 -0.2525
 7767SOL    HW234935   4.208   2.675   8.852  0.6755 -0.6376 -1.6313
 7768SOL     OW34936   4.502   2.084   5.616 -0.2468 -0.0470  0.0045
 7768SOL    HW134937   4.445   2.111   5.544 -0.7056  0.1725  0.4561
 7768SOL    HW234938   4.533   2.163   5.661 -2.1324  0.8336 -0.2386
 7769SOL     OW34939   1.531   1.540   1.625 -0.4941  0.7184 -0.3804
 7769SOL    HW134940   1.504   1.464   1.676 -0.7941 -0.0064 -1.6308
 7769SOL    HW234941   1.626   1.531   1.613 -0.3524  1.2544  0.3852
 7770SOL     OW34942   2.663   1.739   8.407 -0.3976 -0.6010  0.1077
 7770SOL    HW134943   2.673   1.651   8.370  1.3932  0.3581 -1.7249
 7770SOL    HW234944   2.604   1.782   8.346  1.3604  1.1701 -0.3551
 7771SOL     OW34945   0.386   3.896   3.985 -0.1818  0.4301 -0.6188
 7771SOL    HW134946   0.292   3.915   3.977 -0.5221  0.2732  2.7409
 7771SOL    HW234947   0.418   3.986   3.986  0.9958 -0.0019  1.3426
 7772SOL     OW34948   1.932   0.494   4.231 -0.1895 -0.2084 -0.7284
 7772SOL    HW134949   1.871   0.483   4.158 -2.9935  0.3165  1.5324
 7772SOL    HW234950   1.890   0.433   4.291 -0.2844  0.6832  0.0981
 7773SOL     OW34951   4.198   4.239   2.849  0.3810  0.2443 -0.1977
 7773SOL    HW134952   4.291   4.215   2.856  0.0347 -1.5364 -1.6397
 7773SOL    HW234953   4.161   4.159   2.886  1.2436 -0.7424 -1.4813
 7774SOL     OW34954   1.152   1.340   8.094  0.1217  0.1742 -0.0821
 7774SOL    HW134955   1.224   1.329   8.155  0.2422  0.8780 -0.0958
 7774SOL    HW234956   1.106   1.411   8.140 -0.6683  0.1625 -0.8526
 7775SOL     OW34957   3.231   4.082   9.260  0.5032 -0.1038 -0.1719
 7775SOL    HW134958   3.146   4.077   9.303  1.3845 -0.8661  1.4639
 7775SOL    HW234959   3.255   4.174   9.274  0.5989 -0.1924  0.2592
 7776SOL     OW34960   1.482   2.764   4.865  0.1659 -0.4713  0.3327
 7776SOL    HW134961   1.442   2.707   4.931 -0.9439 -2.9278 -2.4209
 7776SOL    HW234962   1.572   2.733   4.868  1.2007  2.5136 -0.0160
 7777SOL     OW34963   0.121   2.349   6.676 -0.4546 -0.1632  0.1185
 7777SOL    HW134964   0.103   2.429   6.627  2.0592 -0.1702 -0.7787
 7777SOL    HW234965   0.202   2.371   6.721 -0.2547  2.5969 -1.6041
 7778SOL     OW34966   2.222   1.029   7.793 -0.9210 -0.1292 -0.0554
 7778SOL    HW134967   2.176   0.951   7.762 -1.2257  0.6674 -1.5859
 7778SOL    HW234968   2.282   0.987   7.854 -0.6197  1.1663  0.5550
 7779SOL     OW34969   3.376   3.489   7.359  0.2958 -0.1633  0.0858
 7779SOL    HW134970   3.447   3.424   7.355 -0.2395 -0.5457 -2.9248
 7779SOL    HW234971   3.409   3.565   7.310  0.2105 -0.6536 -0.7336
 7780SOL     OW34972   2.949   3.625   6.253 -0.4010  0.1299  0.3427
 7780SOL    HW134973   2.901   3.691   6.202 -1.5668 -2.1849 -1.5624
 7780SOL    HW234974   3.043   3.640   6.267 -0.7134  1.4424  1.0186
 7781SOL     OW34975   4.090   2.969   4.493 -0.2161  0.5809  0.4598
 7781SOL    HW134976   4.160   3.013   4.444 -0.1311  3.3689  3.0732
 7781SOL    HW234977   4.017   2.980   4.432  0.5063 -1.6680 -0.7887
 7782SOL     OW34978   4.177   1.044  16.479  0.3691  0.0512 -0.2542
 7782SOL    HW134979   4.244   1.035  16.547  1.1655  0.7335 -0.9484
 7782SOL    HW234980   4.211   0.978  16.419 -0.2511  1.8595 -2.6117
 7783SOL     OW34981   2.093   0.128   7.150 -0.0564  0.0692  0.1460
 7783SOL    HW134982   2.102   0.060   7.217 -0.5745 -2.0560 -1.9199
 7783SOL    HW234983   2.167   0.110   7.091  1.1700  0.9957  1.4172
 7784SOL     OW34984   3.540   3.043   7.178 -0.0355  0.2689 -0.3839
 7784SOL    HW134985   3.474   3.066   7.112 -2.7245 -4.4679  0.6373
 7784SOL    HW234986   3.560   2.952   7.157 -0.3815  0.6500 -2.3558
 7785SOL     OW34987   2.603   3.498   6.262 -0.1456  0.6188  0.0072
 7785SOL    HW134988   2.626   3.524   6.172  0.8360 -1.5491 -0.3573
 7785SOL    HW234989   2.599   3.589   6.293 -0.4990 -0.0158  1.7988
 7786SOL     OW34990   3.840   2.973   1.729  0.1694  0.2829  0.5781
 7786SOL    HW134991   3.819   3.002   1.641 -1.6259  0.6217  1.1160
 7786SOL    HW234992   3.909   2.911   1.708 -1.9518 -2.2980  1.1765
 7787SOL     OW34993   4.098   1.818   2.646  0.0664  0.1896 -0.6705
 7787SOL    HW134994   4.194   1.815   2.649  0.0203  0.3568  1.2235
 7787SOL    HW234995   4.078   1.898   2.597  0.4912  0.3983 -0.5034
 7788SOL     OW34996   4.132   1.357   5.553 -0.0016  1.1176 -0.3004
 7788SOL    HW134997   4.060   1.418   5.541 -0.1834  0.8013 -0.8131
 7788SOL    HW234998   4.166   1.359   5.464 -0.8465 -1.6848 -0.6975
 7789SOL     OW34999   3.202   1.242   2.339 -0.5674  0.0683  0.3956
 7789SOL    HW135000   3.230   1.314   2.395 -0.7411  0.4268  0.0208
 7789SOL    HW235001   3.171   1.289   2.261 -2.0257 -0.5354  0.6157
 7790SOL     OW35002   3.367   0.930  17.011  0.0657  1.1637  0.6669
 7790SOL    HW135003   3.355   0.942  17.105 -1.0153 -0.9478  0.7929
 7790SOL    HW235004   3.278   0.912  16.982  0.6126  0.6869 -0.7337
 7791SOL     OW35005   2.986   4.090   1.316 -0.4837 -0.3947 -0.0700
 7791SOL    HW135006   2.953   4.103   1.405 -0.0160  0.4640 -0.0270
 7791SOL    HW235007   3.080   4.079   1.336 -0.0192  3.6241 -0.1152
 7792SOL     OW35008   4.355   0.153  16.636 -0.0613  0.0926 -0.1501
 7792SOL    HW135009   4.321   0.088  16.697 -1.4042 -0.7209 -1.7540
 7792SOL    HW235010   4.413   0.090  16.593  1.9514  1.4025  0.6527
 7793SOL     OW35011   3.695   0.665   9.305 -0.3307 -0.8304 -0.0095
 7793SOL    HW135012   3.620   0.708   9.345  0.4622  1.1355 -0.6000
 7793SOL    HW235013   3.760   0.669   9.375 -1.9226 -2.1297  1.4948
 7794SOL     OW35014   0.064   2.250   3.060  0.4872 -0.1037 -0.2627
 7794SOL    HW135015   4.709   2.287   3.077 -0.0876 -1.4055 -0.3749
 7794SOL    HW235016   0.040   2.158   3.047  0.3414 -0.3443  1.7718
 7795SOL     OW35017   0.702   1.453   7.010 -0.9431 -0.7583  0.0451
 7795SOL    HW135018   0.634   1.389   6.991  0.2487 -1.7171 -0.9649
 7795SOL    HW235019   0.724   1.433   7.102  0.9085 -0.7927 -0.3898
 7796SOL     OW35020   4.679   1.883  17.508  0.4990 -0.3508 -0.3741
 7796SOL    HW135021   4.636   1.840  17.433 -0.9327 -2.3690  1.6010
 7796SOL    HW235022   4.723   1.804  17.539 -0.5157  0.3899  2.9738
 7797SOL     OW35023   0.669   0.362   1.438  1.0714  0.0940  0.0264
 7797SOL    HW135024   0.742   0.368   1.377  0.3316 -3.1561 -1.1888
 7797SOL    HW235025   0.601   0.324   1.383 -1.8457  2.5366  1.9280
 7798SOL     OW35026   1.878   3.931   2.950  0.3973 -0.2140  0.1801
 7798SOL    HW135027   1.907   3.845   2.920  0.1888  0.6945 -2.6835
 7798SOL    HW235028   1.786   3.904   2.948 -0.4096  2.3960  1.5726
 7799SOL     OW35029   3.736   1.388   6.764  0.2194 -0.3355 -0.3213
 7799SOL    HW135030   3.775   1.385   6.852 -0.2582 -2.0687 -0.1754
 7799SOL    HW235031   3.805   1.442   6.725  0.6488 -0.8954 -0.3415
 7800SOL     OW35032   3.981   2.084  10.532 -0.3575  0.5522 -0.0182
 7800SOL    HW135033   3.975   2.111  10.623  1.0047  1.3748 -0.1814
 7800SOL    HW235034   3.997   1.991  10.545  2.3331  0.8467 -1.2881
 7801SOL     OW35035   4.474   4.648  16.488  0.3147 -0.0332  0.1430
 7801SOL    HW135036   4.448   4.651  16.396  4.0248  0.4569 -0.8690
 7801SOL    HW235037   4.513   4.561  16.498  0.9828  0.2279 -0.2479
 7802SOL     OW35038   3.767   2.780   3.329  0.3107  0.1414 -0.7306
 7802SOL    HW135039   3.712   2.711   3.367  1.7435  0.1259  1.3407
 7802SOL    HW235040   3.705   2.838   3.285  1.5433  0.9245 -1.4299
 7803SOL     OW35041   1.391   1.236   0.558  0.0458  0.3754 -0.0470
 7803SOL    HW135042   1.464   1.258   0.616  0.9289 -0.7904 -0.7032
 7803SOL    HW235043   1.334   1.312   0.562  1.8330  1.7010  0.2628
 7804SOL     OW35044   4.126   0.574   8.989  0.9391  0.3140 -0.0580
 7804SOL    HW135045   4.048   0.566   9.043  0.8110  2.6593  0.1161
 7804SOL    HW235046   4.200   0.570   9.050  0.3551  0.1655  0.6262
 7805SOL     OW35047   1.457   3.005  11.383  0.3546  0.4470 -0.0432
 7805SOL    HW135048   1.426   3.084  11.337 -0.9526 -0.0693 -0.0361
 7805SOL    HW235049   1.508   3.039  11.456 -1.2403  0.2568  1.1588
 7806SOL     OW35050   0.381   3.628   7.716 -0.1796  0.0235 -0.4392
 7806SOL    HW135051   0.287   3.625   7.736  0.1128 -2.9826  0.4859
 7806SOL    HW235052   0.412   3.540   7.738 -1.8124 -0.4163  0.1340
 7807SOL     OW35053   0.256   0.678  14.892 -0.0030  0.3024  0.9346
 7807SOL    HW135054   0.193   0.654  14.960 -2.1208 -1.7434 -1.7105
 7807SOL    HW235055   0.224   0.760  14.856 -2.0771 -0.6195  0.6868
 7808SOL     OW35056   3.671   3.732   2.563  0.5060 -0.1581 -0.4047
 7808SOL    HW135057   3.637   3.706   2.649  0.9962 -0.6071 -0.3489
 7808SOL    HW235058   3.614   3.807   2.543  0.3320 -0.0991  0.3194
 7809SOL     OW35059   4.682   4.569   9.054  0.6717  0.0357 -0.2476
 7809SOL    HW135060   4.617   4.605   9.115 -0.1671 -1.3469 -0.3009
 7809SOL    HW235061   0.013   4.524   9.110 -0.1506 -2.0908 -1.0215
 7810SOL     OW35062   0.802   4.499   8.339 -0.4897  0.2012 -0.0421
 7810SOL    HW135063   0.895   4.511   8.323  0.0953 -0.9581  2.4306
 7810SOL    HW235064   0.771   4.584   8.308  0.9785 -0.3219 -2.9263
 7811SOL     OW35065   2.968   0.359   9.204 -0.2911 -0.3609 -0.0730
 7811SOL    HW135066   2.937   0.427   9.263 -2.4939 -1.1073 -0.3829
 7811SOL    HW235067   3.028   0.411   9.151 -0.0669 -0.6852 -0.1421
 7812SOL     OW35068   2.989   4.470   4.456 -0.4138 -0.0182  0.4944
 7812SOL    HW135069   3.012   4.378   4.449  0.9658  0.3211  0.6515
 7812SOL    HW235070   2.949   4.480   4.542 -1.6088 -1.5322  0.1210
 7813SOL     OW35071   1.504   1.330   9.698  0.0153 -0.9664  0.1819
 7813SOL    HW135072   1.475   1.262   9.638  0.4948 -0.1544 -0.9847
 7813SOL    HW235073   1.522   1.405   9.641  2.7052 -0.9055  1.1301
 7814SOL     OW35074   3.691   4.185   6.888  0.4291 -0.5153 -0.0779
 7814SOL    HW135075   3.657   4.261   6.936 -0.0510 -0.1830 -0.9334
 7814SOL    HW235076   3.739   4.235   6.822  0.5521  1.3400  1.4042
 7815SOL     OW35077   3.320   1.742   8.463 -0.0492  0.0147 -0.0759
 7815SOL    HW135078   3.282   1.674   8.408 -2.6089  0.2442  1.3749
 7815SOL    HW235079   3.287   1.823   8.424 -3.4232 -1.5324 -0.4316
 7816SOL     OW35080   2.282   2.948   4.723  0.1113  0.0722 -0.0458
 7816SOL    HW135081   2.189   2.958   4.701  0.0707 -0.5964 -0.1946
 7816SOL    HW235082   2.314   2.992   4.644 -3.6835  1.4365 -0.8578
 7817SOL     OW35083   2.668   1.411   3.496  0.6943  0.6527 -0.3666
 7817SOL    HW135084   2.616   1.374   3.567  0.5142  0.1804 -0.7402
 7817SOL    HW235085   2.614   1.486   3.472  0.1521 -0.5295 -2.8583
 7818SOL     OW35086   4.452   0.374   9.050 -0.0606  0.0631  0.0177
 7818SOL    HW135087   4.508   0.297   9.044 -0.1744  0.1650 -2.7127
 7818SOL    HW235088   4.389   0.378   9.121  0.3176  0.4466  0.3305
 7819SOL     OW35089   0.278   2.295   8.411 -0.0326  0.4542 -0.1615
 7819SOL    HW135090   0.267   2.296   8.507 -0.4820 -0.4601 -0.1943
 7819SOL    HW235091   0.185   2.307   8.394  0.0540  0.5123 -0.5885
 7820SOL     OW35092   1.884   0.184   1.938  0.1563 -0.6219  0.2533
 7820SOL    HW135093   1.833   0.108   1.912  1.5514 -1.0213 -1.2960
 7820SOL    HW235094   1.879   0.177   2.033  1.2660 -2.5046  0.1792
 7821SOL     OW35095   1.834   4.215  13.303  0.5898 -0.9514 -0.2147
 7821SOL    HW135096   1.783   4.239  13.226  2.2413 -0.0473 -1.0408
 7821SOL    HW235097   1.838   4.305  13.338 -3.4216 -0.7486 -0.3275
 7822SOL     OW35098   3.576   2.936  17.542  0.2639 -0.0048 -0.2459
 7822SOL    HW135099   3.652   2.990  17.566 -0.8577  0.3601  2.5630
 7822SOL    HW235100   3.612   2.903  17.460  0.7869  0.4022 -0.1825
 7823SOL     OW35101   1.724   4.674   9.920 -0.1879  0.5210 -0.3665
 7823SOL    HW135102   1.694   4.603   9.976  1.0197  2.3579  2.6307
 7823SOL    HW235103   1.818   4.656   9.928 -0.4586  0.0226  1.6763
 7824SOL     OW35104   3.634   3.579   4.359 -0.4720 -0.2852  0.0355
 7824SOL    HW135105   3.697   3.648   4.378 -1.8281  1.3357 -1.3203
 7824SOL    HW235106   3.654   3.531   4.439 -1.1816  1.9983  1.5980
 7825SOL     OW35107   1.095   0.171  12.812  0.4150 -0.1362  0.4414
 7825SOL    HW135108   1.012   0.149  12.853 -1.3207  0.7170 -2.6665
 7825SOL    HW235109   1.080   0.264  12.794 -1.2233 -0.1785  1.6821
 7826SOL     OW35110   4.469   2.770   2.776 -0.5096 -0.1350  0.2948
 7826SOL    HW135111   4.507   2.778   2.689 -1.1645  0.7557  0.0898
 7826SOL    HW235112   4.502   2.686   2.809  1.4518 -0.2918 -2.1280
 7827SOL     OW35113   0.797   2.966  16.360  0.4920  0.3944 -0.0423
 7827SOL    HW135114   0.806   3.000  16.271  0.0305 -1.9223 -0.9882
 7827SOL    HW235115   0.877   2.914  16.366 -1.1433 -2.2322 -0.6623
 7828SOL     OW35116   4.203   1.645  12.676 -0.5596 -0.6317  0.5391
 7828SOL    HW135117   4.151   1.715  12.636 -0.1206  0.8238  2.4892
 7828SOL    HW235118   4.215   1.587  12.601 -0.0232  0.9679 -0.6224
 7829SOL     OW35119   4.528   1.442   0.204 -0.5076 -0.2170  0.2395
 7829SOL    HW135120   4.561   1.370   0.151 -0.3685  1.5285 -2.0057
 7829SOL    HW235121   4.607   1.496   0.213 -0.1093 -0.6845 -0.5054
 7830SOL     OW35122   4.068   1.354   6.130  0.2889  0.4059  0.2230
 7830SOL    HW135123   4.091   1.447   6.118  0.8139  0.1658 -0.6108
 7830SOL    HW235124   4.063   1.319   6.042  0.2003 -3.5465  1.8120
 7831SOL     OW35125   0.060   0.352   1.907 -0.1549  0.3161 -0.0374
 7831SOL    HW135126   0.084   0.265   1.874  0.9530  0.8363 -0.6168
 7831SOL    HW235127   4.697   0.350   1.905 -0.1759 -0.9232  2.3152
 7832SOL     OW35128   0.596   1.360   5.293 -0.7609 -0.1329  0.0087
 7832SOL    HW135129   0.527   1.423   5.315 -0.9298 -0.8770  1.5971
 7832SOL    HW235130   0.537   1.286   5.279  0.9293 -1.9191  2.4572
 7833SOL     OW35131   2.546   0.488   7.736 -0.0880  0.4820  0.6352
 7833SOL    HW135132   2.583   0.484   7.648 -1.0657  0.1848  0.2308
 7833SOL    HW235133   2.451   0.486   7.725 -0.1856 -1.4607  1.7905
 7834SOL     OW35134   4.527   2.861   2.508  0.2228 -0.5347  0.0990
 7834SOL    HW135135   4.479   2.839   2.428 -0.3599  0.4839  0.1703
 7834SOL    HW235136   4.524   2.956   2.508 -1.1904 -0.5739 -1.0193
 7835SOL     OW35137   3.842   2.324  12.005  0.0473 -0.0307 -0.0978
 7835SOL    HW135138   3.753   2.317  12.039 -0.5487 -0.2010 -1.7286
 7835SOL    HW235139   3.843   2.270  11.926 -0.2536 -3.1064  1.9916
 7836SOL     OW35140   4.215   2.191  15.275  0.6994 -0.0699 -0.0963
 7836SOL    HW135141   4.269   2.172  15.198  1.5672  0.7033  0.3123
 7836SOL    HW235142   4.226   2.110  15.326 -0.4771  0.3220  0.7629
 7837SOL     OW35143   1.459   0.519  12.158 -0.5804 -0.5681  0.3243
 7837SOL    HW135144   1.484   0.509  12.066  0.0433 -0.6221  0.5019
 7837SOL    HW235145   1.450   0.614  12.166  0.3368 -0.4704  0.1555
 7838SOL     OW35146   4.559   1.285   8.434 -0.0890  0.3619 -0.2013
 7838SOL    HW135147   4.521   1.360   8.478  0.2212  1.7508 -2.2762
 7838SOL    HW235148   4.525   1.295   8.345 -0.6364  1.4110  0.1365
 7839SOL     OW35149   1.833   1.282  16.435  0.0660 -0.1869 -0.1066
 7839SOL    HW135150   1.849   1.188  16.437 -0.4744 -0.2792 -0.1952
 7839SOL    HW235151   1.872   1.305  16.351  2.4807  0.1195  1.0899
 7840SOL     OW35152   0.727   1.506   0.145 -0.1680 -0.0531 -0.0919
 7840SOL    HW135153   0.650   1.497   0.089 -2.3337 -2.7171  3.2670
 7840SOL    HW235154   0.809   1.493   0.098 -1.0432 -1.0955 -1.3190
 7841SOL     OW35155   0.892   4.423   4.796  0.2050  0.0030  0.0492
 7841SOL    HW135156   0.922   4.383   4.715 -1.6321 -2.4808  0.5916
 7841SOL    HW235157   0.956   4.393   4.861  0.3065  0.9125  0.3775
 7842SOL     OW35158   2.864   0.225  15.727  0.3241 -0.0468  0.5184
 7842SOL    HW135159   2.820   0.188  15.651  1.2654 -0.2210  0.0674
 7842SOL    HW235160   2.938   0.269  15.686  0.2817  0.0344  0.5291
 7843SOL     OW35161   0.437   0.298   2.191 -0.2768 -0.2110  0.3343
 7843SOL    HW135162   0.342   0.302   2.198 -0.1378  1.3575  1.1482
 7843SOL    HW235163   0.456   0.303   2.097  1.4783 -0.2285  0.6877
 7844SOL     OW35164   1.537   3.988   8.835 -0.0793 -0.1742 -0.2113
 7844SOL    HW135165   1.547   3.923   8.905  1.1056  1.5108  1.1793
 7844SOL    HW235166   1.561   3.942   8.755 -0.2998  0.3272 -0.5618
 7845SOL     OW35167   0.879   1.610  16.047 -0.3456  0.1420  0.1595
 7845SOL    HW135168   0.875   1.665  16.126 -1.2973 -0.6631  0.6773
 7845SOL    HW235169   0.971   1.624  16.026  0.4229  1.7598  4.4781
 7846SOL     OW35170   0.084   0.533   7.618  0.3435 -0.5124 -0.0410
 7846SOL    HW135171   0.103   0.601   7.553  0.5904  0.5270  1.1202
 7846SOL    HW235172   0.165   0.484   7.608  0.2851 -0.4648 -0.7717
 7847SOL     OW35173   1.470   4.146   6.037  0.7099  0.2108  0.1766
 7847SOL    HW135174   1.441   4.119   6.125  1.8755 -0.6218  0.3065
 7847SOL    HW235175   1.548   4.092   6.029  1.0551  1.0452 -1.8844
 7848SOL     OW35176   4.475   0.088   4.223  0.0048 -0.6688  0.1044
 7848SOL    HW135177   4.482   0.006   4.273  1.3619 -1.6437 -1.7154
 7848SOL    HW235178   4.451   0.151   4.291 -1.3937 -2.9223  1.6738
 7849SOL     OW35179   2.109   3.924   6.929  0.6944 -0.1247 -0.0307
 7849SOL    HW135180   2.141   4.008   6.897 -2.9979  1.8769  1.5780
 7849SOL    HW235181   2.148   3.909   7.015  1.3511 -2.5716 -0.7534
 7850SOL     OW35182   1.899   2.764   1.790 -0.1413 -0.3442 -0.1931
 7850SOL    HW135183   1.994   2.761   1.806 -0.4037  0.0674  1.4275
 7850SOL    HW235184   1.864   2.748   1.877  0.8014 -3.2010 -0.3309
 7851SOL     OW35185   2.404   1.411   4.854 -0.4461 -0.4005 -0.4016
 7851SOL    HW135186   2.495   1.412   4.884 -1.3043  0.9358  2.1680
 7851SOL    HW235187   2.399   1.328   4.807 -0.8846  0.4603 -1.9065
 7852SOL     OW35188   1.391   3.355   9.613  0.3028  0.5691 -0.6650
 7852SOL    HW135189   1.448   3.287   9.577 -1.0721 -0.4309 -0.9742
 7852SOL    HW235190   1.371   3.405   9.534 -1.2340  0.8685 -0.1031
 7853SOL     OW35191   2.351   4.197   3.866 -0.1668 -0.7385  0.1555
 7853SOL    HW135192   2.333   4.290   3.852  0.8995 -0.2721  1.8572
 7853SOL    HW235193   2.426   4.199   3.925  1.4219 -1.3641 -1.8496
 7854SOL     OW35194   4.014   1.847   1.647 -0.5709 -0.2523  0.1744
 7854SOL    HW135195   3.951   1.844   1.575 -1.9835  3.1347  1.2530
 7854SOL    HW235196   4.088   1.792   1.625 -0.6049 -0.0410 -0.4658
 7855SOL     OW35197   0.859   2.214   7.076  0.2588 -0.2125 -0.2994
 7855SOL    HW135198   0.876   2.308   7.070 -1.0858  0.0094 -0.5890
 7855SOL    HW235199   0.813   2.222   7.159  1.6886 -2.0765  0.6824
 7856SOL     OW35200   0.749   0.409   2.315 -0.3516 -0.4524  0.5251
 7856SOL    HW135201   0.738   0.380   2.405 -0.7543  2.9174  1.5599
 7856SOL    HW235202   0.753   0.331   2.259  0.4097  0.2029 -0.3295
 7857SOL     OW35203   0.752   4.028   3.879 -0.1818 -0.5025 -0.0376
 7857SOL    HW135204   0.776   3.942   3.844  1.4985  1.0750 -2.8176
 7857SOL    HW235205   0.793   4.017   3.965 -2.2152 -2.3272  0.6939
 7858SOL     OW35206   1.068   2.989   9.613 -0.5650 -0.4391  0.1055
 7858SOL    HW135207   1.010   2.969   9.539  0.2792 -1.9750 -0.1328
 7858SOL    HW235208   1.150   2.967   9.568 -0.3475  0.1015  0.2388
 7859SOL     OW35209   0.857   1.862   6.601 -0.2979 -0.1048  0.7558
 7859SOL    HW135210   0.897   1.777   6.616 -1.0173 -1.0733 -2.9111
 7859SOL    HW235211   0.769   1.855   6.637 -0.2741 -2.3796  0.3543
 7860SOL     OW35212   3.258   0.785   5.761  0.2085  0.5031 -0.2738
 7860SOL    HW135213   3.350   0.810   5.774  0.0056  0.9858  0.2402
 7860SOL    HW235214   3.268   0.789   5.666  2.5528 -1.3067 -0.1068
 7861SOL     OW35215   2.655   4.429   7.230  0.4692 -0.2913  0.1200
 7861SOL    HW135216   2.601   4.451   7.306 -2.0642 -1.8996 -1.1882
 7861SOL    HW235217   2.591   4.376   7.182  1.3848 -2.5231  1.3373
 7862SOL     OW35218   0.874   1.299   8.308 -0.3402  0.3904 -0.3127
 7862SOL    HW135219   0.780   1.319   8.306 -0.4073  0.0375 -0.6313
 7862SOL    HW235220   0.906   1.388   8.290 -1.2460  0.6182 -0.8494
 7863SOL     OW35221   0.898   3.196   2.444 -0.3200  0.2032  0.3533
 7863SOL    HW135222   0.827   3.257   2.425 -0.1013 -0.1153 -1.4621
 7863SOL    HW235223   0.914   3.193   2.538  0.3218 -2.2783  0.1590
 7864SOL     OW35224   1.790   3.052   3.195 -0.8691 -0.2534 -0.4922
 7864SOL    HW135225   1.799   3.073   3.288  1.5158 -1.1680 -0.5216
 7864SOL    HW235226   1.749   3.133   3.163 -1.7261 -0.1512  0.8817
 7865SOL     OW35227   3.344   0.240  10.190  0.0131  0.3239  0.0409
 7865SOL    HW135228   3.373   0.183  10.262 -1.5280 -0.3305  0.1524
 7865SOL    HW235229   3.337   0.181  10.116  2.4760  1.2140 -0.8704
 7866SOL     OW35230   1.862   0.222   7.745  0.4165  0.1565  0.0280
 7866SOL    HW135231   1.885   0.283   7.816 -2.0593 -1.8204  2.5436
 7866SOL    HW235232   1.908   0.261   7.671  0.5716 -1.6656 -0.8146
 7867SOL     OW35233   0.108   2.541  13.264  0.3365  0.3453  0.4558
 7867SOL    HW135234   0.125   2.625  13.220  1.8102  0.8427  1.9428
 7867SOL    HW235235   0.109   2.570  13.355  1.3975  0.5837  0.3658
 7868SOL     OW35236   2.494   0.806  15.581  0.4431  0.0294 -0.1291
 7868SOL    HW135237   2.474   0.795  15.674 -0.1382  0.8637 -0.1593
 7868SOL    HW235238   2.587   0.823  15.575  0.3930  0.1753 -0.5188
 7869SOL     OW35239   2.574   2.631  14.143 -0.1599  0.0829 -0.6611
 7869SOL    HW135240   2.496   2.582  14.115  0.0300 -1.0585  0.7850
 7869SOL    HW235241   2.558   2.635  14.237  0.7761 -0.1586 -0.4989
 7870SOL     OW35242   4.059   2.961   4.750  0.2239 -0.2530  0.2151
 7870SOL    HW135243   4.010   3.041   4.770 -4.2683 -2.6545 -0.9739
 7870SOL    HW235244   4.081   2.965   4.657  0.6974  3.8536  0.5199
 7871SOL     OW35245   2.915   1.958   5.638  0.4943  0.2661 -0.1209
 7871SOL    HW135246   2.870   1.983   5.558  0.6856  1.7992  0.2340
 7871SOL    HW235247   3.008   1.978   5.623 -0.0947  2.4787 -0.8407
 7872SOL     OW35248   4.310   0.081  10.903  0.5813  0.6380 -0.9511
 7872SOL    HW135249   4.258   0.147  10.949 -2.7485 -1.3646 -1.8518
 7872SOL    HW235250   4.362   0.043  10.974 -2.0932  1.5267  1.4942
 7873SOL     OW35251   2.547   4.286   8.739 -0.1707  0.1485 -0.6932
 7873SOL    HW135252   2.470   4.309   8.792  1.9429  4.1493  0.6229
 7873SOL    HW235253   2.569   4.208   8.791 -0.6628 -0.7595 -1.8549
 7874SOL     OW35254   2.546   3.057  16.408 -0.1200 -0.6566 -0.4537
 7874SOL    HW135255   2.505   3.143  16.411  0.2473 -0.5630  2.6145
 7874SOL    HW235256   2.521   3.044  16.317  1.0549 -3.1069 -0.4174
 7875SOL     OW35257   3.441   1.331  10.237 -0.1868 -0.4151  0.1042
 7875SOL    HW135258   3.365   1.346  10.293  0.1686  0.1340  0.4399
 7875SOL    HW235259   3.511   1.358  10.297  0.1060  0.0793 -0.4544
 7876SOL     OW35260   1.822   1.899   4.483 -0.0020 -0.1745 -0.0243
 7876SOL    HW135261   1.739   1.884   4.528 -0.4033  0.8515 -0.4195
 7876SOL    HW235262   1.836   1.994   4.481 -1.2763  0.0076  0.0577
 7877SOL     OW35263   2.872   1.832  12.091  0.3584  0.3951  0.0210
 7877SOL    HW135264   2.895   1.924  12.101 -2.3222  0.9945  0.7175
 7877SOL    HW235265   2.829   1.813  12.175 -1.7317 -1.0582 -1.3494
 7878SOL     OW35266   2.486   4.420   5.544 -0.2588  0.4650  0.0919
 7878SOL    HW135267   2.476   4.466   5.628  1.5345 -0.7789  1.0008
 7878SOL    HW235268   2.502   4.490   5.481 -0.9367 -0.4835 -1.1164
 7879SOL     OW35269   0.532   1.101  12.629 -0.5303  0.5154 -0.1431
 7879SOL    HW135270   0.472   1.122  12.700 -0.1895 -0.3638  0.4019
 7879SOL    HW235271   0.537   1.006  12.638  2.1025  0.4041 -2.6786
 7880SOL     OW35272   0.551   3.674  10.840  0.0331 -0.7912 -0.6129
 7880SOL    HW135273   0.644   3.693  10.827  0.4819 -1.8546  0.9626
 7880SOL    HW235274   0.511   3.753  10.875  1.7253 -0.1037 -0.2422
 7881SOL     OW35275   1.207   2.852   6.001  1.0926  0.0564 -0.4043
 7881SOL    HW135276   1.269   2.837   5.930  0.4350  0.4748 -1.0631
 7881SOL    HW235277   1.248   2.804   6.074 -0.3278 -1.7896 -0.8157
 7882SOL     OW35278   3.038   2.977  16.655  0.6473  0.2719 -0.0777
 7882SOL    HW135279   2.970   2.964  16.590 -1.4667  0.3751  2.1312
 7882SOL    HW235280   3.026   3.061  16.698  3.5061 -0.4609  2.1952
 7883SOL     OW35281   2.108   0.693   1.736  0.0538 -0.3278 -0.5921
 7883SOL    HW135282   2.089   0.693   1.642  1.3491  0.4907 -0.8492
 7883SOL    HW235283   2.066   0.777   1.755 -2.0865 -1.5524  0.1102
 7884SOL     OW35284   1.902   1.624  11.854  0.4788 -0.1197 -0.6536
 7884SOL    HW135285   1.954   1.704  11.864  0.0529  0.0586  0.1103
 7884SOL    HW235286   1.949   1.601  11.774  0.0285  0.9334 -1.2194
 7885SOL     OW35287   3.248   1.630   7.051  0.0241  0.1205  0.4259
 7885SOL    HW135288   3.212   1.558   6.999 -0.5936 -0.0113  1.0381
 7885SOL    HW235289   3.190   1.697   7.015  1.9716  1.7419  0.3544
 7886SOL     OW35290   2.386   3.351  16.920  0.0572  0.0363  0.3085
 7886SOL    HW135291   2.371   3.398  17.002  0.0436  1.3046 -0.4224
 7886SOL    HW235292   2.300   3.313  16.905 -0.4487  0.4799  2.0972
 7887SOL     OW35293   2.638   0.898   1.787  0.1834  0.4687  0.1277
 7887SOL    HW135294   2.687   0.847   1.851 -1.0144  0.5407  1.1255
 7887SOL    HW235295   2.612   0.975   1.839 -1.2966  0.6991 -0.9482
 7888SOL     OW35296   2.840   0.744   8.971 -0.0467 -0.1353  0.2211
 7888SOL    HW135297   2.795   0.743   9.055  0.0268 -2.3572  0.2404
 7888SOL    HW235298   2.877   0.656   8.962 -1.1192 -0.4755 -0.8271
 7889SOL     OW35299   1.340   0.224  10.232  0.1927 -0.2194 -0.0882
 7889SOL    HW135300   1.408   0.156  10.230  1.8496  1.4718 -1.2405
 7889SOL    HW235301   1.375   0.295  10.179 -1.7209 -0.3396 -1.4958
 7890SOL     OW35302   2.417   2.267  13.930 -0.3239 -0.5127 -0.1593
 7890SOL    HW135303   2.361   2.345  13.925  0.7097  0.0951 -2.2223
 7890SOL    HW235304   2.435   2.259  13.836  1.7451  1.3474  0.0806
 7891SOL     OW35305   1.278   2.339  13.208  0.0918 -0.6472  0.0263
 7891SOL    HW135306   1.366   2.304  13.225 -0.1915 -0.9222  0.9254
 7891SOL    HW235307   1.277   2.349  13.113  1.5809  0.5379  0.1283
 7892SOL     OW35308   1.947   2.636   9.147 -0.1353  0.4737 -0.1071
 7892SOL    HW135309   1.966   2.543   9.156  0.4963  0.4751 -1.4379
 7892SOL    HW235310   2.033   2.677   9.133 -0.8500  1.3531 -1.9700
 7893SOL     OW35311   0.134   0.549  12.626 -0.1107 -0.3649  0.2772
 7893SOL    HW135312   0.107   0.544  12.534 -1.7559  0.8890  0.6771
 7893SOL    HW235313   0.225   0.576  12.620  0.1017 -1.2497 -0.5253
 7894SOL     OW35314   0.574   4.315   9.915  0.0420  0.4492 -0.1761
 7894SOL    HW135315   0.483   4.297   9.938  0.3154  1.8989  2.0190
 7894SOL    HW235316   0.569   4.336   9.822  3.5873  0.0894 -0.4508
 7895SOL     OW35317   1.526   3.495  14.852  0.1174  0.1499 -0.2266
 7895SOL    HW135318   1.540   3.421  14.912 -0.3335  2.0882  2.2710
 7895SOL    HW235319   1.580   3.557  14.901 -0.8104 -0.5830  1.7393
 7896SOL     OW35320   3.490   0.820  17.457  0.7840 -0.2220 -0.3109
 7896SOL    HW135321   3.582   0.822  17.480  0.5504 -0.6009  0.6300
 7896SOL    HW235322   3.474   0.728  17.478  1.6396  0.0346  1.4318
 7897SOL     OW35323   1.968   3.425   0.095  0.0238  0.5723 -0.4520
 7897SOL    HW135324   2.057   3.439   0.062 -0.2462  1.0787 -0.9573
 7897SOL    HW235325   1.967   3.329   0.100  1.7435  0.5755 -0.1558
 7898SOL     OW35326   4.053   3.416   1.941  0.4248 -0.1239  0.1527
 7898SOL    HW135327   4.046   3.488   2.004 -3.1060 -2.0575  1.9597
 7898SOL    HW235328   3.977   3.364   1.968 -1.2902  1.9986 -0.5620
 7899SOL     OW35329   2.912   2.233   4.820  0.2575  0.2026  0.0464
 7899SOL    HW135330   2.924   2.282   4.901  1.6022 -1.7901  1.0503
 7899SOL    HW235331   2.954   2.149   4.839  1.1006  0.8540  1.0720
 7900SOL     OW35332   1.189   0.018   6.378 -0.0311  0.0346 -0.2102
 7900SOL    HW135333   1.122   4.714   6.320  0.4549 -2.1122  0.5674
 7900SOL    HW235334   1.259   4.691   6.348 -0.4983 -1.3334  1.4167
 7901SOL     OW35335   3.794   1.199  14.937 -0.7232 -0.7378 -0.2902
 7901SOL    HW135336   3.765   1.111  14.912  0.9096 -1.4339  0.2391
 7901SOL    HW235337   3.832   1.182  15.023 -1.0511 -1.0166 -0.2018
 7902SOL     OW35338   2.051   3.088   9.822  0.3457  0.6425  0.1253
 7902SOL    HW135339   2.133   3.038   9.823  1.5900  2.6732 -0.4768
 7902SOL    HW235340   1.985   3.024   9.848  0.4280  0.5702  0.1574
 7903SOL     OW35341   3.161   2.943   0.153 -0.0058  0.3287 -0.1337
 7903SOL    HW135342   3.158   2.962   0.059 -0.7498  1.8197  0.2048
 7903SOL    HW235343   3.182   2.851   0.137 -0.9768 -0.1729  1.5353
 7904SOL     OW35344   3.010   1.215   5.527  0.0524  0.2446 -0.0167
 7904SOL    HW135345   3.061   1.286   5.486  3.2946 -1.9713  0.2586
 7904SOL    HW235346   3.074   1.147   5.544 -0.0626 -0.1844 -1.2780
 7905SOL     OW35347   3.530   0.678  14.734  0.5251 -1.0093  0.2863
 7905SOL    HW135348   3.478   0.754  14.709  1.2350 -1.0553 -1.3038
 7905SOL    HW235349   3.457   0.629  14.772  0.2083  1.4893  2.9411
 7906SOL     OW35350   0.081   0.938  13.408 -0.5837 -0.0798 -0.1584
 7906SOL    HW135351   0.032   0.975  13.334 -0.9483 -0.1074  0.0678
 7906SOL    HW235352   0.013   0.977  13.464 -0.3710 -2.3336  1.6613
 7907SOL     OW35353   2.196   0.684   6.794 -0.1509 -0.1024 -0.3000
 7907SOL    HW135354   2.155   0.633   6.724 -0.9315  0.9148 -0.5849
 7907SOL    HW235355   2.187   0.771   6.755 -2.9448  0.5807  1.8978
 7908SOL     OW35356   0.014   1.520   5.482  0.1075  0.1951  0.4006
 7908SOL    HW135357   4.685   1.468   5.431 -0.0935 -2.1002  2.9768
 7908SOL    HW235358   4.728   1.602   5.435 -1.3483 -0.4795 -0.1865
 7909SOL     OW35359   1.566   3.415   5.742  0.0277 -0.1846  0.0349
 7909SOL    HW135360   1.515   3.356   5.686  0.3131 -3.4673  3.2480
 7909SOL    HW235361   1.496   3.478   5.763 -0.9669 -1.1398 -0.4053
 7910SOL     OW35362   0.765   3.103   8.562 -0.2853  0.0094  0.0635
 7910SOL    HW135363   0.743   3.144   8.645 -1.6320 -0.6992  0.0722
 7910SOL    HW235364   0.845   3.149   8.538 -1.5363  1.5792 -1.1116
 7911SOL     OW35365   0.987   0.201   5.422  0.0460 -0.1497 -0.1820
 7911SOL    HW135366   0.924   0.153   5.369  1.0171 -1.3488 -0.2625
 7911SOL    HW235367   0.970   0.291   5.397  0.8226 -0.8828 -3.3099
 7912SOL     OW35368   2.013   4.471   1.900 -0.2024 -0.1180 -0.0223
 7912SOL    HW135369   1.965   4.419   1.965 -0.4795  0.7009  0.4298
 7912SOL    HW235370   1.974   4.452   1.815 -0.0826  3.0216 -0.8014
 7913SOL     OW35371   2.208   1.541   3.345 -0.1959 -0.5264 -0.1458
 7913SOL    HW135372   2.280   1.493   3.303  0.2037 -0.3210  0.3085
 7913SOL    HW235373   2.170   1.465   3.388  0.2695 -0.8024 -0.2181
 7914SOL     OW35374   4.274   2.603  13.511 -0.1419  0.2316  0.8466
 7914SOL    HW135375   4.215   2.624  13.583 -0.9923  0.0591  0.1903
 7914SOL    HW235376   4.317   2.688  13.497 -0.7622  0.3855 -0.0999
 7915SOL     OW35377   2.941   0.818   7.274  0.0154 -0.0330 -0.2896
 7915SOL    HW135378   2.883   0.825   7.198  0.3743 -0.6873 -0.6354
 7915SOL    HW235379   2.945   0.909   7.302  0.7294 -0.5719  1.3637
 7916SOL     OW35380   1.547   2.546   1.265 -0.2579 -0.0967  0.1571
 7916SOL    HW135381   1.530   2.635   1.295 -3.8852 -0.3897 -0.9563
 7916SOL    HW235382   1.547   2.498   1.348  0.0643  1.9613  1.3627
 7917SOL     OW35383   1.348   3.764   3.709 -0.1569  0.4879 -0.2086
 7917SOL    HW135384   1.329   3.672   3.687  1.4044 -0.1984  1.3332
 7917SOL    HW235385   1.430   3.778   3.661 -0.1554  0.6920 -0.1437
 7918SOL     OW35386   1.275   0.552   5.985  0.0502  0.2763  0.1109
 7918SOL    HW135387   1.255   0.459   5.974  0.1740  0.0975  1.3937
 7918SOL    HW235388   1.197   0.580   6.033 -0.3323  0.7684 -0.7923
 7919SOL     OW35389   2.354   2.148  12.172 -0.0069 -0.3114  0.2535
 7919SOL    HW135390   2.298   2.214  12.131  1.7983 -0.5672 -2.5934
 7919SOL    HW235391   2.432   2.203  12.163 -0.3029 -0.1474 -1.2861
 7920SOL     OW35392   2.071   4.106   4.569  0.4033  0.3848 -0.8315
 7920SOL    HW135393   1.978   4.091   4.555  0.0798 -0.1087  1.8471
 7920SOL    HW235394   2.104   4.018   4.556  2.2336  1.0572 -0.8174
 7921SOL     OW35395   3.350   0.972   0.801  0.1861 -0.0660 -0.0852
 7921SOL    HW135396   3.413   0.958   0.731 -1.4450 -1.8604 -1.2006
 7921SOL    HW235397   3.270   1.003   0.760  2.1059  2.2740 -2.0192
 7922SOL     OW35398   0.875   3.064  17.642  0.2125  0.2200  0.3101
 7922SOL    HW135399   0.875   2.981  17.689  2.4351 -1.4488 -2.6301
 7922SOL    HW235400   0.792   3.055  17.595  1.0105 -1.6872 -0.7055
 7923SOL     OW35401   3.374   0.248   0.392 -0.4705 -0.4282 -0.1739
 7923SOL    HW135402   3.462   0.284   0.393 -0.0204 -1.5401  0.6369
 7923SOL    HW235403   3.345   0.268   0.303 -0.7918 -2.4258 -0.5281
 7924SOL     OW35404   4.712   0.398  10.144  0.4577 -0.7750  0.5840
 7924SOL    HW135405   0.054   0.439  10.189 -0.7369  1.1553  0.8166
 7924SOL    HW235406   0.013   0.309  10.135  1.1495 -0.1753 -2.5285
 7925SOL     OW35407   1.561   2.581  16.382 -0.1162  0.0735  0.0761
 7925SOL    HW135408   1.531   2.638  16.311 -1.5683  0.2873  0.8696
 7925SOL    HW235409   1.654   2.593  16.404 -0.2838  1.7148 -0.1596
 7926SOL     OW35410   2.443   0.421   9.283  0.0464  0.0700 -0.2629
 7926SOL    HW135411   2.460   0.496   9.226  1.2623 -0.2895 -0.3699
 7926SOL    HW235412   2.355   0.441   9.317  1.1094  0.6572  2.0819
 7927SOL     OW35413   1.671   3.781   5.777  0.0588 -0.5584  0.4234
 7927SOL    HW135414   1.696   3.806   5.866  1.5766  0.3263 -0.2520
 7927SOL    HW235415   1.578   3.760   5.790  0.5489 -3.4951 -0.9609
 7928SOL     OW35416   4.365   2.292   3.244 -0.1173  0.2430 -0.9338
 7928SOL    HW135417   4.287   2.316   3.193 -0.4421 -2.6016 -1.7315
 7928SOL    HW235418   4.429   2.305   3.175 -1.0474 -1.5667 -2.1073
 7929SOL     OW35419   3.848   1.215  14.594 -0.0387 -0.7395  0.0344
 7929SOL    HW135420   3.840   1.273  14.671  0.0552  0.8612 -1.1597
 7929SOL    HW235421   3.934   1.174  14.596  0.5341  0.5488  2.6977
 7930SOL     OW35422   3.093   4.541   0.657 -0.4816  0.3874  0.6402
 7930SOL    HW135423   3.122   4.627   0.687  1.6387  0.5914 -2.0895
 7930SOL    HW235424   3.117   4.482   0.728  1.0299 -0.5650 -0.6692
 7931SOL     OW35425   0.146   4.091  10.457  0.0604 -0.1952  0.2688
 7931SOL    HW135426   0.068   4.055  10.498  0.4244 -1.7495 -0.3704
 7931SOL    HW235427   0.201   4.013  10.469 -0.9548 -0.7688  1.2007
 7932SOL     OW35428   1.427   3.617   0.780  0.8038  0.2118 -0.1203
 7932SOL    HW135429   1.415   3.694   0.725  1.6540 -0.0207 -0.6343
 7932SOL    HW235430   1.485   3.561   0.728  0.7126 -1.0937  1.1933
 7933SOL     OW35431   2.170   1.170   4.787  0.2283  0.6883 -0.4016
 7933SOL    HW135432   2.146   1.087   4.745  0.1415  0.6836 -0.3443
 7933SOL    HW235433   2.264   1.179   4.772 -0.1807  2.6636 -1.7995
 7934SOL     OW35434   0.988   3.504   2.812  0.0944  0.6640 -0.4212
 7934SOL    HW135435   0.997   3.476   2.903 -1.6048  4.0357  0.7912
 7934SOL    HW235436   1.074   3.478   2.779  0.9444  0.5546  1.9055
 7935SOL     OW35437   4.427   1.512   9.675 -0.0786 -0.1442  0.4246
 7935SOL    HW135438   4.422   1.472   9.588 -2.6045 -0.9724  0.9368
 7935SOL    HW235439   4.509   1.471   9.701 -0.0781  0.2769  1.0847
 7936SOL     OW35440   1.597   2.382   3.949 -0.3655 -0.0188  0.1046
 7936SOL    HW135441   1.687   2.396   3.977 -0.4213  2.8929 -1.1759
 7936SOL    HW235442   1.553   2.354   4.029 -0.0273 -3.4644 -0.9111
 7937SOL     OW35443   4.276   3.414  12.251 -0.0595  1.0551 -0.1233
 7937SOL    HW135444   4.339   3.385  12.318 -2.0448  1.2861  1.8335
 7937SOL    HW235445   4.201   3.357  12.263 -0.4189  1.7915  1.1087
 7938SOL     OW35446   3.012   2.353   5.601  0.2120  0.1457 -0.3391
 7938SOL    HW135447   3.068   2.418   5.644 -1.1508  0.8814  0.3143
 7938SOL    HW235448   2.923   2.375   5.626  0.0815  1.1873 -1.6885
 7939SOL     OW35449   3.132   1.003  16.646  0.3561  0.4272 -0.5586
 7939SOL    HW135450   3.222   0.994  16.617  0.1095  1.5665 -1.6903
 7939SOL    HW235451   3.088   1.076  16.600  1.6625  2.8854  2.1011
 7940SOL     OW35452   4.115   4.703  15.950 -0.1679  0.0128 -0.1284
 7940SOL    HW135453   4.156   4.656  16.023 -0.1402  2.0505  1.1626
 7940SOL    HW235454   4.057   4.635  15.917  1.4933 -1.0388 -0.8903
 7941SOL     OW35455   3.420   3.992   6.725 -0.3522 -0.3709  0.4609
 7941SOL    HW135456   3.456   4.080   6.735  1.3502 -0.9668 -0.3294
 7941SOL    HW235457   3.395   3.975   6.816  0.9622  1.6219  1.1821
 7942SOL     OW35458   3.912   4.419  10.440 -0.0274  0.0583 -0.2828
 7942SOL    HW135459   3.928   4.415  10.345 -0.9741  1.0975 -0.4803
 7942SOL    HW235460   3.832   4.470  10.450 -0.1979 -0.5370  1.3445
 7943SOL     OW35461   0.170   1.144   4.149  0.1771  0.6997 -0.2391
 7943SOL    HW135462   0.193   1.053   4.169 -2.8306 -0.2303 -0.9072
 7943SOL    HW235463   0.093   1.152   4.205  3.0296  1.4744  3.4963
 7944SOL     OW35464   2.587   2.731   5.279  0.5203 -0.3146 -0.1823
 7944SOL    HW135465   2.601   2.639   5.304  0.7351 -0.6724 -1.6520
 7944SOL    HW235466   2.597   2.720   5.185  1.5078  1.0030 -0.2244
 7945SOL     OW35467   2.640   0.749   5.613  0.3252 -0.5605 -0.4637
 7945SOL    HW135468   2.606   0.837   5.627  0.7393 -0.1720 -1.9436
 7945SOL    HW235469   2.725   0.764   5.656  0.7912  2.3311 -2.4239
 7946SOL     OW35470   4.672   2.120   2.644 -0.5153 -0.2481 -0.2083
 7946SOL    HW135471   4.718   2.080   2.718 -0.7978  1.3807  0.8460
 7946SOL    HW235472   4.730   2.196   2.636  0.8332 -1.2897 -0.2590
 7947SOL     OW35473   3.160   3.139  12.883  0.0612 -0.1097 -0.1497
 7947SOL    HW135474   3.196   3.123  12.795 -0.9054 -1.2790 -0.3286
 7947SOL    HW235475   3.135   3.230  12.867 -1.7569 -0.3576  1.3761
 7948SOL     OW35476   3.766   1.240   4.284  0.9742  0.7795  0.2531
 7948SOL    HW135477   3.762   1.146   4.271 -0.1084  0.7262  0.9172
 7948SOL    HW235478   3.822   1.261   4.210  0.0641 -1.4059 -1.0255
 7949SOL     OW35479   4.258   0.027   0.515 -0.8865  0.1915  0.1538
 7949SOL    HW135480   4.248   4.665   0.498  1.9360 -0.0310 -0.3693
 7949SOL    HW235481   4.352   0.043   0.506 -0.7947 -1.7305 -2.2970
 7950SOL     OW35482   3.837   0.767   6.153 -0.0612  0.0463  0.1590
 7950SOL    HW135483   3.883   0.683   6.143  1.7916  1.1762 -0.8240
 7950SOL    HW235484   3.745   0.740   6.156  0.5351 -1.8546  1.5880
 7951SOL     OW35485   2.668   3.518   4.111  0.2920  0.1670  0.0596
 7951SOL    HW135486   2.660   3.517   4.015 -1.5104 -0.0439  0.2075
 7951SOL    HW235487   2.752   3.477   4.129 -0.7645 -1.4278  1.3671
 7952SOL     OW35488   4.590   3.693  16.862 -0.1983 -0.2004  0.1662
 7952SOL    HW135489   4.611   3.691  16.768  1.5497 -0.9462  0.5629
 7952SOL    HW235490   4.616   3.785  16.874 -1.0555  0.4320 -2.7178
 7953SOL     OW35491   2.862   3.157   3.928 -0.0693  0.5473  0.0726
 7953SOL    HW135492   2.921   3.231   3.943  1.7649 -1.1195  1.0627
 7953SOL    HW235493   2.781   3.201   3.904  1.0318  2.8238  0.5642
 7954SOL     OW35494   3.950   3.676   0.587 -0.4253 -0.3228 -0.7377
 7954SOL    HW135495   3.977   3.746   0.528  0.6448 -0.2234 -0.1401
 7954SOL    HW235496   3.861   3.702   0.611  0.0647  0.2968  0.3597
 7955SOL     OW35497   1.652   1.712   4.636 -0.0564  0.0007 -0.2048
 7955SOL    HW135498   1.613   1.632   4.671  0.2149 -1.3710 -3.0974
 7955SOL    HW235499   1.745   1.691   4.643  0.0597  0.9563  1.3077
 7956SOL     OW35500   2.052   3.701   0.446 -0.6684  0.1220  0.3717
 7956SOL    HW135501   2.024   3.637   0.511 -2.1378  2.5458  2.1356
 7956SOL    HW235502   1.991   3.682   0.375  1.1534 -0.1266 -1.1330
 7957SOL     OW35503   0.009   1.861   8.043  0.0016 -0.3497 -0.3841
 7957SOL    HW135504   0.048   1.942   8.076  0.0382 -0.8803  0.8843
 7957SOL    HW235505   0.046   1.793   8.099 -1.1649  1.4814  2.5653
 7958SOL     OW35506   2.486   1.333   2.700  0.2961 -0.6107 -0.5793
 7958SOL    HW135507   2.483   1.238   2.691  1.2002 -0.3743 -3.2368
 7958SOL    HW235508   2.560   1.346   2.641 -0.0814 -0.4677 -1.0252
 7959SOL     OW35509   2.883   2.259   4.070  0.2298 -0.2315 -0.0978
 7959SOL    HW135510   2.821   2.265   4.143  0.4302 -2.1554  0.2349
 7959SOL    HW235511   2.970   2.248   4.110  0.1766 -0.4105 -0.0294
 7960SOL     OW35512   2.281   1.428  10.271  0.2747 -0.0647 -0.4878
 7960SOL    HW135513   2.267   1.512  10.227 -0.3233  0.1177  0.0475
 7960SOL    HW235514   2.245   1.451  10.357  0.7444  0.8562 -0.5311
 7961SOL     OW35515   1.010   0.776   3.218 -0.1835  0.0534  0.4370
 7961SOL    HW135516   0.991   0.685   3.239  1.0034  0.2283  2.2666
 7961SOL    HW235517   1.100   0.762   3.189 -0.6617 -0.9207 -0.5965
 7962SOL     OW35518   3.386   0.080   4.424 -0.6971  0.0665  0.3030
 7962SOL    HW135519   3.297   0.091   4.390  0.4020 -0.1888 -2.5705
 7962SOL    HW235520   3.420   0.169   4.431 -2.8611  0.8928  0.4979
 7963SOL     OW35521   0.318   0.764  17.204  0.0751 -0.1812  0.5953
 7963SOL    HW135522   0.256   0.813  17.149 -1.2587  0.2297  2.4524
 7963SOL    HW235523   0.393   0.823  17.210 -0.7672  0.9777 -0.1190
 7964SOL     OW35524   4.098   3.026   2.245 -0.1487  0.2166  0.5285
 7964SOL    HW135525   4.005   3.006   2.260 -0.8100  0.4549 -3.0572
 7964SOL    HW235526   4.090   3.049   2.152 -0.9201 -0.1161  0.5115
 7965SOL     OW35527   1.592   1.438   5.417 -0.3426 -0.0237  0.1763
 7965SOL    HW135528   1.648   1.408   5.345 -1.6589 -2.4086  0.1261
 7965SOL    HW235529   1.640   1.403   5.492  0.7842 -0.4445 -0.7542
 7966SOL     OW35530   2.568   0.346   5.663 -0.5898 -0.1867 -0.5124
 7966SOL    HW135531   2.634   0.373   5.599  2.0444 -0.1837  2.1673
 7966SOL    HW235532   2.524   0.428   5.688 -1.0031 -0.7707  0.6745
 7967SOL     OW35533   2.964   4.144   0.726 -0.1644  0.1129  0.2475
 7967SOL    HW135534   2.879   4.158   0.683  0.0394  2.2533  0.5299
 7967SOL    HW235535   2.998   4.071   0.673 -0.5093  0.3298 -0.2737
 7968SOL     OW35536   0.589   0.566   2.753  0.9119 -0.2626 -0.7313
 7968SOL    HW135537   0.522   0.559   2.685 -0.4007 -0.2408  0.5603
 7968SOL    HW235538   0.552   0.643   2.795  1.1134 -0.2005 -0.6643
 7969SOL     OW35539   1.576   2.800   1.415  0.4475  0.2212  0.1258
 7969SOL    HW135540   1.611   2.817   1.502 -0.0851  3.2247 -0.2625
 7969SOL    HW235541   1.532   2.884   1.406 -3.3400 -1.7371  0.2978
 7970SOL     OW35542   4.661   0.665   2.888 -0.4412 -0.7961  0.1475
 7970SOL    HW135543   4.624   0.672   2.976 -3.4945  2.1391 -1.3887
 7970SOL    HW235544   4.588   0.702   2.838  0.1988  1.1552  0.6611
 7971SOL     OW35545   2.170   4.708   1.695  0.2723  0.1345  0.2457
 7971SOL    HW135546   2.190   0.066   1.671  0.8315  0.4357  1.8584
 7971SOL    HW235547   2.226   4.693   1.771  0.2985  2.0266  0.5989
 7972SOL     OW35548   2.831   2.656   6.054  0.8080  0.1498  0.4195
 7972SOL    HW135549   2.919   2.685   6.077  0.3968  2.5242 -0.8986
 7972SOL    HW235550   2.844   2.563   6.068 -0.7120  0.2296  2.3997
 7973SOL     OW35551   1.092   0.830   7.873 -0.4555  0.2295 -0.0157
 7973SOL    HW135552   1.182   0.807   7.848 -1.0659 -0.5585 -1.4446
 7973SOL    HW235553   1.049   0.826   7.788 -0.5071 -1.7423  0.1048
 7974SOL     OW35554   1.448   3.243   2.744  0.0527 -0.0952 -0.3639
 7974SOL    HW135555   1.434   3.149   2.750 -0.5989  0.0051 -0.2545
 7974SOL    HW235556   1.530   3.251   2.696  0.2100 -1.9363 -0.3828
 7975SOL     OW35557   0.985   4.272   3.208  0.2434  0.4135  0.6009
 7975SOL    HW135558   0.960   4.346   3.153 -2.9737 -0.1147  1.3242
 7975SOL    HW235559   0.985   4.322   3.290  2.3026  1.9447 -0.3258
 7976SOL     OW35560   4.347   3.261  15.370 -0.2268  0.0479 -0.2849
 7976SOL    HW135561   4.387   3.175  15.362 -0.0583  0.0812  0.1539
 7976SOL    HW235562   4.389   3.316  15.303  1.8910 -0.3101  0.7319
 7977SOL     OW35563   3.130   4.533   5.478 -0.0349 -0.1124  0.6789
 7977SOL    HW135564   3.203   4.575   5.524  0.2585 -0.2231  0.3219
 7977SOL    HW235565   3.168   4.467   5.420 -1.7509  0.6108 -1.2724
 7978SOL     OW35566   0.930   4.589   5.389 -0.0498 -0.1833  0.3798
 7978SOL    HW135567   0.849   4.613   5.434 -0.7180 -0.2366 -0.7933
 7978SOL    HW235568   0.963   4.506   5.422 -1.9124 -1.6919 -1.4835
 7979SOL     OW35569   0.991   2.018  10.172 -0.3533  0.4838  0.0685
 7979SOL    HW135570   0.947   1.987  10.093 -0.6779  0.4652  0.2542
 7979SOL    HW235571   1.024   2.108  10.169  2.9228 -0.7508 -1.0875
 7980SOL     OW35572   3.191   2.067   3.953 -0.0996 -0.6781 -0.0641
 7980SOL    HW135573   3.278   2.081   3.992  0.6960 -1.3257 -1.6251
 7980SOL    HW235574   3.179   2.138   3.889 -0.0283  0.3282  1.0234
 7981SOL     OW35575   4.088   1.511   6.973 -0.4850 -0.2689  0.3018
 7981SOL    HW135576   4.105   1.553   7.058 -1.5359  1.1807 -0.2031
 7981SOL    HW235577   4.009   1.461   6.994 -0.4318 -0.1437  0.8188
 7982SOL     OW35578   4.726   4.053  15.674  0.1518 -0.5519  1.0407
 7982SOL    HW135579   0.010   4.053  15.768  1.3257  0.9322  0.8355
 7982SOL    HW235580   4.670   4.130  15.664  0.2803 -0.4812  0.8635
 7983SOL     OW35581   1.967   0.794   7.173  0.3585 -0.8562 -0.3045
 7983SOL    HW135582   1.895   0.733   7.162  1.1916 -1.6962 -1.0564
 7983SOL    HW235583   1.938   0.883   7.195  2.8311 -0.1155  0.0252
 7984SOL     OW35584   3.483   1.152  12.428 -0.2297  0.0180  0.7545
 7984SOL    HW135585   3.504   1.245  12.419  0.9719 -0.1597  1.8615
 7984SOL    HW235586   3.412   1.138  12.364  0.2518 -0.6155  0.3657
 7985SOL     OW35587   3.729   2.879   4.210 -0.1374  0.2258  0.2741
 7985SOL    HW135588   3.744   2.919   4.296  0.5271  1.6286 -0.4904
 7985SOL    HW235589   3.817   2.853   4.181 -0.4027 -0.1377 -0.2026
 7986SOL     OW35590   4.569   2.166   8.508  0.0285 -0.4053 -0.3175
 7986SOL    HW135591   4.490   2.219   8.505 -0.0448 -0.4795  0.2672
 7986SOL    HW235592   4.629   2.237   8.530  0.8456 -0.6284 -1.8234
 7987SOL     OW35593   0.697   4.638  17.415 -0.2651  0.6241  0.0556
 7987SOL    HW135594   0.698   4.631  17.510  3.1681 -1.9670 -0.1570
 7987SOL    HW235595   0.718   4.546  17.398  2.9707  1.6836 -1.8095
 7988SOL     OW35596   4.480   0.864  10.781  0.6407 -0.1549  0.5393
 7988SOL    HW135597   4.555   0.913  10.815 -0.1321  0.7152  0.9904
 7988SOL    HW235598   4.529   0.790  10.744  2.3136  0.7793  0.8614
 7989SOL     OW35599   3.846   0.256   1.611 -0.3915 -0.4581 -0.6569
 7989SOL    HW135600   3.867   0.338   1.566 -0.8565  0.8003  1.4102
 7989SOL    HW235601   3.751   0.264   1.606 -0.3017  0.6093 -0.8206
 7990SOL     OW35602   0.581   3.972   5.744 -0.0974  0.0599  0.1345
 7990SOL    HW135603   0.566   3.969   5.838  1.7154 -2.2724  0.3611
 7990SOL    HW235604   0.584   4.067   5.732  1.2545  0.1428  1.0560
 7991SOL     OW35605   2.177   2.184   2.325 -0.0551 -0.0755 -0.1251
 7991SOL    HW135606   2.166   2.279   2.330  1.1867 -0.0334  1.9827
 7991SOL    HW235607   2.226   2.173   2.243  0.1521 -1.5912  0.1979
 7992SOL     OW35608   4.632   3.863   3.776  0.3817 -0.9149  0.2020
 7992SOL    HW135609   4.693   3.935   3.758 -1.0963  0.3181  0.1739
 7992SOL    HW235610   4.693   3.795   3.806  0.5859 -1.0084 -0.4140
 7993SOL     OW35611   3.823   4.492   7.642  0.3541 -0.1966 -0.4752
 7993SOL    HW135612   3.885   4.561   7.616 -0.8267  0.4757 -1.4875
 7993SOL    HW235613   3.774   4.481   7.561  2.4311 -1.9620 -1.4987
 7994SOL     OW35614   3.459   1.085  16.212  0.0623 -0.4362 -0.3773
 7994SOL    HW135615   3.501   1.009  16.173  0.4961 -0.3350 -0.1079
 7994SOL    HW235616   3.450   1.149  16.141  0.2204  0.6864  0.6050
 7995SOL     OW35617   0.073   4.330   5.751 -0.2562 -0.2578  0.3881
 7995SOL    HW135618   0.143   4.387   5.718 -0.4944  0.5978  1.3509
 7995SOL    HW235619   4.730   4.355   5.697  1.1258 -1.5201 -2.1387
 7996SOL     OW35620   2.783   2.560   4.787  0.2055 -0.0877  0.0696
 7996SOL    HW135621   2.830   2.643   4.783  0.4138 -0.2103 -0.0780
 7996SOL    HW235622   2.851   2.503   4.751  0.4343  1.6787 -2.2857
 7997SOL     OW35623   1.280   4.650   3.089 -0.2136 -0.4160  0.0356
 7997SOL    HW135624   1.251   4.564   3.057  1.6563 -0.8679 -0.4039
 7997SOL    HW235625   1.372   4.637   3.069 -0.2137  3.1703 -2.2945
 7998SOL     OW35626   0.047   1.524  16.631  0.2010 -0.5088 -0.0655
 7998SOL    HW135627   0.073   1.483  16.714  2.2269 -0.3596 -0.6217
 7998SOL    HW235628   0.093   1.607  16.638 -3.1930  1.3255  0.2757
 7999SOL     OW35629   1.893   3.781  16.737  0.2623 -0.0801 -0.3460
 7999SOL    HW135630   1.805   3.750  16.759 -1.3227  3.8533 -0.9880
 7999SOL    HW235631   1.894   3.861  16.790  0.7189  0.0991 -0.6267
 8000SOL     OW35632   4.388   3.800   4.653  0.3966  0.5004  0.0544
 8000SOL    HW135633   4.432   3.729   4.607  0.1966 -0.6604  1.6905
 8000SOL    HW235634   4.453   3.871   4.652  0.6248  0.3073  0.7945
 8001SOL     OW35635   1.923   2.412   6.422  0.0581  0.0297 -0.0555
 8001SOL    HW135636   2.012   2.377   6.425 -0.0932 -0.3814 -0.5321
 8001SOL    HW235637   1.872   2.365   6.488  2.2858 -4.0254 -1.2182
 8002SOL     OW35638   3.076   3.898   6.187  0.2897 -0.1800  0.1844
 8002SOL    HW135639   3.090   3.991   6.174 -0.4492 -0.2632 -1.2983
 8002SOL    HW235640   3.151   3.880   6.242 -2.7807 -4.6526  2.9337
 8003SOL     OW35641   4.351   0.147   8.213 -0.3125 -0.1537 -0.6797
 8003SOL    HW135642   4.391   0.233   8.221 -1.5070  0.3554 -0.0833
 8003SOL    HW235643   4.414   0.092   8.260  0.3680  0.6078 -0.7171
 8004SOL     OW35644   2.909   3.294   5.287 -0.5016  0.1401 -0.2896
 8004SOL    HW135645   2.992   3.267   5.248 -0.4945 -2.1738  1.2747
 8004SOL    HW235646   2.851   3.247   5.228 -0.9632  0.0772  0.2080
 8005SOL     OW35647   1.958   3.983   8.789 -0.6749  0.3166 -0.3583
 8005SOL    HW135648   1.904   4.062   8.796  0.0532  0.9876 -2.5224
 8005SOL    HW235649   2.013   3.997   8.866  0.3728 -0.5521 -0.9543
 8006SOL     OW35650   3.167   0.804   0.557  0.4976 -0.0742  0.3573
 8006SOL    HW135651   3.157   0.890   0.596 -0.6217 -0.2096  0.3790
 8006SOL    HW235652   3.080   0.774   0.533  0.2239 -0.1941  1.5077
 8007SOL     OW35653   1.484   1.339   1.796  0.0616 -0.2328 -0.0356
 8007SOL    HW135654   1.570   1.315   1.832 -0.1473 -1.9607 -0.6856
 8007SOL    HW235655   1.440   1.375   1.873 -0.4192  1.8780 -1.2939
 8008SOL     OW35656   2.837   0.111   0.012  0.0192  0.0434 -0.2311
 8008SOL    HW135657   2.786   0.163   0.074 -0.9813 -0.2315 -0.8376
 8008SOL    HW235658   2.865   0.179  17.679  1.0735 -0.2796 -0.1096
 8009SOL     OW35659   1.442   4.261   1.100 -0.4153 -0.5462  0.4871
 8009SOL    HW135660   1.393   4.312   1.035 -0.8171 -2.8784 -1.0392
 8009SOL    HW235661   1.378   4.258   1.171 -0.7068  0.0930  0.2515
 8010SOL     OW35662   2.169   4.354   8.539 -0.1143 -0.6748  0.0860
 8010SOL    HW135663   2.196   4.416   8.607 -0.5580 -0.1932 -0.1745
 8010SOL    HW235664   2.253   4.352   8.494 -1.0102  0.9329 -1.6552
 8011SOL     OW35665   3.796   4.247  10.832 -0.2462  0.1507  0.4809
 8011SOL    HW135666   3.877   4.235  10.880  0.3651  1.6135 -0.2048
 8011SOL    HW235667   3.831   4.202  10.756  0.0106 -0.4142  0.9329
 8012SOL     OW35668   1.120   3.140  13.751  0.1469 -0.2807 -0.0290
 8012SOL    HW135669   1.105   3.050  13.781 -0.0311 -0.6372 -1.2009
 8012SOL    HW235670   1.030   3.172  13.758 -0.5985 -2.6150  1.1967
 8013SOL     OW35671   4.270   0.369   6.106 -0.1169 -0.2664  0.4214
 8013SOL    HW135672   4.337   0.414   6.055 -1.9332  1.6876 -0.2825
 8013SOL    HW235673   4.319   0.353   6.186  1.1500 -2.2360 -0.7463
 8014SOL     OW35674   4.323   1.818   5.954 -0.3069 -0.0763  0.3000
 8014SOL    HW135675   4.384   1.753   5.920  2.0129  2.8295 -1.0710
 8014SOL    HW235676   4.264   1.817   5.878 -2.2020 -0.7669  1.7918
 8015SOL     OW35677   1.303   2.863   8.236 -0.3540  0.0048  0.2063
 8015SOL    HW135678   1.314   2.944   8.285  1.2499 -0.7849  1.1770
 8015SOL    HW235679   1.278   2.899   8.151  1.6108  0.4498 -0.1798
 8016SOL     OW35680   0.713   1.143  10.665 -0.1594 -0.2382  0.7672
 8016SOL    HW135681   0.753   1.118  10.582 -1.9156 -2.9917  0.7695
 8016SOL    HW235682   0.792   1.185  10.700 -0.4840 -0.6595  2.0117
 8017SOL     OW35683   3.216   3.221   6.368 -0.3015 -0.2486 -0.7845
 8017SOL    HW135684   3.152   3.270   6.317  0.0729 -0.0931 -1.1082
 8017SOL    HW235685   3.224   3.268   6.450  2.0828  1.2979 -1.9003
 8018SOL     OW35686   1.069   4.275   6.041 -0.0284 -0.2343 -0.4944
 8018SOL    HW135687   1.017   4.315   6.110 -1.6773 -0.9700 -1.3106
 8018SOL    HW235688   1.094   4.189   6.076 -3.4890 -1.3932 -0.8362
 8019SOL     OW35689   0.923   0.299   4.225  0.3488 -0.1720  0.0731
 8019SOL    HW135690   0.995   0.244   4.194  0.5549 -0.2107  0.6069
 8019SOL    HW235691   0.940   0.296   4.319 -2.5445 -0.0705  0.5970
 8020SOL     OW35692   0.551   0.719  12.088 -0.0862  0.1845  0.7964
 8020SOL    HW135693   0.522   0.718  12.180  0.2369 -0.7997  0.8890
 8020SOL    HW235694   0.475   0.744  12.036  0.3183  1.9529  1.0607
 8021SOL     OW35695   1.426   2.547   6.888  0.5865 -0.5069 -0.4656
 8021SOL    HW135696   1.491   2.565   6.820 -1.0546  0.9469 -1.6530
 8021SOL    HW235697   1.467   2.580   6.968 -0.0186 -1.7426  0.3489
 8022SOL     OW35698   2.032   2.842   6.808 -0.3711 -0.3726 -0.2041
 8022SOL    HW135699   2.079   2.908   6.860 -0.6615  0.7986 -1.4535
 8022SOL    HW235700   2.102   2.785   6.775 -1.1679 -0.5819 -1.5016
 8023SOL     OW35701   4.280   0.131  15.090  0.7975  0.4150 -0.3746
 8023SOL    HW135702   4.311   0.222  15.094  0.0037  0.6554  0.3477
 8023SOL    HW235703   4.351   0.093  15.038 -1.0791 -0.9859 -1.9007
 8024SOL     OW35704   4.283   3.077   3.969 -0.1690 -0.4540  0.1610
 8024SOL    HW135705   4.208   3.021   3.948 -2.4508  1.8740  2.0289
 8024SOL    HW235706   4.334   3.007   4.010 -2.6800 -1.4837  1.5246
 8025SOL     OW35707   0.937   0.652  14.236 -0.1009 -0.0487  0.0745
 8025SOL    HW135708   0.855   0.702  14.231 -0.6983 -1.0320 -0.0239
 8025SOL    HW235709   0.971   0.694  14.315  1.4679 -0.8097 -0.1943
 8026SOL     OW35710   3.613   3.284   8.813 -0.3091  0.0217  0.1674
 8026SOL    HW135711   3.558   3.248   8.883 -0.1061 -0.4584  0.0800
 8026SOL    HW235712   3.565   3.363   8.790  0.6687  0.1440 -1.4170
 8027SOL     OW35713   3.540   3.527   9.074 -0.0857  0.1243  0.4664
 8027SOL    HW135714   3.534   3.453   9.135 -0.4549  1.4653  2.0802
 8027SOL    HW235715   3.559   3.591   9.143  0.5273 -0.1994  0.5936
 8028SOL     OW35716   4.472   3.034  15.325  0.3287 -0.0747  0.1463
 8028SOL    HW135717   4.420   2.971  15.276 -0.7646  1.8888 -1.2308
 8028SOL    HW235718   4.546   2.986  15.361  0.2028 -0.8790 -0.6847
 8029SOL     OW35719   1.999   2.858   3.234 -0.2542 -0.3285  0.3001
 8029SOL    HW135720   1.982   2.794   3.165  0.5481 -0.9547  0.6827
 8029SOL    HW235721   1.959   2.938   3.200  0.3043 -0.6583 -1.1447
 8030SOL     OW35722   1.450   4.008   6.288 -0.3979 -0.6388 -0.0982
 8030SOL    HW135723   1.493   4.053   6.361  0.5288 -1.0653 -0.3740
 8030SOL    HW235724   1.491   3.922   6.302 -1.1457 -1.0946 -0.7677
 8031SOL     OW35725   0.677   3.562   7.902 -0.4340 -0.1286 -0.4114
 8031SOL    HW135726   0.691   3.633   7.965  0.5209 -1.9364  1.4519
 8031SOL    HW235727   0.763   3.521   7.901 -1.0539 -1.3607 -2.0289
 8032SOL     OW35728   4.601   3.644   7.974  0.1774 -0.8165 -0.2286
 8032SOL    HW135729   4.531   3.707   7.989  1.8102  0.4436  2.0851
 8032SOL    HW235730   4.580   3.619   7.884  1.1058 -1.8231 -0.1706
 8033SOL     OW35731   4.300   1.247   0.022  0.3429 -0.2238 -0.1317
 8033SOL    HW135732   4.362   1.175   0.028 -2.9474 -2.9620  1.0798
 8033SOL    HW235733   4.298   1.263  17.656  2.7795 -1.6311 -0.4220
 8034SOL     OW35734   2.535   2.094  11.491  0.2300 -0.3636  0.0002
 8034SOL    HW135735   2.623   2.084  11.527  1.5233 -1.1213 -3.4096
 8034SOL    HW235736   2.530   2.014  11.438  0.1599 -0.5979  0.3604
 8035SOL     OW35737   2.073   3.827  10.741 -0.3932  0.1701  0.0179
 8035SOL    HW135738   2.167   3.845  10.741 -0.1899 -0.9063 -1.1176
 8035SOL    HW235739   2.053   3.784  10.657  0.9880 -0.6305  0.1138
 8036SOL     OW35740   1.801   2.128   4.926 -0.5488  0.7267  0.7892
 8036SOL    HW135741   1.823   2.059   4.989  3.0525  0.7564 -0.4431
 8036SOL    HW235742   1.727   2.084   4.884 -0.2036 -1.9966  2.9979
 8037SOL     OW35743   1.964   4.120  10.693 -0.1788 -0.1368 -0.1537
 8037SOL    HW135744   1.966   4.110  10.598  0.3649  0.4709 -0.2078
 8037SOL    HW235745   1.881   4.077  10.714 -0.5862  1.6587  1.9176
 8038SOL     OW35746   3.468   1.978   3.366 -0.1613  0.0027  0.0488
 8038SOL    HW135747   3.431   1.969   3.454 -2.5251 -1.0864 -1.0503
 8038SOL    HW235748   3.389   1.994   3.314  1.4548 -0.1681 -2.4633
 8039SOL     OW35749   1.795   0.811   2.974 -0.4921  0.3712 -0.1146
 8039SOL    HW135750   1.719   0.865   2.993 -0.5734  1.1955 -2.7422
 8039SOL    HW235751   1.830   0.855   2.897  1.2593 -1.2897 -0.2675
 8040SOL     OW35752   2.616   4.698   9.500 -0.1376 -0.5239 -0.2619
 8040SOL    HW135753   2.571   4.643   9.565 -2.3126 -0.1477 -1.4445
 8040SOL    HW235754   2.690   4.639   9.483  2.4757  1.9269  2.5427
 8041SOL     OW35755   3.996   4.706   6.377 -0.4849 -0.1359  0.0595
 8041SOL    HW135756   3.950   4.622   6.370  0.9455 -0.6847 -2.5871
 8041SOL    HW235757   4.083   4.680   6.408  0.1421  0.7783 -0.9603
 8042SOL     OW35758   3.810   2.059   1.567  0.1897  0.2345 -1.0449
 8042SOL    HW135759   3.758   2.119   1.621  0.6691 -0.2757 -0.0115
 8042SOL    HW235760   3.900   2.084   1.591 -0.4577  0.4935  1.1195
 8043SOL     OW35761   2.654   4.589   8.953  0.0423 -0.3546  0.2951
 8043SOL    HW135762   2.712   4.517   8.928 -0.5646  0.0111 -2.2198
 8043SOL    HW235763   2.669   4.582   9.047  0.2438  0.1154  0.2988
 8044SOL     OW35764   3.886   3.362   4.883  0.0545 -0.1660 -0.3641
 8044SOL    HW135765   3.976   3.355   4.851  1.5231 -0.2272  3.7952
 8044SOL    HW235766   3.885   3.457   4.892  0.2416 -0.0743 -1.3198
 8045SOL     OW35767   2.208   0.720  13.007  0.3242 -0.4098  0.0005
 8045SOL    HW135768   2.237   0.809  12.986  1.2817 -0.4572  1.1605
 8045SOL    HW235769   2.294   0.680  12.998  0.6268  0.2340  0.0532
 8046SOL     OW35770   2.319   1.978   7.012  0.0390  0.2417 -0.5245
 8046SOL    HW135771   2.313   1.991   7.107  0.5359  0.7172 -0.5624
 8046SOL    HW235772   2.227   1.992   6.987 -0.4277  0.3670  1.1943
 8047SOL     OW35773   2.372   4.127   4.362  0.1054 -0.1555 -0.1747
 8047SOL    HW135774   2.466   4.148   4.359 -0.0952  0.1558 -3.6001
 8047SOL    HW235775   2.333   4.210   4.335 -0.9202 -0.0816  1.5273
 8048SOL     OW35776   0.053   0.018   5.172 -0.1388  0.2166  0.1502
 8048SOL    HW135777   0.022   0.054   5.089 -0.2218 -1.5614 -0.5793
 8048SOL    HW235778   0.145   0.010   5.147 -0.2460 -0.9449  0.1246
 8049SOL     OW35779   0.719   3.425   6.738  0.1373  0.3447 -0.0510
 8049SOL    HW135780   0.800   3.397   6.782  1.0075  3.2794  0.2489
 8049SOL    HW235781   0.676   3.478   6.804 -1.2047 -0.7047 -0.0916
 8050SOL     OW35782   1.985   4.668  15.952 -0.5290 -0.1092  0.0840
 8050SOL    HW135783   1.977   4.706  16.039  0.1797 -0.3178  0.2389
 8050SOL    HW235784   2.074   4.633  15.957 -0.0117  1.1336 -0.5261
 8051SOL     OW35785   0.346   2.163   3.014 -0.4112 -0.1355 -0.4272
 8051SOL    HW135786   0.436   2.190   2.996 -0.6534  0.5603 -0.5838
 8051SOL    HW235787   0.302   2.243   3.043  0.0029 -0.5358  1.2812
 8052SOL     OW35788   1.826   3.434   9.873  0.0004 -0.4039 -0.6352
 8052SOL    HW135789   1.855   3.396   9.789 -0.5567 -2.2514  0.0050
 8052SOL    HW235790   1.764   3.365   9.898 -1.6624  1.3651  0.1325
 8053SOL     OW35791   0.155   2.600   6.155 -0.0613 -0.0621  0.3007
 8053SOL    HW135792   0.114   2.516   6.137  0.7421 -0.2188 -0.7968
 8053SOL    HW235793   0.092   2.643   6.213 -0.2016 -1.0230  0.8500
 8054SOL     OW35794   0.834   3.677   4.397  0.3665 -0.4691  0.4173
 8054SOL    HW135795   0.923   3.642   4.404  0.0854 -1.5016 -1.0046
 8054SOL    HW235796   0.824   3.679   4.302  1.3603 -0.6616  0.3073
 8055SOL     OW35797   0.428   2.205  11.146 -0.1000  0.1074 -0.1499
 8055SOL    HW135798   0.417   2.236  11.056 -0.7824  0.9684  0.2314
 8055SOL    HW235799   0.404   2.286  11.190  1.3971  0.8089 -0.6283
 8056SOL     OW35800   1.972   2.373   9.949  0.1789 -0.5717  0.1242
 8056SOL    HW135801   1.893   2.346   9.995 -1.4907  0.8380 -1.9241
 8056SOL    HW235802   2.022   2.427  10.011 -0.4475  0.3147 -0.1471
 8057SOL     OW35803   0.637   1.495   8.617 -0.0384 -0.4007  0.5082
 8057SOL    HW135804   0.682   1.580   8.621 -0.5918 -0.1687  1.9904
 8057SOL    HW235805   0.569   1.518   8.554 -1.6389 -3.5508  1.1013
 8058SOL     OW35806   1.861   4.597  14.719 -0.3754 -0.5259 -0.0328
 8058SOL    HW135807   1.929   4.665  14.716 -0.6331 -0.2836 -0.3678
 8058SOL    HW235808   1.868   4.571  14.811 -1.7385  0.2222  0.2804
 8059SOL     OW35809   4.634   3.855  16.226  0.1593  0.4694  1.0688
 8059SOL    HW135810   4.659   3.766  16.251  0.7701 -0.1126 -1.5665
 8059SOL    HW235811   4.694   3.911  16.275  0.6259  0.9166 -0.0058
 8060SOL     OW35812   0.589   2.831   9.092  0.4315 -0.3604  0.3809
 8060SOL    HW135813   0.658   2.821   9.027  0.6450 -1.3534  0.7404
 8060SOL    HW235814   0.534   2.891   9.043 -0.8934 -0.0344  2.2617
 8061SOL     OW35815   4.332   4.491  10.724  0.1973  0.1765  0.0699
 8061SOL    HW135816   4.271   4.443  10.667  1.2328  1.1781 -1.8771
 8061SOL    HW235817   4.307   4.577  10.692 -2.1470 -0.7638 -0.6602
 8062SOL     OW35818   2.852   2.890   5.494 -0.4049 -0.7064  0.0679
 8062SOL    HW135819   2.881   2.924   5.409 -2.0653 -2.1807 -1.1007
 8062SOL    HW235820   2.768   2.935   5.499 -0.3318 -0.5228 -0.3116
 8063SOL     OW35821   1.924   3.659   7.503  0.0490  0.6309  0.0064
 8063SOL    HW135822   1.834   3.685   7.480  0.6555  1.5612 -1.2925
 8063SOL    HW235823   1.956   3.747   7.526  0.3109  0.0542  1.8991
 8064SOL     OW35824   1.162   0.595   9.732 -0.2680 -0.2205  0.4333
 8064SOL    HW135825   1.230   0.530   9.750 -0.5966 -0.9016 -0.8409
 8064SOL    HW235826   1.162   0.603   9.637  0.6682  3.7142  0.7656
 8065SOL     OW35827   1.931   3.821   5.178  0.5328 -0.3537 -0.2738
 8065SOL    HW135828   1.898   3.906   5.148  1.3278 -0.0449 -0.2655
 8065SOL    HW235829   2.025   3.831   5.169  0.5995  1.9464  3.2412
 8066SOL     OW35830   1.386   2.769   6.205 -0.3826  0.5109  0.1886
 8066SOL    HW135831   1.437   2.848   6.188 -0.2733  0.6072  0.9608
 8066SOL    HW235832   1.386   2.779   6.300 -1.6123  3.7585 -0.1502
 8067SOL     OW35833   3.412   3.150   1.936  0.3318  0.0654  0.5024
 8067SOL    HW135834   3.481   3.100   1.892  0.7289  0.1404  1.0432
 8067SOL    HW235835   3.452   3.235   1.952  0.5851  0.2444 -1.0137
 8068SOL     OW35836   4.665   0.523   3.914 -0.2814 -0.1853  0.2763
 8068SOL    HW135837   4.619   0.594   3.871  1.0067  0.8321  0.5882
 8068SOL    HW235838   4.638   0.443   3.868  0.5221 -0.4452  0.2405
 8069SOL     OW35839   4.492   1.914   8.615  0.4884  0.0113  0.1004
 8069SOL    HW135840   4.584   1.889   8.610  0.9743  1.7399  0.2239
 8069SOL    HW235841   4.497   2.004   8.583 -0.8074 -0.4455 -1.3930
 8070SOL     OW35842   1.254   2.336   8.662  0.2153 -0.1222  0.2192
 8070SOL    HW135843   1.343   2.303   8.674  0.1209 -0.3505  0.2927
 8070SOL    HW235844   1.203   2.263   8.698  0.3746 -0.8201 -0.9753
 8071SOL     OW35845   0.250   4.338  10.415 -0.0826 -0.3701 -0.3826
 8071SOL    HW135846   0.202   4.256  10.428  1.0912 -0.8844  0.7053
 8071SOL    HW235847   0.333   4.318  10.457 -0.5248 -1.9687 -0.3013
 8072SOL     OW35848   1.388   1.175   9.489  0.0950  0.0473 -0.1456
 8072SOL    HW135849   1.340   1.179   9.406  0.2078 -0.5855 -0.2360
 8072SOL    HW235850   1.421   1.086   9.478 -2.3332 -0.6709 -1.8046
 8073SOL     OW35851   4.367   3.239   3.563  0.3799  0.0079 -0.2245
 8073SOL    HW135852   4.457   3.212   3.580  0.5028  0.4058 -0.2533
 8073SOL    HW235853   4.355   3.265   3.472  1.1461  2.1885  0.3017
 8074SOL     OW35854   0.592   2.305  10.011 -0.8225  0.0010 -0.1744
 8074SOL    HW135855   0.590   2.210  10.003 -0.6696 -0.0180  0.0166
 8074SOL    HW235856   0.501   2.336  10.016 -0.2323  1.2194  2.8527
 8075SOL     OW35857   4.482   1.292   2.073 -0.2361 -0.4188  0.7028
 8075SOL    HW135858   4.482   1.317   2.165  0.4450  0.1814  0.5374
 8075SOL    HW235859   4.471   1.197   2.081  0.7684 -0.6049 -0.0673
 8076SOL     OW35860   4.658   2.190  12.355  0.1850  0.1273 -0.3285
 8076SOL    HW135861   4.654   2.123  12.424  3.2445 -0.0989 -0.3852
 8076SOL    HW235862   4.563   2.197  12.361  0.1356 -1.1206  0.5204
 8077SOL     OW35863   2.598   0.112   1.885 -0.4441 -0.2753  0.2762
 8077SOL    HW135864   2.656   0.101   1.960 -0.6931  0.1073  0.5246
 8077SOL    HW235865   2.541   0.036   1.892 -2.0198  0.9635  0.9002
 8078SOL     OW35866   0.132   3.185   2.451 -0.1374  0.3712 -0.0080
 8078SOL    HW135867   0.198   3.131   2.408 -0.4021  0.1327 -0.1187
 8078SOL    HW235868   0.151   3.268   2.407  0.4861 -0.2107 -0.8358
 8079SOL     OW35869   3.418   2.829  11.502 -0.2499 -0.5575 -0.3540
 8079SOL    HW135870   3.409   2.842  11.596 -0.6586  2.5416 -0.8139
 8079SOL    HW235871   3.513   2.844  11.493 -0.3281 -0.6536 -1.3173
 8080SOL     OW35872   0.366   3.477  10.825 -0.1455  0.5085 -0.2775
 8080SOL    HW135873   0.281   3.517  10.808 -0.5845 -0.9500 -1.5232
 8080SOL    HW235874   0.424   3.553  10.817 -1.9676  1.8906 -0.3377
 8081SOL     OW35875   0.780   2.188   2.753  0.1246 -0.1560  0.0928
 8081SOL    HW135876   0.871   2.158   2.754  0.6964  1.6070 -0.1020
 8081SOL    HW235877   0.772   2.202   2.659  1.1581 -2.6263 -0.3580
 8082SOL     OW35878   2.067   1.671   4.297 -0.4475 -0.1436  0.0661
 8082SOL    HW135879   1.976   1.693   4.317  0.2510  0.7603  2.2949
 8082SOL    HW235880   2.074   1.734   4.224 -1.8437 -0.7355 -0.5770
 8083SOL     OW35881   2.186   4.497   6.350  0.0379 -0.4083  0.2197
 8083SOL    HW135882   2.139   4.423   6.390 -1.4098 -1.7086 -3.9283
 8083SOL    HW235883   2.273   4.482   6.388  1.3983  1.0654 -2.2784
 8084SOL     OW35884   1.580   3.139   2.329 -0.2821  0.0259 -0.6730
 8084SOL    HW135885   1.626   3.198   2.270  3.4887 -4.2685 -2.0265
 8084SOL    HW235886   1.606   3.160   2.419  1.6621 -1.0701 -0.9747
 8085SOL     OW35887   1.805   0.462   0.990  0.0245 -0.2657 -0.0837
 8085SOL    HW135888   1.817   0.438   1.082 -0.6445 -1.0489 -0.1990
 8085SOL    HW235889   1.896   0.462   0.959 -0.1070  0.8133 -0.4583
 8086SOL     OW35890   2.324   4.167   5.125  1.1150 -0.0247  0.3759
 8086SOL    HW135891   2.302   4.079   5.095 -1.1584  0.6717  0.0480
 8086SOL    HW235892   2.262   4.178   5.197  0.9915  2.7292 -0.1570
 8087SOL     OW35893   1.093   4.373   5.761 -0.1478  0.7049 -0.3686
 8087SOL    HW135894   1.103   4.354   5.854  0.4794 -1.3068 -0.8426
 8087SOL    HW235895   1.068   4.465   5.766 -1.0817  0.4402 -0.0645
 8088SOL     OW35896   4.144   1.248   4.234  0.2996  0.2368  0.0443
 8088SOL    HW135897   4.141   1.163   4.191  3.6288  0.4400 -0.5932
 8088SOL    HW235898   4.107   1.226   4.320  0.0720 -0.3292 -0.1976
 8089SOL     OW35899   1.865   0.395  11.897 -0.0089 -0.1618 -0.4632
 8089SOL    HW135900   1.913   0.477  11.906  0.1143 -0.2660 -0.1708
 8089SOL    HW235901   1.841   0.368  11.985 -0.7886 -1.0403 -0.9518
 8090SOL     OW35902   4.222   1.470   4.062 -0.0618  0.2300 -0.9097
 8090SOL    HW135903   4.205   1.389   4.111  0.1341 -0.8371 -2.6170
 8090SOL    HW235904   4.144   1.524   4.073 -1.5862 -1.9310 -1.1660
 8091SOL     OW35905   1.371   2.856   5.571 -0.2589 -0.2521  0.1454
 8091SOL    HW135906   1.309   2.783   5.574  1.5865 -1.7643  1.2505
 8091SOL    HW235907   1.372   2.886   5.661  1.6975  0.4206 -0.1151
 8092SOL     OW35908   2.915   4.098  11.722 -0.6685 -0.3588 -0.0103
 8092SOL    HW135909   2.900   4.005  11.705 -0.0008 -0.5888  0.6639
 8092SOL    HW235910   3.008   4.115  11.706 -0.3755 -0.9002  1.0990
 8093SOL     OW35911   1.725   1.212   2.532  0.6686  0.3252  0.2145
 8093SOL    HW135912   1.792   1.198   2.466 -0.3105 -0.7467 -0.5571
 8093SOL    HW235913   1.642   1.182   2.494  0.9775 -0.8718  0.4920
 8094SOL     OW35914   2.040   0.571  12.269  0.7031 -0.1160  0.0514
 8094SOL    HW135915   2.077   0.591  12.183  0.2678 -2.4431 -0.6691
 8094SOL    HW235916   2.060   0.479  12.256 -0.6843 -0.5675  1.1392
 8095SOL     OW35917   2.675   2.353   5.804  0.5915 -0.4480 -0.6657
 8095SOL    HW135918   2.685   2.370   5.898 -0.9284  1.1923 -0.8120
 8095SOL    HW235919   2.607   2.287   5.809 -0.8401  1.2013  1.5759
 8096SOL     OW35920   1.810   3.528  12.432 -0.1887  0.5725 -0.2430
 8096SOL    HW135921   1.717   3.551  12.426 -0.0771  1.0550 -0.1215
 8096SOL    HW235922   1.827   3.520  12.338 -0.7344 -1.9153 -0.1274
 8097SOL     OW35923   3.847   1.351  11.609 -0.3341  0.3569  0.2281
 8097SOL    HW135924   3.887   1.392  11.532  2.2568 -3.5119 -0.4703
 8097SOL    HW235925   3.920   1.340  11.669  0.5205 -2.0426 -1.2649
 8098SOL     OW35926   2.559   0.252  17.524  0.1532  0.2085  0.0008
 8098SOL    HW135927   2.516   0.167  17.532 -0.0144  0.1088 -1.8762
 8098SOL    HW235928   2.550   0.271  17.431 -0.5258  2.6436  0.5527
 8099SOL     OW35929   3.076   4.433   8.308  0.0117  0.1462 -0.1247
 8099SOL    HW135930   3.034   4.515   8.284  0.1535  0.2690  0.0513
 8099SOL    HW235931   3.134   4.454   8.381 -0.3600 -2.0998  0.8227
 8100SOL     OW35932   0.371   4.364   3.928 -0.4559 -0.2586  0.4565
 8100SOL    HW135933   0.427   4.297   3.888 -0.3723  0.3880 -0.4980
 8100SOL    HW235934   0.422   4.384   4.007  1.7769 -0.7214 -0.8459
 8101SOL     OW35935   3.031   0.419  14.408  0.8397 -0.2418 -0.4585
 8101SOL    HW135936   2.952   0.469  14.429  0.6767 -0.8308  0.3583
 8101SOL    HW235937   2.996   0.330  14.416 -0.2542  0.1503 -0.9120
 8102SOL     OW35938   1.775   1.666  13.794 -0.1009  0.1342 -0.0471
 8102SOL    HW135939   1.737   1.581  13.771  3.9815 -1.5679 -0.4891
 8102SOL    HW235940   1.838   1.644  13.863 -2.0514 -1.7893  1.1140
 8103SOL     OW35941   2.135   2.443   2.304 -0.3560 -0.2155 -0.1426
 8103SOL    HW135942   2.042   2.446   2.328  0.3285  0.7940  2.3556
 8103SOL    HW235943   2.143   2.531   2.266 -2.2279 -0.9574 -2.2837
 8104SOL     OW35944   1.807   0.096   5.324  0.1992  0.2665  0.0601
 8104SOL    HW135945   1.745   0.100   5.396 -3.2909 -3.2470 -2.7142
 8104SOL    HW235946   1.878   0.048   5.366 -2.1412 -1.4441  2.0291
 8105SOL     OW35947   0.423   1.990   9.130 -0.1314 -0.2991 -0.6181
 8105SOL    HW135948   0.440   1.959   9.041  1.8262  0.2345 -0.4305
 8105SOL    HW235949   0.404   1.907   9.174 -0.9794  0.2361  0.0384
 8106SOL     OW35950   2.483   3.368  10.582  0.0910  0.2645 -0.3497
 8106SOL    HW135951   2.552   3.305  10.604 -0.1573  0.5925  1.4092
 8106SOL    HW235952   2.481   3.364  10.487  1.4482  0.5993 -0.3925
 8107SOL     OW35953   0.259   3.403   6.938  0.3553 -0.3153  0.0029
 8107SOL    HW135954   0.273   3.358   6.855  0.4005  2.4322 -1.4430
 8107SOL    HW235955   0.165   3.423   6.938 -0.0427 -2.1730 -1.2428
 8108SOL     OW35956   2.659   0.600   2.368  0.1969 -0.0034  0.3612
 8108SOL    HW135957   2.592   0.559   2.424 -0.6111 -0.3842 -0.8860
 8108SOL    HW235958   2.634   0.692   2.368 -0.1931 -0.1123 -0.1085
 8109SOL     OW35959   1.327   0.733   6.712 -0.3047  0.0712 -0.1161
 8109SOL    HW135960   1.274   0.709   6.635  1.1177 -0.9088 -0.7752
 8109SOL    HW235961   1.344   0.643   6.741 -0.2692  0.0415 -0.2291
 8110SOL     OW35962   0.417   0.581   2.563  0.2565 -0.5336  0.1081
 8110SOL    HW135963   0.416   0.574   2.467 -0.4223 -2.8211  0.2842
 8110SOL    HW235964   0.336   0.626   2.588  0.4198 -0.8909  1.2677
 8111SOL     OW35965   3.369   4.569   1.774  0.0125  0.3135 -0.1982
 8111SOL    HW135966   3.422   4.599   1.701 -1.1380  1.5285 -0.5200
 8111SOL    HW235967   3.419   4.596   1.852  0.9708  0.1900 -0.7628
 8112SOL     OW35968   2.311   3.346  11.520  0.3155 -0.1981  0.0020
 8112SOL    HW135969   2.333   3.298  11.600 -1.4443 -1.0820 -0.0486
 8112SOL    HW235970   2.219   3.320  11.512  0.3459  0.1887 -1.5321
 8113SOL     OW35971   3.026   2.856   8.366 -0.4760 -0.4018 -1.0903
 8113SOL    HW135972   3.076   2.851   8.284  0.2293 -0.9683 -0.6252
 8113SOL    HW235973   2.973   2.777   8.364  1.3391 -1.6502  0.5437
 8114SOL     OW35974   0.684   0.407  14.767  0.1757 -0.8999 -0.1579
 8114SOL    HW135975   0.712   0.364  14.686  1.3654 -0.2744 -0.0822
 8114SOL    HW235976   0.627   0.472  14.727  1.5046 -0.1880 -0.8877
 8115SOL     OW35977   4.170   3.992   2.988  0.1992  0.1170 -0.1647
 8115SOL    HW135978   4.193   3.946   3.068  0.5521  1.2798  0.4112
 8115SOL    HW235979   4.133   3.922   2.934 -1.0334 -1.5779  2.8964
 8116SOL     OW35980   3.681   2.332  10.880  0.3905  0.1738  0.3189
 8116SOL    HW135981   3.665   2.424  10.902  2.9007  0.4292  1.0928
 8116SOL    HW235982   3.645   2.281  10.952 -0.7735 -0.6068 -0.8119
 8117SOL     OW35983   0.914   1.976   4.053 -0.0058  0.6007 -0.1636
 8117SOL    HW135984   0.973   1.902   4.068 -1.2368 -0.2243  0.6763
 8117SOL    HW235985   0.876   1.995   4.139  2.5808  2.7986  0.4836
 8118SOL     OW35986   2.054   0.118   3.750 -0.0562 -0.4077 -0.8057
 8118SOL    HW135987   1.993   0.188   3.726 -2.1049 -0.8101  3.2191
 8118SOL    HW235988   2.138   0.164   3.751  0.0570 -0.6282  0.8234
 8119SOL     OW35989   4.363   0.109  10.425  0.2655 -0.3905 -0.2414
 8119SOL    HW135990   4.321   0.167  10.362  1.3140 -0.1414 -0.7110
 8119SOL    HW235991   4.443   0.160  10.434  0.4843 -0.6734 -0.5801
 8120SOL     OW35992   1.875   0.105   2.212 -0.3055 -0.6997  0.2266
 8120SOL    HW135993   1.843   0.015   2.212  0.6148 -1.0313  2.9290
 8120SOL    HW235994   1.930   0.103   2.290  2.9730  1.1318 -2.0534
 8121SOL     OW35995   2.029   1.692   1.775  0.0135 -0.2383  0.5022
 8121SOL    HW135996   2.010   1.734   1.859  0.7461 -0.5153  0.8048
 8121SOL    HW235997   2.082   1.758   1.732  0.6900 -1.6302 -0.8268
 8122SOL     OW35998   2.270   3.255  10.193  0.8663  0.4495 -0.1836
 8122SOL    HW135999   2.337   3.228  10.256 -0.7338  1.3632  1.9029
 8122SOL    HW236000   2.196   3.273  10.251  0.4845  1.3620 -0.9622
 8123SOL     OW36001   1.236   3.076   4.553  0.4024  0.2530 -0.3866
 8123SOL    HW136002   1.325   3.051   4.527 -0.0823 -1.0925 -0.7654
 8123SOL    HW236003   1.205   2.989   4.578 -0.5406 -0.5360 -4.4614
 8124SOL     OW36004   3.751   2.239   5.097 -0.4111 -0.3124  0.0013
 8124SOL    HW136005   3.658   2.251   5.116 -0.3446 -1.4651  1.0225
 8124SOL    HW236006   3.735   2.160   5.045  1.4691  0.1638 -1.3257
 8125SOL     OW36007   4.039   2.783   6.426 -0.0570 -0.2172 -0.2727
 8125SOL    HW136008   3.947   2.788   6.453  0.1681  0.5053  0.3695
 8125SOL    HW236009   4.044   2.688   6.419  0.9083 -0.3465  1.9922
 8126SOL     OW36010   3.492   4.461   3.404  0.4006  0.3386 -0.0361
 8126SOL    HW136011   3.504   4.428   3.315 -0.9208  0.6965 -0.3537
 8126SOL    HW236012   3.567   4.444   3.460  2.3937  0.4258 -2.6452
 8127SOL     OW36013   4.634   0.213  11.615 -0.0166  0.3281 -0.0166
 8127SOL    HW136014   4.565   0.228  11.679 -0.5108 -0.7531 -0.3073
 8127SOL    HW236015   4.661   0.123  11.633 -1.0217 -0.2152 -1.2072
 8128SOL     OW36016   0.728   3.331   9.794  0.2183 -0.0467  0.1081
 8128SOL    HW136017   0.700   3.410   9.746  0.7227  0.3682  0.4965
 8128SOL    HW236018   0.654   3.326   9.854  0.0561 -0.9874 -0.1755
 8129SOL     OW36019   1.296   2.084   6.305  0.0243 -0.0912  0.0511
 8129SOL    HW136020   1.266   2.000   6.273  0.3465 -0.9087  1.8808
 8129SOL    HW236021   1.255   2.093   6.391  1.6627  1.4418  0.6951
 8130SOL     OW36022   0.021   3.977   4.805 -0.0783  0.4425  0.2901
 8130SOL    HW136023   0.028   4.005   4.896 -0.2165 -0.7520  0.6647
 8130SOL    HW236024   4.658   3.975   4.800 -0.0709  1.2097 -0.0876
 8131SOL     OW36025   1.504   0.583  10.250  0.3293  0.3209 -0.3705
 8131SOL    HW136026   1.526   0.639  10.176 -0.3557  0.4180 -0.5041
 8131SOL    HW236027   1.411   0.563  10.240  0.1196  0.6151  1.0397
 8132SOL     OW36028   2.866   2.201   2.634 -1.0667 -0.2674  0.3366
 8132SOL    HW136029   2.846   2.211   2.727  2.5616  0.5950  1.0293
 8132SOL    HW236030   2.801   2.265   2.604 -1.9681 -1.0029  0.7178
 8133SOL     OW36031   4.236   3.161   1.093  0.5256  0.3444 -0.2739
 8133SOL    HW136032   4.201   3.210   1.019  0.9368 -0.2727 -0.8821
 8133SOL    HW236033   4.232   3.072   1.058  2.1803  0.8759 -1.8410
 8134SOL     OW36034   1.474   1.142   7.020  0.2061 -0.1216  0.2784
 8134SOL    HW136035   1.457   1.198   7.095 -1.7164 -0.6889  0.2546
 8134SOL    HW236036   1.454   1.058   7.062 -1.8305 -0.0392 -0.5402
 8135SOL     OW36037   3.874   0.039   2.439 -0.4561  0.6413  0.2694
 8135SOL    HW136038   3.886   0.112   2.499  0.0679 -0.0137  0.9658
 8135SOL    HW236039   3.955   4.726   2.463 -0.9557 -1.6040 -2.2599
 8136SOL     OW36040   3.525   0.070   8.314 -0.5391  0.3114  0.1848
 8136SOL    HW136041   3.556   0.069   8.223 -0.7694 -2.6529  0.1269
 8136SOL    HW236042   3.435   0.097   8.298 -1.2819 -2.3505 -0.0980
 8137SOL     OW36043   3.019   2.868   8.700  0.1643 -0.8066 -0.0419
 8137SOL    HW136044   2.956   2.813   8.654 -1.5472  1.0680  0.0387
 8137SOL    HW236045   3.033   2.825   8.784 -1.5331  1.3485  1.3471
 8138SOL     OW36046   0.785   3.796  12.692 -0.0727 -0.2790 -0.2525
 8138SOL    HW136047   0.737   3.740  12.631 -1.0104 -0.6676  0.8521
 8138SOL    HW236048   0.864   3.819  12.643 -0.9759  1.9726 -0.6393
 8139SOL     OW36049   3.951   4.436   5.247  0.2857  0.0270 -0.2361
 8139SOL    HW136050   3.965   4.461   5.156  0.9556  0.7206  0.0553
 8139SOL    HW236051   3.866   4.474   5.267  1.2678  1.5506  1.0866
 8140SOL     OW36052   0.452   1.069   8.834 -0.6088  0.4068  0.1795
 8140SOL    HW136053   0.499   1.050   8.915  1.0575 -0.7469 -1.0420
 8140SOL    HW236054   0.515   1.114   8.778  0.2181 -0.8749  0.0624
 8141SOL     OW36055   2.032   2.521   4.825  0.3663  0.1711  0.6526
 8141SOL    HW136056   1.989   2.484   4.902  1.4636 -2.4411  0.0172
 8141SOL    HW236057   2.119   2.539   4.860 -0.0130 -0.4747  1.8917
 8142SOL     OW36058   3.079   3.618   8.853 -0.7909  0.6881  0.4767
 8142SOL    HW136059   2.999   3.582   8.891 -0.0173 -1.5108  0.0442
 8142SOL    HW236060   3.103   3.553   8.787 -0.8435  2.3055 -1.1158
 8143SOL     OW36061   0.648   1.962   7.141  0.2694 -0.0894 -0.1645
 8143SOL    HW136062   0.598   2.043   7.143  1.6719  0.7405  1.2266
 8143SOL    HW236063   0.693   1.953   7.057  0.3628 -2.2375  0.1150
 8144SOL     OW36064   2.253   2.639   3.743 -0.0872 -0.0558  0.3801
 8144SOL    HW136065   2.210   2.604   3.821  0.8477 -2.5263 -0.1900
 8144SOL    HW236066   2.202   2.585   3.682 -1.2195  0.7332  0.6288
 8145SOL     OW36067   3.988   0.519   3.429  0.3555  0.2395 -0.2836
 8145SOL    HW136068   4.027   0.461   3.494 -0.6452  0.2475  0.3327
 8145SOL    HW236069   3.898   0.529   3.462  0.3327  2.0667 -0.8824
 8146SOL     OW36070   4.677   2.044  16.828  0.2910 -0.3606  0.3090
 8146SOL    HW136071   0.003   2.074  16.759 -0.3172 -2.8064 -1.2782
 8146SOL    HW236072   0.000   2.047  16.906 -0.4714  1.2042  0.7857
 8147SOL     OW36073   4.035   1.402   3.820 -0.0281  0.1546  0.6801
 8147SOL    HW136074   4.120   1.364   3.799 -0.7731 -0.4861 -1.1828
 8147SOL    HW236075   4.059   1.495   3.819  2.9218 -0.6087 -1.3636
 8148SOL     OW36076   4.635   2.149   9.259 -0.1502  0.0095  0.6141
 8148SOL    HW136077   4.709   2.103   9.298  0.1393  0.4848  0.6292
 8148SOL    HW236078   4.568   2.081   9.255 -0.1309 -0.0415  1.1183
 8149SOL     OW36079   1.158   2.588   6.184  0.0734  0.4747  0.4424
 8149SOL    HW136080   1.239   2.636   6.200  1.2935 -1.1961 -0.7107
 8149SOL    HW236081   1.085   2.649   6.184 -1.0227 -0.8468 -0.6843
 8150SOL     OW36082   0.962   0.875   8.894 -0.2840 -0.0271  0.5042
 8150SOL    HW136083   0.968   0.961   8.851  1.1528 -0.9184 -1.0650
 8150SOL    HW236084   0.933   0.900   8.981  0.0434  2.4725 -0.1093
 8151SOL     OW36085   1.783   2.752   2.024 -0.2570  0.4859  0.2850
 8151SOL    HW136086   1.822   2.784   2.106  0.1133 -0.6347  0.5431
 8151SOL    HW236087   1.709   2.813   2.019 -2.1249 -1.8949 -0.9673
 8152SOL     OW36088   2.423   0.071   8.508  0.1699 -0.5309  0.1805
 8152SOL    HW136089   2.503   0.123   8.514  1.4958 -2.6883  1.1579
 8152SOL    HW236090   2.373   0.122   8.572 -1.8387 -4.2752  1.5528
 8153SOL     OW36091   1.671   0.736   4.084  0.1597 -0.3350  1.4074
 8153SOL    HW136092   1.715   0.666   4.035 -0.6714 -0.7901  1.3095
 8153SOL    HW236093   1.626   0.678   4.145  0.3854  1.0681  2.8802
 8154SOL     OW36094   3.327   4.578  10.815 -0.5567  0.3004  0.0395
 8154SOL    HW136095   3.340   4.625  10.898  0.1613 -1.8763  1.1424
 8154SOL    HW236096   3.309   4.493  10.854  0.2647 -0.0798 -0.4230
 8155SOL     OW36097   1.660   1.799  11.564  0.1990  0.1793  0.4117
 8155SOL    HW136098   1.602   1.874  11.569 -0.9096 -0.4233 -3.6314
 8155SOL    HW236099   1.593   1.740  11.600  0.3991  0.1641  0.7591
 8156SOL     OW36100   0.916   3.453  12.614  0.2770 -0.4528  0.0780
 8156SOL    HW136101   0.849   3.460  12.681  0.6907  2.5447  0.1536
 8156SOL    HW236102   0.993   3.447  12.670  1.3530 -5.0400 -1.8934
 8157SOL     OW36103   2.583   0.589   9.991  0.0439  0.2796  0.2120
 8157SOL    HW136104   2.670   0.627   9.998  0.5616 -0.7615 -0.5054
 8157SOL    HW236105   2.585   0.536  10.071 -0.9494  0.5907  0.4379
 8158SOL     OW36106   1.121   2.658   6.947  0.0107  0.0004  0.5171
 8158SOL    HW136107   1.215   2.639   6.945  0.3270  1.4496  2.2661
 8158SOL    HW236108   1.114   2.721   6.875  0.3106 -0.5313  0.0156
 8159SOL     OW36109   0.082   4.682   6.680  0.5369  0.1705  0.2207
 8159SOL    HW136110   0.154   0.004   6.712  1.1571  0.3498 -1.4864
 8159SOL    HW236111   0.017   4.722   6.738  0.8319 -1.9352  1.9922
 8160SOL     OW36112   0.463   0.557   7.654 -0.0858  0.0032  0.5969
 8160SOL    HW136113   0.533   0.525   7.596 -1.2527  1.2069 -1.5065
 8160SOL    HW236114   0.476   0.504   7.732  0.5090  0.8406  1.0613
 8161SOL     OW36115   3.175   0.325  13.216  0.2289 -0.2748 -0.1694
 8161SOL    HW136116   3.211   0.238  13.238 -1.1360 -0.8724 -0.3110
 8161SOL    HW236117   3.089   0.312  13.177  0.6567 -0.7209 -0.9662
 8162SOL     OW36118   0.334   1.920   2.839  0.2944 -0.0674 -0.6401
 8162SOL    HW136119   0.338   1.986   2.908  3.0588 -0.4083 -0.4611
 8162SOL    HW236120   0.409   1.958   2.793 -0.2923  1.9710  0.0677
 8163SOL     OW36121   4.527   3.603   4.523 -0.4063 -0.2333 -0.1102
 8163SOL    HW136122   4.461   3.572   4.461  0.2450  0.3485 -1.0890
 8163SOL    HW236123   4.603   3.548   4.509  0.8934  1.9147 -1.5865
 8164SOL     OW36124   2.331   2.242   6.575  0.3563  0.0974 -0.2118
 8164SOL    HW136125   2.406   2.302   6.583 -1.1367  2.0698 -1.1491
 8164SOL    HW236126   2.346   2.185   6.651  1.8741  0.5488 -0.1594
 8165SOL     OW36127   1.367   0.700   9.039 -0.0253 -0.8387  0.2727
 8165SOL    HW136128   1.402   0.705   8.950 -1.0588  0.2729 -0.0808
 8165SOL    HW236129   1.278   0.665   9.037 -0.4415  0.3345 -1.9751
 8166SOL     OW36130   2.884   1.949   2.461 -0.1464  0.2018 -0.1273
 8166SOL    HW136131   2.900   2.023   2.520  0.7554 -0.3566  0.3365
 8166SOL    HW236132   2.953   1.960   2.395 -1.6096  1.8342 -1.3486
 8167SOL     OW36133   4.231   2.553  15.883 -0.3287 -0.4055  0.4716
 8167SOL    HW136134   4.149   2.580  15.843  0.0200  0.8309  0.6147
 8167SOL    HW236135   4.211   2.476  15.937 -3.9528 -0.2198 -0.6325
 8168SOL     OW36136   3.695   2.968   3.744 -0.3520 -0.1436 -0.3812
 8168SOL    HW136137   3.619   2.912   3.732  0.4003 -1.5278  1.1821
 8168SOL    HW236138   3.750   2.898   3.709  1.9147 -0.1501  3.2108
 8169SOL     OW36139   4.005   2.417   2.749  0.2899 -0.1373  0.1406
 8169SOL    HW136140   3.938   2.471   2.707 -1.0773 -0.9253  1.3234
 8169SOL    HW236141   4.084   2.470   2.740  0.5399 -0.6001 -0.4196
 8170SOL     OW36142   1.970   1.645  15.831 -0.5557  0.1441 -0.0604
 8170SOL    HW136143   1.909   1.646  15.758  0.2513 -0.2278 -0.7410
 8170SOL    HW236144   2.056   1.666  15.795  0.2775  0.5887  2.1539
 8171SOL     OW36145   2.283   0.535   8.590 -0.4312 -0.2340 -0.7301
 8171SOL    HW136146   2.214   0.575   8.643 -0.4170  1.5537 -2.0658
 8171SOL    HW236147   2.325   0.611   8.549 -0.9451  2.2775  3.4618
 8172SOL     OW36148   1.944   0.069  12.026  0.3547 -0.8719  0.0369
 8172SOL    HW136149   1.863   0.048  12.074  1.8248 -1.4959  2.2331
 8172SOL    HW236150   1.991   0.120  12.091 -0.3265  0.1004 -0.2366
 8173SOL     OW36151   3.740   2.218   6.597  0.0081  0.3490  0.1513
 8173SOL    HW136152   3.695   2.133   6.602 -1.3940  1.1568  1.4809
 8173SOL    HW236153   3.817   2.196   6.546  0.7712  0.7827  1.1163
 8174SOL     OW36154   3.128   3.888   7.216 -0.5832  0.1202  0.3921
 8174SOL    HW136155   3.081   3.805   7.224 -0.2308 -0.3554 -2.3262
 8174SOL    HW236156   3.207   3.864   7.265 -1.1163 -1.6060  0.4236
 8175SOL     OW36157   1.000   0.574   6.069  0.0946 -0.2350  0.0407
 8175SOL    HW136158   0.991   0.648   6.129  0.7723 -1.0629  1.1801
 8175SOL    HW236159   0.928   0.521   6.103  0.3167  0.8643  2.2178
 8176SOL     OW36160   4.253   1.434   9.047 -0.3437 -0.8483  0.3071
 8176SOL    HW136161   4.208   1.490   8.984  0.2810 -1.6194 -0.8072
 8176SOL    HW236162   4.230   1.475   9.131  3.0023 -0.3457  0.9560
 8177SOL     OW36163   3.802   2.388   8.518 -0.1022 -0.5999 -0.3405
 8177SOL    HW136164   3.727   2.448   8.520  0.4807  0.0563  1.9273
 8177SOL    HW236165   3.851   2.434   8.587 -2.2078  0.9874  0.1217
 8178SOL     OW36166   4.486   3.263   0.977  0.1485  0.1488 -0.4991
 8178SOL    HW136167   4.397   3.252   1.010  0.2030 -1.3385 -0.8187
 8178SOL    HW236168   4.502   3.187   0.921  0.2099 -0.2291  0.0266
 8179SOL     OW36169   2.765   2.500   4.208 -0.3855 -0.1147 -0.9299
 8179SOL    HW136170   2.860   2.487   4.211 -0.7237 -2.0873  1.5612
 8179SOL    HW236171   2.753   2.533   4.119 -1.4016 -0.5462 -0.9549
 8180SOL     OW36172   4.095   4.051   0.916 -0.7786 -0.1310  0.0463
 8180SOL    HW136173   4.091   3.960   0.945  1.5194 -0.0489  0.6450
 8180SOL    HW236174   4.024   4.064   0.853  0.1606 -0.8107 -1.1615
 8181SOL     OW36175   1.818   2.612  12.066 -0.4902  0.1772  0.5578
 8181SOL    HW136176   1.869   2.660  12.131 -0.4970 -0.4290  1.0113
 8181SOL    HW236177   1.755   2.571  12.124 -2.3396  0.9360 -0.9309
 8182SOL     OW36178   0.541   3.765   4.481 -0.0154  0.3221 -0.2350
 8182SOL    HW136179   0.637   3.765   4.475  0.0586  1.9492  0.7959
 8182SOL    HW236180   0.512   3.764   4.390 -2.5008  1.3638  0.5618
 8183SOL     OW36181   2.197   0.831   7.047 -0.2089  0.4708 -0.1197
 8183SOL    HW136182   2.109   0.809   7.078 -1.4872  0.7012 -3.6351
 8183SOL    HW236183   2.195   0.803   6.955  0.6249  1.1390 -0.3392
 8184SOL     OW36184   0.089   1.647   1.993 -0.0492  0.5269 -0.0030
 8184SOL    HW136185   0.088   1.740   1.970 -1.6077  0.5054  0.0136
 8184SOL    HW236186   0.003   1.615   2.021  0.2625 -0.9734 -0.7408
 8185SOL     OW36187   3.189   3.443   4.668  0.1051  0.3085  0.0556
 8185SOL    HW136188   3.284   3.430   4.670  0.3086  1.5663 -1.5315
 8185SOL    HW236189   3.183   3.435   4.573  1.1630  1.1952 -0.0898
 8186SOL     OW36190   3.084   2.569  10.847  0.1555  0.0213  0.0473
 8186SOL    HW136191   2.997   2.608  10.839 -0.5506 -1.7310 -0.8665
 8186SOL    HW236192   3.056   2.488  10.891  0.8710  0.1380  0.7122
 8187SOL     OW36193   1.684   2.518  17.720  0.0415  0.3062  0.6904
 8187SOL    HW136194   1.705   2.432  17.685  0.6023  0.9917 -0.6788
 8187SOL    HW236195   1.723   2.521   0.080 -1.6899 -0.1854  1.4751
 8188SOL     OW36196   1.116   0.653   4.567 -0.4659 -0.8067  0.8324
 8188SOL    HW136197   1.117   0.731   4.512  0.8619 -2.2414 -1.2019
 8188SOL    HW236198   1.037   0.605   4.540 -0.7126 -0.2780  0.6103
 8189SOL     OW36199   3.001   1.106   2.521 -0.5477  0.3426  0.2414
 8189SOL    HW136200   3.029   1.016   2.505  0.3766  0.6507  0.1097
 8189SOL    HW236201   3.061   1.160   2.469 -2.4254  1.8743 -0.3295
 8190SOL     OW36202   1.103   1.723  15.888  0.5030 -0.1656  0.1718
 8190SOL    HW136203   1.149   1.695  15.809  1.1673  1.3399  0.0294
 8190SOL    HW236204   1.015   1.718  15.849  0.6068 -0.3820 -0.0325
 8191SOL     OW36205   2.222   2.980   7.489  0.9314  0.0622 -0.0800
 8191SOL    HW136206   2.162   2.906   7.484  0.3768  0.5062 -0.0079
 8191SOL    HW236207   2.220   2.990   7.584  0.7230 -0.4304 -0.0308
 8192SOL     OW36208   1.502   4.507   7.916  0.6667 -0.6751 -0.1415
 8192SOL    HW136209   1.519   4.471   7.829  1.2509 -0.3062 -0.1813
 8192SOL    HW236210   1.503   4.424   7.962  0.0629 -1.2980 -1.2450
 8193SOL     OW36211   1.291   0.868  14.151 -0.1357  0.2938 -0.2314
 8193SOL    HW136212   1.307   0.886  14.058  1.2301  1.4531  0.2336
 8193SOL    HW236213   1.381   0.871  14.182  0.3364  0.5854 -1.6190
 8194SOL     OW36214   3.190   1.504   3.159  0.0885 -0.1224  0.1128
 8194SOL    HW136215   3.122   1.466   3.214 -0.0716  0.1452  0.0980
 8194SOL    HW236216   3.194   1.430   3.098  1.4570  0.2663 -0.2524
 8195SOL     OW36217   3.822   2.620   5.995  0.4213 -0.5266 -0.8511
 8195SOL    HW136218   3.910   2.586   6.007 -0.3617 -1.7218  1.4615
 8195SOL    HW236219   3.791   2.556   5.931 -3.1600  1.1155 -0.7495
 8196SOL     OW36220   0.101   1.349   9.231 -0.2576  0.1638 -0.4234
 8196SOL    HW136221   0.081   1.357   9.137 -1.3176  0.4059 -0.1823
 8196SOL    HW236222   0.176   1.290   9.232  1.0366  1.7664 -4.0318
 8197SOL     OW36223   2.712   0.585   7.450 -0.0859  0.5311  0.7182
 8197SOL    HW136224   2.767   0.556   7.378  0.2182  0.3916  1.0046
 8197SOL    HW236225   2.770   0.563   7.524  1.0759  0.3776 -0.2444
 8198SOL     OW36226   4.420   3.089  11.984  0.2010  0.1504 -0.4069
 8198SOL    HW136227   4.445   3.021  12.046  1.5052  2.4156  1.5527
 8198SOL    HW236228   4.326   3.095  12.001 -0.0538  0.5339 -1.9086
 8199SOL     OW36229   3.649   2.995   5.629 -0.1720 -0.6563 -0.9173
 8199SOL    HW136230   3.619   2.962   5.714  1.3215  1.3778  0.3934
 8199SOL    HW236231   3.706   3.065   5.659 -1.6712  0.1970 -0.0990
 8200SOL     OW36232   3.754   1.152   7.980  0.0773  0.0263  0.4220
 8200SOL    HW136233   3.686   1.089   8.003 -1.4562  1.5964  0.1905
 8200SOL    HW236234   3.835   1.101   7.972 -0.4443 -0.9526  1.4845
 8201SOL     OW36235   2.979   2.135  15.875  0.5211  0.6709  0.3211
 8201SOL    HW136236   3.006   2.206  15.933 -1.2076  0.3902  1.4973
 8201SOL    HW236237   3.059   2.102  15.835 -1.1259 -2.2598 -0.5966
 8202SOL     OW36238   4.627   3.298   8.900  0.1266 -0.2443  0.3125
 8202SOL    HW136239   4.661   3.226   8.846 -0.3144 -1.5877  1.8191
 8202SOL    HW236240   4.533   3.282   8.907 -0.1941  2.5643  2.1544
 8203SOL     OW36241   1.139   0.853  12.494 -0.3886 -0.2618 -0.1875
 8203SOL    HW136242   1.231   0.875  12.480 -0.7274  1.7233  0.6101
 8203SOL    HW236243   1.101   0.941  12.484  1.1240  0.5782  1.4561
 8204SOL     OW36244   3.442   1.111   1.499 -0.8057  0.6931 -0.0043
 8204SOL    HW136245   3.428   1.078   1.588 -0.2427 -1.6392 -0.7652
 8204SOL    HW236246   3.512   1.049   1.476 -3.4932 -2.8285  1.2774
 8205SOL     OW36247   3.592   1.625   7.254  0.3228  0.6700 -0.5868
 8205SOL    HW136248   3.618   1.614   7.345 -0.0641 -0.5480 -0.6259
 8205SOL    HW236249   3.561   1.536   7.238 -0.8342  1.3816 -2.3530
 8206SOL     OW36250   1.745   4.483   5.441  0.0445 -0.5706 -0.5795
 8206SOL    HW136251   1.674   4.547   5.437 -1.3352 -1.9457  1.8277
 8206SOL    HW236252   1.826   4.534   5.439 -0.0657 -0.3879 -0.3494
 8207SOL     OW36253   0.285   0.823  15.457 -0.1197 -0.7560  0.0025
 8207SOL    HW136254   0.365   0.876  15.458  0.4116 -1.5489 -0.7313
 8207SOL    HW236255   0.260   0.810  15.365 -3.2946  2.2149  0.4117
 8208SOL     OW36256   2.559   4.340   8.016  0.0575 -0.2794  0.0827
 8208SOL    HW136257   2.475   4.327   8.059  0.1453  0.4010  0.4575
 8208SOL    HW236258   2.584   4.248   8.008 -0.1908 -0.3146 -0.3098
 8209SOL     OW36259   2.888   1.251   8.289 -0.5208 -0.2629  0.6164
 8209SOL    HW136260   2.952   1.187   8.321 -0.0113  0.0897  0.2974
 8209SOL    HW236261   2.878   1.204   8.207 -0.7953  0.6066  0.1548
 8210SOL     OW36262   0.763   3.503  17.018 -0.2085  0.0101  0.0919
 8210SOL    HW136263   0.674   3.483  17.047 -0.0390 -0.9456 -0.0477
 8210SOL    HW236264   0.747   3.560  16.944  0.3676  0.2905  0.1847
 8211SOL     OW36265   1.290   1.262  17.051 -0.3525 -0.1991 -0.3239
 8211SOL    HW136266   1.202   1.272  17.016 -0.7219 -0.7331  0.4560
 8211SOL    HW236267   1.344   1.247  16.973  1.3159 -0.3770  0.8792
 8212SOL     OW36268   2.858   1.532   5.928 -0.0579  0.2803 -0.2367
 8212SOL    HW136269   2.856   1.626   5.909  0.7499 -0.1467 -2.5200
 8212SOL    HW236270   2.847   1.486   5.845  0.4926 -3.1773  1.6222
 8213SOL     OW36271   3.514   0.578   7.864 -0.2953  0.2213  0.1592
 8213SOL    HW136272   3.434   0.572   7.812 -0.4514  0.1246  0.4099
 8213SOL    HW236273   3.519   0.673   7.867  0.6030  0.2447 -2.3270
 8214SOL     OW36274   2.031   1.304  16.243  0.2318 -0.3352  0.2089
 8214SOL    HW136275   2.015   1.323  16.150  0.0196 -2.1032 -0.1156
 8214SOL    HW236276   2.114   1.350  16.254  0.6448 -1.4144  1.5357
 8215SOL     OW36277   1.213   4.350   7.170  0.0528  0.1417 -0.3469
 8215SOL    HW136278   1.208   4.427   7.227 -3.9511  0.1843 -0.7139
 8215SOL    HW236279   1.133   4.301   7.192 -0.9030  0.5773 -2.8018
 8216SOL     OW36280   2.605   1.332   1.815  0.4515  0.6204  0.1991
 8216SOL    HW136281   2.671   1.395   1.846 -0.8298  2.8622 -1.6225
 8216SOL    HW236282   2.578   1.362   1.728 -2.2508  1.1718  1.2234
 8217SOL     OW36283   3.591   4.439  10.800 -0.2936  0.4090 -0.4595
 8217SOL    HW136284   3.668   4.383  10.813 -0.9074  0.2017  2.2751
 8217SOL    HW236285   3.616   4.513  10.856  1.3051 -1.1515  0.9106
 8218SOL     OW36286   0.913   0.931   2.540 -0.4251  0.4836  0.0312
 8218SOL    HW136287   0.866   0.958   2.619 -0.8126  1.6671 -0.5918
 8218SOL    HW236288   0.858   0.877   2.483  1.0606 -0.6342 -0.3388
 8219SOL     OW36289   1.785   1.076   9.372  0.2284  0.1048  0.1003
 8219SOL    HW136290   1.857   1.014   9.384 -1.1510 -1.6292 -0.5056
 8219SOL    HW236291   1.761   1.078   9.465 -0.4141 -3.2800  0.0025
 8220SOL     OW36292   2.786   2.252  16.100  0.1970 -0.1973  0.1366
 8220SOL    HW136293   2.877   2.254  16.070  0.2268  0.0657  0.2485
 8220SOL    HW236294   2.765   2.158  16.092 -0.3150  0.0640 -1.6449
 8221SOL     OW36295   0.161   4.475   4.929 -0.1339  0.3965 -0.4243
 8221SOL    HW136296   0.119   4.544   4.878  0.0459 -0.6615 -2.0031
 8221SOL    HW236297   0.096   4.456   4.997 -0.9072  0.6719 -1.0854
 8222SOL     OW36298   0.608   0.238   7.243  0.3099  0.0999  0.1144
 8222SOL    HW136299   0.654   0.321   7.229  0.8387 -0.3104 -0.5622
 8222SOL    HW236300   0.679   0.179   7.266 -0.3323 -1.6334 -2.3941
 8223SOL     OW36301   3.783   4.602   3.498  0.2662 -0.4969  0.1311
 8223SOL    HW136302   3.862   4.653   3.515  0.2460  0.0061 -1.3617
 8223SOL    HW236303   3.767   4.613   3.405 -2.6289  1.6134  0.8714
 8224SOL     OW36304   3.011   2.404   7.394  0.3935 -0.4655  0.4506
 8224SOL    HW136305   3.103   2.410   7.371  0.7104  0.2619  1.8520
 8224SOL    HW236306   3.009   2.340   7.466 -0.9530 -1.8891 -0.8537
 8225SOL     OW36307   2.245   2.678   6.752  0.6010  0.2548  0.3715
 8225SOL    HW136308   2.290   2.714   6.675 -0.8198  1.0244 -0.1146
 8225SOL    HW236309   2.311   2.704   6.816  0.6875  1.7109 -0.2934
 8226SOL     OW36310   0.576   1.183   6.384 -0.3766 -0.2611 -0.0333
 8226SOL    HW136311   0.628   1.174   6.305  0.7389 -0.9558  0.7785
 8226SOL    HW236312   0.516   1.250   6.351  1.1663  0.9265 -0.4342
 8227SOL     OW36313   2.248   3.199   7.752  0.4230 -0.5589 -0.3714
 8227SOL    HW136314   2.215   3.284   7.781 -0.9095 -0.8359 -1.0489
 8227SOL    HW236315   2.336   3.212   7.718 -0.4394 -0.0442 -2.4096
 8228SOL     OW36316   3.640   4.267   1.853  0.1022 -0.1293  0.6803
 8228SOL    HW136317   3.679   4.213   1.783 -2.2613 -3.4016  1.9210
 8228SOL    HW236318   3.710   4.330   1.872 -1.0149  1.1685  0.5044
 8229SOL     OW36319   0.547   1.698   2.026  0.2101 -0.0255  0.0059
 8229SOL    HW136320   0.475   1.670   2.082 -1.6311  1.7106 -1.5410
 8229SOL    HW236321   0.495   1.713   1.948  1.8605 -2.5463 -1.5874
 8230SOL     OW36322   0.054   2.012   6.800  0.2031 -0.9888 -0.1261
 8230SOL    HW136323   0.071   2.000   6.893  0.4279 -1.7498 -0.2605
 8230SOL    HW236324   0.098   2.090   6.767  1.2076 -0.1070  3.3592
 8231SOL     OW36325   1.198   0.409   5.462 -0.5263  0.0298 -0.7059
 8231SOL    HW136326   1.109   0.426   5.430 -1.8243 -1.5254  2.0414
 8231SOL    HW236327   1.218   0.482   5.521  0.0293 -0.9531  0.3293
 8232SOL     OW36328   1.909   4.449   9.361 -0.0989  0.4823 -0.1284
 8232SOL    HW136329   1.825   4.408   9.382 -1.0904  1.8204 -1.4906
 8232SOL    HW236330   1.893   4.537   9.397 -1.1541 -0.3969  1.5585
 8233SOL     OW36331   3.199   1.396   5.443 -0.1262 -0.7387 -0.3759
 8233SOL    HW136332   3.257   1.399   5.366 -0.3361  1.2207 -0.4571
 8233SOL    HW236333   3.256   1.413   5.517  0.4233 -2.5740 -0.3799
 8234SOL     OW36334   1.113   4.087   1.450  0.1622 -0.0876  0.0641
 8234SOL    HW136335   1.139   4.087   1.542 -1.1281 -0.8066  0.4341
 8234SOL    HW236336   1.030   4.135   1.451  0.8493  1.0993  0.3794
 8235SOL     OW36337   3.664   2.918  11.435 -0.3553 -0.2650 -0.2101
 8235SOL    HW136338   3.662   2.999  11.487  0.3047 -0.4160  0.0454
 8235SOL    HW236339   3.759   2.920  11.424 -0.1772 -1.5746  1.0764
 8236SOL     OW36340   1.563   0.977   5.079 -0.2587 -0.3237  0.3202
 8236SOL    HW136341   1.558   1.007   4.988 -0.4738 -2.4402 -0.3586
 8236SOL    HW236342   1.481   1.019   5.105  1.5586  1.5684  2.9556
 8237SOL     OW36343   2.630   1.053   8.654 -0.0260  0.8845  0.0061
 8237SOL    HW136344   2.661   1.025   8.740 -1.8103 -0.1825  0.3137
 8237SOL    HW236345   2.671   1.139   8.644 -1.2858  1.4511 -0.2755
 8238SOL     OW36346   1.641   0.449  15.162 -0.5268  0.0513 -0.3345
 8238SOL    HW136347   1.596   0.499  15.230 -3.0855 -0.2211 -1.8481
 8238SOL    HW236348   1.708   0.513  15.137  0.8532 -0.7690  1.2426
 8239SOL     OW36349   1.296   1.862   7.616  0.2555 -0.1317 -0.2705
 8239SOL    HW136350   1.270   1.930   7.677  0.0324 -0.1986 -0.2908
 8239SOL    HW236351   1.356   1.805   7.665 -3.6360 -2.1416  2.1471
 8240SOL     OW36352   0.965   4.006   2.887 -0.0860  0.0860 -0.2836
 8240SOL    HW136353   0.915   3.929   2.859 -1.2878  1.2774 -1.4222
 8240SOL    HW236354   1.035   3.972   2.944 -2.6449 -1.2565  2.0690
 8241SOL     OW36355   4.440   2.639  11.947 -0.2397  0.1405 -0.4366
 8241SOL    HW136356   4.435   2.559  11.894  0.0684 -0.8522  1.0297
 8241SOL    HW236357   4.396   2.695  11.883 -0.4001 -0.7060 -1.0737
 8242SOL     OW36358   0.093   2.535   5.719  0.2694 -0.5404 -0.4575
 8242SOL    HW136359   0.150   2.528   5.643  1.2669  0.0087  0.2329
 8242SOL    HW236360   0.138   2.599   5.775  1.0117  1.5518 -3.4181
 8243SOL     OW36361   3.611   3.754  14.644  0.2532  0.2987 -0.0733
 8243SOL    HW136362   3.683   3.778  14.702 -0.1324 -0.0258  0.5502
 8243SOL    HW236363   3.604   3.820  14.575 -0.5559 -0.1897 -0.4676
 8244SOL     OW36364   0.449   1.019  10.653  0.1989  0.5987  0.2404
 8244SOL    HW136365   0.405   1.055  10.731  0.0713  3.1049 -0.9816
 8244SOL    HW236366   0.540   1.039  10.676  0.6630 -3.0225  1.4653
 8245SOL     OW36367   3.278   2.763   4.239 -0.1482  0.0751 -0.2016
 8245SOL    HW136368   3.209   2.734   4.180  0.9059  0.9532 -1.8568
 8245SOL    HW236369   3.302   2.847   4.200  0.9694 -0.2319 -0.1743
 8246SOL     OW36370   0.117   1.356   6.944 -0.3034 -0.1379  0.0472
 8246SOL    HW136371   0.140   1.267   6.919 -2.5476 -1.1429  1.5857
 8246SOL    HW236372   0.030   1.355   6.904 -0.6367 -4.2907  0.8368
 8247SOL     OW36373   3.703   2.551  14.603 -0.3710  0.6931 -0.4795
 8247SOL    HW136374   3.719   2.458  14.586  1.8609  1.2065 -1.1092
 8247SOL    HW236375   3.649   2.543  14.682  1.4957  0.7468  0.7850
 8248SOL     OW36376   3.479   1.252   5.941 -0.1343  0.5094  0.1663
 8248SOL    HW136377   3.530   1.265   6.021  1.5382 -1.9492 -0.5095
 8248SOL    HW236378   3.500   1.337   5.903 -0.6301  1.0502  1.1068
 8249SOL     OW36379   0.052   3.071   8.794  0.1949 -0.2100 -0.4863
 8249SOL    HW136380   0.090   3.053   8.708 -0.4585 -1.1082 -0.5866
 8249SOL    HW236381   0.087   3.004   8.853  2.6426  1.7715  0.3117
 8250SOL     OW36382   3.576   4.448  17.585 -0.2739  0.3031 -0.1887
 8250SOL    HW136383   3.604   4.539  17.584  0.1849  0.1744  1.1809
 8250SOL    HW236384   3.558   4.429  17.677  1.9373  3.1122  0.7988
 8251SOL     OW36385   4.162   3.949  14.644 -0.7016  0.3007 -0.6457
 8251SOL    HW136386   4.095   3.952  14.712  1.3481  0.0932  1.4033
 8251SOL    HW236387   4.150   3.862  14.606 -1.7553 -0.0085  0.4082
 8252SOL     OW36388   3.173   1.714   3.410  0.3503 -0.2135  0.3279
 8252SOL    HW136389   3.114   1.701   3.336  1.8897 -1.0968 -0.7214
 8252SOL    HW236390   3.105   1.763   3.457 -1.2044  0.5516 -2.7045
 8253SOL     OW36391   3.239   1.748   5.550  0.2072 -0.4766  0.0018
 8253SOL    HW136392   3.206   1.831   5.584  1.5616 -0.5421  1.4807
 8253SOL    HW236393   3.227   1.676   5.612 -1.7960 -0.2662 -0.1323
 8254SOL     OW36394   1.581   1.555   5.026  0.3241  0.1999 -0.5232
 8254SOL    HW136395   1.488   1.532   5.033  0.6040 -1.4005 -2.0950
 8254SOL    HW236396   1.618   1.478   5.069  0.0858  1.5178  2.0426
 8255SOL     OW36397   4.435   3.256   4.523  0.0023 -0.0029 -0.9684
 8255SOL    HW136398   4.446   3.269   4.617  0.3909 -0.2097 -0.9842
 8255SOL    HW236399   4.527   3.252   4.497  0.6101 -0.5534  1.2334
 8256SOL     OW36400   0.187   1.829   2.259  0.2529 -0.7118 -0.3139
 8256SOL    HW136401   0.249   1.887   2.302 -2.7104  0.5888  2.2179
 8256SOL    HW236402   0.196   1.856   2.167 -0.3709  0.7684  0.0535
 8257SOL     OW36403   0.993   0.362   8.810 -0.0083 -0.4243  0.4509
 8257SOL    HW136404   0.996   0.448   8.766 -0.6250  0.1837  1.6066
 8257SOL    HW236405   1.078   0.362   8.853  0.2971 -0.7677 -0.1553
 8258SOL     OW36406   1.144   4.587   6.148 -0.4824  0.8051  0.5058
 8258SOL    HW136407   1.230   4.597   6.107 -1.4473 -0.3104 -1.7853
 8258SOL    HW236408   1.166   4.498   6.172  0.0613  0.7580 -0.1643
 8259SOL     OW36409   4.717   0.710   5.453 -0.0817  0.2393 -0.3315
 8259SOL    HW136410   0.010   0.740   5.541  1.0902 -0.7910 -0.3172
 8259SOL    HW236411   4.623   0.705   5.470 -0.0478  1.1169  0.1207
 8260SOL     OW36412   3.279   0.929   3.834 -0.1335 -0.1186  0.5848
 8260SOL    HW136413   3.229   0.934   3.916 -0.8583  0.4930  0.1091
 8260SOL    HW236414   3.216   0.964   3.771  0.7655  1.0090  0.3086
 8261SOL     OW36415   2.778   4.574  13.205 -0.1102 -0.4199  0.4910
 8261SOL    HW136416   2.851   4.631  13.183 -0.4900 -0.7076 -1.5372
 8261SOL    HW236417   2.724   4.582  13.126  2.2093 -0.1880 -1.0763
 8262SOL     OW36418   3.830   3.325   1.520 -0.3427  0.4612 -0.2233
 8262SOL    HW136419   3.775   3.368   1.586 -2.0087  0.2201 -1.4286
 8262SOL    HW236420   3.898   3.279   1.569 -1.4221 -1.6390 -0.6947
 8263SOL     OW36421   0.281   0.350   7.040  0.6426 -0.2363  0.7735
 8263SOL    HW136422   0.352   0.371   6.979 -1.7744 -1.1264 -2.3352
 8263SOL    HW236423   0.237   0.433   7.057 -1.4086 -0.8130 -1.8369
 8264SOL     OW36424   0.272   3.085   6.944 -0.0619 -0.4157 -0.6137
 8264SOL    HW136425   0.344   3.026   6.963  1.0062  1.1100  0.1255
 8264SOL    HW236426   0.307   3.141   6.875  0.8333 -0.4347 -0.1769
 8265SOL     OW36427   0.496   0.942  16.436 -0.1138 -0.1465 -0.2142
 8265SOL    HW136428   0.480   1.010  16.501  1.5966  0.8456 -0.8270
 8265SOL    HW236429   0.428   0.877  16.452 -1.3209  1.1298 -0.1655
 8266SOL     OW36430   0.645   3.452   4.949 -0.0362  0.1131 -0.2727
 8266SOL    HW136431   0.639   3.539   4.989  1.9629  0.3569 -0.5319
 8266SOL    HW236432   0.660   3.476   4.858 -1.2816 -0.2526 -0.5827
 8267SOL     OW36433   4.607   0.653   9.523  0.2611 -0.4426 -0.0376
 8267SOL    HW136434   4.522   0.621   9.552  2.0472 -4.0696  1.1806
 8267SOL    HW236435   4.586   0.709   9.448  1.3490  0.0653  0.0359
 8268SOL     OW36436   2.484   1.510   3.817  0.2419  0.2973  0.8687
 8268SOL    HW136437   2.484   1.550   3.730 -0.0172  0.5346  0.9779
 8268SOL    HW236438   2.462   1.420   3.791 -0.8219  1.2825 -1.6517
 8269SOL     OW36439   0.088   1.454   2.249 -0.0568 -0.1390 -0.0820
 8269SOL    HW136440   0.182   1.439   2.237  0.4599  2.9960 -0.1016
 8269SOL    HW236441   0.075   1.407   2.332  2.3605 -0.0820  0.3350
 8270SOL     OW36442   1.079   3.640   9.008  0.5150 -0.3887 -0.1345
 8270SOL    HW136443   1.055   3.733   9.002  1.9113 -0.1264 -1.8594
 8270SOL    HW236444   1.058   3.621   9.099 -2.8685  1.1943 -0.5972
 8271SOL     OW36445   1.818   2.154   2.294 -0.3323 -0.3398  0.0403
 8271SOL    HW136446   1.852   2.162   2.383  1.3615  1.7468 -0.7973
 8271SOL    HW236447   1.783   2.242   2.284 -0.0651 -0.2641 -0.2248
 8272SOL     OW36448   0.884   0.301   9.137 -0.0820 -0.2602 -0.1820
 8272SOL    HW136449   0.898   0.249   9.058 -0.7151  0.9828 -1.1147
 8272SOL    HW236450   0.931   0.240   9.194  1.2796  0.7852 -0.1847
 8273SOL     OW36451   0.231   2.685   8.034  0.4485  0.1778 -0.7553
 8273SOL    HW136452   0.246   2.779   8.040 -1.6602  0.5492 -1.3617
 8273SOL    HW236453   0.238   2.669   7.940 -0.8379  0.5354 -0.9127
 8274SOL     OW36454   2.158   3.563   5.443 -0.5918 -0.1020  0.1593
 8274SOL    HW136455   2.072   3.532   5.472 -0.5033 -0.5935 -0.1051
 8274SOL    HW236456   2.171   3.641   5.497 -0.9235  0.3679 -0.4461
 8275SOL     OW36457   2.010   4.522   4.385 -0.1106  0.5499 -0.0394
 8275SOL    HW136458   2.050   4.533   4.471  0.6556 -0.8213 -0.2312
 8275SOL    HW236459   2.044   4.437   4.358 -2.0590  0.9425 -3.7396
 8276SOL     OW36460   3.771   0.830   7.154 -0.3120 -0.0995  0.4910
 8276SOL    HW136461   3.841   0.801   7.095 -2.1070 -1.8712 -0.7934
 8276SOL    HW236462   3.803   0.772   7.224 -2.0358 -0.5332  0.9261
 8277SOL     OW36463   2.108   4.447   5.441  1.0095 -0.3336  0.1982
 8277SOL    HW136464   2.159   4.501   5.502 -1.2885  3.1389 -0.9184
 8277SOL    HW236465   2.147   4.361   5.455 -2.2767 -1.5323  2.2177
 8278SOL     OW36466   0.761   2.692   5.080  0.3566 -0.0359  0.0953
 8278SOL    HW136467   0.844   2.738   5.093 -0.8393  1.9937  0.5537
 8278SOL    HW236468   0.748   2.665   5.170  0.9847  0.8452  0.4536
 8279SOL     OW36469   4.608   0.314   3.778 -0.2893  0.1523 -0.0404
 8279SOL    HW136470   4.689   0.324   3.728 -0.2451  0.3070  0.0622
 8279SOL    HW236471   4.620   0.233   3.828  0.0983 -0.6075 -1.3613
 8280SOL     OW36472   4.163   1.110   3.158 -0.0555  0.7342  0.2346
 8280SOL    HW136473   4.095   1.168   3.123  0.8870  2.1151  0.6941
 8280SOL    HW236474   4.213   1.078   3.083 -1.8614  1.1203 -1.1404
 8281SOL     OW36475   0.353   2.523   2.185  0.2143 -0.1921  0.0565
 8281SOL    HW136476   0.351   2.465   2.261 -3.9978 -1.6218 -1.1697
 8281SOL    HW236477   0.379   2.457   2.119 -0.1567 -0.2881  0.0065
 8282SOL     OW36478   3.566   2.710   4.340 -0.6300  0.4602 -0.3311
 8282SOL    HW136479   3.477   2.734   4.313 -0.4809  1.1422 -0.2314
 8282SOL    HW236480   3.615   2.781   4.296  1.5709 -1.6696 -1.3025
 8283SOL     OW36481   2.781   1.839   6.743 -0.0274 -0.0258  0.3727
 8283SOL    HW136482   2.746   1.853   6.831  2.5462 -0.2987  1.4610
 8283SOL    HW236483   2.834   1.917   6.729  1.4208 -0.9998  0.3975
 8284SOL     OW36484   4.707   2.548  15.665 -0.1184  0.4452  0.6324
 8284SOL    HW136485   4.680   2.548  15.572  1.7514  1.9792  0.0994
 8284SOL    HW236486   4.656   2.476  15.702  0.8140  0.8714  2.7397
 8285SOL     OW36487   1.172   2.395  11.310 -0.2865  0.5832  0.1846
 8285SOL    HW136488   1.142   2.306  11.329 -0.8121  0.6494 -0.3454
 8285SOL    HW236489   1.220   2.424  11.387  1.6875  0.6303 -1.0782
 8286SOL     OW36490   3.963   0.111   3.498 -0.5436  0.5723 -0.0137
 8286SOL    HW136491   3.978   0.205   3.511 -1.6180  0.3746  2.5244
 8286SOL    HW236492   3.958   0.125   3.403  0.0875 -0.6519 -0.2249
 8287SOL     OW36493   1.096   1.928  15.420  0.2064 -0.1169  0.2946
 8287SOL    HW136494   1.109   1.908  15.513 -1.1859  0.4189  0.6028
 8287SOL    HW236495   1.001   1.936  15.412  0.1159 -1.0289  0.4888
 8288SOL     OW36496   4.042   3.464   7.051  0.3155  0.1054 -0.2689
 8288SOL    HW136497   4.118   3.522   7.062 -0.5919  1.0187  1.1495
 8288SOL    HW236498   4.011   3.453   7.141  0.6072 -2.1129 -0.4378
 8289SOL     OW36499   1.882   0.604  11.255 -0.2664 -0.3371  0.3237
 8289SOL    HW136500   1.794   0.633  11.231 -0.0231  0.7074  0.7243
 8289SOL    HW236501   1.877   0.510  11.235  0.3180 -0.2071 -0.4511
 8290SOL     OW36502   1.493   1.208   4.414 -0.4864  0.2947  0.3996
 8290SOL    HW136503   1.505   1.265   4.338  1.7096 -2.1357 -1.0714
 8290SOL    HW236504   1.398   1.202   4.404 -0.4776  0.3890  0.2505
 8291SOL     OW36505   1.999   4.431  14.150 -0.3417  0.0648  0.4225
 8291SOL    HW136506   1.952   4.391  14.223 -0.9043 -0.4421 -0.2204
 8291SOL    HW236507   1.943   4.405  14.077  3.6557 -2.2547 -1.7738
 8292SOL     OW36508   1.011   3.479   6.038 -0.3782 -0.1691 -0.3263
 8292SOL    HW136509   1.064   3.441   5.967 -0.2648  0.0392 -0.3520
 8292SOL    HW236510   0.962   3.547   5.992 -0.6456  1.2547  2.0555
 8293SOL     OW36511   2.442   3.584   4.352  0.6453 -0.3152 -0.1551
 8293SOL    HW136512   2.466   3.677   4.347 -0.6533  0.0405  0.2108
 8293SOL    HW236513   2.513   3.548   4.405  1.2819 -2.5500 -2.4944
 8294SOL     OW36514   4.423   2.666  16.091 -0.8628  0.2446 -0.5309
 8294SOL    HW136515   4.337   2.640  16.056  0.3962 -0.3481 -3.1801
 8294SOL    HW236516   4.437   2.582  16.134 -0.1769  1.0852  0.8617
 8295SOL     OW36517   4.506   1.477   5.909  0.3736  0.3448  0.2314
 8295SOL    HW136518   4.515   1.563   5.867 -2.0338  0.6300  0.2664
 8295SOL    HW236519   4.444   1.444   5.844  2.1869  2.2455 -2.4805
 8296SOL     OW36520   1.618   3.974  13.564  0.2944  0.4939 -0.0904
 8296SOL    HW136521   1.657   3.964  13.651  1.1014 -2.4865 -0.7845
 8296SOL    HW236522   1.525   3.982  13.585  0.1764 -2.2383  0.4505
 8297SOL     OW36523   2.601   3.918   2.946 -0.0503  0.2259 -0.5033
 8297SOL    HW136524   2.675   3.879   2.993 -0.4825  0.3848  0.3092
 8297SOL    HW236525   2.581   3.838   2.897  1.1955  0.9503 -2.1669
 8298SOL     OW36526   3.784   3.375   3.780 -0.4702 -0.2197  0.0415
 8298SOL    HW136527   3.864   3.334   3.812 -0.8463  1.2197  2.7750
 8298SOL    HW236528   3.719   3.348   3.845 -0.6475  3.3846  1.3921
 8299SOL     OW36529   0.751   2.604   2.786 -0.1741 -0.4872  0.1711
 8299SOL    HW136530   0.702   2.685   2.776  1.5031  0.4474 -0.3284
 8299SOL    HW236531   0.691   2.543   2.744  0.1036  0.9369 -2.2855
 8300SOL     OW36532   0.502   3.833   5.520 -0.1625  0.2647 -0.4870
 8300SOL    HW136533   0.537   3.920   5.539  1.2214 -0.2437 -0.7048
 8300SOL    HW236534   0.446   3.807   5.592 -0.9172 -0.5550 -1.3689
 8301SOL     OW36535   3.295   4.616   0.477 -0.3042 -0.7836  0.9004
 8301SOL    HW136536   3.237   4.561   0.530 -1.7160  1.4532  1.6343
 8301SOL    HW236537   3.233   4.686   0.457 -0.1570 -1.0463 -0.4639
 8302SOL     OW36538   4.061   0.739  16.848  0.2259  0.0838  0.0996
 8302SOL    HW136539   4.143   0.698  16.820  1.0989 -0.6489  3.8063
 8302SOL    HW236540   4.021   0.671  16.903 -1.5757  3.1427  2.5729
 8303SOL     OW36541   3.408   2.438   2.655  0.1075  0.2434  0.0020
 8303SOL    HW136542   3.484   2.417   2.709 -1.0714 -2.3298  0.6556
 8303SOL    HW236543   3.363   2.357   2.632  0.3118  0.1678 -0.1350
 8304SOL     OW36544   4.092   4.632   2.610  0.0634 -0.0829  0.3109
 8304SOL    HW136545   4.113   4.539   2.598  1.1351  0.1751  0.1869
 8304SOL    HW236546   4.008   4.617   2.652 -0.7620  0.2910 -1.1958
 8305SOL     OW36547   2.938   3.209   7.066  0.9613 -0.1035 -0.1786
 8305SOL    HW136548   3.000   3.170   7.128 -3.2653 -0.2521  3.9331
 8305SOL    HW236549   2.889   3.128   7.050  2.9683 -0.9015 -2.3225
 8306SOL     OW36550   1.466   1.312  12.063  0.3551  0.1616 -0.4642
 8306SOL    HW136551   1.413   1.246  12.107  0.8932 -0.1283 -0.2476
 8306SOL    HW236552   1.553   1.271  12.062  0.7424  1.0125 -2.1762
 8307SOL     OW36553   1.185   1.734   0.975  0.0447 -0.3780 -0.0807
 8307SOL    HW136554   1.205   1.661   0.916 -0.1996 -0.2773 -0.2852
 8307SOL    HW236555   1.121   1.787   0.928  0.8880  1.0036  0.3295
 8308SOL     OW36556   4.267   2.522   4.873  0.0514 -0.4971 -0.3488
 8308SOL    HW136557   4.187   2.574   4.884  1.6699  1.7878  0.7526
 8308SOL    HW236558   4.328   2.596   4.873  1.8622 -1.9796 -1.1798
 8309SOL     OW36559   0.649   0.195   0.337  0.4599 -0.5000 -0.0338
 8309SOL    HW136560   0.646   0.286   0.366 -0.8164 -0.8901  1.0498
 8309SOL    HW236561   0.735   0.196   0.293 -0.9115 -0.2300 -2.7232
 8310SOL     OW36562   0.626   2.298  13.752  0.3511 -0.1135  0.0193
 8310SOL    HW136563   0.692   2.230  13.749 -0.3646 -0.8328  0.5671
 8310SOL    HW236564   0.659   2.368  13.808 -0.4245 -1.5997  2.3401
 8311SOL     OW36565   2.635   1.674   0.309 -0.1272 -0.1054  0.1321
 8311SOL    HW136566   2.656   1.588   0.272  0.7435  0.5868 -0.9694
 8311SOL    HW236567   2.559   1.662   0.367 -1.6732 -1.9103 -2.2837
 8312SOL     OW36568   2.472   2.587   4.119  0.2612  0.0715 -0.6640
 8312SOL    HW136569   2.495   2.618   4.206  0.1172 -0.9042 -0.2758
 8312SOL    HW236570   2.493   2.494   4.129  0.7094  0.3480  0.9179
 8313SOL     OW36571   4.314   0.872   4.017 -0.4122  0.5377  0.0421
 8313SOL    HW136572   4.393   0.913   4.052 -0.1074  0.0932 -0.1270
 8313SOL    HW236573   4.300   0.801   4.080 -0.5346  1.2048  0.7727
 8314SOL     OW36574   0.730   2.472   0.252  0.1147 -0.1353  0.0629
 8314SOL    HW136575   0.804   2.414   0.236  0.5379  0.0707  1.2684
 8314SOL    HW236576   0.664   2.431   0.197  2.4204 -1.9877 -1.2905
 8315SOL     OW36577   0.217   0.850  12.267 -0.2249 -0.3535  0.1333
 8315SOL    HW136578   0.188   0.937  12.295  1.4304  0.3686 -0.3902
 8315SOL    HW236579   0.283   0.873  12.202 -1.2882  0.5369 -0.6375
 8316SOL     OW36580   0.058   0.594   0.982 -0.6922 -0.4489  0.2346
 8316SOL    HW136581   0.111   0.567   1.057 -0.1774 -2.6934 -0.9466
 8316SOL    HW236582   0.108   0.564   0.906  0.3611  0.5668  0.5158
 8317SOL     OW36583   4.257   3.629   7.061 -0.1871 -0.3373 -0.3333
 8317SOL    HW136584   4.308   3.676   6.995  5.3100 -1.5314  3.0544
 8317SOL    HW236585   4.280   3.673   7.143 -0.4488  0.4033 -0.6613
 8318SOL     OW36586   2.503   1.420   9.420 -0.3913 -0.3245  0.0521
 8318SOL    HW136587   2.499   1.394   9.512  1.0074 -3.1853 -0.6785
 8318SOL    HW236588   2.421   1.383   9.387 -0.6638 -0.4075  0.8108
 8319SOL     OW36589   1.216   0.819   6.959  0.2089  0.2614 -0.1870
 8319SOL    HW136590   1.233   0.778   6.875  1.7779 -0.5397  0.5208
 8319SOL    HW236591   1.166   0.749   7.001  0.9648  0.0750  0.3960
 8320SOL     OW36592   4.467   1.651  11.511  0.3700 -0.2565 -0.6406
 8320SOL    HW136593   4.534   1.635  11.578  2.1606 -1.1280 -2.6542
 8320SOL    HW236594   4.434   1.565  11.488 -0.1300  0.2672 -1.8583
 8321SOL     OW36595   2.521   2.602  10.181  0.1390 -0.2196  0.3755
 8321SOL    HW136596   2.616   2.603  10.190  0.2634 -0.2323 -0.8377
 8321SOL    HW236597   2.509   2.602  10.086 -2.0232  0.4155  0.6548
 8322SOL     OW36598   0.586   2.473   4.125  0.3267  0.0501 -0.7412
 8322SOL    HW136599   0.589   2.550   4.069 -2.0703  0.6733  0.0049
 8322SOL    HW236600   0.495   2.446   4.115  1.4151 -3.0120 -2.7042
 8323SOL     OW36601   0.402   1.021  10.175  0.4382 -0.9174  0.3650
 8323SOL    HW136602   0.423   0.947  10.117  0.7336 -2.1657  2.0534
 8323SOL    HW236603   0.373   0.978  10.256 -3.5291 -0.6087 -0.8862
 8324SOL     OW36604   2.108   1.418   3.886 -0.1004  0.6546  0.0539
 8324SOL    HW136605   2.156   1.467   3.953 -1.4034  3.2526 -0.8751
 8324SOL    HW236606   2.070   1.350   3.941 -0.0267  0.0694 -0.6297
 8325SOL     OW36607   4.007   3.301   8.627 -0.1040  0.2232  0.1446
 8325SOL    HW136608   3.976   3.391   8.617 -1.8499 -0.2758  0.9601
 8325SOL    HW236609   4.087   3.306   8.680  0.9901  0.2139 -1.5392
 8326SOL     OW36610   1.129   4.599  13.403  0.2780 -0.2797 -0.4793
 8326SOL    HW136611   1.203   4.632  13.352 -0.5251 -0.0420 -1.4867
 8326SOL    HW236612   1.072   4.668  13.370  1.6347  0.9444 -0.3045
 8327SOL     OW36613   2.735   1.237   7.703 -0.2689 -0.7075  0.1636
 8327SOL    HW136614   2.644   1.265   7.695 -1.2170 -3.6157  0.6330
 8327SOL    HW236615   2.754   1.232   7.609 -1.4694 -0.1467 -0.1109
 8328SOL     OW36616   0.683   1.974   6.245 -0.0894 -0.4626  0.3059
 8328SOL    HW136617   0.705   2.061   6.278 -0.7392  0.3142 -1.2988
 8328SOL    HW236618   0.765   1.927   6.261  0.2625  0.1496  0.3084
 8329SOL     OW36619   3.111   1.112  12.701 -0.1149  0.5583 -0.5631
 8329SOL    HW136620   3.202   1.141  12.705  0.3312 -0.7995 -0.7246
 8329SOL    HW236621   3.107   1.133  12.608 -1.7921 -0.1248 -0.6400
 8330SOL     OW36622   1.676   0.518   4.540 -0.3943 -0.1330 -0.1363
 8330SOL    HW136623   1.759   0.473   4.556 -0.2479  0.3585  0.5079
 8330SOL    HW236624   1.701   0.602   4.578  0.0155 -0.0698 -0.5426
 8331SOL     OW36625   4.581   2.655  17.514 -0.3809  0.3134  0.1871
 8331SOL    HW136626   4.570   2.570  17.557 -0.4992  0.2796  0.0900
 8331SOL    HW236627   4.569   2.720  17.584 -0.5531  1.1541 -0.6289
 8332SOL     OW36628   0.870   1.311  14.734  0.6089 -0.0972  0.0387
 8332SOL    HW136629   0.916   1.335  14.654 -1.3317 -0.2156 -1.1061
 8332SOL    HW236630   0.939   1.262  14.779  1.2590  2.2339  1.5949
 8333SOL     OW36631   4.648   4.105  11.993  0.0271  0.1783  0.5659
 8333SOL    HW136632   4.598   4.074  12.069  0.4659 -1.6972  0.1019
 8333SOL    HW236633   4.688   4.021  11.969  1.5398  0.6727  1.4227
 8334SOL     OW36634   0.347   1.699   7.572  0.4777  0.6909 -0.6985
 8334SOL    HW136635   0.437   1.702   7.542  1.0582  1.0804  1.0937
 8334SOL    HW236636   0.327   1.606   7.585  1.8984  0.4228 -0.5219
 8335SOL     OW36637   0.763   3.169   3.993  0.4789  0.2964 -0.0354
 8335SOL    HW136638   0.782   3.244   3.936  0.5643  0.2244 -0.1009
 8335SOL    HW236639   0.676   3.146   3.961 -0.0393  1.0646  0.7885
 8336SOL     OW36640   4.420   1.583   3.326  0.3233 -0.8479 -0.2412
 8336SOL    HW136641   4.372   1.640   3.386 -0.7169 -1.6366 -0.3180
 8336SOL    HW236642   4.381   1.497   3.342 -0.8861  0.1102  1.9704
 8337SOL     OW36643   4.631   3.284  14.573  0.1491  0.6631  0.0949
 8337SOL    HW136644   4.688   3.315  14.643  2.8158 -2.0601 -0.8800
 8337SOL    HW236645   4.662   3.329  14.495 -0.7515  2.9336  1.0382
 8338SOL     OW36646   1.622   4.233  11.716 -0.0547 -0.2587 -0.0250
 8338SOL    HW136647   1.701   4.187  11.687  1.4428  2.1026  0.2514
 8338SOL    HW236648   1.648   4.325  11.726 -2.9706  0.4191  1.1714
 8339SOL     OW36649   0.838   2.773   0.703 -0.0221  0.2566 -0.2286
 8339SOL    HW136650   0.849   2.863   0.735 -0.5183  1.0774 -2.3922
 8339SOL    HW236651   0.892   2.778   0.624  1.7576  1.2014  1.0357
 8340SOL     OW36652   2.105   1.040  10.739 -0.0721  0.2073  0.2965
 8340SOL    HW136653   2.053   1.010  10.813  2.0926 -1.7711  1.0231
 8340SOL    HW236654   2.185   0.987  10.747  1.2056  2.0019 -0.5424
 8341SOL     OW36655   0.713   4.147   8.691  0.4253 -0.2704  0.1473
 8341SOL    HW136656   0.797   4.149   8.646  0.9222  1.5918  1.1185
 8341SOL    HW236657   0.700   4.242   8.689  0.1316 -0.3398 -1.1124
 8342SOL     OW36658   4.715   4.496   3.389 -0.1174  0.0777  0.1907
 8342SOL    HW136659   0.012   4.585   3.411  0.7865 -0.1383 -0.1253
 8342SOL    HW236660   4.719   4.466   3.480  1.4582 -3.0828 -0.9092
 8343SOL     OW36661   2.310   4.332   8.173 -0.1963 -0.0181  0.8171
 8343SOL    HW136662   2.337   4.324   8.264 -0.5710 -4.4612  0.5410
 8343SOL    HW236663   2.238   4.394   8.182 -1.3124 -1.3832  1.2258
 8344SOL     OW36664   1.723   0.961   7.260 -0.4210 -0.3548 -0.2479
 8344SOL    HW136665   1.706   1.047   7.223  0.6421 -0.4436 -0.9500
 8344SOL    HW236666   1.681   0.953   7.346  1.1511 -0.5124  0.5127
 8345SOL     OW36667   1.274   3.716   4.791  0.0612 -0.3671 -0.1302
 8345SOL    HW136668   1.285   3.800   4.836 -4.1242  0.0363  0.1712
 8345SOL    HW236669   1.217   3.674   4.856 -2.2009 -0.0755 -1.9311
 8346SOL     OW36670   0.771   1.497   3.099  0.6332  0.0696  0.5305
 8346SOL    HW136671   0.760   1.514   3.005 -0.0431  1.4330  0.8513
 8346SOL    HW236672   0.701   1.434   3.116  0.4048 -0.0131 -0.6532
 8347SOL     OW36673   1.370   4.148   4.248 -0.2337 -0.4600 -0.1828
 8347SOL    HW136674   1.355   4.206   4.322  0.6300 -0.6565  0.1433
 8347SOL    HW236675   1.282   4.140   4.211 -0.1173  0.5757 -0.6763
 8348SOL     OW36676   0.922   2.175   5.059  0.0852  0.1262  0.0138
 8348SOL    HW136677   0.936   2.080   5.057  2.0117  0.4334 -0.8281
 8348SOL    HW236678   0.831   2.184   5.087  0.3867  1.6140  0.5408
 8349SOL     OW36679   3.309   0.566   6.517  0.0645 -0.0790  0.1762
 8349SOL    HW136680   3.280   0.602   6.601 -2.6758  1.7031 -1.5704
 8349SOL    HW236681   3.227   0.548   6.473  0.5773 -1.6699 -0.1467
 8350SOL     OW36682   0.949   0.983   3.395  0.1196 -0.2775 -0.8679
 8350SOL    HW136683   0.919   0.903   3.353  0.6211 -1.0117  0.1723
 8350SOL    HW236684   0.903   0.986   3.479  0.3492 -0.1413 -0.7462
 8351SOL     OW36685   2.605   1.770  10.378  0.2891 -0.3168  0.1455
 8351SOL    HW136686   2.590   1.802  10.290  1.5151 -2.2539 -0.7647
 8351SOL    HW236687   2.689   1.815  10.392  1.2405 -1.9867 -0.2062
 8352SOL     OW36688   3.021   3.821  13.218 -0.1136  0.0321  0.1953
 8352SOL    HW136689   2.979   3.902  13.247  0.0990 -0.0728  0.7961
 8352SOL    HW236690   3.055   3.779  13.297  0.5753  1.5913  0.7278
 8353SOL     OW36691   3.757   0.336   0.088 -0.3572 -0.3066 -0.1339
 8353SOL    HW136692   3.800   0.415   0.054  0.3059  1.0015  3.6911
 8353SOL    HW236693   3.787   0.331   0.179  0.5447 -0.0964 -0.4224
 8354SOL     OW36694   3.033   3.345   7.580  0.4592  0.1147 -0.0650
 8354SOL    HW136695   3.027   3.256   7.546  1.3253  0.2790 -0.6531
 8354SOL    HW236696   3.060   3.327   7.670 -1.4027 -0.7857  0.3095
 8355SOL     OW36697   4.174   1.814   5.657  0.0280 -0.1317  0.2150
 8355SOL    HW136698   4.154   1.901   5.624  0.5198  0.0634  0.4209
 8355SOL    HW236699   4.217   1.777   5.580  0.4969  0.9618 -0.0529
 8356SOL     OW36700   2.785   4.106   4.950 -0.0484  0.6124 -0.0161
 8356SOL    HW136701   2.697   4.133   4.923  0.5405  2.5111  0.0265
 8356SOL    HW236702   2.786   4.148   5.036  0.2300 -1.5196  1.0379
 8357SOL     OW36703   3.536   1.501   9.839 -0.2880  0.0925 -0.0452
 8357SOL    HW136704   3.627   1.497   9.867  0.8748  0.9458 -3.6057
 8357SOL    HW236705   3.541   1.563   9.766  0.8573 -0.6127 -0.5575
 8358SOL     OW36706   3.558   1.213   4.487  0.4206 -0.5027 -0.0249
 8358SOL    HW136707   3.573   1.216   4.581 -2.6525 -1.5580  0.4831
 8358SOL    HW236708   3.644   1.185   4.454  0.9522  0.1770  0.7752
 8359SOL     OW36709   0.737   3.467  12.795 -0.0207  0.0288 -0.0786
 8359SOL    HW136710   0.761   3.442  12.884 -1.9551 -1.7508 -0.0739
 8359SOL    HW236711   0.685   3.547  12.804 -0.4761 -0.3447  0.5650
 8360SOL     OW36712   2.678   0.363   7.934  0.0040 -1.4004 -0.2038
 8360SOL    HW136713   2.758   0.415   7.922 -0.8730 -0.0044 -0.0490
 8360SOL    HW236714   2.620   0.401   7.868  0.2123  0.0941  0.4640
 8361SOL     OW36715   1.628   1.458   6.133  0.3244 -0.0694 -0.2542
 8361SOL    HW136716   1.607   1.551   6.122 -0.1626  0.3650  4.3243
 8361SOL    HW236717   1.692   1.460   6.204  1.3134 -0.2090 -1.1466
 8362SOL     OW36718   0.478   0.758   7.484 -0.0296  0.2045  0.6570
 8362SOL    HW136719   0.479   0.695   7.556 -0.9874  0.8422  1.2309
 8362SOL    HW236720   0.443   0.837   7.526 -0.2342  0.5036 -0.0907
 8363SOL     OW36721   1.556   1.351   6.669  0.2821  0.0056 -0.0291
 8363SOL    HW136722   1.473   1.321   6.708  1.0680  1.9266  3.1290
 8363SOL    HW236723   1.536   1.355   6.576 -3.5672  1.3651  0.8481
 8364SOL     OW36724   1.941   3.377   2.717 -0.1849 -0.1133  0.4360
 8364SOL    HW136725   1.906   3.350   2.632 -0.2021 -0.3187  0.5073
 8364SOL    HW236726   1.868   3.428   2.752 -0.8414 -0.4756 -0.3991
 8365SOL     OW36727   2.168   0.628   4.746 -0.2689  0.1079  0.2484
 8365SOL    HW136728   2.112   0.634   4.823 -1.4371  0.3521 -0.6190
 8365SOL    HW236729   2.118   0.580   4.679 -0.5455 -0.3907  0.8084
 8366SOL     OW36730   4.458   4.154  14.384 -0.2592 -0.6580  0.1032
 8366SOL    HW136731   4.544   4.193  14.403 -1.1898  1.2756  0.3120
 8366SOL    HW236732   4.431   4.111  14.465  0.0522  0.1677  0.6381
 8367SOL     OW36733   1.626   4.520   0.821  0.5075 -0.7843 -0.2403
 8367SOL    HW136734   1.598   4.611   0.810  1.1876 -0.5255  0.1796
 8367SOL    HW236735   1.716   4.539   0.848 -0.6956 -0.7732  3.7594
 8368SOL     OW36736   2.377   4.380   3.538 -0.4833  0.2012  0.1543
 8368SOL    HW136737   2.472   4.373   3.548 -0.5143  1.3349  1.3331
 8368SOL    HW236738   2.353   4.288   3.547 -2.5665  0.7608  0.3123
 8369SOL     OW36739   2.910   0.893   3.102 -0.0246 -0.3538 -0.3674
 8369SOL    HW136740   2.948   0.980   3.089  0.2596 -0.5749 -1.0162
 8369SOL    HW236741   2.978   0.836   3.065 -0.5194 -0.6327 -0.8349
 8370SOL     OW36742   0.572   4.700  10.507  0.4519  0.2279 -0.6783
 8370SOL    HW136743   0.593   0.034  10.442 -0.4346 -0.1001 -1.2929
 8370SOL    HW236744   0.477   4.701  10.494  0.4849 -2.4590 -1.1922
 8371SOL     OW36745   1.336   2.203  15.641  0.4921 -0.4141  0.3075
 8371SOL    HW136746   1.301   2.214  15.553 -0.4599  1.8114  0.9588
 8371SOL    HW236747   1.290   2.123  15.669 -1.2333  1.1216  1.8480
 8372SOL     OW36748   1.677   3.375   2.204 -0.3585 -0.0107  0.2646
 8372SOL    HW136749   1.657   3.348   2.115  0.5006  1.9254 -0.4983
 8372SOL    HW236750   1.628   3.458   2.205 -2.9008 -1.5019  1.3818
 8373SOL     OW36751   0.783   3.272  16.305  0.3173  0.1915  0.0837
 8373SOL    HW136752   0.830   3.354  16.318 -0.1007  0.4496 -0.0313
 8373SOL    HW236753   0.784   3.240  16.395 -1.5740  1.7828  0.6835
 8374SOL     OW36754   4.124   4.325   9.095 -0.1539 -0.2219  0.1752
 8374SOL    HW136755   4.180   4.248   9.096  1.8789  1.2219 -3.7726
 8374SOL    HW236756   4.039   4.291   9.125 -1.2517  3.0894  0.8696
 8375SOL     OW36757   1.980   1.921   7.393 -0.2532  0.2372 -0.0813
 8375SOL    HW136758   1.988   1.923   7.488 -0.4936  1.4778 -0.0879
 8375SOL    HW236759   1.957   1.829   7.377  0.0671  0.7865 -3.6117
 8376SOL     OW36760   2.817   0.925  14.538 -0.2603 -0.2506 -0.4763
 8376SOL    HW136761   2.724   0.912  14.556  0.3876 -1.0391  2.3086
 8376SOL    HW236762   2.832   0.999  14.596 -0.2416 -2.5417  2.4254
 8377SOL     OW36763   3.649   2.708   5.151  0.0225 -0.2737  0.0498
 8377SOL    HW136764   3.612   2.692   5.237 -1.3255 -2.0369 -0.8618
 8377SOL    HW236765   3.708   2.634   5.137  0.2716  0.1483 -1.1721
 8378SOL     OW36766   3.220   4.138   7.572 -1.2776 -0.0819  0.6514
 8378SOL    HW136767   3.302   4.100   7.540 -1.4531 -1.6320  2.0223
 8378SOL    HW236768   3.251   4.156   7.661 -2.0480  1.3134  0.6201
 8379SOL     OW36769   3.166   0.236  11.778 -0.0824 -0.3074 -0.5652
 8379SOL    HW136770   3.220   0.201  11.849  0.3492  4.1317  1.3221
 8379SOL    HW236771   3.107   0.162  11.766 -0.3286 -0.5252  2.0339
 8380SOL     OW36772   0.270   2.443  15.154 -0.1212  0.0655 -0.0444
 8380SOL    HW136773   0.209   2.397  15.097 -1.1576  0.4404  0.7535
 8380SOL    HW236774   0.355   2.404  15.136 -0.5051 -0.4650 -0.6921
 8381SOL     OW36775   1.717   3.634  13.426  0.2118 -0.1834  0.1086
 8381SOL    HW136776   1.735   3.727  13.438  1.4782 -0.2927 -0.9154
 8381SOL    HW236777   1.646   3.633  13.362  1.0663 -0.1980 -0.8404
 8382SOL     OW36778   0.676   4.728   3.262 -1.0252 -0.0257  0.8803
 8382SOL    HW136779   0.654   4.702   3.352  0.6788  0.9004  1.5687
 8382SOL    HW236780   0.750   0.054   3.280 -1.3631  0.1080  1.8506
 8383SOL     OW36781   2.132   2.284  12.085  0.6467  0.1897 -0.3195
 8383SOL    HW136782   2.113   2.374  12.109  1.8924  0.2078  0.5915
 8383SOL    HW236783   2.095   2.283  11.997  1.7977  3.0737 -0.8453
 8384SOL     OW36784   2.909   2.820   4.222 -0.0563 -0.3562 -0.0803
 8384SOL    HW136785   2.968   2.801   4.149 -0.1619 -1.3623  0.0999
 8384SOL    HW236786   2.946   2.775   4.298 -0.9239  0.9149  1.1025
 8385SOL     OW36787   3.514   3.368  14.009 -1.1680 -0.7081 -0.7514
 8385SOL    HW136788   3.545   3.409  14.090 -1.1574 -0.9458 -0.6342
 8385SOL    HW236789   3.421   3.389  14.011 -1.3198 -1.4360 -0.0112
 8386SOL     OW36790   4.562   2.612   7.710 -0.3814 -0.1247  0.6818
 8386SOL    HW136791   4.577   2.627   7.617 -0.8706  2.5959  1.0219
 8386SOL    HW236792   4.603   2.526   7.715 -2.6611 -1.1981  0.9459
 8387SOL     OW36793   3.820   2.013   4.946 -0.3558 -0.0615  0.0934
 8387SOL    HW136794   3.863   1.928   4.936  1.8492  1.1334 -0.3973
 8387SOL    HW236795   3.895   2.070   4.928  0.6779 -1.5231 -0.1753
 8388SOL     OW36796   1.190   4.226  10.640  0.4057 -0.4297  0.7282
 8388SOL    HW136797   1.215   4.214  10.548 -0.1184  1.7241  0.3193
 8388SOL    HW236798   1.274   4.209  10.684  0.7276  1.0647  0.6846
 8389SOL     OW36799   3.845   0.692  16.036 -0.2986  0.4605 -0.3936
 8389SOL    HW136800   3.855   0.599  16.057 -2.5423  0.0117 -1.2662
 8389SOL    HW236801   3.890   0.691  15.951  0.0674  0.3304 -0.1979
 8390SOL     OW36802   4.222   4.331   2.135  0.0262  0.9330 -0.4601
 8390SOL    HW136803   4.303   4.381   2.144  1.0986 -0.5216 -2.2591
 8390SOL    HW236804   4.263   4.256   2.092 -1.6754  0.1348 -0.6903
 8391SOL     OW36805   0.306   0.276  16.235 -0.2612  0.1874  0.0591
 8391SOL    HW136806   0.387   0.226  16.246  0.2284  0.9698  0.0197
 8391SOL    HW236807   0.277   0.245  16.149 -1.1370  2.2676 -0.3890
 8392SOL     OW36808   0.433   1.666   2.859 -0.6210 -0.4976  0.0464
 8392SOL    HW136809   0.391   1.752   2.863  2.0780  0.7685  1.0562
 8392SOL    HW236810   0.411   1.627   2.944  2.0587  0.0656  1.0006
 8393SOL     OW36811   0.947   2.359   8.211  0.0994 -0.0454  0.2539
 8393SOL    HW136812   0.945   2.284   8.269  1.0130  0.8209  1.3951
 8393SOL    HW236813   0.883   2.407   8.263 -0.8623 -2.7117  1.5292
 8394SOL     OW36814   2.697   1.704   7.104  0.0206  0.0663 -0.8170
 8394SOL    HW136815   2.704   1.783   7.049  1.1074  1.3661  1.1675
 8394SOL    HW236816   2.629   1.736   7.163  0.4234 -1.3334  0.4034
 8395SOL     OW36817   1.935   4.454   3.385  0.3560  0.0156  0.4536
 8395SOL    HW136818   1.923   4.538   3.430 -1.1786  0.4124 -0.7230
 8395SOL    HW236819   1.980   4.405   3.455  1.2545  1.0164  0.5823
 8396SOL     OW36820   3.680   3.850  12.611 -0.5020 -0.1713 -0.1464
 8396SOL    HW136821   3.700   3.828  12.702 -0.3108 -0.9241 -0.3665
 8396SOL    HW236822   3.594   3.893  12.619 -0.3285 -0.1667  1.7837
 8397SOL     OW36823   4.203   0.856   4.677  0.4797 -0.1407  0.7039
 8397SOL    HW136824   4.179   0.946   4.653  0.7383  0.1015  1.3506
 8397SOL    HW236825   4.283   0.844   4.627  1.1859  2.6395  1.1251
 8398SOL     OW36826   2.737   4.205   2.045  0.2089  0.1031  0.1776
 8398SOL    HW136827   2.779   4.224   2.128  1.8007  0.3942 -0.7056
 8398SOL    HW236828   2.798   4.153   1.992  0.2347 -1.9795  2.2400
 8399SOL     OW36829   3.100   4.000   2.684 -0.1289 -0.2413  0.5822
 8399SOL    HW136830   3.112   3.960   2.598 -1.5400 -0.3646  0.4480
 8399SOL    HW236831   3.012   3.967   2.702  0.4341 -2.7247 -1.1840
 8400SOL     OW36832   1.270   3.888   0.931  0.2373  0.2927  0.5394
 8400SOL    HW136833   1.327   3.953   0.973 -1.9084  1.4037  1.7614
 8400SOL    HW236834   1.305   3.885   0.842  0.8746 -0.2355  0.8084
 8401SOL     OW36835   4.523   3.650   9.250 -0.4779 -0.5650  0.7305
 8401SOL    HW136836   4.470   3.607   9.317 -1.9216 -1.6391 -1.1095
 8401SOL    HW236837   4.574   3.578   9.212  0.3196  0.6153 -0.4601
 8402SOL     OW36838   3.103   1.034   4.745 -0.5596  0.6469 -0.3717
 8402SOL    HW136839   3.050   1.022   4.824 -0.9624 -0.1138 -0.7548
 8402SOL    HW236840   3.037   1.045   4.676 -0.4674 -0.6405 -0.6598
 8403SOL     OW36841   0.470   4.508  13.927  0.0900  0.5396 -0.2786
 8403SOL    HW136842   0.391   4.518  13.874 -0.1370 -4.3918 -0.8866
 8403SOL    HW236843   0.496   4.599  13.919  2.7717 -0.3489 -1.7404
 8404SOL     OW36844   0.533   2.723   3.002  0.1941 -0.3216  0.5782
 8404SOL    HW136845   0.580   2.797   3.041 -0.9516 -0.2465  1.8250
 8404SOL    HW236846   0.443   2.739   3.032 -0.6880 -2.3415 -0.9862
 8405SOL     OW36847   3.107   1.201   0.150  0.2822 -0.1160 -0.1364
 8405SOL    HW136848   3.200   1.197   0.131 -0.1812 -0.7279 -2.2697
 8405SOL    HW236849   3.097   1.292   0.123  2.1110  0.4144  1.0007
 8406SOL     OW36850   1.619   2.072  10.598 -0.0916  0.2238  0.2694
 8406SOL    HW136851   1.688   2.083  10.663  0.0645 -0.7601  0.2663
 8406SOL    HW236852   1.577   2.157  10.610  1.6117  1.0607  0.3771
 8407SOL     OW36853   0.861   0.629   4.899 -0.0784 -0.1385  0.1806
 8407SOL    HW136854   0.858   0.723   4.918  1.4556 -0.0296 -0.1256
 8407SOL    HW236855   0.774   0.619   4.859  0.2250 -2.2418  0.0836
 8408SOL     OW36856   2.575   3.199  13.120  0.2738  0.2771  0.0146
 8408SOL    HW136857   2.521   3.198  13.041  1.6838 -0.8683 -0.9439
 8408SOL    HW236858   2.506   3.188  13.185  1.6120  1.3053  1.6161
 8409SOL     OW36859   0.279   1.527   6.800  0.1364  0.1280 -0.1526
 8409SOL    HW136860   0.300   1.605   6.851  1.2573 -1.4570  1.8405
 8409SOL    HW236861   0.231   1.473   6.863  1.6114 -0.6895  0.2929
 8410SOL     OW36862   1.798   0.529  10.966 -0.1337 -0.1981  0.4867
 8410SOL    HW136863   1.830   0.481  10.889 -1.9746 -0.4021 -0.1455
 8410SOL    HW236864   1.812   0.465  11.035  0.1194  0.9122  1.4579
 8411SOL     OW36865   3.302   4.276   8.745  0.1698 -0.2116 -0.3484
 8411SOL    HW136866   3.316   4.294   8.837 -2.7924  0.5325 -0.0476
 8411SOL    HW236867   3.387   4.289   8.702  1.1007 -0.0898  1.5431
 8412SOL     OW36868   0.873   4.220   1.429  0.0031  0.4985 -0.2048
 8412SOL    HW136869   0.792   4.174   1.452 -0.4658  2.1974  1.6281
 8412SOL    HW236870   0.843   4.304   1.393  1.1600  1.1515  0.3629
 8413SOL     OW36871   4.355   2.153   1.815 -0.0594  0.5910 -0.1038
 8413SOL    HW136872   4.350   2.238   1.858  1.7559  0.1415  1.0327
 8413SOL    HW236873   4.361   2.110   1.900 -0.9336  0.9459  0.1319
 8414SOL     OW36874   4.249   4.362   5.242  0.3376 -0.2435  0.1171
 8414SOL    HW136875   4.287   4.412   5.314  0.5825  0.3799 -0.4392
 8414SOL    HW236876   4.161   4.338   5.270  0.8783 -0.7542  1.3693
 8415SOL     OW36877   2.274   1.295   6.783 -0.4267  0.3268  0.0770
 8415SOL    HW136878   2.244   1.369   6.836 -2.6288 -0.0400 -0.6350
 8415SOL    HW236879   2.289   1.242   6.861  0.6458  2.8263  1.5490
 8416SOL     OW36880   2.384   4.408   4.162  0.0094 -0.7121  0.3731
 8416SOL    HW136881   2.425   4.331   4.122  1.5555 -0.0592  0.7081
 8416SOL    HW236882   2.353   4.459   4.087  1.8378  0.1655  0.2233
 8417SOL     OW36883   3.942   0.275  13.745 -0.2341  0.1014 -0.2132
 8417SOL    HW136884   3.881   0.291  13.817 -0.5797  0.4264 -0.5750
 8417SOL    HW236885   3.979   0.189  13.763  1.7711  0.8983 -0.5704
 8418SOL     OW36886   0.578   0.036   4.682  0.7205 -0.4985  0.5213
 8418SOL    HW136887   0.587   4.674   4.696 -0.8301 -0.3798  2.3239
 8418SOL    HW236888   0.651   0.064   4.626  0.8336 -1.0914  0.3789
 8419SOL     OW36889   2.448   2.662   8.464  0.1275  0.7275 -0.6783
 8419SOL    HW136890   2.488   2.605   8.399  1.9596  2.3555 -0.9840
 8419SOL    HW236891   2.528   2.678   8.513  0.2644  0.8678 -0.9461
 8420SOL     OW36892   3.364   3.188   2.978  0.2587 -0.1922 -0.6158
 8420SOL    HW136893   3.270   3.195   2.995  0.0588 -1.2855 -1.2494
 8420SOL    HW236894   3.414   3.258   3.020  0.3337  0.0714 -1.1509
 8421SOL     OW36895   4.022   3.012   1.962  0.5441  0.3890  0.7823
 8421SOL    HW136896   4.008   2.926   2.001  0.1381 -1.1120 -2.7166
 8421SOL    HW236897   3.936   3.040   1.930  1.0255 -0.1262 -0.9355
 8422SOL     OW36898   3.568   3.517  14.519  0.0653  0.0252 -0.0851
 8422SOL    HW136899   3.488   3.561  14.548 -0.8769 -0.8831 -1.2644
 8422SOL    HW236900   3.620   3.595  14.534  0.0926  0.1955 -1.0750
 8423SOL     OW36901   2.387   3.395   4.925 -0.1987  0.0100  0.0282
 8423SOL    HW136902   2.353   3.484   4.914 -2.7125 -1.0744 -1.0962
 8423SOL    HW236903   2.313   3.344   4.891  0.8144 -0.5979 -1.2282
 8424SOL     OW36904   3.263   2.192   5.188 -0.0399 -0.0740  0.1834
 8424SOL    HW136905   3.249   2.214   5.096  0.1432  1.7315  0.6020
 8424SOL    HW236906   3.175   2.166   5.216 -0.2265  0.3009 -0.0575
 8425SOL     OW36907   4.427   4.127   3.422 -0.6908  0.5023 -0.7824
 8425SOL    HW136908   4.457   4.092   3.338  2.0105  0.8446  0.0439
 8425SOL    HW236909   4.418   4.218   3.392 -0.7068 -0.0935 -2.5943
 8426SOL     OW36910   2.730   1.676   2.530 -0.3436 -0.4222  0.2451
 8426SOL    HW136911   2.665   1.739   2.499 -1.4900 -0.0185  3.5064
 8426SOL    HW236912   2.760   1.724   2.608 -2.1531 -0.2249  0.8043
 8427SOL     OW36913   4.122   2.328   5.465  0.2443  0.1805  0.0976
 8427SOL    HW136914   4.126   2.398   5.530  2.3508  1.1588 -1.1062
 8427SOL    HW236915   4.034   2.357   5.439  0.8456 -1.1384 -3.3581
 8428SOL     OW36916   1.992   2.349   2.529 -0.2535  0.1063 -0.1026
 8428SOL    HW136917   1.923   2.400   2.572  0.5804 -2.5555  4.3873
 8428SOL    HW236918   2.016   2.292   2.602 -0.0725  0.8952  0.4506
 8429SOL     OW36919   1.703   2.315   9.009  0.1134  0.3404  0.3803
 8429SOL    HW136920   1.633   2.379   9.020  1.0309  1.6184 -1.2361
 8429SOL    HW236921   1.768   2.328   9.078  0.5592 -3.4111  0.6622
 8430SOL     OW36922   2.422   0.612  16.148 -0.3970 -0.1175  0.6084
 8430SOL    HW136923   2.432   0.612  16.243 -0.3153 -0.0830  0.5992
 8430SOL    HW236924   2.335   0.571  16.149 -2.0297  3.3211 -0.1651
 8431SOL     OW36925   4.702   2.364   2.283 -0.2575  1.0910  0.3084
 8431SOL    HW136926   4.718   2.288   2.226  1.3108  1.3408  0.4012
 8431SOL    HW236927   4.695   2.437   2.221  1.6416 -0.1763 -1.4195
 8432SOL     OW36928   1.536   0.961   6.009  0.2703  0.9092  0.1751
 8432SOL    HW136929   1.628   0.956   5.984  0.1560  0.9973 -0.2659
 8432SOL    HW236930   1.534   1.056   6.017 -1.3131  0.7495  1.5966
 8433SOL     OW36931   2.397   0.120  14.941  0.0151  0.6425  0.1952
 8433SOL    HW136932   2.353   0.142  15.022 -0.5188  1.8431 -0.4252
 8433SOL    HW236933   2.328   0.141  14.878 -1.0123 -3.0186  0.0676
 8434SOL     OW36934   3.927   3.650   2.615 -0.0378 -0.6042 -0.3508
 8434SOL    HW136935   3.838   3.647   2.580 -0.3931  0.1306  0.4909
 8434SOL    HW236936   3.933   3.563   2.654 -0.7169 -0.2714  0.5163
 8435SOL     OW36937   4.539   1.229   9.901  0.0131 -0.0386  0.5064
 8435SOL    HW136938   4.536   1.290   9.975 -1.2438  1.1159 -0.4786
 8435SOL    HW236939   4.567   1.279   9.824 -2.2854  1.7534  0.8487
 8436SOL     OW36940   3.712   2.223   2.808  0.1848 -0.3339  0.7152
 8436SOL    HW136941   3.694   2.316   2.815 -1.8534 -0.7331  0.6267
 8436SOL    HW236942   3.637   2.178   2.847 -1.3000  2.6272  1.2029
 8437SOL     OW36943   0.108   0.363   4.255  0.0818 -0.3556  0.6682
 8437SOL    HW136944   0.199   0.338   4.269  0.5095  0.9569  0.2111
 8437SOL    HW236945   0.099   0.321   4.169 -0.1689 -0.4516  0.7412
 8438SOL     OW36946   4.051   2.117   1.671 -0.1754 -0.3796 -0.2457
 8438SOL    HW136947   4.049   2.028   1.708 -1.8855  0.4002  1.5727
 8438SOL    HW236948   4.141   2.140   1.694  0.0314 -0.6452 -0.8060
 8439SOL     OW36949   3.841   3.821   5.194 -0.0485 -0.0308  0.0764
 8439SOL    HW136950   3.909   3.852   5.254 -0.6110  0.6338  0.3659
 8439SOL    HW236951   3.766   3.797   5.249 -1.1257 -0.2344 -1.4577
 8440SOL     OW36952   3.765   1.139   6.146  0.1201  0.0336 -0.2125
 8440SOL    HW136953   3.747   1.232   6.163  1.5750  0.2535  0.1452
 8440SOL    HW236954   3.704   1.100   6.208  0.8012 -0.4373  0.1568
 8441SOL     OW36955   4.185   0.703   9.393 -0.6913  0.1224 -0.6291
 8441SOL    HW136956   4.092   0.708   9.413 -0.9794  0.4198 -2.0303
 8441SOL    HW236957   4.213   0.785   9.432 -1.8289 -1.7798  4.1497
 8442SOL     OW36958   1.769   3.189  14.187  0.7618  0.1084  0.3152
 8442SOL    HW136959   1.807   3.198  14.100 -0.4746 -1.4292 -0.3820
 8442SOL    HW236960   1.717   3.269  14.188 -1.3017 -1.2240 -0.3939
 8443SOL     OW36961   3.797   4.411   1.494  0.6100 -0.3200 -0.1027
 8443SOL    HW136962   3.788   4.460   1.412  2.7116  0.5224  0.1791
 8443SOL    HW236963   3.827   4.480   1.554 -1.2977  1.4665 -1.2253
 8444SOL     OW36964   3.376   0.473   6.208 -0.1467  0.1583 -0.2441
 8444SOL    HW136965   3.303   0.412   6.217 -0.1874  0.2309 -0.0865
 8444SOL    HW236966   3.329   0.557   6.215 -2.4399 -1.1275 -0.1179
 8445SOL     OW36967   3.724   3.251   4.162 -1.0308  0.0550  0.3193
 8445SOL    HW136968   3.759   3.203   4.088 -0.7261 -1.7127  1.5986
 8445SOL    HW236969   3.685   3.323   4.113 -0.9196  0.0506  0.2253
 8446SOL     OW36970   2.470   2.312   7.083 -0.3122  0.0870 -0.0989
 8446SOL    HW136971   2.488   2.287   6.992  2.4886 -0.1759  0.5289
 8446SOL    HW236972   2.540   2.375   7.101  1.1968 -1.8316  0.7943
 8447SOL     OW36973   2.358   3.345  13.624 -0.3751 -0.0482  0.2431
 8447SOL    HW136974   2.366   3.300  13.708 -0.4950  0.5147  0.5563
 8447SOL    HW236975   2.399   3.430  13.644  0.8871 -1.2278  2.6034
 8448SOL     OW36976   1.637   4.190   2.807 -0.7055 -0.0855  0.0237
 8448SOL    HW136977   1.709   4.237   2.849 -0.6385 -0.7068  0.5906
 8448SOL    HW236978   1.574   4.252   2.770 -2.0749 -0.5341  1.6301
 8449SOL     OW36979   4.721   0.920   3.989 -0.3127  0.0086  0.5484
 8449SOL    HW136980   4.644   0.918   4.046  0.4344  2.6045  1.6020
 8449SOL    HW236981   0.056   0.909   4.055  0.7106  1.5314 -0.2518
 8450SOL     OW36982   0.407   0.218  16.620 -0.3046 -0.2187  0.3473
 8450SOL    HW136983   0.441   0.173  16.697 -0.9289 -0.7801  0.2930
 8450SOL    HW236984   0.487   0.225  16.567  0.1614 -2.1105  0.7992
 8451SOL     OW36985   0.896   3.505   8.442 -0.5439  0.2154  0.0533
 8451SOL    HW136986   0.827   3.539   8.385 -2.4373 -1.4526  1.3606
 8451SOL    HW236987   0.912   3.583   8.496 -0.6647  0.5338 -0.3765
 8452SOL     OW36988   4.603   4.626   6.110  0.2601 -0.2058  0.3585
 8452SOL    HW136989   4.547   4.558   6.073  0.5030 -0.4619  0.4634
 8452SOL    HW236990   4.629   4.676   6.032 -0.3173  1.4319  1.2189
 8453SOL     OW36991   4.439   0.315   6.294 -0.3622 -0.6213  0.1324
 8453SOL    HW136992   4.527   0.338   6.324  0.0406 -0.0809 -1.4564
 8453SOL    HW236993   4.466   0.225   6.274  0.6241  0.3810 -3.0052
 8454SOL     OW36994   4.570   1.819   3.263  0.3651  0.0873 -0.4610
 8454SOL    HW136995   4.504   1.765   3.305 -0.9399  3.1786  1.4169
 8454SOL    HW236996   4.587   1.884   3.331 -0.0778 -0.3611  0.0821
 8455SOL     OW36997   2.601   0.859   2.289 -0.5553 -0.6220 -0.0452
 8455SOL    HW136998   2.672   0.899   2.240 -1.1956 -0.1684 -0.6010
 8455SOL    HW236999   2.614   0.918   2.362 -0.4779  0.3663 -0.8651
 8456SOL     OW37000   3.358   4.543   2.497  1.0074 -0.3574 -0.1378
 8456SOL    HW137001   3.451   4.527   2.479  1.1624 -0.9145  1.1314
 8456SOL    HW237002   3.370   4.584   2.583  1.3182 -3.6521  1.3962
 8457SOL     OW37003   0.845   2.497   2.509 -0.3553 -0.3584  0.0778
 8457SOL    HW137004   0.915   2.561   2.512  0.4369 -1.2315  0.1214
 8457SOL    HW237005   0.879   2.436   2.443  0.6390 -0.6877  0.9062
 8458SOL     OW37006   3.894   3.381   2.736  0.3508  0.4719  0.1426
 8458SOL    HW137007   3.966   3.322   2.758 -0.9693 -0.8699  0.8645
 8458SOL    HW237008   3.822   3.351   2.791  0.5568 -0.5842 -0.1565
 8459SOL     OW37009   1.145   2.673  15.956  0.4156 -0.2033 -0.2171
 8459SOL    HW137010   1.051   2.667  15.938  0.4796 -0.9070 -0.3151
 8459SOL    HW237011   1.163   2.766  15.941 -0.5486  0.8013  5.0193
 8460SOL     OW37012   0.302   3.695   5.376  0.0552  0.3421 -0.5236
 8460SOL    HW137013   0.231   3.759   5.380 -0.1295  0.2355 -2.0219
 8460SOL    HW237014   0.378   3.748   5.397 -0.6532  2.2443 -2.7341
 8461SOL     OW37015   4.329   1.068   2.139 -0.1086  0.6760  0.8469
 8461SOL    HW137016   4.310   1.113   2.222 -1.3720 -0.3606  1.1146
 8461SOL    HW237017   4.316   0.977   2.165  1.9422  0.3722  0.8284
 8462SOL     OW37018   1.885   1.491  10.389  0.1866 -0.0499 -0.2494
 8462SOL    HW137019   1.915   1.462  10.475 -2.6182 -1.9139  0.0964
 8462SOL    HW237020   1.805   1.542  10.404  0.1423  0.2924 -1.6184
 8463SOL     OW37021   1.359   2.536   4.340  0.4115 -0.0763 -0.0502
 8463SOL    HW137022   1.430   2.599   4.331  1.1809 -0.8279  0.7664
 8463SOL    HW237023   1.291   2.587   4.296  1.0795  0.6930 -0.1897
 8464SOL     OW37024   2.560   3.841  13.755 -0.3306 -0.9514 -0.6578
 8464SOL    HW137025   2.535   3.874  13.841  0.3435 -1.9771 -0.0736
 8464SOL    HW237026   2.518   3.898  13.690  1.3313  1.8916  0.7738
 8465SOL     OW37027   0.942   4.031  11.045  0.0230 -0.6721  0.0806
 8465SOL    HW137028   0.992   4.023  10.964  0.2533  0.5044  0.1065
 8465SOL    HW237029   1.001   3.992  11.110  0.5185  0.4276  0.2804
 8466SOL     OW37030   2.730   0.097   7.826 -0.4180  0.0546  0.2798
 8466SOL    HW137031   2.824   0.087   7.808 -0.3221 -0.0979  0.8468
 8466SOL    HW237032   2.731   0.186   7.860  1.7472  0.0474  0.2400
 8467SOL     OW37033   4.190   3.269   3.298  0.0683 -0.1132 -0.1849
 8467SOL    HW137034   4.186   3.218   3.217 -2.0489  0.8628 -0.6885
 8467SOL    HW237035   4.127   3.220   3.351  0.5787  0.1412  0.6482
 8468SOL     OW37036   3.316   2.961   6.309  0.4413 -0.4406 -0.5259
 8468SOL    HW137037   3.292   3.041   6.355 -0.1069 -1.7342  1.4173
 8468SOL    HW237038   3.377   2.914   6.366 -0.3083 -3.0735 -1.8981
 8469SOL     OW37039   3.639   2.170   8.772 -0.1975  0.2979 -0.3911
 8469SOL    HW137040   3.688   2.195   8.850  0.6314 -0.7439 -0.5765
 8469SOL    HW237041   3.643   2.075   8.787 -0.6530  0.1236 -1.3810
 8470SOL     OW37042   2.829   1.410   1.554  0.4406  0.1372 -0.3595
 8470SOL    HW137043   2.864   1.328   1.519  1.1474  0.3807 -0.2232
 8470SOL    HW237044   2.909   1.455   1.585 -0.5610 -0.5549  3.2534
 8471SOL     OW37045   0.786   4.563   2.792 -0.2730 -0.2011  0.1832
 8471SOL    HW137046   0.781   4.638   2.851 -0.5328  0.9183 -1.2582
 8471SOL    HW237047   0.755   4.608   2.713  0.6340 -1.1301 -0.6929
 8472SOL     OW37048   3.806   4.062  12.466  0.2808 -0.1777  0.2404
 8472SOL    HW137049   3.722   4.106  12.478  0.0718 -0.2580 -1.0122
 8472SOL    HW237050   3.790   3.982  12.515 -1.7294 -0.3282 -0.6832
 8473SOL     OW37051   3.849   1.504   8.941  0.1926 -0.5790  0.1809
 8473SOL    HW137052   3.765   1.461   8.959 -1.1497  1.8787 -0.1430
 8473SOL    HW237053   3.843   1.513   8.846  1.0725  1.0511  0.2895
 8474SOL     OW37054   2.555   2.270   7.805 -0.1389  0.2419  1.0136
 8474SOL    HW137055   2.476   2.249   7.755 -0.8596 -0.6106  2.4829
 8474SOL    HW237056   2.632   2.250   7.753 -1.1790  1.5474 -1.0270
 8475SOL     OW37057   3.898   2.201   9.745 -0.1512 -0.4453 -0.1798
 8475SOL    HW137058   3.870   2.148   9.820 -1.8724 -1.5546 -1.5846
 8475SOL    HW237059   3.897   2.284   9.792  0.3461 -0.9632  0.7567
 8476SOL     OW37060   0.562   4.013   2.684 -0.1048  0.1759  0.0318
 8476SOL    HW137061   0.646   4.035   2.645 -0.7348 -0.6161 -1.7766
 8476SOL    HW237062   0.520   4.099   2.683  0.5612  0.5174  1.0504
 8477SOL     OW37063   2.055   2.321  11.776  1.0557 -0.0597 -0.0409
 8477SOL    HW137064   2.062   2.410  11.741  0.9057 -0.3032 -0.6927
 8477SOL    HW237065   2.105   2.280  11.706  1.4852 -1.6349  1.1890
 8478SOL     OW37066   3.326   2.063   5.915 -0.0550 -0.5888  0.1473
 8478SOL    HW137067   3.392   2.000   5.888 -0.9767 -1.6753  0.4525
 8478SOL    HW237068   3.300   2.023   5.998 -0.6718  0.9559  0.7157
 8479SOL     OW37069   0.543   3.526   9.739  0.5564 -0.5351 -0.3809
 8479SOL    HW137070   0.530   3.606   9.688 -0.2250 -0.4201 -0.0023
 8479SOL    HW237071   0.559   3.570   9.822  0.3763 -0.3776 -0.4293
 8480SOL     OW37072   0.639   2.398   5.297 -0.4755 -0.1168  0.0980
 8480SOL    HW137073   0.687   2.471   5.334 -1.6175  0.4730  0.4144
 8480SOL    HW237074   0.594   2.370   5.377 -1.5562 -0.1629 -0.5235
 8481SOL     OW37075   0.506   1.327   3.800  0.3040 -0.9375  0.2111
 8481SOL    HW137076   0.428   1.304   3.851  1.0585 -1.4081  1.1387
 8481SOL    HW237077   0.569   1.338   3.871 -1.3441  0.5455  1.4677
 8482SOL     OW37078   0.087   4.732  10.307  0.6667 -0.1425  1.0593
 8482SOL    HW137079   0.027   4.685  10.249 -0.4608  0.3346  1.8475
 8482SOL    HW237080   0.105   0.070  10.244  0.9214 -1.3057 -0.1556
 8483SOL     OW37081   4.043   4.691   7.684  0.2345 -0.0663  0.1359
 8483SOL    HW137082   4.048   0.027   7.751  0.2675  0.5852 -0.5324
 8483SOL    HW237083   3.970   4.730   7.637  0.1154 -0.3641  0.0743
 8484SOL     OW37084   1.321   0.303   0.052  0.5148 -0.1926  0.4108
 8484SOL    HW137085   1.334   0.223   0.101 -1.5183 -2.9131 -3.4785
 8484SOL    HW237086   1.318   0.375   0.115 -0.2748 -1.1333  1.4220
 8485SOL     OW37087   2.580   1.054  13.303  0.8513  0.3246  0.0667
 8485SOL    HW137088   2.523   0.986  13.266  2.0540  0.2753 -1.6846
 8485SOL    HW237089   2.580   1.119  13.233  0.7067  1.0215  0.7185
 8486SOL     OW37090   1.346   3.821  15.354  0.1756  0.0870 -0.1701
 8486SOL    HW137091   1.437   3.836  15.328  0.2605 -1.2008 -0.6404
 8486SOL    HW237092   1.315   3.911  15.366 -1.9008 -0.8993  1.9180
 8487SOL     OW37093   4.304   0.377  15.466 -0.1065  0.2533 -0.1204
 8487SOL    HW137094   4.383   0.428  15.452  0.5425  0.1245  3.0603
 8487SOL    HW237095   4.331   0.320  15.538  4.4226 -0.8700 -2.7661
 8488SOL     OW37096   4.698   2.930   5.890  0.2693 -0.4864 -0.3226
 8488SOL    HW137097   4.680   2.891   5.805  1.7134 -0.7872 -0.5071
 8488SOL    HW237098   4.723   3.021   5.877  0.7500 -0.7341 -1.1366
 8489SOL     OW37099   0.364   1.382   7.492 -0.1223  0.6736  0.2547
 8489SOL    HW137100   0.355   1.459   7.435  0.7266 -0.0844 -0.9124
 8489SOL    HW237101   0.350   1.308   7.433  1.4629  0.4110  0.1924
 8490SOL     OW37102   1.412   3.009   4.235 -0.3693 -0.2324  0.1347
 8490SOL    HW137103   1.498   2.982   4.203 -0.1957  0.8482 -0.3037
 8490SOL    HW237104   1.451   3.050   4.312 -0.8828  1.0236 -0.2691
 8491SOL     OW37105   4.247   4.660   8.839 -0.3116 -0.0300  0.3848
 8491SOL    HW137106   4.174   4.600   8.850 -3.4765  3.7458 -0.1019
 8491SOL    HW237107   4.229   0.004   8.894  0.4669 -0.7459  1.6443
 8492SOL     OW37108   2.283   0.726   4.403  0.4834 -0.4746 -1.1148
 8492SOL    HW137109   2.234   0.807   4.407  1.2846  0.0833 -2.7804
 8492SOL    HW237110   2.248   0.680   4.480  1.0686 -1.1558 -1.2506
 8493SOL     OW37111   1.338   0.575   3.400  0.1922  0.3490 -0.4443
 8493SOL    HW137112   1.427   0.595   3.428  0.2369  1.3195 -1.3008
 8493SOL    HW237113   1.357   0.532   3.317  2.0406 -1.5529  0.9855
 8494SOL     OW37114   1.693   0.994   9.957  0.5224 -0.0723 -0.1079
 8494SOL    HW137115   1.671   1.082   9.928 -0.8800 -0.5886 -0.6227
 8494SOL    HW237116   1.775   0.972   9.913 -0.1576  0.8283 -1.8417
 8495SOL     OW37117   4.721   3.472   2.539  0.1975 -0.1523 -0.0550
 8495SOL    HW137118   0.071   3.506   2.574 -0.5442 -0.5466  2.1086
 8495SOL    HW237119   4.709   3.545   2.478 -0.7654 -1.1856 -1.0988
 8496SOL     OW37120   4.373   2.314   8.605 -0.0616  0.2774  0.3437
 8496SOL    HW137121   4.371   2.371   8.682  1.5320 -0.4106  0.8908
 8496SOL    HW237122   4.278   2.322   8.591  0.4017  3.0176 -1.3326
 8497SOL     OW37123   0.727   1.742   8.338 -0.1201  0.6116 -0.1505
 8497SOL    HW137124   0.640   1.701   8.334 -0.8103  1.9707  0.7791
 8497SOL    HW237125   0.734   1.823   8.288  1.9151 -0.6133 -1.8214
 8498SOL     OW37126   4.685   1.736   2.369  0.6384 -0.6689 -0.5470
 8498SOL    HW137127   0.043   1.742   2.337 -0.4235  2.0150 -3.0664
 8498SOL    HW237128   4.698   1.738   2.464 -1.7135 -1.3463 -0.2059
 8499SOL     OW37129   0.505   0.774   8.192  0.0169  0.2152  0.3620
 8499SOL    HW137130   0.419   0.802   8.161  0.2902 -0.8618 -1.3294
 8499SOL    HW237131   0.491   0.721   8.270  0.1064  1.7917  1.4487
 8500SOL     OW37132   3.824   1.457   5.936 -0.4068 -0.6535 -0.4485
 8500SOL    HW137133   3.842   1.497   6.021 -0.4561  0.6736 -1.0594
 8500SOL    HW237134   3.912   1.470   5.902 -0.6748 -0.3986 -1.0557
 8501SOL     OW37135   2.606   4.261   4.403 -0.1191 -1.1367  0.3369
 8501SOL    HW137136   2.677   4.256   4.468 -1.9738 -0.4310  2.4175
 8501SOL    HW237137   2.651   4.291   4.324  0.2418 -1.0886  0.5588
 8502SOL     OW37138   4.034   4.342  14.835  0.0103  0.2730  0.4390
 8502SOL    HW137139   4.095   4.412  14.859 -0.9975  1.9024 -1.7634
 8502SOL    HW237140   3.962   4.362  14.895  1.1275  1.6027  1.3201
 8503SOL     OW37141   4.126   0.442   4.892  0.0705  0.4760  0.2223
 8503SOL    HW137142   4.189   0.460   4.822 -0.5375 -0.6849 -0.6259
 8503SOL    HW237143   4.048   0.477   4.849  1.8356  0.5029 -2.9907
 8504SOL     OW37144   1.287   1.363  16.627  0.0035  0.4630 -0.0313
 8504SOL    HW137145   1.325   1.335  16.544 -2.1340  1.6945 -1.4003
 8504SOL    HW237146   1.214   1.421  16.605 -0.5207 -0.2412 -0.1337
 8505SOL     OW37147   2.422   0.069   2.878  0.3159 -0.2211  0.1932
 8505SOL    HW137148   2.500   0.014   2.883  0.4912  0.4569  4.5671
 8505SOL    HW237149   2.415   0.078   2.973  0.1176  1.1911  0.0487
 8506SOL     OW37150   3.935   2.547  14.394  0.1875 -0.1709 -0.3407
 8506SOL    HW137151   3.880   2.591  14.329  0.1302  1.1593  0.6048
 8506SOL    HW237152   3.881   2.561  14.471  3.6174  1.6638  1.7612
 8507SOL     OW37153   0.003   0.124   8.122  0.2875 -0.5768  0.0309
 8507SOL    HW137154   4.649   0.155   8.094 -0.6925 -4.1844 -0.9169
 8507SOL    HW237155   0.030   0.183   8.192  0.4144  0.2581 -0.7167
 8508SOL     OW37156   2.860   0.731   9.987 -0.2209  0.4578 -0.9043
 8508SOL    HW137157   2.935   0.675   9.965  0.0792  0.6620 -0.4027
 8508SOL    HW237158   2.888   0.813   9.947  0.1906  1.7397  2.0188
 8509SOL     OW37159   3.485   2.870   4.060  0.2024  0.8215  0.2087
 8509SOL    HW137160   3.564   2.850   4.109 -0.1836 -1.0688  0.0264
 8509SOL    HW237161   3.467   2.953   4.105  0.3193  0.2525  1.3057
 8510SOL     OW37162   4.199   2.889   7.623  0.3742  0.4479  0.3737
 8510SOL    HW137163   4.245   2.954   7.676  1.5037 -2.0499  2.4597
 8510SOL    HW237164   4.246   2.808   7.644 -0.8803 -0.3915 -0.0102
 8511SOL     OW37165   3.675   3.077   4.392 -0.4240  0.0598  0.0151
 8511SOL    HW137166   3.688   3.142   4.323  0.4000  1.4005  1.4484
 8511SOL    HW237167   3.749   3.094   4.450 -0.4894 -0.2310  0.1801
 8512SOL     OW37168   3.273   3.095   5.607 -0.0062 -0.0037  0.3265
 8512SOL    HW137169   3.213   3.091   5.681 -1.2286  2.1925 -0.5084
 8512SOL    HW237170   3.209   3.146   5.556  1.6947  1.6804 -0.1305
 8513SOL     OW37171   3.572   3.727   5.268  0.0800 -0.1945  0.6233
 8513SOL    HW137172   3.526   3.696   5.190  0.4892 -0.5935  0.5445
 8513SOL    HW237173   3.519   3.806   5.280 -0.9814 -1.0566  1.5440
 8514SOL     OW37174   0.063   1.324   1.954 -0.4934 -0.2245  0.1887
 8514SOL    HW137175   0.052   1.372   2.036 -0.2039 -0.9843  0.6707
 8514SOL    HW237176   4.703   1.302   1.939  0.0501 -1.9839 -0.5625
 8515SOL     OW37177   4.520   2.991   6.809  0.0672  0.6592 -0.5163
 8515SOL    HW137178   4.606   3.032   6.801  0.5454 -0.1787  0.2271
 8515SOL    HW237179   4.454   3.051   6.776 -2.0456 -0.5236  1.5299
 8516SOL     OW37180   3.339   4.154   2.505  0.3171  0.1561 -0.5274
 8516SOL    HW137181   3.295   4.196   2.431 -0.3616  2.0481  0.9506
 8516SOL    HW237182   3.287   4.192   2.576  2.0543 -0.3960  1.0556
 8517SOL     OW37183   1.034   4.350   7.538 -0.1831 -0.3071  0.2200
 8517SOL    HW137184   1.081   4.373   7.458 -0.3163  1.1587  0.5615
 8517SOL    HW237185   1.013   4.259   7.516  0.5554 -0.3325 -0.3829
 8518SOL     OW37186   1.362   0.115   2.654 -0.3731  0.3362  0.3043
 8518SOL    HW137187   1.323   0.179   2.594 -0.6082 -0.1405 -0.0483
 8518SOL    HW237188   1.291   0.099   2.715 -0.1891  1.9351  0.9461
 8519SOL     OW37189   3.679   0.466   3.527  0.6418  0.3044 -0.2340
 8519SOL    HW137190   3.700   0.482   3.619 -1.0655  0.3583  0.1512
 8519SOL    HW237191   3.586   0.442   3.528  0.4880  0.8498 -1.2166
 8520SOL     OW37192   3.828   3.057   2.278 -0.0107 -0.0193  0.0635
 8520SOL    HW137193   3.780   3.128   2.237  0.1619 -1.1368 -2.0745
 8520SOL    HW237194   3.759   3.018   2.331  0.5112 -3.0129 -1.4293
 8521SOL     OW37195   2.305   1.706  14.703  0.1374  0.0063 -0.2868
 8521SOL    HW137196   2.384   1.758  14.717  0.7832 -1.0774  0.0886
 8521SOL    HW237197   2.328   1.638  14.640  0.5588 -0.7262  0.6545
 8522SOL     OW37198   0.249   4.619   6.414  0.2698 -0.5888  0.1015
 8522SOL    HW137199   0.298   4.698   6.392 -0.2840 -0.5770 -1.1388
 8522SOL    HW237200   0.297   4.601   6.494  1.5271  0.9842 -0.2856
 8523SOL     OW37201   4.031   4.069   2.245 -0.1168 -0.0318 -0.3866
 8523SOL    HW137202   4.089   4.012   2.194 -1.2808 -0.6298 -1.0559
 8523SOL    HW237203   4.094   4.107   2.306 -0.0781 -1.7366  0.6117
 8524SOL     OW37204   1.036   1.081  10.733  0.4658  0.3066 -0.5793
 8524SOL    HW137205   1.021   1.161  10.783  1.6612  0.1487  0.0407
 8524SOL    HW237206   1.102   1.033  10.783  0.0618  0.6601  0.2920
 8525SOL     OW37207   2.363   0.659   9.886  0.0758  0.8635  0.0145
 8525SOL    HW137208   2.278   0.616   9.898  1.0315 -1.4683 -1.6523
 8525SOL    HW237209   2.436   0.606   9.917 -3.3011 -3.0359  1.2864
 8526SOL     OW37210   0.464   0.741   3.346 -0.2474  0.2955  0.3268
 8526SOL    HW137211   0.418   0.762   3.264 -0.5044 -1.0161  0.1288
 8526SOL    HW237212   0.396   0.708   3.405  0.9976 -0.0037  1.5944
 8527SOL     OW37213   3.628   4.620   6.821  0.4828 -0.7718  0.0007
 8527SOL    HW137214   3.661   4.695   6.771  0.9226  0.1658  1.7166
 8527SOL    HW237215   3.547   4.669   6.838  0.3080 -0.9551 -0.3116
 8528SOL     OW37216   0.003   2.249   0.608  0.5402  0.6687  0.0430
 8528SOL    HW137217   4.680   2.237   0.530 -0.0701 -1.2869  0.7627
 8528SOL    HW237218   0.076   2.305   0.582  1.3583 -0.6416 -0.5277
 8529SOL     OW37219   2.657   2.801   6.458  0.0272  0.2172 -0.2704
 8529SOL    HW137220   2.730   2.739   6.462 -1.1709 -1.2923 -1.6716
 8529SOL    HW237221   2.698   2.886   6.471  0.1294  0.4733 -2.1524
 8530SOL     OW37222   2.601   2.971  13.468  0.1529 -0.4331 -0.3880
 8530SOL    HW137223   2.664   2.997  13.401 -1.4274  2.0382 -0.9405
 8530SOL    HW237224   2.561   2.890  13.438  2.5941 -1.5681 -0.5374
 8531SOL     OW37225   2.044   0.351   7.550  0.2216 -0.8645 -0.3359
 8531SOL    HW137226   2.117   0.315   7.500 -0.3114 -0.0934 -1.6743
 8531SOL    HW237227   2.027   0.431   7.501 -1.1996  0.7424  2.7312
 8532SOL     OW37228   3.635   3.723   8.092 -0.1863  0.5716 -0.7613
 8532SOL    HW137229   3.637   3.715   8.187 -1.3490  3.5208 -0.5127
 8532SOL    HW237230   3.612   3.639   8.052  2.8624 -0.3562 -0.5548
 8533SOL     OW37231   2.020   4.141  16.682  0.1720  0.0588 -0.1496
 8533SOL    HW137232   1.984   4.222  16.719  1.6006  1.3258 -1.5197
 8533SOL    HW237233   1.966   4.071  16.719  0.6991  0.9734  2.3914
 8534SOL     OW37234   3.702   1.516   4.137 -0.1142 -0.0883 -0.2842
 8534SOL    HW137235   3.704   1.443   4.075 -0.6468 -1.8172  1.7509
 8534SOL    HW237236   3.746   1.591   4.097 -0.6939  0.2221 -0.3356
 8535SOL     OW37237   3.946   2.474   7.262  0.2066 -0.0293  0.4966
 8535SOL    HW137238   3.938   2.517   7.177  0.3967 -0.0404  0.4733
 8535SOL    HW237239   3.981   2.387   7.242  0.3245  0.2234 -0.4092
 8536SOL     OW37240   1.308   4.428   3.335  0.4245 -0.1585  0.2668
 8536SOL    HW137241   1.331   4.521   3.327 -2.9953  0.8848  2.2501
 8536SOL    HW237242   1.375   4.391   3.278 -1.2736 -1.0904 -1.1195
 8537SOL     OW37243   0.408   0.230   2.566  0.0107 -0.4681  0.0677
 8537SOL    HW137244   0.450   0.202   2.485 -1.3554  0.0343 -0.8091
 8537SOL    HW237245   0.485   0.269   2.607 -0.6929 -1.4301  2.2786
 8538SOL     OW37246   3.944   2.367   1.900 -0.4666  0.2548 -0.1454
 8538SOL    HW137247   4.025   2.419   1.901  0.6101 -1.4942  1.7479
 8538SOL    HW237248   3.951   2.337   1.990  3.4763 -0.7337 -0.7722
 8539SOL     OW37249   3.822   3.151   4.726 -0.0780 -0.0204 -0.7555
 8539SOL    HW137250   3.828   3.220   4.792 -0.0296 -0.1984 -0.5750
 8539SOL    HW237251   3.756   3.091   4.759 -0.2756 -0.5045 -2.0279
 8540SOL     OW37252   0.725   4.653   9.707  0.0058 -0.3863  0.0207
 8540SOL    HW137253   0.736   4.636   9.801 -0.7836 -1.7852 -0.1544
 8540SOL    HW237254   0.813   4.683   9.683  0.3706 -1.5818 -0.1044
 8541SOL     OW37255   2.883   0.598   3.947 -0.3899 -1.0148 -0.1258
 8541SOL    HW137256   2.883   0.655   4.023  3.6448 -1.1686 -0.0246
 8541SOL    HW237257   2.968   0.554   3.953  1.4786  2.2213 -2.7798
 8542SOL     OW37258   1.581   2.974  11.121  0.1077 -0.1466 -0.2063
 8542SOL    HW137259   1.620   3.022  11.195  1.0743  1.1678 -1.5849
 8542SOL    HW237260   1.489   2.985  11.144 -0.6429 -0.6926 -3.0681
 8543SOL     OW37261   1.874   4.155  11.655 -0.4093 -0.2461 -0.2893
 8543SOL    HW137262   1.898   4.062  11.647 -1.0309 -0.5160  1.1177
 8543SOL    HW237263   1.931   4.198  11.591 -0.8385  1.7158  0.6669
 8544SOL     OW37264   0.947   3.579   8.165 -0.3651  0.6835 -0.2207
 8544SOL    HW137265   1.013   3.633   8.208 -1.4599  0.6192  1.5419
 8544SOL    HW237266   0.879   3.642   8.142 -1.7906 -1.0964 -0.8946
 8545SOL     OW37267   3.881   4.395   3.086 -0.4428  0.3421  0.8459
 8545SOL    HW137268   3.959   4.441   3.054 -0.8017  0.5812  0.3100
 8545SOL    HW237269   3.831   4.397   3.004  1.1331  1.0739 -0.0866
 8546SOL     OW37270   0.070   3.262   4.878  0.0289  0.2551 -0.1473
 8546SOL    HW137271   0.127   3.294   4.948 -1.9007  2.3407  0.4616
 8546SOL    HW237272   0.041   3.346   4.843 -0.0009  0.7484  1.0547
 8547SOL     OW37273   2.809   2.400  15.774 -0.8318  0.1331  0.2393
 8547SOL    HW137274   2.719   2.433  15.779  0.5512  3.6364  1.0667
 8547SOL    HW237275   2.795   2.316  15.729 -1.0155  0.3654 -0.1415
 8548SOL     OW37276   4.074   0.307   4.058  0.4902 -0.1791  0.6902
 8548SOL    HW137277   4.151   0.311   4.002  0.8348 -1.0744  1.0935
 8548SOL    HW237278   4.054   0.215   4.038  0.6105  0.0157 -0.3065
 8549SOL     OW37279   1.216   2.242  15.375  0.1991  0.3417 -0.0546
 8549SOL    HW137280   1.174   2.170  15.328  4.0643 -2.3669  0.6167
 8549SOL    HW237281   1.142   2.303  15.372 -2.6616 -3.1140  0.3718
 8550SOL     OW37282   0.348   3.572   3.106 -0.6187 -0.4794 -0.0677
 8550SOL    HW137283   0.364   3.666   3.092 -2.7038  0.1277  1.5659
 8550SOL    HW237284   0.420   3.543   3.050  0.2619  2.5388 -0.5419
 8551SOL     OW37285   0.234   4.691   0.756 -0.3160 -0.0587 -0.9525
 8551SOL    HW137286   0.223   4.638   0.835  0.2639  1.8396  0.4122
 8551SOL    HW237287   0.329   4.681   0.743 -0.4040 -0.8573 -0.9713
 8552SOL     OW37288   0.321   4.645   9.503 -0.1424 -0.0327 -0.0451
 8552SOL    HW137289   0.269   4.682   9.575  1.4885 -0.7321  1.4995
 8552SOL    HW237290   0.388   4.713   9.517 -0.4486  0.1812  0.3821
 8553SOL     OW37291   3.352   1.960   7.024  0.2112 -0.0132 -0.0496
 8553SOL    HW137292   3.330   2.050   7.000 -0.0669 -0.0614  0.0269
 8553SOL    HW237293   3.270   1.939   7.067  0.0120  0.0441 -0.4025
 8554SOL     OW37294   3.963   0.554   7.040  0.2895 -0.0751  0.2355
 8554SOL    HW137295   3.952   0.547   7.135 -3.3239  1.6943 -0.0571
 8554SOL    HW237296   3.978   0.462   7.020 -2.1315 -0.3953 -0.0583
 8555SOL     OW37297   1.968   1.508   1.214 -0.0440 -0.1861  0.0209
 8555SOL    HW137298   2.044   1.452   1.232  0.9422  0.9146 -0.6960
 8555SOL    HW237299   1.976   1.570   1.287  2.2459 -1.0388  0.4787
 8556SOL     OW37300   3.014   3.080  14.511  0.0680 -0.0617  0.1458
 8556SOL    HW137301   2.992   3.053  14.600 -0.6897 -0.3848 -0.1372
 8556SOL    HW237302   2.937   3.051  14.463  0.8372  0.4953 -1.4220
 8557SOL     OW37303   3.643   2.571   5.771 -0.7489  0.3629 -0.1121
 8557SOL    HW137304   3.573   2.508   5.787 -1.5414  1.7092  1.7191
 8557SOL    HW237305   3.591   2.652   5.777 -0.9072  0.2295  0.3144
 8558SOL     OW37306   1.634   1.743   5.747 -0.4303 -0.1828 -0.6375
 8558SOL    HW137307   1.609   1.658   5.783 -1.5940  0.5054  0.1560
 8558SOL    HW237308   1.591   1.807   5.803  3.0542  1.4011  0.2241
 8559SOL     OW37309   4.373   3.817   0.437  0.0700  0.4776 -0.2320
 8559SOL    HW137310   4.312   3.869   0.489  2.0585  1.7151  0.8508
 8559SOL    HW237311   4.375   3.752   0.508  0.5838  0.2543 -0.4499
 8560SOL     OW37312   2.426   0.084   4.195  0.0730  0.1423  0.1133
 8560SOL    HW137313   2.347   0.087   4.250 -0.7769 -0.4186 -1.0874
 8560SOL    HW237314   2.471   0.007   4.229 -1.4874  0.1456  2.2083
 8561SOL     OW37315   2.129   4.119   1.532  0.4547 -0.4182 -0.4829
 8561SOL    HW137316   2.178   4.155   1.458  0.9349  1.1886  0.6248
 8561SOL    HW237317   2.144   4.180   1.603  0.2832 -0.4182 -0.4464
 8562SOL     OW37318   0.937   3.386   7.193 -0.0697  0.7848 -0.3301
 8562SOL    HW137319   1.032   3.398   7.195  0.0695 -0.1552 -1.2990
 8562SOL    HW237320   0.911   3.405   7.283  0.0113 -0.7957  0.0270
 8563SOL     OW37321   3.931   1.197  14.124 -0.0784 -0.0055  0.0786
 8563SOL    HW137322   3.962   1.258  14.057  0.2544 -2.4187 -1.9901
 8563SOL    HW237323   3.895   1.261  14.186 -0.6678  0.7908 -1.0836
 8564SOL     OW37324   2.474   0.190  11.335  0.2416 -0.0068 -0.4817
 8564SOL    HW137325   2.405   0.255  11.320  1.4783  1.0963 -1.4572
 8564SOL    HW237326   2.519   0.188  11.250  1.4928 -0.1899  0.1818
 8565SOL     OW37327   1.820   3.348  13.880 -0.8327 -0.1088  0.7438
 8565SOL    HW137328   1.787   3.417  13.821 -2.0142 -3.7288 -2.8806
 8565SOL    HW237329   1.744   3.335  13.936 -1.1368 -0.2222  0.3096
 8566SOL     OW37330   0.998   3.929  10.547  0.2596  0.2302 -0.2253
 8566SOL    HW137331   1.091   3.919  10.565  0.3814  0.7643 -0.5467
 8566SOL    HW237332   0.972   3.865  10.481  3.7200 -0.2895 -1.0307
 8567SOL     OW37333   1.539   2.996   7.021 -0.1167 -0.1415 -0.2974
 8567SOL    HW137334   1.558   2.957   6.936 -3.6817 -4.0673  0.6994
 8567SOL    HW237335   1.458   2.950   7.043  1.2053 -2.8146 -0.9354
 8568SOL     OW37336   0.710   4.013   2.048 -0.2506  0.2067 -0.2258
 8568SOL    HW137337   0.700   3.978   1.960  0.7782 -1.3932  0.2975
 8568SOL    HW237338   0.768   3.943   2.077 -0.6518 -1.0654 -2.4876
 8569SOL     OW37339   3.591   3.990   8.925 -0.8736 -0.0884 -0.3380
 8569SOL    HW137340   3.541   3.995   9.006 -0.5971  1.0122 -0.2386
 8569SOL    HW237341   3.593   3.901   8.891  0.6989 -0.0676 -0.3081
 8570SOL     OW37342   0.806   3.679  17.228 -0.5148  0.1605 -0.4796
 8570SOL    HW137343   0.801   3.619  17.154  1.7734 -0.1942 -0.3331
 8570SOL    HW237344   0.753   3.750  17.191 -3.5591 -1.0537  1.5233
 8571SOL     OW37345   4.731   3.221   6.478 -0.0329 -0.2500 -0.2814
 8571SOL    HW137346   4.672   3.147   6.468  0.2200 -0.3358 -1.1014
 8571SOL    HW237347   4.678   3.282   6.427  1.3507  0.8444 -0.4448
 8572SOL     OW37348   0.020   3.870   6.126 -0.6314  0.4250  0.6614
 8572SOL    HW137349   0.056   3.789   6.161  0.1426 -0.2323 -1.6805
 8572SOL    HW237350   0.080   3.934   6.166  0.4449 -0.1251 -0.0951
 8573SOL     OW37351   1.261   2.547   1.809 -0.4682  0.0083 -0.0771
 8573SOL    HW137352   1.167   2.557   1.794 -0.6642 -0.7902  0.6244
 8573SOL    HW237353   1.274   2.465   1.762  0.5823 -0.6174  1.2941
 8574SOL     OW37354   2.627   0.824   7.021 -0.0642  0.1868 -0.1627
 8574SOL    HW137355   2.629   0.898   6.960 -0.7033 -0.6337 -1.1726
 8574SOL    HW237356   2.713   0.790   6.998 -0.5722 -1.1219 -0.1173
 8575SOL     OW37357   0.890   4.300   7.265 -0.1762  0.1690  0.4456
 8575SOL    HW137358   0.925   4.220   7.303  2.1295  1.4801  1.0543
 8575SOL    HW237359   0.800   4.269   7.252 -0.6424  0.7145  2.3313
 8576SOL     OW37360   2.585   4.522   0.755 -0.2233 -0.5586  0.2487
 8576SOL    HW137361   2.654   4.577   0.716 -0.8218  1.4886  2.0527
 8576SOL    HW237362   2.638   4.465   0.810 -0.9601 -2.7573 -1.3495
 8577SOL     OW37363   0.685   2.079  10.524  0.2076 -0.1639  0.3582
 8577SOL    HW137364   0.766   2.028  10.526 -1.0362 -2.1959 -1.3069
 8577SOL    HW237365   0.707   2.153  10.467  0.0521  1.1825  2.0334
 8578SOL     OW37366   4.488   4.037   3.922  0.1144  0.3481 -0.1002
 8578SOL    HW137367   4.400   4.007   3.946 -0.6300  1.3852 -1.4939
 8578SOL    HW237368   4.515   3.952   3.889  0.9650  0.2549  0.8645
 8579SOL     OW37369   1.616   4.526   4.118  0.6965 -0.7495 -0.0588
 8579SOL    HW137370   1.634   4.613   4.153 -0.6560 -0.9502  1.1020
 8579SOL    HW237371   1.670   4.477   4.180  0.6873 -0.6445  0.0305
 8580SOL     OW37372   4.017   0.619   2.542 -0.0281 -0.1580  0.3413
 8580SOL    HW137373   4.035   0.661   2.627  1.2119  1.5272 -0.7577
 8580SOL    HW237374   4.101   0.581   2.519  0.0832 -0.0685  0.5993
 8581SOL     OW37375   3.589   3.461   8.442  0.3636  0.2075  0.8814
 8581SOL    HW137376   3.596   3.391   8.377 -1.3237  0.5833  0.2872
 8581SOL    HW237377   3.667   3.514   8.427  0.0897  0.7508  1.3811
 8582SOL     OW37378   1.377   4.340   8.975  0.4039 -0.6975 -0.1467
 8582SOL    HW137379   1.409   4.376   9.058  0.8979 -0.7016 -0.3330
 8582SOL    HW237380   1.453   4.289   8.947  0.0201 -0.9840 -0.6715
 8583SOL     OW37381   4.237   3.202   9.678  0.2026  0.5021  0.4099
 8583SOL    HW137382   4.316   3.249   9.652  0.9160  0.0218  1.7358
 8583SOL    HW237383   4.207   3.244   9.758  2.0446 -2.8408  2.8913
 8584SOL     OW37384   1.204   1.950  15.717 -0.4312 -0.0315  0.0016
 8584SOL    HW137385   1.183   1.924  15.807 -0.9311 -0.8173 -0.3429
 8584SOL    HW237386   1.224   1.862  15.685 -0.4116 -0.3665  0.9148
 8585SOL     OW37387   2.795   0.028   4.036 -0.3970  0.3780  0.0673
 8585SOL    HW137388   2.820   0.052   4.125  1.9254 -0.6320 -0.3057
 8585SOL    HW237389   2.876   4.716   4.010 -1.3570 -0.9185 -0.7079
 8586SOL     OW37390   3.264   1.206   0.407 -0.7306  0.5604  0.1461
 8586SOL    HW137391   3.260   1.130   0.349 -0.5274  1.6067 -1.2079
 8586SOL    HW237392   3.301   1.278   0.357 -0.4013  1.3282  1.4766
 8587SOL     OW37393   3.615   1.090  17.318 -0.4242 -0.2071 -0.0460
 8587SOL    HW137394   3.654   1.044  17.244  0.2113 -0.2742  0.3335
 8587SOL    HW237395   3.691   1.106  17.374 -1.3742  0.6772  0.9830
 8588SOL     OW37396   3.166   1.666  14.934  0.0015  0.0653 -0.5079
 8588SOL    HW137397   3.190   1.715  14.855  2.5311  1.6830  1.2398
 8588SOL    HW237398   3.250   1.636  14.970 -0.7618 -2.0772 -0.5174
 8589SOL     OW37399   0.770   1.487   3.514 -0.0645  0.6211 -0.6453
 8589SOL    HW137400   0.839   1.460   3.454 -2.5306 -0.4517 -3.0064
 8589SOL    HW237401   0.722   1.538   3.449  0.0201  1.9931  0.3600
 8590SOL     OW37402   2.149   4.584   5.996 -0.3571  0.1939  0.2739
 8590SOL    HW137403   2.064   4.625   5.984 -0.3616 -0.2208 -1.1367
 8590SOL    HW237404   2.110   4.497   6.006 -0.3674  0.3175  1.2773
 8591SOL     OW37405   4.718   1.235  17.265 -0.2710 -0.1139 -0.3880
 8591SOL    HW137406   4.664   1.248  17.343 -2.0061 -2.1814 -1.2217
 8591SOL    HW237407   4.651   1.215  17.200  1.1523 -1.2686 -1.5042
 8592SOL     OW37408   3.868   3.739   3.950  0.3952 -0.2154  0.5324
 8592SOL    HW137409   3.837   3.790   4.025  1.0537  0.4835  0.3316
 8592SOL    HW237410   3.794   3.720   3.893 -0.2927 -0.1888  1.4351
 8593SOL     OW37411   1.204   1.535   1.773  0.1156 -0.2294  0.5421
 8593SOL    HW137412   1.182   1.617   1.728  1.9935 -0.4084 -0.7058
 8593SOL    HW237413   1.233   1.483   1.699 -1.1933  0.7915 -0.6927
 8594SOL     OW37414   0.455   4.702   7.164  0.7771 -0.2216 -0.9096
 8594SOL    HW137415   0.453   4.682   7.070 -3.8920  0.0473 -0.8418
 8594SOL    HW237416   0.497   0.056   7.171 -1.0711  0.3276  3.0078
 8595SOL     OW37417   2.949   4.694   4.331  0.6657 -0.0605  0.5217
 8595SOL    HW137418   2.982   4.612   4.369  0.3659  0.0750  1.0697
 8595SOL    HW237419   2.995   4.684   4.247 -1.3655 -0.9218 -0.5006
 8596SOL     OW37420   2.147   0.336   3.593 -0.2563  0.3367  0.1458
 8596SOL    HW137421   2.123   0.422   3.560 -0.3724 -0.1086 -0.9351
 8596SOL    HW237422   2.185   0.306   3.510 -0.0050  0.1460  0.3287
 8597SOL     OW37423   2.440   4.688   6.361  0.2174 -0.2365  0.0519
 8597SOL    HW137424   2.384   0.032   6.346 -2.1320 -1.8136  0.8458
 8597SOL    HW237425   2.409   4.658   6.447  1.1815 -2.2529 -0.3097
 8598SOL     OW37426   0.244   4.024   4.358 -0.7163 -0.2452  0.4482
 8598SOL    HW137427   0.254   4.069   4.443  1.4757  3.3594 -1.7185
 8598SOL    HW237428   0.167   3.969   4.371 -1.3076  0.7162  1.0307
 8599SOL     OW37429   1.172   2.725  14.622 -0.2019 -0.1128 -0.1732
 8599SOL    HW137430   1.257   2.690  14.596  0.3221  1.0705 -0.0037
 8599SOL    HW237431   1.199   2.806  14.664 -1.4952 -0.2162  0.8541
 8600SOL     OW37432   4.568   4.565  10.880  0.1784  0.2053  0.4275
 8600SOL    HW137433   4.509   4.570  10.806  1.8244 -2.1143 -1.0223
 8600SOL    HW237434   4.548   4.641  10.935 -1.2486  0.3986 -0.3767
 8601SOL     OW37435   4.476   0.245  15.648 -0.1320 -1.2487  0.1465
 8601SOL    HW137436   4.474   0.153  15.620 -0.1774 -0.8829 -1.0522
 8601SOL    HW237437   4.519   0.236  15.733 -3.9118 -1.5219  2.0163
 8602SOL     OW37438   3.548   1.904   6.171 -0.2112  0.1792 -0.2716
 8602SOL    HW137439   3.518   1.839   6.235 -1.0454  0.4728 -0.3602
 8602SOL    HW237440   3.465   1.949   6.155 -0.3752  0.7286  2.2094
 8603SOL     OW37441   2.127   4.096  12.781  0.2928  0.6954 -0.1412
 8603SOL    HW137442   2.147   4.025  12.841 -0.4475 -0.6740 -1.5174
 8603SOL    HW237443   2.057   4.050  12.735 -1.6197  1.2079  2.2189
 8604SOL     OW37444   1.494   0.799   4.369  0.8403 -0.0923  0.1121
 8604SOL    HW137445   1.531   0.713   4.350  2.1808  0.4917  0.0327
 8604SOL    HW237446   1.422   0.801   4.306  1.0173  0.2688 -0.0853
 8605SOL     OW37447   1.057   1.835  13.358 -0.1521 -0.9401  0.4757
 8605SOL    HW137448   1.085   1.757  13.407 -1.3662 -2.0047 -0.5200
 8605SOL    HW237449   1.046   1.784  13.278  2.4890 -1.0073  0.1546
 8606SOL     OW37450   4.723   4.313  17.670  0.3117  0.1507 -1.1006
 8606SOL    HW137451   4.719   4.407  17.656  3.3905  0.4709  0.3212
 8606SOL    HW237452   0.085   4.303  17.652 -0.2375 -3.2349 -2.2070
 8607SOL     OW37453   1.479   2.645   4.050  0.4408 -0.2360 -0.2211
 8607SOL    HW137454   1.474   2.672   4.142  1.6742 -1.2489  0.1323
 8607SOL    HW237455   1.574   2.649   4.040  0.2406  1.9192 -1.2569
 8608SOL     OW37456   2.800   3.740   6.900  0.8718  0.3702  0.2803
 8608SOL    HW137457   2.877   3.794   6.881  0.4012  0.9151 -0.0670
 8608SOL    HW237458   2.806   3.736   6.996 -0.7513 -2.6401  0.2607
 8609SOL     OW37459   1.763   0.453   4.021  0.5349  0.1471 -0.4006
 8609SOL    HW137460   1.685   0.435   3.968  0.3201 -0.3316  0.0733
 8609SOL    HW237461   1.822   0.455   3.946 -2.0623 -1.7716 -2.5298
 8610SOL     OW37462   3.682   3.158   6.220 -0.4841 -0.1608  0.3585
 8610SOL    HW137463   3.723   3.238   6.255  2.3246 -1.6263  0.4155
 8610SOL    HW237464   3.595   3.185   6.192 -0.2152  0.5455  0.1945
 8611SOL     OW37465   1.560   0.332   7.344 -0.0622  0.3327 -0.9262
 8611SOL    HW137466   1.537   0.304   7.432 -0.1422  0.4850 -0.8985
 8611SOL    HW237467   1.648   0.369   7.340 -0.2383  1.0423  2.1332
 8612SOL     OW37468   2.046   1.210   4.036  0.2477 -0.5184 -0.3858
 8612SOL    HW137469   2.013   1.137   3.984 -3.6853  2.3459 -1.9798
 8612SOL    HW237470   2.113   1.160   4.081  0.9455  1.5068  0.8198
 8613SOL     OW37471   2.666   2.695   2.305 -0.0047  0.0047 -0.3464
 8613SOL    HW137472   2.717   2.693   2.224  1.0888 -0.2204  0.3466
 8613SOL    HW237473   2.674   2.790   2.311  2.3881 -0.1263 -1.2905
 8614SOL     OW37474   0.962   0.515   3.232 -0.3324 -0.0352  0.3607
 8614SOL    HW137475   0.869   0.523   3.209  0.2077  2.3831 -0.9840
 8614SOL    HW237476   0.963   0.473   3.318  2.7650  1.8386  1.2346
 8615SOL     OW37477   0.842   2.153  13.696  0.7535  0.1683 -0.2955
 8615SOL    HW137478   0.870   2.245  13.702 -1.4161  0.7646  0.6482
 8615SOL    HW237479   0.865   2.115  13.611 -1.0035  0.3181 -0.8307
 8616SOL     OW37480   3.470   1.194   2.582 -0.2036 -0.0544 -0.0469
 8616SOL    HW137481   3.405   1.246   2.631 -2.5173 -1.7898 -1.2949
 8616SOL    HW237482   3.427   1.129   2.527 -1.5742 -1.0435  2.1985
 8617SOL     OW37483   0.113   4.127   4.110  0.8067 -0.8747  0.4597
 8617SOL    HW137484   0.167   4.115   4.189  1.2006 -3.0566 -0.1458
 8617SOL    HW237485   0.125   4.045   4.062 -3.5708 -0.6867 -0.9330
 8618SOL     OW37486   4.077   0.523  17.558 -0.1987 -0.4546 -0.0637
 8618SOL    HW137487   3.994   0.475  17.564 -1.9100  2.5277 -0.1753
 8618SOL    HW237488   4.080   0.528  17.463 -1.2401  1.0624 -0.0099
 8619SOL     OW37489   0.531   4.489   9.430  0.1446  0.6783  0.0775
 8619SOL    HW137490   0.608   4.537   9.399  1.4370 -1.2485  0.2792
 8619SOL    HW237491   0.468   4.552   9.464 -1.2169 -0.6727  0.0788
 8620SOL     OW37492   2.704   2.410   7.173 -0.8458 -0.0350 -0.0258
 8620SOL    HW137493   2.694   2.430   7.266 -1.2481  2.3193 -0.5531
 8620SOL    HW237494   2.725   2.491   7.125  1.0884  0.9669  2.4840
 8621SOL     OW37495   4.463   3.783  11.913 -0.1596 -0.6181 -0.2816
 8621SOL    HW137496   4.543   3.800  11.962  0.3544 -0.5888 -1.1329
 8621SOL    HW237497   4.392   3.808  11.973  1.9195  2.0332  1.0661
 8622SOL     OW37498   2.410   1.605   7.588  0.6834 -0.2759  0.5784
 8622SOL    HW137499   2.416   1.701   7.586 -1.0004 -0.1655  0.8177
 8622SOL    HW237500   2.365   1.580   7.507  0.3887 -1.7945  1.2225
 8623SOL     OW37501   0.601   0.100   2.261  0.0316 -0.5821  0.2128
 8623SOL    HW137502   0.545   0.172   2.231  0.8782 -0.3161 -0.7210
 8623SOL    HW237503   0.669   0.099   2.194 -0.5379 -0.6227 -0.3741
 8624SOL     OW37504   4.595   2.913  14.699 -0.3150  0.2051 -0.3471
 8624SOL    HW137505   4.554   2.999  14.696  1.7630  1.2750  1.9301
 8624SOL    HW237506   4.549   2.880  14.776  0.6285 -1.3414 -0.4312
 8625SOL     OW37507   3.914   1.346   6.380  0.2689 -0.2748  0.2589
 8625SOL    HW137508   3.944   1.326   6.291  2.0491  0.1275  0.7718
 8625SOL    HW237509   3.944   1.436   6.388 -3.2869  0.9290  0.0557
 8626SOL     OW37510   1.321   3.517   7.865 -0.0465 -0.0382  0.2862
 8626SOL    HW137511   1.372   3.597   7.856  0.1922 -0.0863  1.2371
 8626SOL    HW237512   1.325   3.505   7.960  0.1239  1.1730  0.4324
 8627SOL     OW37513   2.875   0.655  15.554 -0.0305 -0.2982 -0.4178
 8627SOL    HW137514   2.886   0.569  15.513  0.1917  0.4241 -1.8580
 8627SOL    HW237515   2.961   0.691  15.533  0.7308 -1.6393  0.4247
 8628SOL     OW37516   2.143   1.392   7.531  0.3102  0.3945  0.2152
 8628SOL    HW137517   2.190   1.313   7.556  0.7364  0.3478 -0.7221
 8628SOL    HW237518   2.091   1.410   7.610 -0.9425 -0.7543 -0.3385
 8629SOL     OW37519   1.278   4.683   5.618  0.2025 -0.9919 -0.2137
 8629SOL    HW137520   1.198   4.678   5.670 -0.3291 -3.4500 -1.2196
 8629SOL    HW237521   1.241   4.707   5.533  1.4403  0.6646 -0.2804
 8630SOL     OW37522   1.679   3.679   6.836  0.0755  0.4597  0.1992
 8630SOL    HW137523   1.589   3.707   6.815 -1.4835 -2.4426  3.0888
 8630SOL    HW237524   1.667   3.587   6.811 -2.1784  0.3697  1.5283
 8631SOL     OW37525   2.570   0.113   9.023 -0.6159  0.1719  0.4309
 8631SOL    HW137526   2.528   0.110   9.109  1.1902  3.3190  1.4068
 8631SOL    HW237527   2.582   0.018   9.012 -1.3352 -0.2677  3.3949
 8632SOL     OW37528   0.957   4.508  11.627 -0.1089  0.1832 -0.5670
 8632SOL    HW137529   0.942   4.595  11.663  0.5679 -0.0078  0.1844
 8632SOL    HW237530   0.876   4.461  11.649 -0.7858  1.6474  0.0389
 8633SOL     OW37531   1.031   0.204   4.869 -0.5830 -0.2072 -0.3149
 8633SOL    HW137532   1.086   0.254   4.809  0.4819 -2.1400 -0.9024
 8633SOL    HW237533   1.058   0.115   4.848 -1.0722 -1.5994  4.8472
 8634SOL     OW37534   0.662   2.103   4.665  0.7527  0.0633  0.0424
 8634SOL    HW137535   0.575   2.079   4.633  1.0180  0.5769 -1.0648
 8634SOL    HW237536   0.709   2.022   4.685  0.9108  0.1710  0.1145
 8635SOL     OW37537   0.510   2.026   4.009 -0.3426 -0.3748 -0.2499
 8635SOL    HW137538   0.438   2.064   4.059  0.3077  2.4511 -1.4661
 8635SOL    HW237539   0.460   1.982   3.940  1.2051  1.0422 -2.2623
 8636SOL     OW37540   0.107   1.646   3.747  0.3781  0.2479  0.3725
 8636SOL    HW137541   0.201   1.629   3.752  0.2875  0.0305  1.3263
 8636SOL    HW237542   0.075   1.556   3.740  2.0373 -0.2474 -0.6361
 8637SOL     OW37543   3.599   1.122  10.124  0.1521  0.0996  0.4780
 8637SOL    HW137544   3.552   1.192  10.169 -0.9517  0.1413 -0.7326
 8637SOL    HW237545   3.672   1.084  10.173  1.0099  2.2774  0.8822
 8638SOL     OW37546   4.572   2.748  14.469  0.2304  0.7973  0.2405
 8638SOL    HW137547   4.603   2.665  14.505 -2.8519  0.2376  1.5564
 8638SOL    HW237548   4.583   2.809  14.542  1.7904 -0.0138  0.6826
 8639SOL     OW37549   3.826   2.927   2.821  0.0229  0.1814 -0.0169
 8639SOL    HW137550   3.867   2.984   2.887  1.1695  0.2782 -0.8242
 8639SOL    HW237551   3.902   2.899   2.771 -0.0784  1.8973 -1.1220
 8640SOL     OW37552   0.691   4.538   7.015 -0.7207  0.1394 -0.6282
 8640SOL    HW137553   0.729   4.625   7.004  1.2786 -0.7147 -0.5878
 8640SOL    HW237554   0.661   4.526   7.105 -2.5161  1.7726 -1.0081
 8641SOL     OW37555   3.332   0.792   6.238  0.2442 -0.0475  0.2943
 8641SOL    HW137556   3.262   0.857   6.241 -1.4500 -1.7842 -1.9082
 8641SOL    HW237557   3.392   0.838   6.297  1.3789 -0.2796 -0.6832
 8642SOL     OW37558   0.520   1.426  13.079 -1.2740 -0.4079 -0.3213
 8642SOL    HW137559   0.542   1.334  13.095  1.5138  0.2016 -0.8147
 8642SOL    HW237560   0.595   1.477  13.107 -0.7955 -0.9586 -0.6086
 8643SOL     OW37561   3.490   0.227   6.014 -0.5399  0.6672  0.1236
 8643SOL    HW137562   3.577   0.190   6.032  0.0626  1.4766 -1.1357
 8643SOL    HW237563   3.467   0.271   6.096 -1.0103  1.9359 -0.6950
 8644SOL     OW37564   2.548   0.791   3.509 -1.0367 -0.0200 -0.3995
 8644SOL    HW137565   2.515   0.765   3.595 -0.8703 -1.2406 -0.6955
 8644SOL    HW237566   2.488   0.746   3.448 -1.3420 -0.1340 -0.0160
 8645SOL     OW37567   0.173   0.399   2.161 -0.1789 -0.0969 -0.2951
 8645SOL    HW137568   0.175   0.405   2.066 -1.3247 -0.6833 -0.3555
 8645SOL    HW237569   0.078   0.397   2.171 -0.3742  0.6672 -2.1112
 8646SOL     OW37570   0.584   4.445  10.320 -0.7630 -0.1751  0.0838
 8646SOL    HW137571   0.561   4.510  10.385  0.2206 -0.4668  0.7205
 8646SOL    HW237572   0.544   4.370  10.365 -0.7920  0.0139  0.3679
 8647SOL     OW37573   1.604   2.515  16.672  0.4107 -0.5840  0.0635
 8647SOL    HW137574   1.598   2.505  16.577  1.2912 -3.0063  0.2600
 8647SOL    HW237575   1.680   2.573  16.674 -0.7014  0.7384  3.1656
 8648SOL     OW37576   4.585   1.596   3.099  0.1028  0.2177 -0.0924
 8648SOL    HW137577   4.548   1.537   3.164 -0.0180  0.0094 -0.3477
 8648SOL    HW237578   4.564   1.682   3.135  1.7021  1.6339 -2.4808
 8649SOL     OW37579   0.002   2.246  10.760 -0.4397 -0.5941  0.4214
 8649SOL    HW137580   0.054   2.181  10.808  1.6929  1.3543  0.7098
 8649SOL    HW237581   4.682   2.279  10.833 -0.0956 -3.2605  1.8857
 8650SOL     OW37582   3.510   0.420   8.707  0.4218  0.0377 -0.0695
 8650SOL    HW137583   3.453   0.487   8.745 -0.9482 -0.3134 -1.5196
 8650SOL    HW237584   3.585   0.470   8.675  1.1657 -1.2947 -0.4196
 8651SOL     OW37585   0.702   0.263  14.542  0.4008 -0.1818  0.3955
 8651SOL    HW137586   0.607   0.259  14.529  0.2678  0.7534  1.1475
 8651SOL    HW237587   0.730   0.249  14.451  1.4726  2.0439  0.3775
 8652SOL     OW37588   2.988   0.432  15.449  1.1975  0.1073 -0.3724
 8652SOL    HW137589   3.044   0.368  15.493  1.0377 -0.5549 -1.1406
 8652SOL    HW237590   2.938   0.375  15.391  0.6021 -0.6442  0.8826
 8653SOL     OW37591   1.908   2.133   0.264 -0.1260 -0.1297  0.8952
 8653SOL    HW137592   1.848   2.148   0.337  0.4958 -0.1829  1.4150
 8653SOL    HW237593   1.953   2.218   0.268  0.9882 -0.7385  1.3271
 8654SOL     OW37594   0.969   4.033   6.347  0.1183 -0.5082  0.1178
 8654SOL    HW137595   1.017   3.973   6.404 -0.7382 -3.4789 -2.3092
 8654SOL    HW237596   1.039   4.061   6.287  0.1151 -0.9822 -0.1019
 8655SOL     OW37597   1.778   2.133  10.809  0.0365  0.4030 -0.1764
 8655SOL    HW137598   1.872   2.133  10.787  0.3334 -1.2128  1.1655
 8655SOL    HW237599   1.777   2.072  10.882  4.4116  1.4587  0.7696
 8656SOL     OW37600   0.050   1.186  16.604 -0.1065  0.2704  1.2982
 8656SOL    HW137601   0.130   1.236  16.593 -0.6273  0.9580  0.6156
 8656SOL    HW237602   0.068   1.107  16.553  0.0248  0.1569  1.5222
 8657SOL     OW37603   0.314   2.588   8.279 -0.1486  0.2662 -0.1810
 8657SOL    HW137604   0.236   2.534   8.276  1.6735 -2.3576 -0.4620
 8657SOL    HW237605   0.314   2.633   8.194 -0.9771 -1.2280 -0.9689
 8658SOL     OW37606   4.025   3.881  14.272 -0.5007 -0.3408  0.2934
 8658SOL    HW137607   3.983   3.861  14.356  0.4306  2.0582  1.3431
 8658SOL    HW237608   4.102   3.825  14.283 -0.2042 -0.1228 -0.6708
 8659SOL     OW37609   2.611   4.035   7.940 -0.5893  0.4702  0.5458
 8659SOL    HW137610   2.676   4.082   7.887 -1.6914  1.4901  0.0877
 8659SOL    HW237611   2.666   3.961   7.963 -1.9443 -0.7225 -0.0736
 8660SOL     OW37612   3.347   1.413   1.752  0.0658  0.1855 -0.8662
 8660SOL    HW137613   3.393   1.390   1.833  0.7195  3.1310 -0.4175
 8660SOL    HW237614   3.417   1.437   1.693 -1.1270  1.5649 -1.6985
 8661SOL     OW37615   1.140   2.039   4.556  0.3672 -0.4001  0.4656
 8661SOL    HW137616   1.073   2.101   4.585  1.8067  1.3468  0.0282
 8661SOL    HW237617   1.104   1.965   4.605 -0.7104 -0.6217 -0.6784
 8662SOL     OW37618   4.312   0.857   0.070 -0.3510 -0.1694 -0.6064
 8662SOL    HW137619   4.331   0.781   0.016  1.1808  0.9775 -1.6590
 8662SOL    HW237620   4.320   0.799   0.146 -0.3257  0.2089 -0.3193
 8663SOL     OW37621   2.334   3.843   3.143 -0.3698 -0.4820 -0.7464
 8663SOL    HW137622   2.313   3.936   3.148 -0.1050 -0.3488 -2.1215
 8663SOL    HW237623   2.429   3.841   3.152  0.0257  2.7395 -4.4537
 8664SOL     OW37624   2.971   2.674   3.139  0.0072  0.5181 -0.0817
 8664SOL    HW137625   3.049   2.703   3.091 -0.1019  0.6240 -0.1919
 8664SOL    HW237626   3.011   2.684   3.226  2.5367 -3.4771 -0.7648
 8665SOL     OW37627   4.100   0.950   0.192 -0.3212  0.2296 -0.1784
 8665SOL    HW137628   4.126   0.966   0.282  0.7418 -0.9919 -0.2727
 8665SOL    HW237629   4.183   0.933   0.147 -0.6724 -0.5037 -0.5452
 8666SOL     OW37630   2.544   2.691   6.865 -0.0444 -0.1974  0.1172
 8666SOL    HW137631   2.638   2.692   6.883 -0.1052 -1.5777  0.5553
 8666SOL    HW237632   2.550   2.740   6.783  1.9517 -0.6814 -0.0385
 8667SOL     OW37633   3.844   2.696   5.556  0.0087  0.2053  0.4636
 8667SOL    HW137634   3.821   2.717   5.646 -0.2378  0.2242  0.3971
 8667SOL    HW237635   3.765   2.730   5.513  1.1216 -0.3920 -2.0836
 8668SOL     OW37636   2.700   4.583   6.725 -0.2328  0.1029  0.3435
 8668SOL    HW137637   2.707   4.584   6.821  1.2518  2.2153  0.2238
 8668SOL    HW237638   2.607   4.569   6.713 -0.1575 -0.2362  0.1679
 8669SOL     OW37639   3.241   4.209   3.373 -0.3942  0.0915  0.7007
 8669SOL    HW137640   3.214   4.298   3.351  1.3498  0.2889 -0.6876
 8669SOL    HW237641   3.336   4.220   3.367 -0.3598 -1.2511 -1.3868
 8670SOL     OW37642   1.070   0.439  12.733  0.7045 -0.3592  0.0640
 8670SOL    HW137643   1.008   0.440  12.660  0.2463 -1.8134  0.4448
 8670SOL    HW237644   1.077   0.533  12.751  1.0490 -0.4726  0.5083
 8671SOL     OW37645   3.866   3.905   6.624  0.1991  0.5277  0.0314
 8671SOL    HW137646   3.802   3.975   6.611  0.0516  1.0813  3.7806
 8671SOL    HW237647   3.858   3.855   6.543  0.3065 -0.6613  0.7538
 8672SOL     OW37648   2.431   4.550   2.129  0.1145  0.4355  0.0241
 8672SOL    HW137649   2.385   4.604   2.065  0.8905 -0.5918 -1.4055
 8672SOL    HW237650   2.460   4.472   2.083  3.1632  2.1843 -0.9692
 8673SOL     OW37651   4.249   2.911   8.024 -0.3735 -0.8775 -0.4492
 8673SOL    HW137652   4.160   2.927   7.991 -0.1569  0.1526 -0.5247
 8673SOL    HW237653   4.273   2.850   7.953  1.2694  1.5492 -1.9554
 8674SOL     OW37654   0.260   3.546  16.809 -0.1588  0.3694  0.5704
 8674SOL    HW137655   0.318   3.479  16.845  0.3478  1.0528  1.0105
 8674SOL    HW237656   0.173   3.514  16.833  0.1513  0.3894  1.7438
 8675SOL     OW37657   1.339   2.844   6.887 -0.2492  0.0954 -0.1430
 8675SOL    HW137658   1.418   2.806   6.850  1.2761 -0.3628  3.6213
 8675SOL    HW237659   1.341   2.932   6.850  0.6310  0.1404  0.0140
 8676SOL     OW37660   3.614   2.462   2.844  0.4916  0.5796 -0.1143
 8676SOL    HW137661   3.681   2.489   2.781  1.1896 -0.1835  0.3012
 8676SOL    HW237662   3.619   2.516   2.923 -0.3085 -0.7340  0.8275
 8677SOL     OW37663   0.237   0.105   5.578 -0.5615 -0.0444 -0.4231
 8677SOL    HW137664   0.175   0.070   5.642  2.4685 -1.5079  1.6753
 8677SOL    HW237665   0.183   0.140   5.507  0.3615  1.0898 -0.5677
 8678SOL     OW37666   4.491   3.619   4.864  0.2654  0.2048 -0.0292
 8678SOL    HW137667   4.458   3.638   4.776  2.0353  0.7245 -0.5740
 8678SOL    HW237668   4.403   3.620   4.901 -0.4174  1.6254 -1.7455
 8679SOL     OW37669   3.626   3.693  13.650 -0.0805  0.3509 -0.4137
 8679SOL    HW137670   3.650   3.738  13.731 -0.1120 -0.8281  0.2531
 8679SOL    HW237671   3.616   3.603  13.680  0.4525  0.2185 -0.6392
 8680SOL     OW37672   3.675   4.329  14.602  0.0182  0.2513 -0.0788
 8680SOL    HW137673   3.693   4.383  14.679  3.2922 -0.1314 -0.5829
 8680SOL    HW237674   3.606   4.385  14.565  1.9002  1.7240 -1.3025
 8681SOL     OW37675   0.912   2.788  10.660  0.0435  0.4809  0.0129
 8681SOL    HW137676   0.818   2.798  10.641  0.1824  1.6921 -0.0685
 8681SOL    HW237677   0.914   2.737  10.741  1.2112 -0.7169 -0.7928
 8682SOL     OW37678   2.496   0.520   2.567 -0.2114 -0.1173  0.2894
 8682SOL    HW137679   2.439   0.587   2.605  0.0372  0.0593  0.3522
 8682SOL    HW237680   2.492   0.457   2.638 -3.1712 -1.9145 -1.4805
 8683SOL     OW37681   1.741   2.534   0.264 -0.1330 -0.2727  0.0612
 8683SOL    HW137682   1.675   2.570   0.324 -2.5645 -1.1046 -2.1363
 8683SOL    HW237683   1.753   2.444   0.293  0.1793  0.2445  1.5478
 8684SOL     OW37684   2.307   2.579   3.006 -0.3201 -0.5717 -0.0247
 8684SOL    HW137685   2.371   2.648   3.019  1.3717 -1.5858 -2.8097
 8684SOL    HW237686   2.350   2.501   3.042 -1.1792 -0.2107  1.7520
 8685SOL     OW37687   2.088   3.384   2.393  0.1214  0.5770 -0.3212
 8685SOL    HW137688   1.993   3.388   2.387 -0.0060 -0.6288  0.9702
 8685SOL    HW237689   2.112   3.436   2.470  0.4034  1.1348 -0.7759
 8686SOL     OW37690   2.507   0.072   3.782 -0.4651  0.7645  0.5188
 8686SOL    HW137691   2.551   0.155   3.803  0.9086  0.2959 -0.4810
 8686SOL    HW237692   2.526   0.071   3.688  1.9293  0.8028  1.0050
 8687SOL     OW37693   1.143   1.697   6.641 -0.0146 -0.1339  0.5350
 8687SOL    HW137694   1.152   1.636   6.714 -3.6249 -1.3259 -0.0073
 8687SOL    HW237695   1.136   1.627   6.575  0.0803  0.0276  0.3537
 8688SOL     OW37696   3.272   4.218   5.025 -0.5926  0.2357  0.3102
 8688SOL    HW137697   3.197   4.159   5.032 -1.6652  1.6218  0.8000
 8688SOL    HW237698   3.233   4.297   5.064  2.4473  2.1139 -0.4269
 8689SOL     OW37699   3.598   4.452   7.482  0.7515 -0.1988 -0.5675
 8689SOL    HW137700   3.531   4.431   7.546  0.2671  4.2374  0.3561
 8689SOL    HW237701   3.547   4.483   7.407 -0.4693  0.4064  0.5270
 8690SOL     OW37702   0.783   0.084  12.493 -0.0125 -0.5906 -0.2419
 8690SOL    HW137703   0.710   0.041  12.448  0.1103 -1.5007  0.4313
 8690SOL    HW237704   0.844   0.014  12.515  0.8122  0.1384 -0.1744
 8691SOL     OW37705   3.364   0.323   2.342  0.4476 -0.6204  0.2836
 8691SOL    HW137706   3.343   0.242   2.388  4.3272 -0.9601  1.4142
 8691SOL    HW237707   3.410   0.371   2.411 -0.7151 -1.1433  1.4005
 8692SOL     OW37708   0.848   2.438   4.520 -0.2678 -0.3507  0.5972
 8692SOL    HW137709   0.765   2.456   4.476 -0.8743  0.9395  2.2532
 8692SOL    HW237710   0.839   2.492   4.599 -0.1032  2.5864 -1.3741
 8693SOL     OW37711   3.871   2.416   6.252  0.2245  0.0117 -0.6895
 8693SOL    HW137712   3.834   2.408   6.164  0.3679 -0.1703 -0.7332
 8693SOL    HW237713   3.874   2.327   6.286  1.9800  0.9206  1.5820
 8694SOL     OW37714   2.014   0.045   2.465 -0.5374 -0.1660  0.2464
 8694SOL    HW137715   1.971   0.081   2.543  1.9081 -1.5238  2.2234
 8694SOL    HW237716   2.107   0.061   2.482 -0.8465  0.4653  1.3559
 8695SOL     OW37717   2.653   0.805   0.161  0.2118  0.0342 -0.4220
 8695SOL    HW137718   2.665   0.715   0.190 -1.7845  0.2647  1.0860
 8695SOL    HW237719   2.571   0.802   0.112  0.2361  1.9998 -0.6037
 8696SOL     OW37720   0.157   3.204   0.067 -0.9044  0.0876 -0.2466
 8696SOL    HW137721   0.233   3.149   0.048  0.4441  1.5989  0.7748
 8696SOL    HW237722   0.187   3.236   0.152 -0.1863 -0.4522 -0.2996
 8697SOL     OW37723   2.150   3.559   3.905 -0.1834  0.3227 -0.1853
 8697SOL    HW137724   2.099   3.493   3.952 -2.4093  2.9128  1.0466
 8697SOL    HW237725   2.148   3.535   3.812 -2.2056 -2.0393  0.4441
 8698SOL     OW37726   0.581   2.000   2.741  0.2583  0.1914 -0.1620
 8698SOL    HW137727   0.662   2.047   2.763 -0.5713  1.4532  0.1714
 8698SOL    HW237728   0.615   1.923   2.695 -1.6842  1.0867 -3.0433
 8699SOL     OW37729   0.289   1.362  14.110  0.2222 -0.0829 -0.1866
 8699SOL    HW137730   0.242   1.373  14.192  1.0206 -3.5897  0.7306
 8699SOL    HW237731   0.214   1.375  14.052 -0.9385 -0.3754  1.2525
 8700SOL     OW37732   0.600   0.286   2.886 -0.0155 -0.0710  0.6160
 8700SOL    HW137733   0.560   0.372   2.874  2.6351  1.0255 -0.3188
 8700SOL    HW237734   0.527   0.229   2.913 -0.8724 -1.1478 -3.8851
 8701SOL     OW37735   3.168   4.089   1.679  0.4243  0.3983  0.4303
 8701SOL    HW137736   3.233   4.124   1.618  0.8652  2.8802  2.3441
 8701SOL    HW237737   3.102   4.064   1.614  1.2898 -0.4233 -0.1301
 8702SOL     OW37738   4.089   0.130   1.073 -0.3469  0.4716 -0.2531
 8702SOL    HW137739   4.126   0.215   1.050  2.2830 -0.5682  0.1181
 8702SOL    HW237740   4.169   0.077   1.072  0.2740  1.4184 -1.4318
 8703SOL     OW37741   3.045   3.238   5.547 -0.6006  0.1419 -0.4582
 8703SOL    HW137742   3.000   3.274   5.624 -1.0662 -0.5734 -0.3944
 8703SOL    HW237743   2.980   3.215   5.481 -0.5003 -1.1707 -0.1037
 8704SOL     OW37744   0.193   3.835  10.887  0.1650  0.2042 -0.3945
 8704SOL    HW137745   0.266   3.884  10.926  0.4679  0.2485 -1.0169
 8704SOL    HW237746   0.135   3.908  10.862  1.3707  0.8276 -1.3712
 8705SOL     OW37747   1.737   3.271   6.307  0.2302 -0.2457 -0.4866
 8705SOL    HW137748   1.770   3.185   6.282 -0.7611 -0.9977  0.7664
 8705SOL    HW237749   1.646   3.260   6.279  1.5056 -1.8422 -3.9614
 8706SOL     OW37750   1.162   1.898   6.819  0.5124  0.1909  0.0054
 8706SOL    HW137751   1.186   1.827   6.879  1.0043  0.0020 -0.4232
 8706SOL    HW237752   1.129   1.851   6.743 -1.5580 -0.2248  1.1365
 8707SOL     OW37753   3.313   3.116   6.821  0.0942  0.5154  0.2849
 8707SOL    HW137754   3.363   3.197   6.810 -1.3114  1.2982 -0.3517
 8707SOL    HW237755   3.287   3.121   6.913 -0.6231 -0.2287  0.1127
 8708SOL     OW37756   1.901   2.903   9.925 -0.2320 -0.4113  0.2022
 8708SOL    HW137757   1.837   2.875   9.989 -0.8443  1.7907  0.5561
 8708SOL    HW237758   1.905   2.820   9.878  2.0510 -1.2507  1.8991
 8709SOL     OW37759   4.688   4.251  13.830 -0.0407  0.4982 -0.4246
 8709SOL    HW137760   4.643   4.186  13.777  2.7709 -1.2455 -0.6279
 8709SOL    HW237761   4.645   4.224  13.911  0.5582 -0.1910 -0.3434
 8710SOL     OW37762   3.182   4.702   0.910 -0.2785  0.0961 -0.6513
 8710SOL    HW137763   3.173   0.065   0.902  2.1362  0.5246  1.3415
 8710SOL    HW237764   3.246   4.704   0.982  0.9649 -0.6130 -1.7357
 8711SOL     OW37765   2.069   4.715   6.248  0.0843  0.0994 -0.2357
 8711SOL    HW137766   2.144   0.023   6.203 -1.2709  2.3437 -0.4763
 8711SOL    HW237767   2.114   4.634   6.273 -0.3139 -0.1566 -0.3539
 8712SOL     OW37768   0.113   2.666   5.388 -0.5481 -0.3197 -0.5846
 8712SOL    HW137769   0.122   2.669   5.292  0.3660 -2.7659 -0.5814
 8712SOL    HW237770   0.175   2.736   5.410 -0.2734 -1.4673  2.2425
 8713SOL     OW37771   1.847   3.117   8.641 -0.1805  0.3484  0.0805
 8713SOL    HW137772   1.851   3.041   8.583  1.5713 -1.3071  2.4329
 8713SOL    HW237773   1.817   3.092   8.728 -1.4472 -2.4981 -1.1798
 8714SOL     OW37774   2.224   1.198  15.876  0.4075 -0.2178  0.2316
 8714SOL    HW137775   2.155   1.244  15.922  1.0345 -0.2962  1.2665
 8714SOL    HW237776   2.221   1.246  15.793 -0.3325 -0.4897  0.1053
 8715SOL     OW37777   4.112   0.275  14.099 -0.0939  0.5765  0.0154
 8715SOL    HW137778   4.192   0.281  14.151 -0.1383 -1.0698  0.2562
 8715SOL    HW237779   4.075   0.364  14.099  1.1252  1.0892 -2.8207
 8716SOL     OW37780   4.227   1.501   0.950 -0.2610 -0.1634 -0.2736
 8716SOL    HW137781   4.254   1.440   0.881 -0.0915  1.7562 -1.9034
 8716SOL    HW237782   4.133   1.515   0.942  0.0166  1.5605 -0.6307
 8717SOL     OW37783   1.450   1.710   1.387  0.3020 -0.6799  0.2792
 8717SOL    HW137784   1.537   1.729   1.352  0.1542 -1.1444 -0.3286
 8717SOL    HW237785   1.471   1.642   1.452  2.8665 -0.5658 -0.4180
 8718SOL     OW37786   0.303   1.854   3.906  0.1102 -0.0491  0.0323
 8718SOL    HW137787   0.281   1.784   3.846  1.7469  1.9746 -2.9454
 8718SOL    HW237788   0.265   1.819   3.987  0.0319 -0.7662 -0.3206
 8719SOL     OW37789   2.483   0.510   2.087 -1.0184 -0.5743  0.1242
 8719SOL    HW137790   2.430   0.554   2.154  0.6742  0.4616  0.7674
 8719SOL    HW237791   2.414   0.461   2.041 -2.6516  1.3306  0.5473
 8720SOL     OW37792   3.600   0.793   0.268  0.7350  0.3693  0.3600
 8720SOL    HW137793   3.595   0.880   0.307 -2.3335 -0.0064  0.7924
 8720SOL    HW237794   3.680   0.813   0.218  0.4229  0.0789 -0.2537
 8721SOL     OW37795   4.440   0.423  14.460 -0.1126 -0.3348 -0.9375
 8721SOL    HW137796   4.448   0.333  14.427  0.8767 -0.4530 -0.4048
 8721SOL    HW237797   4.457   0.477  14.383 -5.3862  3.4608  0.5971
 8722SOL     OW37798   1.446   3.560  16.012  0.1970 -0.0686 -0.1566
 8722SOL    HW137799   1.477   3.650  16.021  0.4453 -0.2400  0.7743
 8722SOL    HW237800   1.367   3.571  15.961  0.4276  2.3624  0.0054
 8723SOL     OW37801   0.881   2.504   7.042  0.2526  0.9312  0.1328
 8723SOL    HW137802   0.968   2.535   7.066  0.3042  0.5101  0.5071
 8723SOL    HW237803   0.841   2.583   7.077 -1.6788  0.0050  0.0318
 8724SOL     OW37804   0.145   1.445   5.736  0.2668  0.2678  0.3192
 8724SOL    HW137805   0.113   1.458   5.647 -0.4672  0.8081  0.6626
 8724SOL    HW237806   0.162   1.536   5.760 -0.6799  0.4747  0.2166
 8725SOL     OW37807   1.435   1.945   8.587  0.1039  0.3989 -0.0274
 8725SOL    HW137808   1.502   1.879   8.572 -0.0432  0.2949 -0.2179
 8725SOL    HW237809   1.418   1.945   8.681 -0.3597 -0.2878 -0.1126
 8726SOL     OW37810   2.270   4.232   6.085  0.1467 -0.7404  0.2151
 8726SOL    HW137811   2.269   4.251   5.991  0.2612  2.2185  0.8073
 8726SOL    HW237812   2.175   4.229   6.099 -0.0925  0.1314 -1.1898
 8727SOL     OW37813   3.514   3.343   7.608  0.2707  0.1418  0.0189
 8727SOL    HW137814   3.597   3.389   7.618 -0.1760  0.6247  1.5833
 8727SOL    HW237815   3.531   3.295   7.528 -1.5651 -0.6336  0.0780
 8728SOL     OW37816   1.278   2.459  15.858 -0.1181 -0.1147 -0.5268
 8728SOL    HW137817   1.209   2.524  15.863  1.5752  1.6208  0.0904
 8728SOL    HW237818   1.321   2.479  15.775 -1.0343  0.5948 -0.8256
 8729SOL     OW37819   1.418   4.044  12.849 -0.4660  0.1712 -0.1991
 8729SOL    HW137820   1.379   4.104  12.786  0.5954 -1.7562 -2.6745
 8729SOL    HW237821   1.430   4.098  12.927  0.7748 -0.2627 -0.0824
 8730SOL     OW37822   0.039   1.244   8.114  0.0325  0.1216  0.5720
 8730SOL    HW137823   0.120   1.227   8.163 -0.6418 -2.0767  0.9275
 8730SOL    HW237824   4.729   1.317   8.160  1.3295  1.3851 -0.2246
 8731SOL     OW37825   2.944   3.120   8.072  0.2557  0.3768 -0.2746
 8731SOL    HW137826   2.984   3.148   8.154 -1.3898  1.3970  0.1965
 8731SOL    HW237827   2.984   3.037   8.046 -0.9529  0.3850 -2.1769
 8732SOL     OW37828   0.132   2.947   6.357 -0.5757  0.2452  0.1993
 8732SOL    HW137829   0.158   2.985   6.274 -0.3345  0.5034  0.3936
 8732SOL    HW237830   0.036   2.939   6.359 -0.3680 -2.5151 -0.7252
 8733SOL     OW37831   4.124   3.926  13.997 -0.2862 -0.1150 -0.0782
 8733SOL    HW137832   4.105   3.909  14.090  0.4980 -1.7194 -0.2243
 8733SOL    HW237833   4.206   3.975  13.997  0.6071 -1.6229  3.0051
 8734SOL     OW37834   2.214   4.150  10.604  0.4027 -0.7925  0.1121
 8734SOL    HW137835   2.140   4.137  10.663  0.2227 -0.2594  0.0032
 8734SOL    HW237836   2.280   4.095  10.648  1.8520  0.2039 -0.8062
 8735SOL     OW37837   0.465   4.254   2.666 -0.1713  0.1655  0.0717
 8735SOL    HW137838   0.426   4.335   2.699  1.7932  0.7452  1.0293
 8735SOL    HW237839   0.470   4.270   2.572  1.4152 -1.8000 -0.1919
 8736SOL     OW37840   2.582   2.770  17.078  0.1264 -0.0154 -0.4957
 8736SOL    HW137841   2.493   2.795  17.054 -0.2142 -0.5852  0.1644
 8736SOL    HW237842   2.632   2.780  16.997  0.3992 -1.8640 -0.5399
 8737SOL     OW37843   2.583   2.728   6.188  0.3925 -0.0506  0.5552
 8737SOL    HW137844   2.600   2.781   6.266 -0.8182  2.6984 -1.0436
 8737SOL    HW237845   2.665   2.680   6.175 -1.0313 -2.7160  1.3946
 8738SOL     OW37846   3.447   0.703  11.845  0.1201  0.1115  0.0582
 8738SOL    HW137847   3.375   0.746  11.891  0.6727  1.4455 -0.3148
 8738SOL    HW237848   3.440   0.614  11.878  2.2038  0.8136  2.4366
 8739SOL     OW37849   0.706   4.451   6.558 -0.0811  0.0440 -0.4591
 8739SOL    HW137850   0.722   4.364   6.521 -2.0125 -1.0412  1.2354
 8739SOL    HW237851   0.731   4.434   6.648 -1.0264  0.3484 -0.1312
 8740SOL     OW37852   3.881   0.164   9.620  0.0345  0.5525  0.7098
 8740SOL    HW137853   3.947   0.108   9.661 -0.0753 -0.9241 -1.1490
 8740SOL    HW237854   3.798   0.126   9.651  0.4783 -2.3309 -1.6321
 8741SOL     OW37855   4.273   0.919   5.611  0.3682 -0.0531  0.6321
 8741SOL    HW137856   4.257   0.929   5.517 -1.7209  0.9829  1.0973
 8741SOL    HW237857   4.196   0.968   5.640  1.6101  1.1372  1.9270
 8742SOL     OW37858   1.523   0.118   1.922 -0.6390 -0.0513  0.0478
 8742SOL    HW137859   1.514   0.060   1.997 -0.4942  0.3011  0.3367
 8742SOL    HW237860   1.601   0.076   1.885  0.0130  1.8785 -0.7412
 8743SOL     OW37861   1.536   0.472   5.656 -0.0037  0.1948 -0.5498
 8743SOL    HW137862   1.456   0.524   5.659  0.8743  1.5938 -1.5321
 8743SOL    HW237863   1.562   0.480   5.748 -2.4510  2.9370 -0.0979
 8744SOL     OW37864   3.190   4.344  13.200  0.1982 -0.1145  0.0675
 8744SOL    HW137865   3.095   4.351  13.195 -0.0738 -2.4248  2.0186
 8744SOL    HW237866   3.214   4.255  13.226  0.1735 -0.1844 -0.1493
 8745SOL     OW37867   2.095   4.727   5.729  0.4995  0.9957  0.0101
 8745SOL    HW137868   2.061   4.707   5.816  1.1693  0.2704  0.1102
 8745SOL    HW237869   2.126   0.085   5.733 -0.8678  1.5495 -2.0680
 8746SOL     OW37870   2.888   1.608   2.313  0.4899 -0.2574  0.1973
 8746SOL    HW137871   2.811   1.576   2.265  0.9833  2.0776 -2.1156
 8746SOL    HW237872   2.852   1.619   2.400 -1.0713  2.6134 -0.8175
 8747SOL     OW37873   3.560   3.574   2.740 -0.1840 -0.1758 -0.1412
 8747SOL    HW137874   3.594   3.500   2.790 -0.5362  0.2397  0.7161
 8747SOL    HW237875   3.509   3.612   2.812  0.0071 -0.8726  0.3633
 8748SOL     OW37876   2.431   2.165  12.497  0.2216  0.2118 -0.2913
 8748SOL    HW137877   2.364   2.184  12.431 -0.7928  0.0712  0.7064
 8748SOL    HW237878   2.421   2.070  12.503  2.8705 -0.1458 -1.5508
 8749SOL     OW37879   2.936   3.484   0.780 -0.2078 -0.1486  0.0237
 8749SOL    HW137880   2.973   3.555   0.727 -0.1298  1.9960  2.9759
 8749SOL    HW237881   2.841   3.491   0.764 -0.1223  1.9890  0.4680
 8750SOL     OW37882   1.259   2.316   6.835  0.1571  0.6393  0.1298
 8750SOL    HW137883   1.165   2.331   6.839 -0.0833 -0.5772 -0.9015
 8750SOL    HW237884   1.304   2.400   6.842 -0.3915  1.0880 -1.7350
 8751SOL     OW37885   0.439   4.584   6.616 -0.3788  0.2134 -0.2569
 8751SOL    HW137886   0.511   4.522   6.602 -2.9691 -2.7423 -0.3081
 8751SOL    HW237887   0.463   4.621   6.701  0.5620 -0.1767 -0.3549
 8752SOL     OW37888   2.295   2.812   8.281  0.2034 -0.0396 -0.8605
 8752SOL    HW137889   2.295   2.750   8.208  0.4670 -0.4670 -0.4936
 8752SOL    HW237890   2.356   2.773   8.343 -0.4268 -1.8031 -1.3589
 8753SOL     OW37891   0.952   0.317   6.471 -0.2745 -0.3546 -0.3073
 8753SOL    HW137892   0.965   0.330   6.377  0.9007 -0.9527 -0.2230
 8753SOL    HW237893   1.029   0.362   6.505  0.0689 -1.9451  1.0146
 8754SOL     OW37894   4.642   0.825   8.358  0.9761  0.1732 -0.0235
 8754SOL    HW137895   4.668   0.913   8.384 -1.7327  0.4921  1.6613
 8754SOL    HW237896   4.726   0.781   8.347  0.6285 -0.4151 -0.3678
 8755SOL     OW37897   2.714   2.965   8.837 -0.1841  0.2668  0.5687
 8755SOL    HW137898   2.717   3.061   8.832  4.9901  0.0962  0.9116
 8755SOL    HW237899   2.625   2.942   8.863  0.4631 -2.2499  0.5497
 8756SOL     OW37900   0.975   1.127   7.072 -0.4569  0.2751  0.3440
 8756SOL    HW137901   1.020   1.153   7.153 -0.4581  1.8740 -0.1640
 8756SOL    HW237902   0.906   1.078   7.116  0.4014  0.1750  1.5934
 8757SOL     OW37903   2.010   2.965   1.571  0.0563 -0.3804 -0.2197
 8757SOL    HW137904   2.000   3.060   1.574 -0.2352 -0.4652  1.5666
 8757SOL    HW237905   2.015   2.935   1.662 -1.7853  0.4310  0.1452
 8758SOL     OW37906   4.444   4.284   4.676  0.5722  0.1560 -0.2952
 8758SOL    HW137907   4.350   4.279   4.696  0.0918 -0.1925 -2.6896
 8758SOL    HW237908   4.466   4.364   4.724 -1.2330  0.4551  0.0331
 8759SOL     OW37909   4.487   1.883   4.923  0.1918  0.2618  0.1736
 8759SOL    HW137910   4.428   1.875   4.997 -0.4447  1.4198 -0.2063
 8759SOL    HW237911   4.431   1.915   4.851  0.3222  0.6662  0.2524
 8760SOL     OW37912   0.345   3.930   4.905 -0.7291  0.0603 -0.5460
 8760SOL    HW137913   0.266   3.878   4.891  0.2097 -1.5449  0.0978
 8760SOL    HW237914   0.382   3.934   4.817 -1.9305 -1.4832 -1.1175
 8761SOL     OW37915   3.626   3.597   4.776 -0.2608  0.0401 -0.1004
 8761SOL    HW137916   3.580   3.543   4.840 -0.1252  0.3068  0.2226
 8761SOL    HW237917   3.551   3.637   4.730 -0.6087  1.4336  1.6505
 8762SOL     OW37918   1.921   1.434  16.881 -0.1295 -0.1998 -0.1347
 8762SOL    HW137919   1.932   1.502  16.814 -0.8583  1.0813  1.0157
 8762SOL    HW237920   1.866   1.476  16.948  0.2488  0.6835 -0.3739
 8763SOL     OW37921   4.361   0.618   8.397 -0.7788  0.5794 -0.0495
 8763SOL    HW137922   4.376   0.671   8.475  0.6379  0.5285 -0.2964
 8763SOL    HW237923   4.349   0.684   8.329  0.8926  1.0483  0.1168
 8764SOL     OW37924   3.276   0.535  13.673 -0.2031 -0.0418 -0.4010
 8764SOL    HW137925   3.313   0.601  13.615  0.1634  0.2619  0.1765
 8764SOL    HW237926   3.315   0.460  13.628 -1.4168  0.5295 -2.3871
 8765SOL     OW37927   2.487   2.891  14.975 -0.2627  0.1398  0.2327
 8765SOL    HW137928   2.533   2.953  15.031  2.3364 -1.4789 -0.1287
 8765SOL    HW237929   2.397   2.923  14.979 -1.0441 -1.9788 -0.1011
 8766SOL     OW37930   0.898   2.780   5.561  0.1226 -0.6433 -0.1845
 8766SOL    HW137931   0.986   2.789   5.598 -0.5748  1.2037  1.0261
 8766SOL    HW237932   0.855   2.751   5.642  0.6598 -2.4453 -0.5406
 8767SOL     OW37933   0.045   2.883   9.479 -0.1147 -0.1831  0.5532
 8767SOL    HW137934   4.685   2.863   9.499 -0.1492  2.0333  2.5181
 8767SOL    HW237935   0.045   2.895   9.384  1.3056  0.1006  0.5961
 8768SOL     OW37936   2.601   1.475   6.960  0.9229  0.1287  0.1955
 8768SOL    HW137937   2.588   1.569   6.952  1.3420  0.0862 -1.0214
 8768SOL    HW237938   2.595   1.447   6.869  0.6187  0.3404  0.1512
 8769SOL     OW37939   4.522   3.234   9.635  0.3703  0.4284  0.3056
 8769SOL    HW137940   4.563   3.200   9.714 -1.2499  0.1783  1.0398
 8769SOL    HW237941   4.582   3.195   9.572  2.7005  1.8319  1.6942
 8770SOL     OW37942   1.003   3.495   7.909 -0.5097 -0.2655  0.4761
 8770SOL    HW137943   1.088   3.515   7.869 -1.0278  1.6212  0.3226
 8770SOL    HW237944   1.015   3.511   8.002  0.7534  2.2463 -0.1409
 8771SOL     OW37945   4.702   3.588   1.646 -0.0607  0.3150 -0.3461
 8771SOL    HW137946   4.629   3.607   1.704  0.5766 -1.1247  0.9424
 8771SOL    HW237947   4.659   3.527   1.586 -0.3903 -0.5513  0.7546
 8772SOL     OW37948   1.751   1.399   5.644  0.5692  0.1032 -0.1579
 8772SOL    HW137949   1.673   1.410   5.699  3.5900 -2.0945  4.6558
 8772SOL    HW237950   1.813   1.432   5.709  0.8404  0.9791 -0.8788
 8773SOL     OW37951   0.783   1.011   3.595  0.0302  0.2258  0.0200
 8773SOL    HW137952   0.725   1.083   3.573  0.6768  0.6937 -0.1775
 8773SOL    HW237953   0.766   1.018   3.689  0.4784 -2.5126  0.3047
 8774SOL     OW37954   1.844   3.372  15.070  0.0944 -0.4530  0.1167
 8774SOL    HW137955   1.844   3.442  15.134 -0.6824  1.6970 -2.2320
 8774SOL    HW237956   1.917   3.393  15.012 -0.8913 -0.4490 -1.1135
 8775SOL     OW37957   1.362   4.619   9.865 -0.2057  0.0202  0.1257
 8775SOL    HW137958   1.288   4.565   9.837  0.1321  0.1170 -0.9659
 8775SOL    HW237959   1.426   4.582   9.804  0.3133  0.9027  0.1439
 8776SOL     OW37960   1.290   1.614   8.350  0.3337 -0.2368  0.5956
 8776SOL    HW137961   1.210   1.624   8.402  0.1085 -0.7993  0.3561
 8776SOL    HW237962   1.343   1.691   8.370  0.9129 -0.5707  0.3456
 8777SOL     OW37963   0.758   0.864  14.300  0.8738  0.4484 -0.2406
 8777SOL    HW137964   0.662   0.872  14.302  0.7020 -1.9186  1.1413
 8777SOL    HW237965   0.781   0.951  14.267  1.3344  0.7426  0.8470
 8778SOL     OW37966   2.989   4.728   2.816  0.0176  0.0632 -0.6513
 8778SOL    HW137967   2.958   0.069   2.762  0.3797  2.1609  1.9870
 8778SOL    HW237968   3.055   0.044   2.866  0.9843  0.7862 -2.6448
 8779SOL     OW37969   3.930   0.658   8.796  0.1603  0.1453  0.3506
 8779SOL    HW137970   3.956   0.744   8.829 -0.2694  0.3123  0.2608
 8779SOL    HW237971   3.981   0.599   8.850  0.6324  1.6240  1.5368
 8780SOL     OW37972   4.151   1.617  13.790 -0.0841  0.5407 -0.3045
 8780SOL    HW137973   4.145   1.712  13.777 -1.0717  0.4812 -0.3231
 8780SOL    HW237974   4.135   1.581  13.703 -0.5576  2.1042 -0.8682
 8781SOL     OW37975   0.419   1.034   5.492 -0.6657  0.1407  0.3526
 8781SOL    HW137976   0.406   1.110   5.548  2.2965  0.5271  0.4875
 8781SOL    HW237977   0.405   1.069   5.404  1.7762  0.0870 -0.0558
 8782SOL     OW37978   4.419   2.929  16.218 -0.1034  0.8440  0.0166
 8782SOL    HW137979   4.491   2.980  16.181  0.4939  0.3103  0.4249
 8782SOL    HW237980   4.436   2.843  16.180 -1.2805  0.6602 -0.0785
 8783SOL     OW37981   1.096   2.768   7.481 -0.0263  0.0808 -0.3053
 8783SOL    HW137982   1.014   2.810   7.454  0.0895  1.5847  1.6939
 8783SOL    HW237983   1.086   2.674   7.466 -2.2101  0.1415  0.6303
 8784SOL     OW37984   3.547   0.258  10.570 -0.6264  0.0957 -0.3266
 8784SOL    HW137985   3.501   0.194  10.515 -0.5629  3.4217 -4.2974
 8784SOL    HW237986   3.639   0.244  10.548 -0.1319  1.6439  0.8090
 8785SOL     OW37987   1.609   1.799   5.157 -0.2761  0.3776  0.1636
 8785SOL    HW137988   1.571   1.713   5.136  2.5581 -0.6669 -0.7502
 8785SOL    HW237989   1.536   1.852   5.125 -0.8809 -1.0816 -0.8693
 8786SOL     OW37990   1.978   2.847   5.795 -0.0329 -0.0109 -0.1077
 8786SOL    HW137991   1.927   2.775   5.756 -3.0090  0.9914  1.9101
 8786SOL    HW237992   2.065   2.819   5.768  0.5177  3.3468 -1.6663
 8787SOL     OW37993   3.898   2.344   4.249 -0.2089  0.2468  0.1115
 8787SOL    HW137994   3.820   2.399   4.237  0.2584  0.7507 -0.5885
 8787SOL    HW237995   3.881   2.316   4.339  1.2123 -0.9912 -0.0105
 8788SOL     OW37996   3.463   1.460   0.486  0.3454 -0.0704  0.1609
 8788SOL    HW137997   3.433   1.452   0.395  0.7303  0.4349 -0.0068
 8788SOL    HW237998   3.480   1.553   0.493 -1.1039  0.4672 -3.5330
 8789SOL     OW37999   1.419   1.015   0.382 -0.0288  0.3055  0.3295
 8789SOL    HW138000   1.477   1.044   0.311  0.7533  2.2880  1.7682
 8789SOL    HW238001   1.398   1.095   0.430 -2.9642 -0.6445  0.6118
 8790SOL     OW38002   4.057   3.649   5.854 -0.4203 -0.2186 -0.2953
 8790SOL    HW138003   4.134   3.666   5.799 -1.0876  0.1735 -1.1178
 8790SOL    HW238004   4.011   3.576   5.812  2.4542 -1.9496 -0.4144
 8791SOL     OW38005   1.588   3.506  11.751 -0.2568  0.1456 -0.3803
 8791SOL    HW138006   1.659   3.454  11.788  0.3314  0.4310 -1.1004
 8791SOL    HW238007   1.550   3.536  11.833  2.0504 -0.1466  0.7955
 8792SOL     OW38008   4.445   1.497   2.607  0.1421  0.4999  0.6443
 8792SOL    HW138009   4.375   1.446   2.647  1.8900 -0.8332  2.0171
 8792SOL    HW238010   4.512   1.429   2.612  1.0124  1.2576 -0.7098
 8793SOL     OW38011   0.817   3.822   6.631  0.3935 -0.2557  0.4088
 8793SOL    HW138012   0.806   3.758   6.561 -1.0708 -0.9379  1.2692
 8793SOL    HW238013   0.857   3.765   6.698 -0.6144 -1.5512 -0.0950
 8794SOL     OW38014   3.593   4.657   7.294 -0.3644 -0.6340  0.0066
 8794SOL    HW138015   3.608   0.005   7.345  0.1714 -1.4104  1.0512
 8794SOL    HW238016   3.682   4.624   7.285 -0.0210  0.0745  0.8055
 8795SOL     OW38017   3.370   3.537   0.971  0.1827  0.0168 -0.4608
 8795SOL    HW138018   3.344   3.538   0.879  1.1129 -0.7435 -0.7335
 8795SOL    HW238019   3.314   3.606   1.004 -1.5419 -2.0821  1.0298
 8796SOL     OW38020   2.853   4.502   1.730  0.4828 -0.4987  0.1472
 8796SOL    HW138021   2.899   4.435   1.781  1.2119 -0.0805  0.0341
 8796SOL    HW238022   2.868   4.575   1.790 -1.2613  1.8369 -2.2721
 8797SOL     OW38023   4.682   0.349   6.387  1.1856 -0.0342  0.2441
 8797SOL    HW138024   0.004   0.427   6.381 -0.0261  0.7754 -0.3457
 8797SOL    HW238025   4.731   0.295   6.448  3.4552 -0.7082 -2.1849
 8798SOL     OW38026   0.920   3.538   5.433  0.1734  0.5394  0.3770
 8798SOL    HW138027   0.838   3.587   5.429 -0.0698  0.0175 -0.9744
 8798SOL    HW238028   0.912   3.493   5.517  0.0689 -1.7850 -0.9013
 8799SOL     OW38029   2.232   3.644   2.356 -0.0191 -0.1801 -0.1900
 8799SOL    HW138030   2.221   3.684   2.442  1.1491 -1.0591  0.3621
 8799SOL    HW238031   2.147   3.606   2.333  0.2796 -0.9775  0.0463
 8800SOL     OW38032   1.553   3.934   4.490 -0.1002  0.0532 -0.1892
 8800SOL    HW138033   1.500   4.010   4.514 -1.2154 -0.9671  0.5740
 8800SOL    HW238034   1.494   3.862   4.512 -1.0716  1.7695  2.8915
 8801SOL     OW38035   2.369   2.793  13.296 -0.3040  0.2565 -0.2070
 8801SOL    HW138036   2.354   2.813  13.204 -1.7161  0.5704  0.0924
 8801SOL    HW238037   2.302   2.726  13.309  0.1541 -0.6636 -2.7097
 8802SOL     OW38038   2.944   4.048  11.992 -0.7534  0.1137 -0.2226
 8802SOL    HW138039   2.925   3.954  12.000 -2.6589  0.4325 -0.9180
 8802SOL    HW238040   2.941   4.061  11.897  0.8762 -0.1734 -0.3151
 8803SOL     OW38041   0.693   0.125   9.370  0.3019 -0.3244 -0.3188
 8803SOL    HW138042   0.693   0.165   9.283  0.5012 -1.6608 -0.9306
 8803SOL    HW238043   0.781   0.089   9.380  0.5059 -0.0599 -1.1492
 8804SOL     OW38044   4.724   0.457   2.568  0.4823 -0.7295 -0.1228
 8804SOL    HW138045   0.046   0.378   2.571 -0.7370 -1.5508  0.6896
 8804SOL    HW238046   0.060   0.524   2.562 -0.9543  0.6306 -1.2227
 8805SOL     OW38047   0.979   0.033   9.240 -0.3307  0.0482 -0.7918
 8805SOL    HW138048   1.018   4.695   9.292 -0.5023 -0.0114 -0.7442
 8805SOL    HW238049   1.034   0.039   9.163  0.4053  2.6244 -0.0855
 8806SOL     OW38050   1.069   3.470   0.164  0.2025 -0.0307  0.6743
 8806SOL    HW138051   1.105   3.506   0.082 -2.6922 -0.6766 -0.8630
 8806SOL    HW238052   1.082   3.378   0.144 -4.0278 -0.4681 -0.0092
 8807SOL     OW38053   1.839   1.861   7.645 -0.3657  0.0189  0.2238
 8807SOL    HW138054   1.785   1.809   7.585 -0.9989  2.0752 -0.9920
 8807SOL    HW238055   1.914   1.805   7.666  0.2112  0.2177 -1.3025
 8808SOL     OW38056   1.922   3.137   6.746  0.3064  0.1344  0.4338
 8808SOL    HW138057   2.015   3.136   6.769  0.3292 -2.5637  0.2276
 8808SOL    HW238058   1.889   3.058   6.788 -0.9427  0.5880  0.2881
 8809SOL     OW38059   3.418   0.617  12.935 -0.1609  0.3197 -0.1863
 8809SOL    HW138060   3.423   0.634  12.841  1.4386  0.5320 -0.0556
 8809SOL    HW238061   3.361   0.541  12.948  1.1102 -0.2953  1.7712
 8810SOL     OW38062   0.160   1.723   5.776 -0.4902 -0.0542  0.1647
 8810SOL    HW138063   0.078   1.740   5.729  0.6050  0.7570 -1.4541
 8810SOL    HW238064   0.118   1.709   5.861  0.4848  2.1305  1.0025
 8811SOL     OW38065   0.450   0.516  17.225  0.3564 -0.0150 -0.3264
 8811SOL    HW138066   0.423   0.604  17.201  0.6508  0.5265  1.3004
 8811SOL    HW238067   0.360   0.481  17.225  0.8178 -1.1896  2.0784
 8812SOL     OW38068   0.082   4.548   4.389  0.1950  0.7019  0.5912
 8812SOL    HW138069   0.157   4.492   4.366 -1.0442 -0.4721 -0.6172
 8812SOL    HW238070   0.047   4.585   4.308 -1.5372  2.0441  1.9539
 8813SOL     OW38071   4.323   1.092   3.793  0.4272 -0.2075  0.9233
 8813SOL    HW138072   4.389   1.090   3.723 -0.9603 -0.7672 -0.3464
 8813SOL    HW238073   4.339   1.005   3.829  1.1209 -0.8959 -1.0079
 8814SOL     OW38074   3.762   3.007   8.965  0.3355  0.1759 -0.3228
 8814SOL    HW138075   3.757   3.093   9.008 -1.2246 -0.2217  0.2912
 8814SOL    HW238076   3.765   3.038   8.875  2.8276 -0.1305 -0.3589
 8815SOL     OW38077   3.773   3.853  14.135 -0.2065  0.6807 -0.4860
 8815SOL    HW138078   3.859   3.855  14.179 -1.6940  2.0286  2.3922
 8815SOL    HW238079   3.712   3.832  14.205 -1.2234  3.0207 -0.6751
 8816SOL     OW38080   2.652   0.955   8.909 -0.0698  0.4222  0.2545
 8816SOL    HW138081   2.636   0.997   8.993 -0.5210 -0.5142  0.6245
 8816SOL    HW238082   2.724   0.894   8.925 -0.3521  0.0029 -0.0898
 8817SOL     OW38083   3.149   1.878   2.998  0.1610  0.8485 -1.0882
 8817SOL    HW138084   3.094   1.865   3.075  2.4951 -0.2547  0.3916
 8817SOL    HW238085   3.189   1.957   3.036  1.4152  0.3775 -1.4321
 8818SOL     OW38086   0.635   0.290  16.468  0.0780 -0.1797  1.1959
 8818SOL    HW138087   0.673   0.360  16.414 -0.4492  0.0266  1.0936
 8818SOL    HW238088   0.618   0.221  16.404 -1.5823  2.8483 -1.6438
 8819SOL     OW38089   3.618   4.476   2.423 -0.5740  0.3702 -0.0646
 8819SOL    HW138090   3.628   4.512   2.334  1.5094  3.6571  1.4769
 8819SOL    HW238091   3.637   4.552   2.479  1.7455 -0.4845  0.3279
 8820SOL     OW38092   2.247   1.496   6.974  0.4690 -0.5340  0.4699
 8820SOL    HW138093   2.215   1.501   7.064  0.3858 -2.7218  0.5700
 8820SOL    HW238094   2.328   1.546   6.982 -0.6000  1.1006  1.1266
 8821SOL     OW38095   0.294   2.904   9.610  0.3454  0.2806  0.5700
 8821SOL    HW138096   0.318   2.992   9.581 -0.9070  0.9462  1.5521
 8821SOL    HW238097   0.218   2.885   9.554  3.2069  0.5247 -3.3833
 8822SOL     OW38098   0.227   0.655   5.835  0.5862 -0.1847  0.1853
 8822SOL    HW138099   0.319   0.677   5.823  0.4467  0.9566  1.1761
 8822SOL    HW238100   0.217   0.589   5.766  3.0835 -0.7511  0.3863
 8823SOL     OW38101   1.711   3.489   2.801 -0.9357  0.6028  0.5929
 8823SOL    HW138102   1.653   3.542   2.747 -0.7297 -0.3781 -0.5902
 8823SOL    HW238103   1.660   3.483   2.882 -2.2748  1.5193 -0.1923
 8824SOL     OW38104   2.732   3.612   0.670  0.5209 -0.2975  0.1671
 8824SOL    HW138105   2.755   3.598   0.579 -1.1992 -1.2777 -0.1171
 8824SOL    HW238106   2.678   3.691   0.664 -0.7945 -1.1998  0.0991
 8825SOL     OW38107   2.275   3.011   0.853  0.1189  0.0511  0.3569
 8825SOL    HW138108   2.213   3.031   0.782 -0.4875  0.2785  0.9425
 8825SOL    HW238109   2.261   2.917   0.864 -1.5698  0.6067  3.0073
 8826SOL     OW38110   2.001   1.257   2.406 -0.1469  0.6017 -0.1282
 8826SOL    HW138111   2.047   1.175   2.387 -0.2678  0.9270 -1.8516
 8826SOL    HW238112   2.067   1.315   2.367  0.1237  1.2882  1.3507
 8827SOL     OW38113   2.532   3.820   0.505 -0.2284  0.1315 -0.5974
 8827SOL    HW138114   2.568   3.859   0.585  1.3942 -0.6458 -0.9358
 8827SOL    HW238115   2.500   3.897   0.458 -0.9898 -0.3063 -0.7977
 8828SOL     OW38116   2.586   3.269   3.912  0.0294 -0.1974  0.1306
 8828SOL    HW138117   2.525   3.343   3.912 -0.1808 -0.3750  0.6475
 8828SOL    HW238118   2.578   3.257   4.006 -2.0049  0.2069 -0.0033
 8829SOL     OW38119   1.695   2.560   6.412  0.2940  0.2111  0.1306
 8829SOL    HW138120   1.707   2.613   6.333  0.9129 -1.0611 -0.6347
 8829SOL    HW238121   1.778   2.512   6.421 -0.8447 -1.9799 -0.9140
 8830SOL     OW38122   0.426   3.179   2.795 -0.7730 -0.4265 -0.3941
 8830SOL    HW138123   0.416   3.214   2.706  1.1821  0.3630 -0.3029
 8830SOL    HW238124   0.517   3.152   2.789  0.2084  2.4436  1.4302
 8831SOL     OW38125   2.924   2.924   5.883  0.0738 -0.4636 -0.8295
 8831SOL    HW138126   2.940   2.988   5.952  0.3977 -1.9603  0.4785
 8831SOL    HW238127   2.837   2.889   5.900  0.6220 -2.0273 -1.2684
 8832SOL     OW38128   0.965   4.133   8.592 -0.2816 -0.0364  0.8100
 8832SOL    HW138129   0.990   4.225   8.580 -3.2665  0.7222  0.3375
 8832SOL    HW238130   1.049   4.101   8.624 -0.3477  0.6630  1.7073
 8833SOL     OW38131   3.014   4.231  13.670 -0.6163 -0.4310  0.0978
 8833SOL    HW138132   3.000   4.145  13.711 -0.6686 -0.2070  0.5519
 8833SOL    HW238133   3.098   4.221  13.626 -0.4032  1.5414  0.0430
 8834SOL     OW38134   3.197   0.754  17.564  0.0903 -0.5508  0.8322
 8834SOL    HW138135   3.154   0.839  17.579 -0.3878 -0.5013 -0.7624
 8834SOL    HW238136   3.275   0.787  17.520  0.7366 -2.2406  0.7365
 8835SOL     OW38137   2.360   0.200   6.132 -0.5838 -0.7968 -0.3749
 8835SOL    HW138138   2.336   0.271   6.072  0.0621  0.4319  0.8037
 8835SOL    HW238139   2.384   0.253   6.208 -0.4618  0.4674 -1.2907
 8836SOL     OW38140   0.638   2.332   5.898 -0.5670  0.4301 -0.1004
 8836SOL    HW138141   0.553   2.313   5.938 -0.1873 -0.2615  0.3739
 8836SOL    HW238142   0.691   2.253   5.894 -0.1277  0.7103  0.2182
 8837SOL     OW38143   4.039   0.553  17.279 -0.5909 -0.1438 -0.6461
 8837SOL    HW138144   4.120   0.564  17.231  0.0254  0.7510  0.6048
 8837SOL    HW238145   4.011   0.643  17.266  1.0797  0.5466  0.5762
 8838SOL     OW38146   0.207   1.415   5.267  0.2050 -0.2204 -0.5682
 8838SOL    HW138147   0.188   1.423   5.361 -2.1247  3.0589 -1.3197
 8838SOL    HW238148   0.200   1.507   5.240  1.2904  0.7511  2.4317
 8839SOL     OW38149   0.545   2.236   8.784 -0.6318  0.6874 -0.3127
 8839SOL    HW138150   0.453   2.247   8.761 -0.5156 -0.7496 -1.3826
 8839SOL    HW238151   0.546   2.148   8.820 -1.2353  1.4459  1.5748
 8840SOL     OW38152   3.847   4.330   3.487 -0.1791 -0.1021  0.2891
 8840SOL    HW138153   3.931   4.354   3.448 -1.2311 -0.5123 -2.2436
 8840SOL    HW238154   3.816   4.415   3.520 -0.4538 -0.1438  0.1431
 8841SOL     OW38155   1.952   3.148   0.081  0.0237  0.5544  0.4161
 8841SOL    HW138156   1.895   3.090   0.132  0.1998  1.4123  1.6113
 8841SOL    HW238157   2.019   3.169   0.147  0.4975 -0.3556  0.2155
 8842SOL     OW38158   0.562   0.282   3.576  0.4545 -0.4852 -0.2835
 8842SOL    HW138159   0.524   0.352   3.630  1.4410  0.9908 -1.5077
 8842SOL    HW238160   0.633   0.260   3.636  1.0197  0.6144 -0.5511
 8843SOL     OW38161   2.534   0.071   2.260 -0.4483  0.1180 -0.3396
 8843SOL    HW138162   2.519   4.708   2.263  0.0680 -0.0140 -1.8652
 8843SOL    HW238163   2.543   0.090   2.354 -0.9262  1.2250 -0.5240
 8844SOL     OW38164   2.077   3.444   7.513  0.0390  0.1355  0.4868
 8844SOL    HW138165   2.117   3.475   7.594  2.1671 -0.6713 -0.2693
 8844SOL    HW238166   2.024   3.523   7.502  3.1470  2.4384  1.9875
 8845SOL     OW38167   2.753   0.249   5.868  0.1588  0.0421  0.1825
 8845SOL    HW138168   2.750   0.166   5.820 -0.3414 -0.6664  1.4323
 8845SOL    HW238169   2.701   0.309   5.814 -0.1915  0.6903  1.2475
 8846SOL     OW38170   4.291   0.782  10.080  0.3611 -0.3525 -0.2363
 8846SOL    HW138171   4.358   0.715  10.070  0.0326 -0.5980 -0.8039
 8846SOL    HW238172   4.343   0.852  10.040  1.0701 -2.0373 -2.2939
 8847SOL     OW38173   3.451   0.378   1.181  0.1172 -0.3507 -0.8869
 8847SOL    HW138174   3.361   0.409   1.194  0.6137  0.8111 -0.2183
 8847SOL    HW238175   3.463   0.376   1.086 -0.5777  1.7573 -1.0207
 8848SOL     OW38176   2.495   3.050   2.737 -0.7145 -0.3186 -0.8645
 8848SOL    HW138177   2.482   3.072   2.829  0.2230  0.0382 -0.8168
 8848SOL    HW238178   2.591   3.056   2.743 -0.9802  1.0062  2.0627
 8849SOL     OW38179   1.295   4.328   4.439  0.2848 -0.1587  0.8112
 8849SOL    HW138180   1.338   4.407   4.407  0.6542  0.4548  2.8148
 8849SOL    HW238181   1.215   4.330   4.388  0.1154 -0.2489  1.0743
 8850SOL     OW38182   4.034   3.403   6.573  0.3109  0.6823 -0.2868
 8850SOL    HW138183   3.958   3.356   6.539  0.0034  0.9705  0.0175
 8850SOL    HW238184   4.103   3.338   6.557 -0.9593 -0.6771 -0.2086
 8851SOL     OW38185   3.285   1.555   5.751 -0.9159  0.2723 -0.0571
 8851SOL    HW138186   3.346   1.612   5.798 -0.5019 -1.4516  1.5041
 8851SOL    HW238187   3.210   1.549   5.810  0.5763  0.7949  1.9073
 8852SOL     OW38188   2.715   1.748  16.610  0.1182  0.2742 -0.1896
 8852SOL    HW138189   2.776   1.722  16.679  1.9704  3.1882 -0.7419
 8852SOL    HW238190   2.629   1.721  16.643 -0.0219  0.2394 -0.5852
 8853SOL     OW38191   2.557   0.170   7.636 -0.0544  0.1597 -0.2832
 8853SOL    HW138192   2.527   0.215   7.714 -1.2167 -0.6555 -0.2685
 8853SOL    HW238193   2.626   0.113   7.670  0.3499  1.1336  0.5400
 8854SOL     OW38194   0.031   4.036   5.905  0.0101  0.5917 -0.3510
 8854SOL    HW138195   4.730   4.002   5.988  0.3618 -0.8980 -0.8023
 8854SOL    HW238196   0.122   4.056   5.926 -0.5241  2.7822 -0.1564
 8855SOL     OW38197   4.377   4.724   2.337  0.0942  0.2570 -0.2850
 8855SOL    HW138198   4.393   4.634   2.311  1.0461  0.7047 -1.2434
 8855SOL    HW238199   4.311   0.010   2.270 -0.6443  1.2172  0.6986
 8856SOL     OW38200   4.134   2.669   3.624 -0.3027 -0.1884  0.2257
 8856SOL    HW138201   4.201   2.623   3.676  0.9074  2.2501  0.8048
 8856SOL    HW238202   4.188   2.744   3.600 -2.4204  0.8597 -1.1872
 8857SOL     OW38203   2.651   2.984   5.299  0.1135  0.2640  0.2957
 8857SOL    HW138204   2.572   3.015   5.343 -0.0149 -0.7432  0.7780
 8857SOL    HW238205   2.637   2.890   5.292 -0.5330  0.4598 -0.9995
 8858SOL     OW38206   1.872   3.712   8.093  0.1803 -0.2465 -0.2653
 8858SOL    HW138207   1.946   3.709   8.033  0.3100 -1.5437 -0.0392
 8858SOL    HW238208   1.814   3.647   8.054 -1.5448  1.9997 -1.4179
 8859SOL     OW38209   2.683   2.199   6.689  0.0372 -0.6871  0.2404
 8859SOL    HW138210   2.610   2.146   6.721 -0.1026  1.2550  3.1680
 8859SOL    HW238211   2.659   2.278   6.737  0.4882  0.7778 -1.9442
 8860SOL     OW38212   1.596   1.739   7.860 -0.0411  0.1675 -0.5826
 8860SOL    HW138213   1.607   1.831   7.836  3.0748  0.1563  0.8112
 8860SOL    HW238214   1.545   1.744   7.941  1.1929 -1.0217  0.2652
 8861SOL     OW38215   0.917   0.637   9.177 -0.0623 -0.7253  0.0636
 8861SOL    HW138216   0.918   0.547   9.209  2.3260 -0.9146 -0.5810
 8861SOL    HW238217   0.979   0.631   9.104  0.5565 -0.7454  0.6020
 8862SOL     OW38218   0.423   4.532   8.683  0.0398 -0.0291 -0.4182
 8862SOL    HW138219   0.410   4.487   8.600 -1.7452 -1.5830  0.7095
 8862SOL    HW238220   0.334   4.563   8.696  0.4900  0.7827  0.7242
 8863SOL     OW38221   1.896   0.220   6.278  0.3768  0.2996 -0.8187
 8863SOL    HW138222   1.825   0.206   6.340  0.3904 -0.5436 -0.9977
 8863SOL    HW238223   1.959   0.148   6.283 -0.7807 -0.6984 -0.5972
 8864SOL     OW38224   0.578   2.065   3.454  0.1290  0.0945 -0.3026
 8864SOL    HW138225   0.525   2.119   3.395 -0.0657  0.4894  0.2321
 8864SOL    HW238226   0.641   2.025   3.394 -1.1955 -1.4122 -0.6753
 8865SOL     OW38227   2.998   1.964   3.595 -0.1318  0.1794  0.1135
 8865SOL    HW138228   3.068   2.026   3.576  0.1568 -0.5122 -1.1234
 8865SOL    HW238229   2.923   2.008   3.554  0.4240 -0.3927 -1.5073
 8866SOL     OW38230   2.762   0.603   1.683  0.3925  0.3010 -0.3837
 8866SOL    HW138231   2.765   0.507   1.685 -0.0558  0.3277  1.8547
 8866SOL    HW238232   2.824   0.630   1.750 -1.7524 -0.6390  1.9953
 8867SOL     OW38233   0.599   4.543   2.300 -0.3078  0.3282 -0.7376
 8867SOL    HW138234   0.602   4.621   2.357  1.4143 -1.7740  2.0624
 8867SOL    HW238235   0.674   4.552   2.242  1.1829  1.7829  1.3929
 8868SOL     OW38236   1.940   0.476   5.133 -0.0731  0.3656  0.0909
 8868SOL    HW138237   1.981   0.391   5.146  0.8242  0.6291 -0.9651
 8868SOL    HW238238   1.845   0.465   5.138  0.3064 -2.5180  0.8480
 8869SOL     OW38239   3.713   0.003   0.914 -0.6460 -0.1684 -0.4107
 8869SOL    HW138240   3.660   4.673   0.864 -1.6369 -0.9621  1.6198
 8869SOL    HW238241   3.728   4.684   0.994  2.2227  1.7477  0.2684
 8870SOL     OW38242   2.355   0.417   5.926 -0.0154 -0.0980  0.9043
 8870SOL    HW138243   2.416   0.474   5.878 -0.4861 -0.0314  0.3869
 8870SOL    HW238244   2.344   0.478   5.999 -0.5415  0.7147  0.1563
 8871SOL     OW38245   1.493   4.428   5.108 -0.5120 -0.2093 -0.1105
 8871SOL    HW138246   1.550   4.501   5.131 -3.5948  1.7526  1.3040
 8871SOL    HW238247   1.554   4.369   5.063 -1.8672 -2.1160  0.6052
 8872SOL     OW38248   1.389   1.975   1.892 -0.3912  0.3599  0.4136
 8872SOL    HW138249   1.465   1.933   1.934  1.1686  0.3867 -2.3662
 8872SOL    HW238250   1.375   1.915   1.819  1.4710  1.9951 -1.2742
 8873SOL     OW38251   2.693   2.816  15.528  0.0757 -0.2012  0.5812
 8873SOL    HW138252   2.645   2.773  15.458  1.4291 -2.1193  0.8360
 8873SOL    HW238253   2.729   2.741  15.575  0.6983  0.7775  1.6717
 8874SOL     OW38254   1.945   3.826   4.312 -0.0405 -0.0280 -0.0967
 8874SOL    HW138255   1.861   3.856   4.277  0.1074  2.7038  1.8786
 8874SOL    HW238256   2.000   3.850   4.237  1.2079 -0.8224  0.5722
 8875SOL     OW38257   4.508   4.407   9.582  0.1715 -0.1235  0.5042
 8875SOL    HW138258   4.583   4.388   9.525 -0.6727 -1.4504 -0.1722
 8875SOL    HW238259   4.462   4.482   9.544 -0.7836 -1.3181 -0.7026
 8876SOL     OW38260   4.163   0.080   5.185  0.7418 -0.6547 -0.1701
 8876SOL    HW138261   4.077   0.040   5.199  0.8838  0.1413  3.1889
 8876SOL    HW238262   4.164   0.151   5.250 -0.7052  0.4860 -1.3856
 8877SOL     OW38263   3.156   1.339   7.020  0.5118 -0.2503  0.2660
 8877SOL    HW138264   3.234   1.314   7.067  0.2401 -1.8181 -0.1232
 8877SOL    HW238265   3.088   1.288   7.064  0.7873 -0.8517 -0.0120
 8878SOL     OW38266   0.503   4.561   5.892  0.0058  0.6578 -0.7373
 8878SOL    HW138267   0.510   4.656   5.886  1.1575  0.7117  1.6685
 8878SOL    HW238268   0.550   4.543   5.973 -3.7614  1.1682  1.5315
 8879SOL     OW38269   2.200   4.114   9.763 -0.4325  0.4142 -0.1088
 8879SOL    HW138270   2.264   4.046   9.785  0.4073  1.9779  2.1975
 8879SOL    HW238271   2.140   4.111   9.837  0.2323 -3.4290  0.2667
 8880SOL     OW38272   0.085   3.112   4.061 -0.1501 -0.5848  0.5975
 8880SOL    HW138273   0.048   3.167   4.130  0.6128  1.5253 -0.6833
 8880SOL    HW238274   0.138   3.179   4.017 -2.6353  0.9458 -0.0296
 8881SOL     OW38275   3.536   2.633   5.424 -0.3468  0.3563  0.1151
 8881SOL    HW138276   3.492   2.713   5.451  2.0587  1.5423  0.5503
 8881SOL    HW238277   3.466   2.569   5.435  0.4241 -0.5477 -0.2482
 8882SOL     OW38278   0.542   1.688  11.750 -0.0692  0.5178  0.1273
 8882SOL    HW138279   0.603   1.750  11.708 -0.8013  3.2247  3.0717
 8882SOL    HW238280   0.509   1.660  11.665  0.5344  0.7031 -0.1717
 8883SOL     OW38281   0.667   1.388  10.366 -0.6923  0.2359 -0.3612
 8883SOL    HW138282   0.648   1.299  10.335 -0.2274  0.2011 -0.5380
 8883SOL    HW238283   0.744   1.374  10.421  0.7754 -0.8230 -2.6829
 8884SOL     OW38284   3.326   1.716  14.700 -0.3365 -0.1739 -0.1758
 8884SOL    HW138285   3.267   1.786  14.671  0.5515  1.9470  3.1902
 8884SOL    HW238286   3.381   1.775  14.751  0.3492 -1.6837  0.8267
 8885SOL     OW38287   0.862   3.951  14.823  0.6635  0.0691 -0.3037
 8885SOL    HW138288   0.908   3.871  14.847 -0.3863 -0.9451 -1.6647
 8885SOL    HW238289   0.807   3.923  14.750 -0.9372  0.5496  0.6984
 8886SOL     OW38290   4.510   4.137   3.080  0.6071 -0.6091  0.2405
 8886SOL    HW138291   4.454   4.060   3.070  0.9060 -0.8582  0.4813
 8886SOL    HW238292   4.580   4.096   3.131  2.0749  1.9174  0.2357
 8887SOL     OW38293   4.678   4.382   1.896  0.1689 -0.5084 -0.3865
 8887SOL    HW138294   4.639   4.296   1.912 -1.6756  0.4507  0.2178
 8887SOL    HW238295   0.005   4.390   1.971 -1.8438 -1.4701  1.3256
 8888SOL     OW38296   4.439   1.193   0.351  0.2994  0.1950  0.3734
 8888SOL    HW138297   4.456   1.280   0.315 -2.5415  1.1232  1.2549
 8888SOL    HW238298   4.524   1.150   0.350  1.2655  2.1112 -0.2821
 8889SOL     OW38299   2.768   1.580  15.874 -0.2084  0.0354  0.4465
 8889SOL    HW138300   2.676   1.582  15.902  0.2807 -0.8226  2.0802
 8889SOL    HW238301   2.763   1.651  15.810 -0.2514 -0.5629 -0.2160
 8890SOL     OW38302   0.864   0.524   3.954  0.4778  0.3166 -0.2630
 8890SOL    HW138303   0.817   0.458   3.904  0.2462 -0.0340  0.4185
 8890SOL    HW238304   0.896   0.583   3.885  0.2632 -0.2133 -0.8177
 8891SOL     OW38305   1.833   0.389   7.960  0.0078 -0.0770 -0.2902
 8891SOL    HW138306   1.888   0.462   7.988  2.3420 -1.4499 -1.2077
 8891SOL    HW238307   1.748   0.412   7.997  0.5321 -1.5959  1.8627
 8892SOL     OW38308   2.357   3.120   8.561  0.2011 -0.1362  0.1887
 8892SOL    HW138309   2.426   3.149   8.501  0.1281 -1.0978 -0.3651
 8892SOL    HW238310   2.397   3.037   8.589 -0.7789 -0.3030  1.0928
 8893SOL     OW38311   1.987   2.344   5.698  0.1373 -0.1735 -0.3660
 8893SOL    HW138312   1.966   2.319   5.788  1.8600 -1.2448 -0.2582
 8893SOL    HW238313   1.905   2.331   5.651 -1.0171  1.2757  1.2406
 8894SOL     OW38314   2.775   4.062   6.267  0.5267 -0.5215  0.2660
 8894SOL    HW138315   2.791   4.112   6.347  3.0671 -0.9475  0.0391
 8894SOL    HW238316   2.825   4.111   6.201  1.2956  0.4507  1.5623
 8895SOL     OW38317   2.033   3.044   2.261  0.6644 -0.0370 -0.3884
 8895SOL    HW138318   2.080   3.049   2.344  2.2454  0.5235 -1.3193
 8895SOL    HW238319   1.993   2.957   2.261  0.4504  0.0612 -0.1229
 8896SOL     OW38320   4.108   0.990  14.098 -0.0454  0.1955  0.0402
 8896SOL    HW138321   4.053   1.063  14.125 -0.8018  0.2975 -1.7393
 8896SOL    HW238322   4.185   1.045  14.087 -0.7872  1.2829  0.3318
 8897SOL     OW38323   1.677   1.598   1.970 -0.3882 -0.0326  0.3796
 8897SOL    HW138324   1.608   1.573   2.032 -0.5850  0.6646  0.4448
 8897SOL    HW238325   1.687   1.510   1.936 -0.4655  0.3256 -0.5829
 8898SOL     OW38326   3.426   0.712   3.738 -0.6376  0.2412  0.0242
 8898SOL    HW138327   3.507   0.762   3.745  0.0246 -1.0593  1.5204
 8898SOL    HW238328   3.366   0.785   3.728 -0.9828  0.0435  0.6664
 8899SOL     OW38329   4.722   4.218   5.338 -0.0752  0.0359  0.2753
 8899SOL    HW138330   0.040   4.297   5.319 -0.9007  0.7578  1.0882
 8899SOL    HW238331   0.028   4.186   5.420 -1.9810 -0.0139  1.1351
 8900SOL     OW38332   3.743   4.383   9.372  0.0481 -0.4648 -0.2939
 8900SOL    HW138333   3.824   4.344   9.341  1.0165  1.3548 -0.0603
 8900SOL    HW238334   3.786   4.422   9.448 -0.6414 -1.4684  0.6152
 8901SOL     OW38335   3.454   1.104  14.703 -0.7489  0.2983  0.2772
 8901SOL    HW138336   3.403   1.171  14.748 -0.0844 -0.2918  1.9321
 8901SOL    HW238337   3.523   1.078  14.764  0.2294  2.5346  0.1282
 8902SOL     OW38338   0.968   2.704   4.390  0.7158  0.0567  0.0048
 8902SOL    HW138339   0.925   2.789   4.383 -0.3426 -0.3847  1.0803
 8902SOL    HW238340   0.933   2.654   4.315 -1.3910  2.0079 -0.3168
 8903SOL     OW38341   3.126   4.644   7.561 -0.3288  0.2797  0.0554
 8903SOL    HW138342   3.123   4.552   7.588 -1.0147 -0.6055 -3.0105
 8903SOL    HW238343   3.221   4.654   7.566 -0.2569 -0.6515  0.6339
 8904SOL     OW38344   3.868   2.189   7.203 -0.0038  0.2511 -0.2100
 8904SOL    HW138345   3.807   2.149   7.264  0.5727  1.1451  0.9639
 8904SOL    HW238346   3.815   2.255   7.158 -1.2610  0.0940  1.0371
 8905SOL     OW38347   1.480   1.223   5.171  0.5256 -0.1270 -0.3256
 8905SOL    HW138348   1.484   1.319   5.174 -1.6870 -0.0674  0.2025
 8905SOL    HW238349   1.412   1.209   5.106 -1.4588 -0.6516  1.8800
 8906SOL     OW38350   1.022   3.965   5.947  0.4215 -0.0638 -0.2058
 8906SOL    HW138351   0.978   3.997   6.026  0.3709 -1.1499  0.1979
 8906SOL    HW238352   0.980   4.019   5.880 -0.7160 -0.7912 -0.0670
 8907SOL     OW38353   2.833   2.698  17.082 -0.3227 -0.3039 -0.3133
 8907SOL    HW138354   2.746   2.730  17.106 -0.4751  0.7040 -2.1907
 8907SOL    HW238355   2.825   2.608  17.114 -0.2180  0.4379  1.8245
 8908SOL     OW38356   1.067   0.737   2.163  0.0105 -0.7861  0.0451
 8908SOL    HW138357   1.130   0.711   2.096 -1.1046 -2.0312 -0.5303
 8908SOL    HW238358   1.003   0.666   2.154 -0.7065 -0.1475  0.0751
 8909SOL     OW38359   0.575   1.581  10.154 -0.7119  0.3996  0.0954
 8909SOL    HW138360   0.632   1.552  10.083 -4.3664  0.8265 -3.0344
 8909SOL    HW238361   0.599   1.510  10.214  0.3035  1.9973  1.5567
 8910SOL     OW38362   3.773   0.616   2.378  0.1114  0.1518 -0.2398
 8910SOL    HW138363   3.866   0.593   2.373  0.0312  0.0482 -1.2757
 8910SOL    HW238364   3.775   0.670   2.457 -0.4389 -0.2787  0.0665
 8911SOL     OW38365   1.919   1.112   3.711  0.0015  0.0538  0.6587
 8911SOL    HW138366   1.889   1.045   3.650  0.3791  1.5168 -1.1390
 8911SOL    HW238367   1.917   1.060   3.791 -2.0749 -0.5201  0.2342
 8912SOL     OW38368   1.278   0.796   2.646 -0.3277 -0.0465  0.4288
 8912SOL    HW138369   1.358   0.809   2.697 -1.0045 -0.5466  1.6023
 8912SOL    HW238370   1.213   0.817   2.712 -1.5352 -0.7814 -0.5307
 8913SOL     OW38371   3.810   0.903   0.180  0.3883  0.1174 -0.2669
 8913SOL    HW138372   3.903   0.886   0.166 -0.1869 -2.1476 -1.4633
 8913SOL    HW238373   3.801   0.972   0.114 -0.1745  0.3634  0.0706
 8914SOL     OW38374   4.217   2.901  13.492 -0.3439 -0.8691 -0.2601
 8914SOL    HW138375   4.142   2.936  13.541  1.5541 -1.1914  2.9094
 8914SOL    HW238376   4.269   2.981  13.496 -1.4970  0.0769 -3.7067
 8915SOL     OW38377   0.618   0.704   3.592  0.1626 -0.2251  0.0484
 8915SOL    HW138378   0.568   0.785   3.583 -0.4572 -0.4811  1.2040
 8915SOL    HW238379   0.692   0.730   3.538  0.3901 -1.5160 -0.2538
 8916SOL     OW38380   2.829   3.982   8.224  0.4236  0.0111  0.0949
 8916SOL    HW138381   2.903   3.972   8.284  1.1561  0.9161 -0.6679
 8916SOL    HW238382   2.805   4.072   8.247  0.4405  0.3499 -1.1863
 8917SOL     OW38383   3.448   3.143  12.085 -0.1391  0.7403  0.1681
 8917SOL    HW138384   3.369   3.178  12.126  0.3551  0.8753  0.9989
 8917SOL    HW238385   3.423   3.146  11.993  1.4385  1.3748 -0.2343
 8918SOL     OW38386   1.092   4.708   8.789 -0.3019 -0.1429 -0.0314
 8918SOL    HW138387   1.167   4.650   8.803 -0.7745 -1.0219 -1.1097
 8918SOL    HW238388   1.059   4.683   8.702 -2.1043  2.2782 -0.0429
 8919SOL     OW38389   1.313   3.113   2.350 -0.1404 -0.3092 -0.1197
 8919SOL    HW138390   1.405   3.137   2.349  0.1584 -1.4930 -0.8632
 8919SOL    HW238391   1.321   3.037   2.408 -0.3193  0.0061  0.3166
 8920SOL     OW38392   0.561   2.133   2.203 -0.0138  0.2201 -0.2357
 8920SOL    HW138393   0.637   2.116   2.148  1.7570  0.8754  1.9909
 8920SOL    HW238394   0.534   2.042   2.212 -1.0068  0.5569  0.2067
 8921SOL     OW38395   3.434   2.750   8.266 -0.1961 -0.1860 -0.7582
 8921SOL    HW138396   3.422   2.827   8.320  1.3704  0.9846 -2.0765
 8921SOL    HW238397   3.435   2.790   8.179  0.9642  0.1001 -0.6127
 8922SOL     OW38398   0.698   2.826   9.339  0.0097  0.1064  0.1142
 8922SOL    HW138399   0.671   2.816   9.248  1.1330  1.7031 -0.3824
 8922SOL    HW238400   0.611   2.830   9.379  1.0956  2.1335  2.2727
 8923SOL     OW38401   1.647   0.248   2.607 -0.5413  0.6286 -0.5382
 8923SOL    HW138402   1.562   0.211   2.630  0.1815 -0.7893 -0.1834
 8923SOL    HW238403   1.649   0.229   2.513  0.6182  0.5524 -0.5027
 8924SOL     OW38404   4.429   3.073   1.793 -0.3604  0.3682 -0.2180
 8924SOL    HW138405   4.357   3.102   1.849 -0.9632  0.0269 -0.8140
 8924SOL    HW238406   4.472   3.157   1.785  2.3622 -0.9170  1.0773
 8925SOL     OW38407   2.240   1.802   8.229  0.2271 -0.3438 -0.3047
 8925SOL    HW138408   2.328   1.825   8.258  0.4832 -0.6119 -0.8753
 8925SOL    HW238409   2.184   1.796   8.306  1.5014  0.0841  0.6479
 8926SOL     OW38410   2.647   4.723  10.801 -0.2481 -0.1500 -0.3846
 8926SOL    HW138411   2.694   0.075  10.800 -1.7570  0.6336 -3.0983
 8926SOL    HW238412   2.603   4.728  10.886 -2.4280 -0.6320 -1.4885
 8927SOL     OW38413   1.641   2.457   2.598  0.4461 -0.2479 -0.2317
 8927SOL    HW138414   1.574   2.498   2.654  1.3033  1.0559 -0.1686
 8927SOL    HW238415   1.713   2.459   2.660  1.3962  1.7722 -1.3990
 8928SOL     OW38416   3.065   1.072   7.839 -0.2413  0.2892 -0.2036
 8928SOL    HW138417   3.032   1.160   7.824  0.8315  1.0606  1.9031
 8928SOL    HW238418   3.140   1.099   7.893  1.7316  0.0680 -2.8179
 8929SOL     OW38419   2.296   0.155  17.354  0.3091  0.0318  0.2297
 8929SOL    HW138420   2.208   0.120  17.337  0.2694  0.0795  0.3344
 8929SOL    HW238421   2.338   0.121  17.275  0.7970  1.3217 -0.0526
 8930SOL     OW38422   4.633   4.458   8.134  0.3296  0.4963 -0.5465
 8930SOL    HW138423   4.656   4.528   8.073  1.5896  0.0224 -0.6222
 8930SOL    HW238424   4.543   4.457   8.102  0.3900 -0.5174 -0.6732
 8931SOL     OW38425   2.490   1.420   8.281  0.2840  0.3657  0.1717
 8931SOL    HW138426   2.559   1.376   8.330 -0.4365 -1.2023 -0.1999
 8931SOL    HW238427   2.418   1.379   8.328  0.7225 -0.0190  0.5076
 8932SOL     OW38428   4.033   3.382  15.549  0.0971 -0.2731 -0.0961
 8932SOL    HW138429   4.034   3.452  15.614 -1.5726  0.6127 -1.0311
 8932SOL    HW238430   4.063   3.435  15.475 -0.4717  0.4463  0.1929
 8933SOL     OW38431   2.470   1.987   0.580  0.8373 -0.0927  0.1326
 8933SOL    HW138432   2.469   1.975   0.485  0.8361 -0.3221  0.1620
 8933SOL    HW238433   2.547   1.932   0.593  0.0123 -0.5853  2.8758
 8934SOL     OW38434   4.726   3.761   7.474 -0.2395 -0.2386 -0.6997
 8934SOL    HW138435   0.082   3.724   7.477 -0.0646  0.0089 -2.5820
 8934SOL    HW238436   4.710   3.772   7.568  1.1556  2.8901 -0.8407
 8935SOL     OW38437   2.840   1.399  13.435 -0.6071 -0.1846  0.0267
 8935SOL    HW138438   2.792   1.345  13.497 -1.3438 -1.4994 -1.6817
 8935SOL    HW238439   2.838   1.338  13.361 -2.1940 -1.6995  1.2995
 8936SOL     OW38440   2.895   1.550   6.991  0.3445 -0.2914 -0.2164
 8936SOL    HW138441   2.815   1.573   7.039 -0.1512 -2.3109 -0.0835
 8936SOL    HW238442   2.937   1.635   6.981 -3.2620  1.4703 -0.7118
 8937SOL     OW38443   4.475   1.568   6.215 -0.0730  0.2196 -0.8748
 8937SOL    HW138444   4.465   1.489   6.269 -2.2657 -0.1326 -1.7880
 8937SOL    HW238445   4.517   1.525   6.140  1.8745 -0.2200  0.4737
 8938SOL     OW38446   2.258   0.813  11.245 -0.6154  0.3495  0.1258
 8938SOL    HW138447   2.301   0.897  11.227 -0.9165  0.2233 -1.1893
 8938SOL    HW238448   2.255   0.773  11.158  0.1750  0.6116 -0.0266
 8939SOL     OW38449   4.545   2.339   7.703  0.2980  0.1894  0.3738
 8939SOL    HW138450   4.509   2.318   7.616  2.4438 -1.6386 -0.0626
 8939SOL    HW238451   4.587   2.256   7.725 -1.2617 -0.9806 -1.0306
 8940SOL     OW38452   2.310   4.228   5.407 -0.3515 -0.1541  0.0777
 8940SOL    HW138453   2.359   4.154   5.443 -0.3430 -0.2740 -0.1837
 8940SOL    HW238454   2.379   4.292   5.425 -0.7686 -0.0274  1.2325
 8941SOL     OW38455   3.469   3.413   3.092  0.2475 -0.8986  0.1385
 8941SOL    HW138456   3.387   3.445   3.129 -0.3806 -0.0585 -1.9757
 8941SOL    HW238457   3.527   3.451   3.157  1.1318  0.3513 -1.3648
 8942SOL     OW38458   1.501   0.233   2.271  0.1014 -0.3204 -0.1012
 8942SOL    HW138459   1.516   0.152   2.222 -0.6041 -1.3191  1.3434
 8942SOL    HW238460   1.473   0.284   2.195  0.3068 -0.5988 -0.3699
 8943SOL     OW38461   3.980   2.662   3.205  0.2949 -0.1016 -0.0217
 8943SOL    HW138462   3.909   2.722   3.228  1.2046  1.1818 -0.5802
 8943SOL    HW238463   4.030   2.728   3.158  0.4294 -0.2692 -0.1132
 8944SOL     OW38464   1.119   3.793   7.985  0.0489  0.0794 -0.1438
 8944SOL    HW138465   1.167   3.780   8.067 -1.8682 -3.2293  0.4360
 8944SOL    HW238466   1.046   3.848   8.015  0.2876  0.1404  0.3335
 8945SOL     OW38467   1.159   0.747   7.458  0.0750  0.2138  0.2491
 8945SOL    HW138468   1.104   0.814   7.499  0.6231  0.9764 -0.2627
 8945SOL    HW238469   1.246   0.785   7.470 -0.0728  0.4878  0.4580
 8946SOL     OW38470   0.802   1.529   3.786  0.1574  0.4144  0.1452
 8946SOL    HW138471   0.793   1.623   3.801  1.6543  1.0549 -2.9613
 8946SOL    HW238472   0.785   1.516   3.693  1.2310 -2.2535  0.3153
 8947SOL     OW38473   3.341   4.134   5.475  0.0467  0.1219  0.3023
 8947SOL    HW138474   3.295   4.157   5.556  0.5758  2.1175  0.0494
 8947SOL    HW238475   3.395   4.211   5.458  1.3275 -1.2666 -1.8643
 8948SOL     OW38476   3.611   0.935   1.183  0.0252  0.6361  0.2221
 8948SOL    HW138477   3.696   0.959   1.148  0.5511 -3.0459 -1.0250
 8948SOL    HW238478   3.618   0.967   1.273 -1.0255 -0.1538  0.5864
 8949SOL     OW38479   1.364   3.223   7.861 -0.0971  0.1180 -0.4603
 8949SOL    HW138480   1.363   3.197   7.953  1.2104  2.7243  0.2875
 8949SOL    HW238481   1.350   3.317   7.866  0.6548  0.2773 -1.2977
 8950SOL     OW38482   4.332   4.031   6.840 -0.0004 -0.2702  0.4809
 8950SOL    HW138483   4.401   4.040   6.906  0.2212  3.0369 -0.2056
 8950SOL    HW238484   4.369   4.080   6.767 -0.0417  2.6492  2.4183
 8951SOL     OW38485   4.475   0.542   8.849 -0.6388 -0.1968 -0.7355
 8951SOL    HW138486   4.548   0.550   8.787 -0.9113  0.2377 -0.9994
 8951SOL    HW238487   4.500   0.481   8.918  0.2935 -1.2772 -2.0228
 8952SOL     OW38488   1.487   2.793   3.409 -0.3482 -0.3112  0.1694
 8952SOL    HW138489   1.574   2.811   3.443  0.5834 -1.0643 -1.8620
 8952SOL    HW238490   1.451   2.725   3.466 -2.9511  1.0743  0.1767
 8953SOL     OW38491   2.680   2.850   1.536  0.6121 -0.0922 -0.1744
 8953SOL    HW138492   2.674   2.871   1.443 -0.9441  1.2641  0.2360
 8953SOL    HW238493   2.745   2.914   1.564 -0.4148 -0.0717  2.1887
 8954SOL     OW38494   1.891   4.646   5.905 -0.0069 -0.2405  0.2423
 8954SOL    HW138495   1.842   4.565   5.917  0.4549 -0.4458  0.7983
 8954SOL    HW238496   1.825   4.688   5.851 -0.7080 -2.1823 -0.4004
 8955SOL     OW38497   4.453   2.303   3.755  0.1794  0.1178  0.3943
 8955SOL    HW138498   4.525   2.243   3.737 -0.6799 -0.7585 -0.0662
 8955SOL    HW238499   4.389   2.240   3.786 -0.1649 -0.0967 -0.7641
 8956SOL     OW38500   2.404   3.734   7.842  0.6342  0.2895  0.5013
 8956SOL    HW138501   2.445   3.806   7.793 -0.0766  1.0310  1.0065
 8956SOL    HW238502   2.478   3.693   7.887  1.5538  2.0060  0.5690
 8957SOL     OW38503   3.270   4.094   7.097 -0.3887 -0.2006 -0.6085
 8957SOL    HW138504   3.345   4.066   7.045 -0.6438  2.6163 -2.4987
 8957SOL    HW238505   3.210   4.021   7.110 -1.7005  1.2439  1.4830
 8958SOL     OW38506   0.991   3.076  12.792  0.0930 -0.7320  0.7531
 8958SOL    HW138507   0.920   3.116  12.742 -1.2435 -3.1475  0.7785
 8958SOL    HW238508   1.063   3.084  12.729  0.9008  1.7939  1.9784
 8959SOL     OW38509   0.360   3.831   6.756  0.1382  0.1525 -0.3195
 8959SOL    HW138510   0.289   3.783   6.712 -0.6303  1.6515 -0.7090
 8959SOL    HW238511   0.409   3.864   6.681  0.3646 -0.5379 -0.4794
 8960SOL     OW38512   0.122   3.860  10.140  0.3407 -0.8135 -0.1704
 8960SOL    HW138513   0.136   3.813  10.058 -0.2608 -0.3236 -0.5559
 8960SOL    HW238514   0.209   3.887  10.169  0.0509  1.9686 -1.9416
 8961SOL     OW38515   2.552   1.269   4.135  1.2460 -0.3090  0.3658
 8961SOL    HW138516   2.648   1.273   4.133  1.2246  0.0049 -0.0913
 8961SOL    HW238517   2.525   1.190   4.181  0.4111 -0.2132  0.0324
 8962SOL     OW38518   0.145   0.575   4.543  0.4232  0.4195 -1.2516
 8962SOL    HW138519   0.178   0.488   4.565 -1.5325 -0.1917 -0.7829
 8962SOL    HW238520   0.150   0.624   4.625  0.8667 -2.0568  0.2141
 8963SOL     OW38521   3.396   1.193  12.679 -0.1526  0.0456  0.0215
 8963SOL    HW138522   3.391   1.288  12.671  2.4526  0.0534 -1.7520
 8963SOL    HW238523   3.440   1.169  12.597 -0.1651 -0.9435  0.2952
 8964SOL     OW38524   4.316   0.183   2.068 -0.4022  0.3277 -0.5272
 8964SOL    HW138525   4.368   0.154   1.993  0.0940  1.1276 -0.4845
 8964SOL    HW238526   4.241   0.123   2.061  0.0629 -0.5191  1.6678
 8965SOL     OW38527   3.863   1.718   7.186 -0.1393 -0.4885 -0.2652
 8965SOL    HW138528   3.909   1.783   7.238 -3.8940  2.8592 -1.1630
 8965SOL    HW238529   3.779   1.716   7.231 -0.2124 -1.2344 -0.4312
 8966SOL     OW38530   4.516   0.277   5.282  0.2598 -0.5490 -0.3284
 8966SOL    HW138531   4.491   0.184   5.285  2.6278 -1.1622  1.0302
 8966SOL    HW238532   4.508   0.292   5.188 -1.4377 -2.1109 -0.4355
 8967SOL     OW38533   0.050   1.173   5.759  0.1623 -0.1349  0.0448
 8967SOL    HW138534   0.017   1.152   5.847  2.3600 -2.5258  0.2963
 8967SOL    HW238535   0.054   1.268   5.769 -0.0856 -0.0246 -0.9487
 8968SOL     OW38536   0.849   4.171   3.440 -0.5908 -0.0321 -0.2020
 8968SOL    HW138537   0.903   4.190   3.363 -0.6702 -1.1301 -0.5288
 8968SOL    HW238538   0.896   4.181   3.523 -0.0593 -0.9876 -0.3864
 8969SOL     OW38539   0.247   0.840   5.389 -0.1793 -0.2797  0.2803
 8969SOL    HW138540   0.303   0.859   5.464  2.9515 -0.8919 -1.9073
 8969SOL    HW238541   0.176   0.789   5.430 -0.2815 -0.1161  0.3080
 8970SOL     OW38542   1.858   3.751   7.072  0.1669  0.1425 -0.5273
 8970SOL    HW138543   1.830   3.834   7.109  0.9140  0.7664 -1.3636
 8970SOL    HW238544   1.787   3.736   7.011 -0.4066  2.2150 -0.3672
 8971SOL     OW38545   1.269   0.910   6.163  0.4371  0.1381  0.2282
 8971SOL    HW138546   1.294   0.962   6.240 -1.0561  1.3077 -0.0736
 8971SOL    HW238547   1.352   0.906   6.116 -0.2894  0.4473 -1.0844
 8972SOL     OW38548   2.902   4.259   7.918  0.3271 -0.0364  0.3012
 8972SOL    HW138549   2.831   4.290   7.861  0.5213  0.6162  0.4105
 8972SOL    HW238550   2.932   4.332   7.972  1.0320 -0.9102  1.0765
 8973SOL     OW38551   2.015   0.560   6.621  0.1671  0.1019  0.1116
 8973SOL    HW138552   2.056   0.476   6.638  0.7949  0.0481 -1.7193
 8973SOL    HW238553   1.974   0.542   6.537  0.3281  0.8433 -0.1298
 8974SOL     OW38554   3.738   1.290   3.351 -0.3808 -0.0882  0.0477
 8974SOL    HW138555   3.756   1.384   3.350 -4.2668  0.6441 -1.1731
 8974SOL    HW238556   3.813   1.245   3.389  1.3023  1.2272 -1.7488
 8975SOL     OW38557   2.679   4.111   7.642  0.4555  0.0787 -0.5345
 8975SOL    HW138558   2.771   4.088   7.628 -0.2200 -2.7320 -0.2366
 8975SOL    HW238559   2.695   4.200   7.673  3.9961 -0.3916 -1.0321
 8976SOL     OW38560   4.505   3.582   8.846  0.1986 -0.1997 -0.3024
 8976SOL    HW138561   4.570   3.513   8.860  0.0213  0.0605  1.7234
 8976SOL    HW238562   4.562   3.655   8.872 -3.3568  1.9689  1.2684
 8977SOL     OW38563   4.554   4.102   8.580 -0.0012  0.1772 -0.6386
 8977SOL    HW138564   4.595   4.015   8.574 -0.5222 -0.1162  0.0889
 8977SOL    HW238565   4.602   4.157   8.642 -0.9543  0.2686 -0.0007
 8978SOL     OW38566   0.936   1.324  11.145 -0.0244 -0.8632 -0.4670
 8978SOL    HW138567   1.000   1.316  11.075 -1.5375  0.8501 -2.0501
 8978SOL    HW238568   0.854   1.306  11.099 -0.3491 -0.2711 -0.1246
 8979SOL     OW38569   0.550   2.977   5.264  0.0148 -0.1257 -0.4162
 8979SOL    HW138570   0.634   2.968   5.307 -0.0259  3.7244  0.4867
 8979SOL    HW238571   0.582   3.000   5.176  1.1810  1.6346  0.4696
 8980SOL     OW38572   1.198   2.364   3.987  0.2655 -0.4423 -0.2425
 8980SOL    HW138573   1.220   2.457   3.980  0.4231 -0.3709  1.2785
 8980SOL    HW238574   1.277   2.321   3.954  1.0898 -1.1307  2.6026
 8981SOL     OW38575   0.664   3.440   4.325 -0.5312  0.2434 -0.2275
 8981SOL    HW138576   0.659   3.526   4.284 -1.6796 -0.9380 -2.5412
 8981SOL    HW238577   0.746   3.409   4.286 -1.6278  1.3855 -3.4408
 8982SOL     OW38578   3.419   1.880   1.961  0.1891 -0.1923  0.3852
 8982SOL    HW138579   3.512   1.877   1.984  1.3554  1.3926 -4.2136
 8982SOL    HW238580   3.424   1.839   1.875 -1.9161 -1.6873  0.9791
 8983SOL     OW38581   2.881   4.196   2.859  0.3494 -0.2977 -0.3526
 8983SOL    HW138582   2.869   4.262   2.790 -1.7902 -0.2403  0.0631
 8983SOL    HW238583   2.860   4.111   2.820 -1.5599  0.4568 -0.9949
 8984SOL     OW38584   0.817   1.921   5.935 -0.1015 -0.0218 -0.0694
 8984SOL    HW138585   0.750   1.916   6.002  1.4580 -0.0852  1.4834
 8984SOL    HW238586   0.849   2.009   5.952  1.7693 -0.3200 -1.9260
 8985SOL     OW38587   1.161   0.818  11.518 -0.2918  0.0259  0.3492
 8985SOL    HW138588   1.167   0.852  11.607  0.8958  0.2624  0.1829
 8985SOL    HW238589   1.066   0.814  11.524 -0.2837 -1.4279 -0.4309
 8986SOL     OW38590   2.707   0.707   8.695 -0.1806  0.3707  0.3496
 8986SOL    HW138591   2.685   0.636   8.755 -1.1393 -0.8802 -1.4971
 8986SOL    HW238592   2.668   0.780   8.744 -3.1622 -0.5142 -0.7108
 8987SOL     OW38593   1.761   0.423   1.934  0.0537 -0.1201  0.2291
 8987SOL    HW138594   1.752   0.458   1.846  2.0659 -1.4138 -0.4841
 8987SOL    HW238595   1.792   0.335   1.915  0.7332 -0.1570  1.5044
 8988SOL     OW38596   0.248   3.203   2.997  0.4453  0.3115 -0.2737
 8988SOL    HW138597   0.311   3.198   2.925  1.1264 -0.3989  0.3617
 8988SOL    HW238598   0.175   3.146   2.975 -0.3675  0.1732  2.7361
 8989SOL     OW38599   0.429   4.672   4.884  0.3523  0.4503 -0.1430
 8989SOL    HW138600   0.401   4.585   4.858  1.5894  0.2955 -0.9468
 8989SOL    HW238601   0.472   4.707   4.805 -2.0574 -0.3896 -1.8289
 8990SOL     OW38602   2.380   0.684   9.376 -0.4421  0.0831 -0.1677
 8990SOL    HW138603   2.375   0.758   9.437  0.9379 -0.2479  0.3620
 8990SOL    HW238604   2.457   0.641   9.415  0.8550  1.2870 -1.4230
 8991SOL     OW38605   1.728   0.487   9.328  0.0417  0.1863  0.2058
 8991SOL    HW138606   1.696   0.540   9.401  2.6325  0.0780  1.4062
 8991SOL    HW238607   1.780   0.550   9.278  0.6107 -0.1184  0.4131
 8992SOL     OW38608   1.215   4.136   3.116 -0.2720  0.5283 -0.0428
 8992SOL    HW138609   1.255   4.223   3.126 -0.9748  0.9708 -0.9954
 8992SOL    HW238610   1.127   4.161   3.144  0.3352  1.0742  1.3819
 8993SOL     OW38611   1.594   0.594  17.603  0.0664  0.0851 -0.0772
 8993SOL    HW138612   1.530   0.664  17.618 -2.6613 -2.6366  0.8969
 8993SOL    HW238613   1.536   0.517  17.598  1.0912 -0.5525 -1.8372
 8994SOL     OW38614   1.103   3.113   6.331 -0.1006  0.0388 -0.3419
 8994SOL    HW138615   1.079   3.049   6.398  0.0799  1.5835  1.2007
 8994SOL    HW238616   1.027   3.171   6.336 -1.1657 -1.4083  0.1628
 8995SOL     OW38617   4.189   4.137   4.941 -0.5886  0.3145 -0.2331
 8995SOL    HW138618   4.177   4.169   4.852  0.3383 -0.7355 -0.7281
 8995SOL    HW238619   4.240   4.208   4.981 -0.0227 -0.7945  1.0142
 8996SOL     OW38620   3.177   1.814   3.790  0.6789 -0.1635 -0.5856
 8996SOL    HW138621   3.113   1.859   3.734 -0.6524 -0.7421  0.4633
 8996SOL    HW238622   3.187   1.883   3.856 -0.7182 -0.4507 -0.0642
 8997SOL     OW38623   1.106   0.748  10.431 -0.1306 -0.3334 -0.2791
 8997SOL    HW138624   1.099   0.716  10.521 -1.5287  1.8722  0.4056
 8997SOL    HW238625   1.124   0.664  10.389  0.8177 -0.9583  1.3915
 8998SOL     OW38626   0.629   2.500   4.386  0.4397  0.4023 -0.0287
 8998SOL    HW138627   0.622   2.594   4.403 -0.2672  0.5871 -1.3212
 8998SOL    HW238628   0.617   2.499   4.291  0.3706  1.2586 -0.0320
 8999SOL     OW38629   2.682   3.787   7.711  0.5587  0.0644 -0.4406
 8999SOL    HW138630   2.733   3.819   7.785  0.2725 -0.0055 -0.2126
 8999SOL    HW238631   2.738   3.743   7.647  0.9029 -0.2911  0.1114
 9000SOL     OW38632   1.308   3.762   3.236  0.1744 -0.1495 -0.1851
 9000SOL    HW138633   1.253   3.748   3.313  2.7654  1.5443  1.9935
 9000SOL    HW238634   1.240   3.801   3.181 -1.0013 -0.2981  1.1720
 9001SOL     OW38635   2.279   4.484  13.456  0.0729 -0.6904  1.1075
 9001SOL    HW138636   2.367   4.503  13.490  0.4515  2.1344 -1.4645
 9001SOL    HW238637   2.223   4.559  13.477 -0.0731 -0.0385 -1.5867
 9002SOL     OW38638   0.910   4.344  11.893  0.1828 -0.2872  0.0112
 9002SOL    HW138639   0.828   4.359  11.846 -0.3844  1.1998  1.4791
 9002SOL    HW238640   0.942   4.434  11.904 -1.5025  0.3435 -0.3554
 9003SOL     OW38641   1.528   1.393   9.953 -0.0541  0.0431  0.0076
 9003SOL    HW138642   1.521   1.363   9.862 -3.0646  0.5510  0.0928
 9003SOL    HW238643   1.433   1.394   9.966  0.1155 -1.6680  1.4858
 9004SOL     OW38644   3.619   3.698   2.202  0.1017 -0.3303  0.0262
 9004SOL    HW138645   3.659   3.628   2.253 -1.6186 -0.3403  1.3952
 9004SOL    HW238646   3.607   3.663   2.114 -1.0564  0.7744 -0.2610
 9005SOL     OW38647   3.737   0.604   7.373  0.7651  0.5372  0.4819
 9005SOL    HW138648   3.721   0.545   7.447 -0.4323  0.6218  0.2956
 9005SOL    HW238649   3.814   0.569   7.328 -0.5660 -0.7224 -0.7973
 9006SOL     OW38650   1.070   2.334   2.921 -0.2334 -0.2635 -0.4843
 9006SOL    HW138651   0.985   2.357   2.957 -0.2526 -0.5874 -0.3312
 9006SOL    HW238652   1.047   2.263   2.861  1.5673 -0.8960 -0.4453
 9007SOL     OW38653   1.712   0.776  11.010 -0.3054  0.1981  0.0277
 9007SOL    HW138654   1.745   0.689  10.989 -0.5038 -0.5808  2.9318
 9007SOL    HW238655   1.707   0.776  11.106  0.3746  1.6844  0.0572
 9008SOL     OW38656   1.705   3.717   4.082  0.0182  0.9655  0.5412
 9008SOL    HW138657   1.667   3.649   4.137  1.5690 -0.2004  0.1401
 9008SOL    HW238658   1.677   3.801   4.121 -0.2690  0.2094  1.9606
 9009SOL     OW38659   2.675   3.757   1.374 -0.7922  0.7438  0.2656
 9009SOL    HW138660   2.593   3.771   1.421 -0.6461 -1.3870  1.1617
 9009SOL    HW238661   2.733   3.780   1.446  0.5986  0.1471 -0.6535
 9010SOL     OW38662   3.816   4.473   6.042  0.2181  0.0785  0.1792
 9010SOL    HW138663   3.857   4.390   6.017  1.4890  0.1500  2.0384
 9010SOL    HW238664   3.795   4.519   5.961 -1.2786  0.1825  0.6263
 9011SOL     OW38665   3.027   2.337   6.617  0.0364  0.5422  0.1685
 9011SOL    HW138666   2.983   2.340   6.702 -0.3453 -0.5022 -0.0008
 9011SOL    HW238667   2.991   2.256   6.581 -0.7132  0.8046  0.3370
 9012SOL     OW38668   4.359   0.853  14.637  0.5646 -0.5936  0.8717
 9012SOL    HW138669   4.404   0.770  14.652 -0.5658 -1.3172  0.2628
 9012SOL    HW238670   4.294   0.861  14.707 -1.6805 -0.8071 -1.1819
 9013SOL     OW38671   2.594   1.486   6.388 -0.2156  0.2306 -0.0240
 9013SOL    HW138672   2.586   1.580   6.373  1.9494  0.5925  1.1465
 9013SOL    HW238673   2.629   1.455   6.305 -1.3222 -1.2867  0.0607
 9014SOL     OW38674   2.480   3.539  14.875  0.0237 -0.2188  0.0134
 9014SOL    HW138675   2.539   3.564  14.805 -0.3045  0.3629 -0.0522
 9014SOL    HW238676   2.410   3.604  14.876  1.5236  1.3854 -0.6139
 9015SOL     OW38677   0.564   2.970  10.490 -0.1591 -0.4640 -0.1171
 9015SOL    HW138678   0.553   2.900  10.426  0.6732  0.5324 -1.3285
 9015SOL    HW238679   0.470   2.979  10.505 -0.0665  3.6530 -2.0939
 9016SOL     OW38680   3.047   2.800  13.556  0.0045 -0.3602  0.4456
 9016SOL    HW138681   3.074   2.892  13.561  0.7237 -0.4193 -2.6925
 9016SOL    HW238682   2.983   2.800  13.485  1.3127 -2.1388 -0.7317
 9017SOL     OW38683   1.708   2.512   7.981 -0.3619 -0.1815 -0.2659
 9017SOL    HW138684   1.726   2.568   8.057  2.6139 -1.6439  0.1292
 9017SOL    HW238685   1.664   2.575   7.925 -2.0867 -0.4944  0.7389
 9018SOL     OW38686   0.477   0.243   1.244  0.2520 -0.1849  0.0192
 9018SOL    HW138687   0.427   0.275   1.170 -1.5887 -1.4120  0.7531
 9018SOL    HW238688   0.515   0.162   1.212 -0.0031 -0.2742 -0.0493
 9019SOL     OW38689   1.093   1.092   1.440 -0.1272  0.4540  0.0272
 9019SOL    HW138690   1.098   1.161   1.507 -1.6976  1.8184 -1.2776
 9019SOL    HW238691   1.003   1.065   1.457  0.5338 -0.4625  2.1552
 9020SOL     OW38692   3.421   3.881   4.033  0.2809  0.3535 -0.0722
 9020SOL    HW138693   3.341   3.931   4.025  0.3065  0.6430  1.5323
 9020SOL    HW238694   3.462   3.923   4.108  1.8316  0.6409 -1.0610
 9021SOL     OW38695   4.690   0.082  10.621  0.9039  0.0617 -0.5164
 9021SOL    HW138696   4.636   0.127  10.686  0.4625  0.0945 -0.9068
 9021SOL    HW238697   4.646   0.104  10.539 -0.1526  2.4337  0.7010
 9022SOL     OW38698   4.145   1.051   7.161  0.1928  0.6976 -0.8742
 9022SOL    HW138699   4.060   1.027   7.198  1.0663 -0.9011  0.0910
 9022SOL    HW238700   4.124   1.028   7.070  2.0065  0.4738 -1.2408
 9023SOL     OW38701   3.839   1.892  13.725 -0.3435 -0.8173  0.1642
 9023SOL    HW138702   3.817   1.909  13.633  0.1473 -0.3559  0.1287
 9023SOL    HW238703   3.802   1.804  13.727  0.2760 -1.1332 -1.8386
 9024SOL     OW38704   0.914   2.638   4.063  0.2061 -0.1807 -0.4580
 9024SOL    HW138705   0.870   2.574   4.007 -0.1883 -0.6679  0.4064
 9024SOL    HW238706   0.987   2.580   4.088 -0.5712 -0.1183  2.0041
 9025SOL     OW38707   3.920   2.193   2.630 -0.1199  0.1645 -0.1213
 9025SOL    HW138708   3.851   2.187   2.696  0.1128  2.0685  0.2834
 9025SOL    HW238709   3.966   2.274   2.653 -0.9336  0.2294  1.2676
 9026SOL     OW38710   3.417   4.474  10.222  0.1208 -0.2154 -0.1825
 9026SOL    HW138711   3.503   4.512  10.211  1.1211 -2.0982  1.1448
 9026SOL    HW238712   3.425   4.416  10.146  0.7837 -1.3421  0.7514
 9027SOL     OW38713   1.075   4.601   7.050  0.2000 -0.3116 -0.0852
 9027SOL    HW138714   1.008   4.605   7.118 -0.1621  1.2362 -0.5364
 9027SOL    HW238715   1.151   4.571   7.100 -0.1636 -0.1254  0.5732
 9028SOL     OW38716   2.930   1.833   3.300 -0.1762 -0.3063 -0.1876
 9028SOL    HW138717   2.912   1.925   3.281 -2.2583 -0.7616 -0.5270
 9028SOL    HW238718   2.849   1.791   3.269  0.5780 -1.0384 -1.1549
 9029SOL     OW38719   4.401   2.797  13.755 -0.6407 -0.2153 -0.1371
 9029SOL    HW138720   4.401   2.796  13.850 -0.1906 -2.6762 -0.1846
 9029SOL    HW238721   4.316   2.756  13.740 -0.6894 -0.3436  0.5139
 9030SOL     OW38722   0.192   2.112   1.745 -0.0509  0.0628 -0.2953
 9030SOL    HW138723   0.148   2.188   1.708  2.7024  2.1079  0.6607
 9030SOL    HW238724   0.188   2.051   1.672  0.7848 -0.4483  0.0884
 9031SOL     OW38725   4.272   1.755   8.648 -0.4930  0.0970 -0.0796
 9031SOL    HW138726   4.338   1.819   8.620 -1.8028  1.0192 -1.0775
 9031SOL    HW238727   4.191   1.801   8.627  0.2834  0.0555 -3.2692
 9032SOL     OW38728   0.394   1.098   2.479 -0.0974  0.2035  0.0649
 9032SOL    HW138729   0.443   1.076   2.400  2.9130 -0.6644  2.1849
 9032SOL    HW238730   0.459   1.094   2.549 -0.5993  2.1978  0.6237
 9033SOL     OW38731   3.863   1.584   6.176 -0.5211 -0.3454 -0.2286
 9033SOL    HW138732   3.932   1.588   6.243  0.3280 -0.6195 -1.0782
 9033SOL    HW238733   3.865   1.675   6.146  0.5878 -0.3055 -0.0490
 9034SOL     OW38734   3.944   0.879   2.400 -1.0815 -0.0534  0.4236
 9034SOL    HW138735   3.941   0.869   2.495  0.2610  4.5279  0.9513
 9034SOL    HW238736   3.960   0.792   2.363 -1.3843  0.2766 -0.4811
 9035SOL     OW38737   3.850   3.304  14.325 -0.1104 -0.4239 -0.1819
 9035SOL    HW138738   3.883   3.218  14.300 -1.2305 -0.6437 -0.8887
 9035SOL    HW238739   3.766   3.273  14.360 -1.3797  1.7685 -1.3090
 9036SOL     OW38740   4.035   0.385   2.836  0.1022  0.4763 -0.1709
 9036SOL    HW138741   4.125   0.409   2.816 -0.4768  3.5217  0.9353
 9036SOL    HW238742   4.058   0.319   2.901 -1.9802 -0.2750 -0.1971
 9037SOL     OW38743   0.280   2.249  16.964  0.3475 -0.1407 -0.0378
 9037SOL    HW138744   0.236   2.323  17.007 -0.5250 -0.3656 -0.5405
 9037SOL    HW238745   0.359   2.292  16.932  0.9159 -0.1168  1.3771
 9038SOL     OW38746   3.620   1.056   8.587  0.2488 -0.9587 -0.0539
 9038SOL    HW138747   3.613   1.026   8.497 -1.9449  1.1413 -0.5825
 9038SOL    HW238748   3.577   1.141   8.579  0.6134 -0.7539  0.1139
 9039SOL     OW38749   2.796   0.971   4.177  0.2439 -0.3391  0.3432
 9039SOL    HW138750   2.848   0.998   4.102 -0.9151  2.6491  0.6358
 9039SOL    HW238751   2.809   0.876   4.177 -2.2892 -0.6798 -1.8690
 9040SOL     OW38752   0.102   1.912   5.049  0.0828 -0.0548  0.1061
 9040SOL    HW138753   0.024   1.957   5.083 -1.3648 -2.6080  0.1590
 9040SOL    HW238754   0.071   1.902   4.959 -0.1585 -0.0649  0.1900
 9041SOL     OW38755   0.681   2.343   4.804  0.1016 -0.1598  0.0727
 9041SOL    HW138756   0.687   2.255   4.768  0.3113  0.0885 -0.5185
 9041SOL    HW238757   0.613   2.391   4.756 -0.2923  0.2498  1.0542
 9042SOL     OW38758   4.560   4.035   4.606  0.3050  0.3044  0.3288
 9042SOL    HW138759   4.500   4.109   4.598  0.5929  0.4272 -0.8014
 9042SOL    HW238760   4.636   4.075   4.648  1.6423 -1.9415  0.0811
 9043SOL     OW38761   2.474   0.981   8.224  0.4592  0.2136  0.0339
 9043SOL    HW138762   2.527   0.979   8.303 -0.8805  1.2291  0.9557
 9043SOL    HW238763   2.524   0.918   8.171 -0.3029  1.8640 -2.6732
 9044SOL     OW38764   1.245   1.754   5.738 -0.2709 -0.1235 -0.3111
 9044SOL    HW138765   1.294   1.727   5.660 -0.6424 -0.9027 -0.2755
 9044SOL    HW238766   1.187   1.820   5.699 -0.5389 -0.2656 -0.1544
 9045SOL     OW38767   4.064   4.487   4.089 -0.6446  0.0617 -1.1284
 9045SOL    HW138768   4.121   4.496   4.165 -0.4323 -1.4464 -1.1074
 9045SOL    HW238769   4.086   4.397   4.063  0.2706  0.0314 -0.2604
 9046SOL     OW38770   3.480   1.461   7.000  0.0029  0.3079 -0.1498
 9046SOL    HW138771   3.429   1.541   7.006 -0.8209 -0.1273 -1.2983
 9046SOL    HW238772   3.554   1.488   6.945  0.5997 -0.8676  0.0579
 9047SOL     OW38773   0.786   4.577   9.030  0.3609  0.0563  0.0470
 9047SOL    HW138774   0.692   4.559   9.024 -0.0874  1.8702  1.6465
 9047SOL    HW238775   0.808   4.515   8.961 -1.5120 -1.1409  0.5444
 9048SOL     OW38776   0.623   2.847   2.660  0.4135  0.0351  0.1986
 9048SOL    HW138777   0.645   2.940   2.665 -2.0677  0.7047 -1.3610
 9048SOL    HW238778   0.530   2.840   2.637  0.1959  3.3037  0.1600
 9049SOL     OW38779   0.665   1.202  17.401 -0.2464 -0.0123 -0.3957
 9049SOL    HW138780   0.711   1.161  17.474 -0.9195  1.1373  0.6774
 9049SOL    HW238781   0.657   1.292  17.433  0.0963 -0.0646 -0.1586
 9050SOL     OW38782   0.258   3.764   2.484  0.5655 -0.6124 -0.4503
 9050SOL    HW138783   0.163   3.758   2.472  0.4328 -0.4265  0.5191
 9050SOL    HW238784   0.273   3.688   2.427  1.2021  0.1380 -1.2776
 9051SOL     OW38785   1.581   0.340   8.405  0.5411  0.7642  0.6432
 9051SOL    HW138786   1.629   0.339   8.487  1.1421 -0.6494  0.2655
 9051SOL    HW238787   1.549   0.250   8.413  0.2254  0.7769 -0.4861
 9052SOL     OW38788   3.287   0.006  10.052  0.1924 -0.0208 -0.1816
 9052SOL    HW138789   3.336   4.657  10.050  0.8273  0.3557 -0.0386
 9052SOL    HW238790   3.225   4.711  10.120  0.4034 -0.5439 -0.2029
 9053SOL     OW38791   4.653   0.682   7.805  0.0437 -0.1274 -0.0239
 9053SOL    HW138792   4.687   0.618   7.742 -0.3450 -0.9751  0.6366
 9053SOL    HW238793   4.598   0.739   7.752 -0.7658 -1.8900 -1.0797
 9054SOL     OW38794   3.472   3.096   4.581 -0.3042 -0.4425  0.6703
 9054SOL    HW138795   3.503   3.022   4.633 -0.1136  0.7528  2.2821
 9054SOL    HW238796   3.531   3.087   4.506 -0.5200  1.0226  0.3188
 9055SOL     OW38797   0.797   4.281  16.395 -0.4389  0.0042  0.6547
 9055SOL    HW138798   0.810   4.334  16.474  2.3272 -0.7743  0.7159
 9055SOL    HW238799   0.885   4.278  16.359  0.1946 -3.2045  2.4965
 9056SOL     OW38800   4.525   0.787   9.306  0.1185 -0.3237  0.5548
 9056SOL    HW138801   4.433   0.811   9.295  0.3776  0.7105  0.5936
 9056SOL    HW238802   4.558   0.774   9.217 -1.3680 -1.3753  0.1726
 9057SOL     OW38803   1.425   2.084  13.231 -0.1743 -0.6440 -0.8312
 9057SOL    HW138804   1.463   2.044  13.153 -1.9565 -0.5066 -1.7714
 9057SOL    HW238805   1.332   2.075  13.207 -0.8757  0.8090  1.3273
 9058SOL     OW38806   2.255   1.382   2.366 -0.0578 -0.2412  0.2783
 9058SOL    HW138807   2.302   1.427   2.437  1.2874 -1.7928  0.3664
 9058SOL    HW238808   2.223   1.454   2.312 -1.0310 -0.3214  0.7487
 9059SOL     OW38809   1.841   4.330   2.436 -0.3962  0.0659 -0.2895
 9059SOL    HW138810   1.884   4.411   2.409  0.7416  0.3845  2.5332
 9059SOL    HW238811   1.873   4.320   2.526 -3.2867 -0.7527  0.6685
 9060SOL     OW38812   1.998   4.384   1.411 -0.4128  0.7187  0.0572
 9060SOL    HW138813   1.974   4.439   1.337  0.9299  0.3338 -0.6635
 9060SOL    HW238814   2.082   4.423   1.435 -0.0426 -0.1461  0.1904
 9061SOL     OW38815   0.366   2.998   4.297 -0.4520  0.0470  0.1140
 9061SOL    HW138816   0.305   3.053   4.347  0.6903  1.8820 -0.4926
 9061SOL    HW238817   0.423   2.966   4.366 -0.2541  0.1521  0.0000
 9062SOL     OW38818   2.572   4.428   0.162 -0.6303  0.7831 -0.5504
 9062SOL    HW138819   2.591   4.498   0.099 -2.0618 -0.2295 -2.1045
 9062SOL    HW238820   2.563   4.479   0.242 -0.5891  1.2794 -0.8651
 9063SOL     OW38821   2.931   3.991   5.283 -0.2540  0.0728  0.2520
 9063SOL    HW138822   2.938   4.011   5.189 -1.4615 -0.4033  0.0653
 9063SOL    HW238823   2.923   3.896   5.273  0.3212  0.0826 -0.3125
 9064SOL     OW38824   1.173   0.093   5.086 -0.6449  0.4990  0.3537
 9064SOL    HW138825   1.228   0.078   5.008  0.9248  0.7128  1.4155
 9064SOL    HW238826   1.104   0.146   5.046 -1.7046 -0.6421  0.6639
 9065SOL     OW38827   1.055   3.346   8.259  0.5750  0.3561  0.0195
 9065SOL    HW138828   1.012   3.408   8.201  0.9587  0.0027 -0.6416
 9065SOL    HW238829   1.044   3.399   8.338 -0.9604  0.6177 -0.3596
 9066SOL     OW38830   3.456   0.223   7.815 -0.1555  0.4362 -0.9888
 9066SOL    HW138831   3.421   0.140   7.782 -1.7532  1.1574 -1.1183
 9066SOL    HW238832   3.479   0.260   7.730 -1.9716  0.2691 -1.5551
 9067SOL     OW38833   0.281   1.212   6.476  0.2718  0.3061  0.1071
 9067SOL    HW138834   0.240   1.298   6.484  1.2024  0.7415  0.1962
 9067SOL    HW238835   0.334   1.235   6.399 -1.1812  0.4770 -0.8460
 9068SOL     OW38836   1.979   3.724   7.819 -0.1260 -0.3642  0.6220
 9068SOL    HW138837   2.063   3.690   7.789 -0.5849  0.1491 -1.2708
 9068SOL    HW238838   1.931   3.642   7.831  1.0984 -1.6994 -3.4573
 9069SOL     OW38839   1.812   2.636   9.886 -0.3868  0.2064 -0.4283
 9069SOL    HW138840   1.871   2.566   9.913 -0.3385 -0.5241 -2.4758
 9069SOL    HW238841   1.781   2.606   9.801  1.0510  0.8442 -1.1735
 9070SOL     OW38842   1.658   0.713  10.039 -0.2783 -0.3421 -0.1326
 9070SOL    HW138843   1.655   0.806  10.018 -1.3147 -0.1117  1.0186
 9070SOL    HW238844   1.723   0.678   9.979  1.4194  0.9822  0.9476
 9071SOL     OW38845   1.387   1.393  12.690  0.6151  0.2370 -0.4054
 9071SOL    HW138846   1.411   1.332  12.759 -0.9561 -0.4545 -0.4779
 9071SOL    HW238847   1.453   1.375  12.623  1.3424  0.9428  0.1153
 9072SOL     OW38848   3.205   2.326   4.629 -0.4733 -0.2974  0.2388
 9072SOL    HW138849   3.182   2.246   4.581 -0.0578 -1.2205  1.5838
 9072SOL    HW238850   3.298   2.306   4.636  0.3019  3.1334 -0.6634
 9073SOL     OW38851   3.763   0.525   7.942  0.7775  0.2210 -0.0754
 9073SOL    HW138852   3.803   0.612   7.943  0.5458  0.3305 -0.2638
 9073SOL    HW238853   3.682   0.543   7.895  0.0226 -0.5044  0.9273
 9074SOL     OW38854   4.723   1.737  16.945 -0.3192  0.0221  0.9094
 9074SOL    HW138855   4.671   1.668  16.987  1.2054 -2.3400 -1.0542
 9074SOL    HW238856   0.036   1.775  17.020  0.7693  0.2714  0.1277
 9075SOL     OW38857   3.692   2.761  16.826  0.1319  0.2126 -0.2240
 9075SOL    HW138858   3.675   2.770  16.732 -0.2728 -0.6191 -0.2348
 9075SOL    HW238859   3.630   2.694  16.854  0.1820 -0.3994 -1.5546
 9076SOL     OW38860   4.473   3.546   6.712  0.0244  0.0445 -0.7024
 9076SOL    HW138861   4.408   3.596   6.762 -0.0359  0.3786 -1.1150
 9076SOL    HW238862   4.557   3.576   6.747  0.2801 -1.6944  0.1618
 9077SOL     OW38863   2.049   2.754  11.814  0.0588  0.2976  0.4158
 9077SOL    HW138864   2.112   2.720  11.877 -1.0073 -1.0744  0.7531
 9077SOL    HW238865   2.050   2.677  11.757 -0.8295 -1.5849  2.9447
 9078SOL     OW38866   2.730   1.027   1.564 -0.2000 -0.2386  0.5691
 9078SOL    HW138867   2.796   1.084   1.603  2.7003 -1.7062 -2.1554
 9078SOL    HW238868   2.705   0.972   1.638  0.9288 -0.4111  0.8250
 9079SOL     OW38869   0.547   2.001  13.280  0.2229  0.3559 -0.2791
 9079SOL    HW138870   0.588   1.916  13.293 -0.0294  0.8037  3.3831
 9079SOL    HW238871   0.608   2.069  13.309  0.6859  0.3150 -1.1679
 9080SOL     OW38872   3.649   1.139  16.425 -0.8596 -0.2497  0.2263
 9080SOL    HW138873   3.677   1.230  16.419  1.7489 -0.9803  1.1272
 9080SOL    HW238874   3.565   1.143  16.380 -0.0910  0.7210 -1.1221
 9081SOL     OW38875   3.910   0.428  16.024  0.7427  0.2650 -0.0092
 9081SOL    HW138876   3.947   0.366  16.086 -0.1981 -0.5615 -0.2715
 9081SOL    HW238877   3.978   0.420  15.957 -0.0482 -0.3347 -0.7500
 9082SOL     OW38878   1.495   2.901   0.587 -0.1042 -0.1644  0.6334
 9082SOL    HW138879   1.401   2.914   0.576 -0.2942 -1.5772  0.6671
 9082SOL    HW238880   1.507   2.918   0.680 -0.0430  2.2280  0.1927
 9083SOL     OW38881   2.413   0.249   6.722 -0.0047 -0.0253 -0.0720
 9083SOL    HW138882   2.379   0.160   6.726 -0.8393  0.3016  0.3492
 9083SOL    HW238883   2.490   0.228   6.774  0.3030 -0.2930 -0.6430
 9084SOL     OW38884   1.312   3.294   2.047 -0.7760  0.1522 -0.0853
 9084SOL    HW138885   1.262   3.364   2.006  1.5957  1.0336 -1.4941
 9084SOL    HW238886   1.277   3.289   2.136 -1.0631 -1.2513 -0.2712
 9085SOL     OW38887   2.302   0.414  17.433 -0.0254 -0.5240  0.4192
 9085SOL    HW138888   2.310   0.321  17.410 -0.1396 -0.3213 -0.4254
 9085SOL    HW238889   2.206   0.421  17.437 -0.0240 -0.6147  0.6289
 9086SOL     OW38890   2.864   1.379  15.438 -0.5013  0.0011 -0.8322
 9086SOL    HW138891   2.844   1.372  15.531 -1.5292 -0.9926 -1.1193
 9086SOL    HW238892   2.933   1.313  15.430 -0.1444  0.2605  0.2276
 9087SOL     OW38893   0.513   4.159   3.802  0.5501 -0.5300 -0.0076
 9087SOL    HW138894   0.593   4.110   3.821  1.8909  1.5850 -0.3278
 9087SOL    HW238895   0.505   4.152   3.707  2.2834  0.3783 -0.2046
 9088SOL     OW38896   1.023   0.672   1.774 -0.1216  0.3563 -0.4361
 9088SOL    HW138897   1.100   0.650   1.721 -0.3417 -3.2256  0.7497
 9088SOL    HW238898   0.993   0.588   1.809 -2.5578  1.1536 -0.6316
 9089SOL     OW38899   4.423   1.598   3.943 -0.1351 -0.2269  0.2155
 9089SOL    HW138900   4.346   1.552   3.977 -0.3997 -1.2395 -1.7197
 9089SOL    HW238901   4.430   1.546   3.863  1.9172  0.1124  0.1572
 9090SOL     OW38902   1.915   3.972  15.772  0.5487  0.0110  0.2313
 9090SOL    HW138903   1.942   3.880  15.774  0.9330  0.0855 -2.0038
 9090SOL    HW238904   1.925   3.984  15.678  0.5523  0.0936  0.2421
 9091SOL     OW38905   0.165   3.108   1.822 -0.0051  0.2508 -0.0476
 9091SOL    HW138906   0.228   3.177   1.800  0.8636 -0.3498  0.5717
 9091SOL    HW238907   0.212   3.030   1.791 -2.2283 -1.2558  0.3908
 9092SOL     OW38908   1.038   4.339   5.497 -0.5461 -0.1945  0.7598
 9092SOL    HW138909   1.122   4.313   5.459 -1.2287 -2.0523  0.5474
 9092SOL    HW238910   1.053   4.356   5.590 -1.8782 -1.2793  1.1734
 9093SOL     OW38911   3.588   4.405   7.018  0.3354 -0.1435 -0.3572
 9093SOL    HW138912   3.560   4.492   6.990  0.9937 -0.3079 -1.5148
 9093SOL    HW238913   3.535   4.388   7.096  1.2692 -1.4066  0.0031
 9094SOL     OW38914   3.265   2.242   4.888 -0.0312  0.0743  0.0137
 9094SOL    HW138915   3.211   2.252   4.810  1.2845  1.2908 -0.7567
 9094SOL    HW238916   3.297   2.152   4.876  0.2975 -0.1867  2.7870
 9095SOL     OW38917   2.311   2.866  10.410 -0.2898 -0.1953  0.6229
 9095SOL    HW138918   2.391   2.894  10.454 -0.0816 -0.9606  0.7215
 9095SOL    HW238919   2.243   2.918  10.452 -0.7347 -1.5259  1.5362
 9096SOL     OW38920   0.578   3.276  12.574  0.2298  0.0134 -0.0990
 9096SOL    HW138921   0.486   3.249  12.569  0.0673  0.3262  1.0250
 9096SOL    HW238922   0.577   3.337  12.648  0.9471  0.7039 -0.6614
 9097SOL     OW38923   1.945   3.896   1.747  0.0010  0.1619  0.6920
 9097SOL    HW138924   2.031   3.910   1.708 -0.9153  3.2313 -0.2010
 9097SOL    HW238925   1.916   3.987   1.747  1.6906  0.7025 -1.0102
 9098SOL     OW38926   0.574   2.761  14.194 -0.4666  0.4909 -0.2513
 9098SOL    HW138927   0.633   2.820  14.242 -0.4221 -0.9030  1.3895
 9098SOL    HW238928   0.595   2.773  14.101  1.0166  2.1507  0.2863
 9099SOL     OW38929   3.669   3.991   8.232  0.0449  0.2621 -0.5071
 9099SOL    HW138930   3.592   4.044   8.215 -0.3518  0.3245  1.4959
 9099SOL    HW238931   3.675   3.940   8.151  1.8361 -1.9202  0.9816
 9100SOL     OW38932   3.157   1.182   8.104 -0.4219  0.0145 -0.1424
 9100SOL    HW138933   3.146   1.175   8.199  1.3059  0.0301  0.0766
 9100SOL    HW238934   3.069   1.178   8.069  0.2227 -0.2725 -1.7144
 9101SOL     OW38935   4.208   3.741  13.545 -0.3145  0.7199 -0.2704
 9101SOL    HW138936   4.116   3.750  13.570  0.5389 -2.5016  4.0232
 9101SOL    HW238937   4.206   3.701  13.458 -1.4547  0.4485 -0.1240
 9102SOL     OW38938   2.337   2.125   5.394 -0.2374  0.1327  0.8959
 9102SOL    HW138939   2.392   2.188   5.348  0.6038 -3.0998 -2.4817
 9102SOL    HW238940   2.273   2.181   5.439 -0.4999 -1.3133  2.3195
 9103SOL     OW38941   4.233   1.131   8.503 -0.2870 -0.1813  0.4313
 9103SOL    HW138942   4.268   1.150   8.590  1.6411 -0.0605 -0.3586
 9103SOL    HW238943   4.160   1.192   8.493  0.8080  1.3150  1.6863
 9104SOL     OW38944   2.235   2.044  14.044  0.0864 -0.3154 -0.5665
 9104SOL    HW138945   2.277   2.023  14.127 -1.0667 -0.8078 -0.1027
 9104SOL    HW238946   2.301   2.096  13.999 -1.2005  0.6432 -1.3384
 9105SOL     OW38947   2.979   0.757   3.336  0.2693 -0.0815 -0.3349
 9105SOL    HW138948   3.062   0.729   3.297 -2.3407 -3.8504 -3.2250
 9105SOL    HW238949   2.947   0.824   3.276 -1.9122 -0.4727  0.4018
 9106SOL     OW38950   1.792   0.546   7.153 -0.0237 -0.1514 -0.3817
 9106SOL    HW138951   1.799   0.460   7.195 -0.8349 -0.2275 -0.3925
 9106SOL    HW238952   1.855   0.538   7.082 -2.1891  3.3127 -2.6958
 9107SOL     OW38953   3.554   1.221   0.613 -0.6670 -0.1416 -0.0340
 9107SOL    HW138954   3.534   1.301   0.565 -2.7606 -0.2890  0.6062
 9107SOL    HW238955   3.569   1.262   0.698  0.3180  2.0185 -1.2262
 9108SOL     OW38956   0.922   3.147   7.430 -0.2088  0.1727 -0.2597
 9108SOL    HW138957   0.865   3.216   7.399  0.6970  1.1097  0.1492
 9108SOL    HW238958   0.954   3.196   7.506 -1.7258  0.0841  0.4233
 9109SOL     OW38959   3.085   4.574   6.766 -0.1597  0.2440 -0.2444
 9109SOL    HW138960   3.173   4.553   6.736 -0.1078  0.1390 -0.0146
 9109SOL    HW238961   3.093   4.537   6.854 -1.3233  1.0221  0.1925
 9110SOL     OW38962   4.727   1.434   8.648 -0.0565  0.5910 -0.8925
 9110SOL    HW138963   4.701   1.366   8.586  1.1146 -1.4389  0.8287
 9110SOL    HW238964   4.667   1.504   8.623 -0.0646  1.4571  1.5619
 9111SOL     OW38965   3.925   1.000   3.918 -0.0825 -0.3971  0.1690
 9111SOL    HW138966   3.858   1.014   3.851 -1.5305  0.0638  1.7115
 9111SOL    HW238967   3.932   0.906   3.905 -0.2499 -0.7401  2.5260
 9112SOL     OW38968   0.054   0.031  16.028  0.0431  0.2568  0.3498
 9112SOL    HW138969   0.132   0.087  16.031  0.9405 -0.9276 -0.3733
 9112SOL    HW238970   0.037   0.050  15.936  1.3751 -1.6599 -0.3048
 9113SOL     OW38971   4.203   1.118  14.847  0.1574  0.8985 -0.0896
 9113SOL    HW138972   4.241   1.097  14.933  0.6195  3.0544  0.2214
 9113SOL    HW238973   4.212   1.213  14.846 -3.0971  1.1897 -1.6199
 9114SOL     OW38974   3.908   2.764  14.665  0.5610 -0.0088 -0.1076
 9114SOL    HW138975   3.835   2.818  14.696  0.8963  0.4269 -0.0771
 9114SOL    HW238976   3.870   2.677  14.656 -1.6297  0.7474  1.9027
 9115SOL     OW38977   1.939   3.004  17.155  0.6043 -0.8981  0.2852
 9115SOL    HW138978   1.870   3.068  17.177 -0.7479 -1.0533 -3.4766
 9115SOL    HW238979   1.915   2.942  17.224 -3.3609  2.7600  2.2468
 9116SOL     OW38980   0.333   4.574   3.292 -0.0684  0.2353  0.5323
 9116SOL    HW138981   0.360   4.495   3.245  1.2273  1.4808 -0.8321
 9116SOL    HW238982   0.415   4.611   3.325 -0.4150  0.3324  1.2951
 9117SOL     OW38983   2.953   3.852   0.781 -0.8857  0.0048  0.1639
 9117SOL    HW138984   2.891   3.895   0.722  0.3392  2.4681  0.6633
 9117SOL    HW238985   2.932   3.886   0.867  2.6446  0.4942  0.8362
 9118SOL     OW38986   4.237   0.301  12.574  0.7140  0.1467  0.2926
 9118SOL    HW138987   4.279   0.328  12.656 -1.4728  1.7078  0.8757
 9118SOL    HW238988   4.171   0.234  12.591  0.6387  0.3158  0.6721
 9119SOL     OW38989   3.215   2.069   4.506 -0.4576  0.2232 -0.8464
 9119SOL    HW138990   3.199   2.014   4.582  0.4835 -0.7384 -1.3519
 9119SOL    HW238991   3.249   1.999   4.452 -1.2386 -2.1357  1.7256
 9120SOL     OW38992   1.086   1.475  15.676  0.1508 -0.0497  0.0341
 9120SOL    HW138993   1.132   1.393  15.655  3.3169  1.3422  1.5607
 9120SOL    HW238994   1.032   1.430  15.742  0.0213 -0.1036 -0.1077
 9121SOL     OW38995   1.464   3.284   1.322 -0.1639 -0.0080  0.5355
 9121SOL    HW138996   1.495   3.337   1.395  0.2877  0.7844 -0.2345
 9121SOL    HW238997   1.387   3.330   1.289 -0.4769  0.7665  2.3325
 9122SOL     OW38998   3.826   0.751   4.919 -1.0528 -0.2761  0.1029
 9122SOL    HW138999   3.755   0.781   4.862 -1.8526 -2.8161 -0.2390
 9122SOL    HW239000   3.781   0.762   5.002 -2.3697  0.2405 -0.6772
 9123SOL     OW39001   0.700   4.264   2.322 -0.1863  0.2373 -0.4133
 9123SOL    HW139002   0.689   4.238   2.230  0.2653 -2.2567  0.2512
 9123SOL    HW239003   0.682   4.358   2.311  1.2921  0.6310  0.5522
 9124SOL     OW39004   3.720   3.087  12.035  0.9490  0.0404 -0.0161
 9124SOL    HW139005   3.645   3.122  12.082  1.0884  1.1434 -0.6179
 9124SOL    HW239006   3.775   3.165  12.031 -1.9240  2.0708  0.5515
 9125SOL     OW39007   4.509   0.385   9.783  0.5202  0.0222 -0.1556
 9125SOL    HW139008   4.452   0.422   9.716 -0.1905 -3.8288 -1.6678
 9125SOL    HW239009   4.574   0.454   9.797  1.1852 -0.9217  1.4701
 9126SOL     OW39010   3.386   4.659   4.182  0.7345  0.1827  0.1951
 9126SOL    HW139011   3.394   4.704   4.266  1.7037  1.8534 -0.7994
 9126SOL    HW239012   3.393   4.571   4.221  3.2799  0.0143 -0.6578
 9127SOL     OW39013   1.583   4.491   0.475  0.2877 -0.1604 -0.1040
 9127SOL    HW139014   1.533   4.424   0.430  0.6994 -0.3817 -0.2372
 9127SOL    HW239015   1.618   4.427   0.536  2.6005 -1.1584 -2.4641
 9128SOL     OW39016   3.594   0.658   2.175  0.3172  0.4185 -0.1915
 9128SOL    HW139017   3.654   0.627   2.243 -0.0668  1.3355  0.5582
 9128SOL    HW239018   3.616   0.750   2.164 -0.6263  0.9153  1.9095
 9129SOL     OW39019   2.384   2.047   6.750 -0.1176  0.3715  0.1109
 9129SOL    HW139020   2.364   2.039   6.843  2.0454 -1.5706  0.4045
 9129SOL    HW239021   2.325   1.980   6.716  1.4115 -1.1000  0.3575
 9130SOL     OW39022   1.592   2.885   3.096  0.1435 -0.2217  0.3575
 9130SOL    HW139023   1.638   2.801   3.099 -1.7082 -1.2442 -0.0099
 9130SOL    HW239024   1.659   2.948   3.121 -0.5957  1.5197 -1.9710
 9131SOL     OW39025   1.997   3.919  10.324 -0.2486  0.2793  0.2909
 9131SOL    HW139026   2.013   4.013  10.329 -0.6938  0.3940 -0.3566
 9131SOL    HW239027   1.924   3.895  10.380 -1.8231  1.9050 -1.0556
 9132SOL     OW39028   3.791   0.982   4.507  0.5635  0.3886  0.0672
 9132SOL    HW139029   3.771   0.979   4.413 -0.3797 -0.4024  0.2960
 9132SOL    HW239030   3.753   0.900   4.537  0.6266  0.4624  0.3537
 9133SOL     OW39031   2.240   1.365   1.981 -0.6900 -0.3860  0.4260
 9133SOL    HW139032   2.335   1.365   1.979 -0.6622  1.0210  2.5964
 9133SOL    HW239033   2.222   1.425   2.053  0.5887 -0.0157  0.4201
 9134SOL     OW39034   0.307   4.062   5.932 -0.6501  0.3837  0.0505
 9134SOL    HW139035   0.369   4.010   5.984  0.5068  1.1900 -0.5373
 9134SOL    HW239036   0.361   4.138   5.910 -0.8519  0.4831 -0.0964
 9135SOL     OW39037   3.085   2.000   7.196  0.3835 -0.0560  0.0692
 9135SOL    HW139038   3.076   1.997   7.291 -0.8704 -0.0296 -0.0468
 9135SOL    HW239039   3.003   2.042   7.172 -0.1457 -0.7825  0.6100
 9136SOL     OW39040   2.117   0.872   6.622 -0.0246 -0.1734 -0.6760
 9136SOL    HW139041   2.113   0.965   6.644 -1.2192 -1.2628  3.6945
 9136SOL    HW239042   2.077   0.877   6.535  0.9203  0.0244 -1.0911
 9137SOL     OW39043   2.410   3.806  15.410 -0.1477 -0.0304  0.4833
 9137SOL    HW139044   2.388   3.786  15.319 -1.2427 -1.5129  1.0848
 9137SOL    HW239045   2.496   3.764  15.410  1.5522  3.3888  1.4380
 9138SOL     OW39046   2.848   3.380   3.566 -0.0217 -0.3167 -0.7403
 9138SOL    HW139047   2.777   3.379   3.502  0.9852  1.6961 -1.8525
 9138SOL    HW239048   2.835   3.288   3.592 -1.4396 -0.0088 -0.3451
 9139SOL     OW39049   4.303   4.208   8.665 -0.0517 -0.2942  0.2915
 9139SOL    HW139050   4.232   4.176   8.609  0.8685  1.1670 -1.7212
 9139SOL    HW239051   4.360   4.136   8.638 -0.7197 -0.9285  0.5641
 9140SOL     OW39052   0.322   4.686  15.883 -0.6192  0.2022 -0.1884
 9140SOL    HW139053   0.396   4.661  15.827  0.3111  1.9887  0.2619
 9140SOL    HW239054   0.322   4.627  15.958 -0.1856  0.0461 -0.3097
 9141SOL     OW39055   1.733   4.712  13.263 -0.1846 -0.0961  0.0621
 9141SOL    HW139056   1.729   0.063  13.310 -0.3364 -0.3540  0.5060
 9141SOL    HW239057   1.721   0.014  13.175  1.7890 -1.4331 -0.7260
 9142SOL     OW39058   0.436   1.346   9.351 -0.2078 -0.3749  0.2721
 9142SOL    HW139059   0.375   1.276   9.330 -1.0855  1.4053 -3.1339
 9142SOL    HW239060   0.412   1.406   9.281 -0.4583  0.0974  0.7589
 9143SOL     OW39061   1.204   4.493  15.761 -1.0267  0.4868  0.2670
 9143SOL    HW139062   1.196   4.534  15.675 -0.6255  0.4189  0.1970
 9143SOL    HW239063   1.291   4.524  15.786 -1.0703 -0.2822  1.3538
 9144SOL     OW39064   2.014   2.715   3.491  0.3109  0.1947  0.1855
 9144SOL    HW139065   2.046   2.799   3.457 -1.4526  0.6106 -0.4554
 9144SOL    HW239066   1.922   2.741   3.491  0.4180  0.6158 -2.0322
 9145SOL     OW39067   2.179   2.641  10.965 -0.0882  0.2594 -0.4072
 9145SOL    HW139068   2.120   2.659  10.892  1.1925  2.2072 -0.9865
 9145SOL    HW239069   2.206   2.733  10.974  0.4461  0.1014 -0.3823
 9146SOL     OW39070   3.409   4.097   6.255 -0.2727 -0.0087  0.3319
 9146SOL    HW139071   3.495   4.115   6.217 -0.3606  0.5849  0.4287
 9146SOL    HW239072   3.381   4.187   6.264 -1.9667 -0.4527 -0.6478
 9147SOL     OW39073   1.078   1.120   2.702 -0.5343  0.2138 -0.0861
 9147SOL    HW139074   1.135   1.132   2.626 -0.7424 -0.5492 -0.3597
 9147SOL    HW239075   0.993   1.118   2.657 -0.2892  2.0895 -0.6380
 9148SOL     OW39076   4.040   1.508   2.700 -0.6027 -0.3609  0.2409
 9148SOL    HW139077   3.986   1.564   2.645 -0.5284  0.8539  1.4066
 9148SOL    HW239078   4.090   1.573   2.749  2.0078  0.5249 -3.5777
 9149SOL     OW39079   4.306   2.320   4.705  0.3454 -0.0790  0.0048
 9149SOL    HW139080   4.313   2.409   4.738 -1.4109  0.6517 -1.6098
 9149SOL    HW239081   4.230   2.333   4.648  0.4823  2.0409  0.2928
 9150SOL     OW39082   0.399   1.363   6.291 -0.0331 -0.3290 -0.6913
 9150SOL    HW139083   0.346   1.385   6.214 -0.0863  0.1868 -0.5057
 9150SOL    HW239084   0.399   1.431   6.359  0.7102 -0.8563 -0.1589
 9151SOL     OW39085   0.387   1.853  17.038  0.0636  0.5842 -0.5047
 9151SOL    HW139086   0.458   1.912  17.011 -0.0517  0.1895 -1.6522
 9151SOL    HW239087   0.422   1.824  17.122 -1.2169  1.6564  0.4083
 9152SOL     OW39088   4.352   3.205   6.412  0.5502 -0.6535 -0.2694
 9152SOL    HW139089   4.324   3.114   6.419  1.7671 -1.0715 -1.0764
 9152SOL    HW239090   4.324   3.229   6.324 -0.8472 -1.0538  0.0546
 9153SOL     OW39091   1.739   2.198   1.746 -0.2816 -0.3134  0.1911
 9153SOL    HW139092   1.700   2.208   1.832  2.5335  1.9869  1.2033
 9153SOL    HW239093   1.781   2.283   1.734 -3.4200  1.0361 -1.0482
 9154SOL     OW39094   4.182   2.207  14.122  0.1085 -0.1365  0.2074
 9154SOL    HW139095   4.142   2.293  14.113 -1.4777 -1.1902 -2.9012
 9154SOL    HW239096   4.100   2.160  14.137  1.2369 -2.4003 -0.7146
 9155SOL     OW39097   1.859   1.658   7.965  0.3633 -0.7911 -0.1679
 9155SOL    HW139098   1.869   1.709   8.046  2.2476 -0.4082 -0.6372
 9155SOL    HW239099   1.778   1.689   7.925  1.4000  0.9434 -0.9390
 9156SOL     OW39100   1.130   2.814   4.607  0.0044 -0.0834  0.6672
 9156SOL    HW139101   1.062   2.760   4.647  0.9540 -0.5795  1.6247
 9156SOL    HW239102   1.093   2.808   4.519 -1.5651 -0.5250  1.3574
 9157SOL     OW39103   3.862   1.759   4.884 -0.0466  0.0844  0.0014
 9157SOL    HW139104   3.832   1.678   4.926  0.7277 -0.6968 -0.9690
 9157SOL    HW239105   3.836   1.752   4.792  0.2155 -0.6891 -0.0111
 9158SOL     OW39106   2.513   3.675  13.399 -0.1670  0.4047 -0.0188
 9158SOL    HW139107   2.478   3.605  13.344  0.6663 -0.2735  0.3069
 9158SOL    HW239108   2.463   3.665  13.480 -1.9209  1.4587 -0.9684
 9159SOL     OW39109   4.169   4.138  14.915  0.0737  0.5460  0.1228
 9159SOL    HW139110   4.131   4.069  14.860 -0.0024  1.3061 -0.7561
 9159SOL    HW239111   4.133   4.221  14.884  1.4528  1.6332  1.4278
 9160SOL     OW39112   4.494   0.447   5.661 -0.7930 -0.4099  0.1120
 9160SOL    HW139113   4.502   0.537   5.630 -1.5877 -0.2609  0.3451
 9160SOL    HW239114   4.460   0.475   5.746  0.4167  3.2309 -0.5905
 9161SOL     OW39115   4.087   0.159   2.982 -0.1121 -0.2464  0.2427
 9161SOL    HW139116   4.182   0.147   2.993  0.0650  0.2572 -0.7474
 9161SOL    HW239117   4.057   0.069   2.976 -1.0743  0.3228 -3.0973
 9162SOL     OW39118   4.274   2.895   0.015 -0.1014 -0.0681 -0.3212
 9162SOL    HW139119   4.330   2.960   0.057 -0.2894 -0.4924  0.5704
 9162SOL    HW239120   4.327   2.816   0.012 -0.6176 -0.2746 -3.6921
 9163SOL     OW39121   0.968   4.257  16.642  0.1236  0.0565 -0.5402
 9163SOL    HW139122   0.962   4.307  16.723 -0.5630 -2.6529  1.0595
 9163SOL    HW239123   1.059   4.227  16.650  0.0973 -0.5250 -2.3745
 9164SOL     OW39124   3.173   1.294   2.991  0.3706 -0.7527  0.5952
 9164SOL    HW139125   3.127   1.222   3.034 -1.0220 -1.8061 -2.6811
 9164SOL    HW239126   3.253   1.256   2.954  0.9254  1.2114 -0.2534
 9165SOL     OW39127   3.035   3.563   7.034 -0.1233 -0.2983  0.2366
 9165SOL    HW139128   3.012   3.612   6.955  2.1091  0.6811  0.2096
 9165SOL    HW239129   3.040   3.479   6.989  0.4299  0.5428 -1.2580
 9166SOL     OW39130   2.967   1.479   3.334  0.4419 -0.0281 -0.1600
 9166SOL    HW139131   2.931   1.399   3.372 -1.1293  0.7448  0.0141
 9166SOL    HW239132   2.981   1.522   3.419 -0.8701  0.8425 -0.3911
 9167SOL     OW39133   3.829   0.678   3.640 -0.0499  0.3819  0.0636
 9167SOL    HW139134   3.774   0.752   3.616 -0.0751  0.5572  0.6666
 9167SOL    HW239135   3.890   0.717   3.702 -2.1799 -1.3768  3.2691
 9168SOL     OW39136   0.899   4.680   6.102  0.5962  0.4318 -0.1955
 9168SOL    HW139137   0.989   4.650   6.112 -0.0661 -1.8986 -1.0863
 9168SOL    HW239138   0.883   4.697   6.195  0.6758 -0.2525 -0.0545
 9169SOL     OW39139   2.327   3.414  15.217  0.6678 -0.0251  0.1098
 9169SOL    HW139140   2.246   3.366  15.233 -0.9621  2.7796  0.2044
 9169SOL    HW239141   2.352   3.364  15.139  2.7091  0.7881  0.2528
 9170SOL     OW39142   0.288   3.606   4.047  0.3806 -0.1773 -0.3412
 9170SOL    HW139143   0.305   3.633   4.137 -1.3922 -0.0788 -0.0397
 9170SOL    HW239144   0.376   3.582   4.016 -1.7784 -3.8008 -3.5809
 9171SOL     OW39145   3.019   3.957   2.281 -0.3343  0.0662 -0.1974
 9171SOL    HW139146   3.057   3.922   2.362  1.5404 -0.6611 -1.3673
 9171SOL    HW239147   2.926   3.937   2.284 -1.0537  3.4112 -0.6447
 9172SOL     OW39148   0.080   3.842   5.268 -0.0624  0.7251  0.2190
 9172SOL    HW139149   0.081   3.907   5.198 -1.6742  0.5631  0.0340
 9172SOL    HW239150   0.037   3.771   5.221 -0.2900  0.4679  0.8183
 9173SOL     OW39151   3.321   1.013   0.008 -0.2145 -0.0836 -0.1899
 9173SOL    HW139152   3.325   0.926   0.048 -0.0587  0.0405  0.0677
 9173SOL    HW239153   3.412   1.029  17.711  0.1463 -0.7569  0.6249
 9174SOL     OW39154   1.597   0.638   6.284 -1.0213  0.0490  0.3737
 9174SOL    HW139155   1.643   0.647   6.368 -1.1728 -0.2114  0.4837
 9174SOL    HW239156   1.568   0.728   6.269  2.0890  0.9040 -0.4674
 9175SOL     OW39157   2.325   4.683   3.189 -0.3404  0.1565 -0.9314
 9175SOL    HW139158   2.364   0.038   3.187 -1.1921  0.6761  3.9156
 9175SOL    HW239159   2.313   4.681   3.284 -1.1912  0.5751 -1.0383
 9176SOL     OW39160   0.045   0.238   2.789  0.5014 -0.4276 -0.3287
 9176SOL    HW139161   0.053   0.247   2.694  2.1366 -0.9827 -0.2522
 9176SOL    HW239162   0.118   0.178   2.801  0.7402 -0.0468  0.1658
 9177SOL     OW39163   1.139   0.113  15.240  0.2400 -0.3397  0.2366
 9177SOL    HW139164   1.095   0.147  15.162 -2.4861  0.9048  2.2734
 9177SOL    HW239165   1.067   0.142  15.297  0.1614  0.3239 -0.1923
 9178SOL     OW39166   1.113   4.596  16.060 -0.4659  0.3546  0.1452
 9178SOL    HW139167   1.140   4.505  16.070 -0.8291  0.4689  2.0952
 9178SOL    HW239168   1.089   4.622  16.149  0.3327 -0.1592  0.5049
 9179SOL     OW39169   0.783   1.814   3.678 -0.2170  0.1814  0.1954
 9179SOL    HW139170   0.740   1.862   3.608 -1.7604 -4.2389 -1.8817
 9179SOL    HW239171   0.757   1.871   3.751 -2.5863 -0.5363 -0.0783
 9180SOL     OW39172   1.366   4.070  12.129  0.6745  0.0037 -0.4894
 9180SOL    HW139173   1.372   4.126  12.051  0.0502 -2.5195 -2.3517
 9180SOL    HW239174   1.283   4.022  12.119 -0.0942  1.6482 -1.9213
 9181SOL     OW39175   2.776   2.522  16.139 -0.0219  0.1597 -0.3839
 9181SOL    HW139176   2.861   2.512  16.182 -0.6332  0.5006  0.8846
 9181SOL    HW239177   2.773   2.432  16.107 -1.0792 -0.1309  0.5510
 9182SOL     OW39178   3.155   3.891   5.136 -0.3830 -0.1545 -0.2041
 9182SOL    HW139179   3.209   3.904   5.058  0.2259  0.2035  0.2697
 9182SOL    HW239180   3.224   3.903   5.202 -0.3184 -2.5485  0.1714
 9183SOL     OW39181   4.276   3.247   5.488  0.6108  0.0143 -0.3089
 9183SOL    HW139182   4.303   3.156   5.503  2.2592  0.4027 -1.0315
 9183SOL    HW239183   4.182   3.230   5.495  0.8357 -0.4542  1.6701
 9184SOL     OW39184   2.224   0.973   3.837 -0.4545 -0.4724  0.9496
 9184SOL    HW139185   2.242   0.987   3.930  0.5085  2.0441  0.3835
 9184SOL    HW239186   2.183   0.888   3.850  1.0389 -1.2529  0.4978
 9185SOL     OW39187   3.204   2.751  10.632 -0.0778  0.2015 -0.1087
 9185SOL    HW139188   3.150   2.696  10.689  0.0133 -0.2061 -0.4161
 9185SOL    HW239189   3.287   2.705  10.638  0.4533  1.1494 -0.1661
 9186SOL     OW39190   2.883   3.235  12.907  0.0948 -0.1878 -0.5269
 9186SOL    HW139191   2.870   3.279  12.991  0.1928  0.5179 -0.8873
 9186SOL    HW239192   2.862   3.293  12.834 -0.4459  0.4549  0.1426
 9187SOL     OW39193   4.635   2.007  13.234 -1.2402  0.0199 -0.0559
 9187SOL    HW139194   4.555   2.053  13.258  0.2499  2.4742  0.2619
 9187SOL    HW239195   4.696   2.073  13.268 -0.8116  0.0285 -0.8461
 9188SOL     OW39196   2.692   2.092  12.173 -0.0890  0.0214 -0.2788
 9188SOL    HW139197   2.654   2.179  12.158  2.7607  1.0136 -1.6776
 9188SOL    HW239198   2.769   2.115  12.225 -1.5921  0.4053  1.7544
 9189SOL     OW39199   4.268   0.347   1.338  0.4029 -0.3671 -0.3942
 9189SOL    HW139200   4.180   0.336   1.376  0.0749  0.7293 -0.8414
 9189SOL    HW239201   4.289   0.254   1.336  0.6758 -0.3839  2.4085
 9190SOL     OW39202   2.308   4.269  16.932  0.1028 -0.1743  0.7027
 9190SOL    HW139203   2.317   4.188  16.881 -2.1493 -2.0380  3.2415
 9190SOL    HW239204   2.323   4.237  17.021 -0.7650 -1.2876  0.4561
 9191SOL     OW39205   3.618   4.123   4.471 -0.4081 -0.0397 -0.4218
 9191SOL    HW139206   3.711   4.106   4.459  0.3279  1.9350  2.4368
 9191SOL    HW239207   3.617   4.206   4.519 -0.7710  0.8338 -1.9458
 9192SOL     OW39208   0.061   3.489  10.066 -0.6632  0.2705 -0.3971
 9192SOL    HW139209   0.079   3.396  10.078 -1.6487  0.4558  2.6424
 9192SOL    HW239210   0.148   3.507  10.032 -0.0807 -0.5265  0.6848
 9193SOL     OW39211   3.710   2.624  11.815  0.3479  0.0053  0.3660
 9193SOL    HW139212   3.788   2.617  11.761 -0.1341  3.3726 -0.7169
 9193SOL    HW239213   3.636   2.610  11.755 -0.7375  0.9479  1.4687
 9194SOL     OW39214   1.843   4.369   1.630  0.4059 -0.4938 -0.9564
 9194SOL    HW139215   1.912   4.387   1.567  1.3560 -3.0835 -0.6769
 9194SOL    HW239216   1.773   4.371   1.565 -0.2996  1.0839 -0.1525
 9195SOL     OW39217   2.282   3.524  10.651  0.6965  0.2564 -0.2415
 9195SOL    HW139218   2.345   3.577  10.700  0.6991 -1.6478  1.8370
 9195SOL    HW239219   2.336   3.444  10.651  2.0704  1.1492  2.7371
 9196SOL     OW39220   0.876   0.887   5.699 -0.4491 -0.1206 -0.2011
 9196SOL    HW139221   0.948   0.900   5.760 -0.3292  0.9602 -0.5818
 9196SOL    HW239222   0.870   0.792   5.687 -0.7519 -0.2417  0.9185
 9197SOL     OW39223   0.996   3.213   2.701 -0.6009  0.5084  0.2894
 9197SOL    HW139224   1.062   3.280   2.686 -0.5429  0.6716  1.2823
 9197SOL    HW239225   1.043   3.156   2.762  1.6579  0.3833 -1.5690
 9198SOL     OW39226   1.032   0.153   0.072  0.3130  0.0663 -0.0068
 9198SOL    HW139227   1.036   0.245   0.047  0.7313 -0.3065 -1.3218
 9198SOL    HW239228   1.102   0.123   0.013  1.5743 -0.1186  1.5813
 9199SOL     OW39229   0.612   3.897   8.990  0.1995  0.5847 -0.2214
 9199SOL    HW139230   0.563   3.901   8.908 -0.9332  1.8219  0.5279
 9199SOL    HW239231   0.674   3.970   8.993 -0.4763  1.2224 -2.2588
 9200SOL     OW39232   0.122   0.539   8.359  0.2384 -0.3109 -0.1106
 9200SOL    HW139233   0.196   0.492   8.320  0.2726 -1.3895  1.2435
 9200SOL    HW239234   0.150   0.562   8.447 -2.5965  1.9405  0.2039
 9201SOL     OW39235   4.562   4.553   6.900  0.1933  0.1291 -0.3739
 9201SOL    HW139236   4.528   4.484   6.957  0.3204 -0.1435 -0.6338
 9201SOL    HW239237   4.603   4.505   6.829  0.2060  0.9549 -0.9240
 9202SOL     OW39238   1.722   1.485  11.321  0.0198  0.4687 -0.3074
 9202SOL    HW139239   1.767   1.406  11.352 -0.1267  0.4802 -0.0632
 9202SOL    HW239240   1.745   1.484  11.228 -1.9652  1.0518 -0.7975
 9203SOL     OW39241   2.687   3.518   6.738 -0.1256 -0.1999  0.1121
 9203SOL    HW139242   2.727   3.578   6.802  0.5534  0.1562 -0.6356
 9203SOL    HW239243   2.721   3.548   6.654  2.6935 -0.5100  1.1278
 9204SOL     OW39244   2.847   3.650   2.117 -0.0476 -0.3590 -0.3552
 9204SOL    HW139245   2.938   3.662   2.089 -0.2704  0.4204 -0.7305
 9204SOL    HW239246   2.792   3.678   2.044 -1.3794  1.1594  1.2255
 9205SOL     OW39247   4.474   1.524   8.512 -0.2526 -0.0201 -0.6241
 9205SOL    HW139248   4.494   1.576   8.435 -0.9013  2.0621  0.6354
 9205SOL    HW239249   4.390   1.557   8.543  1.2549  0.9434  2.4393
 9206SOL     OW39250   4.295   0.631  13.622  0.4343 -0.4248  0.1349
 9206SOL    HW139251   4.382   0.608  13.654  1.5738  1.9097 -1.3032
 9206SOL    HW239252   4.322   0.667  13.538  1.1836  2.3735  1.5913
 9207SOL     OW39253   3.538   0.554   1.453  0.5259  0.1538  0.1904
 9207SOL    HW139254   3.452   0.571   1.492  0.8177  1.6355  0.1812
 9207SOL    HW239255   3.590   0.547   1.533  0.8978 -1.2644 -0.1766
 9208SOL     OW39256   1.614   3.010   8.435 -0.2574 -0.0725 -0.1466
 9208SOL    HW139257   1.609   3.056   8.519 -1.2585 -0.7183  0.1469
 9208SOL    HW239258   1.692   2.957   8.451 -1.2306 -1.5142 -0.2097
 9209SOL     OW39259   4.349   2.208   5.423 -0.3064  0.5176  0.1763
 9209SOL    HW139260   4.369   2.194   5.330 -1.7308  0.1631 -0.0655
 9209SOL    HW239261   4.266   2.254   5.415  0.4066  2.0413  1.3332
 9210SOL     OW39262   0.672   2.444   6.282 -0.0728  0.4644  0.1265
 9210SOL    HW139263   0.582   2.441   6.248  0.4773 -1.3581 -1.1452
 9210SOL    HW239264   0.698   2.506   6.213  2.4415  1.1601  1.6964
 9211SOL     OW39265   0.283   1.293   3.960  0.7640 -0.5259  0.2860
 9211SOL    HW139266   0.202   1.338   3.935  0.8641 -0.2018  0.5354
 9211SOL    HW239267   0.254   1.219   4.013 -0.3138  0.5294  1.1654
 9212SOL     OW39268   2.642   0.068  13.353 -0.3279  0.4649 -0.3796
 9212SOL    HW139269   2.702   4.725  13.347 -2.6872 -1.6542  2.6913
 9212SOL    HW239270   2.652   0.109  13.438 -2.4274  1.3933 -0.5880
 9213SOL     OW39271   0.595   1.635  14.989  0.2862 -0.2480  0.2661
 9213SOL    HW139272   0.677   1.622  14.942 -0.7992 -2.3356 -1.0241
 9213SOL    HW239273   0.529   1.610  14.924 -1.8113 -1.0487  2.7083
 9214SOL     OW39274   3.380   0.997   2.424 -0.0266  0.3995  0.2513
 9214SOL    HW139275   3.315   1.047   2.374  1.1225  2.3383  0.7082
 9214SOL    HW239276   3.344   0.911   2.402 -0.2217  0.2798  1.0552
 9215SOL     OW39277   4.632   1.047   7.957  0.2783 -0.4770  0.7146
 9215SOL    HW139278   4.540   1.058   7.982  0.0969 -3.9491  1.6266
 9215SOL    HW239279   4.686   1.080   8.028  0.9786  1.9288 -0.9397
 9216SOL     OW39280   0.538   1.580   7.392  0.2839 -0.0276  0.0862
 9216SOL    HW139281   0.566   1.565   7.482 -0.8287  0.1641  0.4654
 9216SOL    HW239282   0.585   1.505   7.356 -0.6890 -1.1850  1.2162
 9217SOL     OW39283   3.225   4.693   7.255 -0.2240 -0.4953  0.1442
 9217SOL    HW139284   3.295   4.700   7.321  0.5549  1.9031 -0.9400
 9217SOL    HW239285   3.175   4.615   7.280 -1.5074  0.0589 -0.7254
 9218SOL     OW39286   1.310   1.539   2.985 -0.1364  0.2651  0.3182
 9218SOL    HW139287   1.390   1.592   2.988  0.1786 -0.1367 -1.1484
 9218SOL    HW239288   1.339   1.456   3.025 -0.9261  0.2749  0.9002
 9219SOL     OW39289   2.793   2.208   7.606  0.3021 -0.2335 -0.9853
 9219SOL    HW139290   2.786   2.288   7.555 -1.8455 -0.7859 -1.5495
 9219SOL    HW239291   2.883   2.219   7.638  0.3174  2.8270 -2.0820
 9220SOL     OW39292   3.670   0.042   1.194  0.1644 -0.3038  0.3205
 9220SOL    HW139293   3.617   0.096   1.254 -0.9539 -1.0213 -0.0321
 9220SOL    HW239294   3.711   0.111   1.142 -1.3786 -2.3045 -3.5017
 9221SOL     OW39295   3.020   1.339   2.161  0.1702 -0.8934 -0.5755
 9221SOL    HW139296   2.995   1.348   2.069  3.2368 -0.1211 -1.3339
 9221SOL    HW239297   2.952   1.385   2.210 -0.4930 -2.5722  0.0480
 9222SOL     OW39298   3.392   0.935  16.571 -0.2730  0.0406 -0.5731
 9222SOL    HW139299   3.407   0.886  16.652 -0.3357  1.5644  0.3433
 9222SOL    HW239300   3.464   0.897  16.521 -0.5116 -0.2901 -0.6638
 9223SOL     OW39301   1.498   4.369   5.909 -0.3486  0.1564 -0.5177
 9223SOL    HW139302   1.474   4.313   5.835  0.2856 -2.1826  1.0531
 9223SOL    HW239303   1.495   4.298   5.973 -3.1425  0.2793 -0.5133
 9224SOL     OW39304   4.402   4.080   2.292  0.0812 -0.6093  0.3834
 9224SOL    HW139305   4.445   3.997   2.270  0.6757 -0.2618  0.2160
 9224SOL    HW239306   4.466   4.147   2.269 -0.0926 -0.3038  0.7891
 9225SOL     OW39307   1.240   2.341   2.500  0.3408  0.6269  0.2805
 9225SOL    HW139308   1.172   2.276   2.486 -1.2892  1.8644  2.3732
 9225SOL    HW239309   1.193   2.396   2.563  0.1521  0.5329  0.2223
 9226SOL     OW39310   3.184   1.298   7.567  0.2413  0.2540  0.3809
 9226SOL    HW139311   3.264   1.332   7.525 -0.0098  0.2093 -0.1302
 9226SOL    HW239312   3.153   1.368   7.624 -1.0445  0.9050 -1.1335
 9227SOL     OW39313   4.689   0.905   4.506  0.1844 -0.3177 -0.1884
 9227SOL    HW139314   4.697   0.821   4.459 -0.0229 -0.4163 -0.0449
 9227SOL    HW239315   4.612   0.896   4.562  0.7805 -1.4904  0.4459
 9228SOL     OW39316   4.058   1.586  12.309  0.0486 -0.4248 -0.0541
 9228SOL    HW139317   4.077   1.496  12.336  0.4585  0.2089  1.7543
 9228SOL    HW239318   4.139   1.629  12.338 -0.1890  0.8714 -1.3060
 9229SOL     OW39319   2.636   4.354   3.576  0.1528 -0.0250  0.1670
 9229SOL    HW139320   2.695   4.429   3.585 -1.8989  1.5085  0.9487
 9229SOL    HW239321   2.692   4.298   3.522 -0.7977 -1.2137  0.3981
 9230SOL     OW39322   0.517   0.868   9.272  0.0637  0.3971 -0.4258
 9230SOL    HW139323   0.538   0.909   9.188  1.0642  0.2936 -0.2341
 9230SOL    HW239324   0.529   0.779   9.241 -0.3041  0.4298 -0.6570
 9231SOL     OW39325   2.417   2.654   3.286 -0.3528  1.1918 -0.2835
 9231SOL    HW139326   2.381   2.740   3.262  0.4988  1.4993 -0.4481
 9231SOL    HW239327   2.335   2.606   3.299  0.8276 -0.5681  0.6777
 9232SOL     OW39328   3.372   1.122   6.229 -0.0022 -0.6549 -0.2463
 9232SOL    HW139329   3.464   1.100   6.241  0.5684  2.1989  0.4806
 9232SOL    HW239330   3.347   1.167   6.310  0.8708  0.8981 -0.8391
 9233SOL     OW39331   3.193   0.631   8.577 -0.5664  0.0691 -0.0767
 9233SOL    HW139332   3.236   0.624   8.662  0.2867 -0.5545 -0.5668
 9233SOL    HW239333   3.122   0.566   8.579  0.2828 -0.8695 -0.5310
 9234SOL     OW39334   1.977   3.610  13.684 -0.1390 -0.2162  0.0486
 9234SOL    HW139335   2.037   3.685  13.678  0.2837 -0.5752 -0.1813
 9234SOL    HW239336   2.012   3.566  13.606  0.1846 -0.7521  0.4929
 9235SOL     OW39337   1.613   1.878   7.066 -0.6425 -0.3239 -0.7414
 9235SOL    HW139338   1.551   1.884   7.139  1.2101  0.3070  0.7681
 9235SOL    HW239339   1.629   1.971   7.051  0.4649 -0.4554 -0.3589
 9236SOL     OW39340   1.863   3.344   7.288  0.1871  0.2558 -0.4216
 9236SOL    HW139341   1.918   3.285   7.340 -0.3646 -0.6767 -0.8886
 9236SOL    HW239342   1.919   3.351   7.210 -0.3070 -2.3715 -1.0113
 9237SOL     OW39343   3.250   2.371  15.723 -0.0628 -0.1979 -0.6327
 9237SOL    HW139344   3.192   2.296  15.709  0.8055 -0.8687 -0.6078
 9237SOL    HW239345   3.338   2.340  15.705  0.0840 -0.6914  1.0008
 9238SOL     OW39346   3.035   2.441  17.346  0.2146  0.0343  0.1669
 9238SOL    HW139347   2.955   2.486  17.374 -1.0178 -1.0369 -1.6409
 9238SOL    HW239348   3.096   2.514  17.354 -0.3814  0.4927  0.5085
 9239SOL     OW39349   0.871   1.774  15.717  0.2285  0.0891 -0.4077
 9239SOL    HW139350   0.810   1.720  15.767  1.6895 -1.9324 -0.7727
 9239SOL    HW239351   0.823   1.856  15.712  0.8086  0.4941  0.7195
 9240SOL     OW39352   4.129   1.138   7.534  0.3259  0.4734 -0.6150
 9240SOL    HW139353   4.062   1.198   7.566  2.2926  1.5588  1.4143
 9240SOL    HW239354   4.086   1.089   7.463 -1.3942  1.2930 -0.1413
 9241SOL     OW39355   2.639   2.180   8.438 -0.1361  0.3519 -0.3529
 9241SOL    HW139356   2.715   2.215   8.391  2.3961 -1.8689  2.0731
 9241SOL    HW239357   2.673   2.101   8.480  3.6169  1.8702 -0.5692
 9242SOL     OW39358   0.558   3.705   3.900 -0.5702 -0.1138 -0.2509
 9242SOL    HW139359   0.500   3.761   3.951  0.3086  2.2387 -1.8507
 9242SOL    HW239360   0.631   3.760   3.872 -1.0763  0.3104 -0.7412
 9243SOL     OW39361   0.706   1.430   7.998  0.1232  0.7329  0.5279
 9243SOL    HW139362   0.762   1.359   7.964  1.7756  0.7666  3.1375
 9243SOL    HW239363   0.772   1.499   8.002 -0.9063  1.8046 -1.4216
 9244SOL     OW39364   4.497   3.184   9.211 -0.0782  0.2047 -0.1702
 9244SOL    HW139365   4.469   3.141   9.129  0.2924  0.0329 -0.2076
 9244SOL    HW239366   4.539   3.113   9.260 -0.7115  0.2202  0.3915
 9245SOL     OW39367   3.278   0.246   3.990  0.0497  0.3730 -0.4807
 9245SOL    HW139368   3.356   0.191   3.995  0.0718  0.1782 -3.1381
 9245SOL    HW239369   3.221   0.207   4.057  2.3459  0.3638  1.4796
 9246SOL     OW39370   4.140   3.724   6.118  0.5039  0.0344 -0.1694
 9246SOL    HW139371   4.175   3.647   6.163 -0.5837 -0.2312  0.2252
 9246SOL    HW239372   4.105   3.687   6.037  1.2131  1.5578 -1.1575
 9247SOL     OW39373   3.219   2.189   1.929  0.4211 -0.1686 -0.5517
 9247SOL    HW139374   3.131   2.213   1.898  0.3769  0.3358 -0.0488
 9247SOL    HW239375   3.280   2.208   1.858  0.2599 -2.0827 -1.2102
 9248SOL     OW39376   4.064   4.703   1.561 -0.3580 -1.2098 -0.2502
 9248SOL    HW139377   4.102   4.623   1.598 -1.7794 -2.3616 -1.2930
 9248SOL    HW239378   3.981   4.699   1.608 -0.0193 -0.1772  0.4448
 9249SOL     OW39379   2.347   4.667   0.848 -0.0347 -0.2549  0.0925
 9249SOL    HW139380   2.424   4.614   0.865  0.7220  0.5933 -0.6957
 9249SOL    HW239381   2.356   4.690   0.755  0.5657 -1.2662 -0.1025
 9250SOL     OW39382   3.558   2.275  15.512  0.2045  0.2727 -0.5093
 9250SOL    HW139383   3.593   2.333  15.580  0.1190 -1.0300  0.6431
 9250SOL    HW239384   3.631   2.234  15.467 -0.4389 -1.3549 -0.0606
 9251SOL     OW39385   0.397   1.580   6.433 -0.3872  0.2837  0.5781
 9251SOL    HW139386   0.320   1.560   6.485  0.2632  1.2626  1.9111
 9251SOL    HW239387   0.375   1.660   6.386 -0.9008  0.6765  1.5032
 9252SOL     OW39388   0.072   3.605  11.874 -0.4248 -0.1813 -0.6244
 9252SOL    HW139389   0.085   3.523  11.922 -1.5370  0.0929  0.1727
 9252SOL    HW239390   0.055   3.559  11.793 -3.2046  0.3569 -0.3496
 9253SOL     OW39391   1.947   1.558  10.116  0.5302 -0.4683  0.3889
 9253SOL    HW139392   1.942   1.547  10.211  1.8545 -1.0959  0.3897
 9253SOL    HW239393   2.042   1.561  10.106  0.4749 -1.1951 -0.3106
 9254SOL     OW39394   0.446   0.760   5.224 -0.6361  0.3936  0.6495
 9254SOL    HW139395   0.369   0.773   5.279  0.1446 -1.9233  2.2670
 9254SOL    HW239396   0.478   0.849   5.212 -0.1981  0.0306 -0.9070
 9255SOL     OW39397   0.065   1.497   2.951 -0.2220  0.3003  0.3525
 9255SOL    HW139398   0.142   1.554   2.961 -1.4362  2.3168 -1.6522
 9255SOL    HW239399   0.011   1.521   3.027 -0.9261 -0.1301 -0.0150
 9256SOL     OW39400   1.780   2.227  16.766  0.2417  0.1795  0.1357
 9256SOL    HW139401   1.808   2.156  16.708 -1.9350 -0.6882  0.1532
 9256SOL    HW239402   1.865   2.271  16.772  0.8491 -0.7270 -1.7721
 9257SOL     OW39403   3.231   2.015   8.353  0.3107  0.1890  0.2506
 9257SOL    HW139404   3.180   2.045   8.427 -2.3058 -2.6231 -0.4296
 9257SOL    HW239405   3.275   2.096   8.325  2.1881 -0.7318  0.5166
 9258SOL     OW39406   3.807   3.555  12.798  0.0053  0.0039 -0.3575
 9258SOL    HW139407   3.869   3.624  12.775  1.1383 -0.8833  0.0030
 9258SOL    HW239408   3.727   3.607  12.810 -0.6047 -1.8286  3.3863
 9259SOL     OW39409   4.317   2.491   2.510 -0.0298 -0.1474  0.2802
 9259SOL    HW139410   4.394   2.440   2.486  0.8970  1.5933 -0.4484
 9259SOL    HW239411   4.322   2.568   2.453  2.0057  0.2366  1.0034
 9260SOL     OW39412   3.049   2.211   5.373 -0.3882  0.2619 -0.5830
 9260SOL    HW139413   3.049   2.249   5.461 -0.8645 -2.2353  0.4823
 9260SOL    HW239414   3.017   2.286   5.322 -3.0186  0.1604  0.9443
 9261SOL     OW39415   3.709   4.563   4.383  0.3549  0.4699  1.0937
 9261SOL    HW139416   3.637   4.587   4.442 -1.0812 -1.7682  0.2396
 9261SOL    HW239417   3.678   4.601   4.301  1.5569 -1.6951 -0.3652
 9262SOL     OW39418   3.158   2.758   5.934  0.1920 -0.2345  0.3016
 9262SOL    HW139419   3.157   2.767   6.030  2.3463  3.5291 -0.0289
 9262SOL    HW239420   3.116   2.839   5.905  2.1539  0.8766  0.5461
 9263SOL     OW39421   0.623   1.186  10.168 -0.0152 -0.4829 -0.5550
 9263SOL    HW139422   0.658   1.164  10.082 -0.3824 -1.4396 -0.4546
 9263SOL    HW239423   0.543   1.133  10.166  0.3040 -1.0758  1.9081
 9264SOL     OW39424   3.227   0.540   9.498  0.0575 -0.3808 -0.1205
 9264SOL    HW139425   3.212   0.459   9.547 -1.2462  1.3952  2.4137
 9264SOL    HW239426   3.321   0.527   9.484  0.0051 -0.5222 -0.3531
 9265SOL     OW39427   4.505   1.848   3.990 -0.5236 -0.6668 -0.2829
 9265SOL    HW139428   4.411   1.867   3.982 -0.0096  2.3023  0.7032
 9265SOL    HW239429   4.499   1.759   4.024  1.4743  0.0837  2.0214
 9266SOL     OW39430   1.751   4.476   7.533 -0.8187  0.6480 -0.5138
 9266SOL    HW139431   1.774   4.560   7.574  1.6417 -0.9859  1.4994
 9266SOL    HW239432   1.829   4.443   7.490 -1.3861 -1.2275 -0.1137
 9267SOL     OW39433   2.625   3.577  12.539 -0.0122 -0.1108 -0.6347
 9267SOL    HW139434   2.529   3.585  12.540 -0.0627 -0.7820 -0.2659
 9267SOL    HW239435   2.641   3.632  12.615  1.2751 -0.0472 -0.9508
 9268SOL     OW39436   4.473   1.581   4.868  0.0715 -0.0140  0.0140
 9268SOL    HW139437   4.534   1.582   4.795 -0.2483 -1.2752 -0.2776
 9268SOL    HW239438   4.418   1.657   4.850  2.3410  1.6829  0.3302
 9269SOL     OW39439   3.390   1.886   3.626  0.5464 -0.3503 -0.2390
 9269SOL    HW139440   3.318   1.852   3.679  0.2000  0.1070 -0.4145
 9269SOL    HW239441   3.470   1.859   3.671  0.2751  1.6837  1.4323
 9270SOL     OW39442   0.452   2.519   7.906  0.2811 -0.2962  0.1921
 9270SOL    HW139443   0.398   2.562   7.840  0.9749 -2.5290 -1.8556
 9270SOL    HW239444   0.384   2.493   7.969  0.3443  1.2654  0.8933
 9271SOL     OW39445   0.398   4.580   3.709  0.0544 -1.0400  0.0389
 9271SOL    HW139446   0.403   4.502   3.765  1.9879 -1.9521 -1.4209
 9271SOL    HW239447   0.365   4.642   3.775 -3.5941 -0.3477 -2.4535
 9272SOL     OW39448   4.047   0.530   8.011  0.1516  0.0883 -0.5082
 9272SOL    HW139449   4.096   0.458   8.051 -0.9107 -1.0197 -1.1989
 9272SOL    HW239450   3.964   0.483   8.014  0.6544 -0.7887 -0.1591
 9273SOL     OW39451   1.353   0.149   9.633  0.2695  0.1682 -0.2113
 9273SOL    HW139452   1.357   0.140   9.538 -0.6459  2.3187 -0.4742
 9273SOL    HW239453   1.309   0.234   9.632 -2.1631 -1.0695  2.2561
 9274SOL     OW39454   4.104   1.094  14.580 -0.6194  0.3354  0.2188
 9274SOL    HW139455   4.103   1.003  14.548 -0.9448  0.3538  0.1744
 9274SOL    HW239456   4.148   1.102  14.664  2.5475  4.0202 -1.8256
 9275SOL     OW39457   1.755   2.757  12.309 -0.0158 -0.0331 -0.2309
 9275SOL    HW139458   1.843   2.769  12.347  0.0291  0.1819 -0.4018
 9275SOL    HW239459   1.721   2.836  12.352 -0.6623 -0.6384  0.3576
 9276SOL     OW39460   3.628   4.104  14.131 -0.1871  0.2343  0.5619
 9276SOL    HW139461   3.702   4.163  14.121  0.5179 -0.6529  0.5675
 9276SOL    HW239462   3.666   4.021  14.103 -1.8161 -0.5566  0.6516
 9277SOL     OW39463   2.617   1.884  14.126 -0.0354  0.1299 -0.2596
 9277SOL    HW139464   2.628   1.958  14.067 -1.5515 -0.1805 -0.9227
 9277SOL    HW239465   2.616   1.816  14.059  0.0043  0.3236 -0.4552
 9278SOL     OW39466   0.691   0.703  16.165 -0.0351 -0.1829 -0.1935
 9278SOL    HW139467   0.771   0.743  16.131  0.8970 -1.6809  0.2198
 9278SOL    HW239468   0.647   0.672  16.087  0.1711  1.7808 -1.0863
 9279SOL     OW39469   4.293   2.645   8.215 -0.3424 -0.4536  0.2375
 9279SOL    HW139470   4.292   2.716   8.279  1.1329 -0.3127  0.1152
 9279SOL    HW239471   4.202   2.617   8.223 -0.3641 -0.4923 -0.1291
 9280SOL     OW39472   1.926   4.454  16.289 -0.1484  0.3592 -0.4053
 9280SOL    HW139473   1.946   4.544  16.266 -2.0882  0.7543 -0.5604
 9280SOL    HW239474   1.895   4.420  16.205  0.8001  0.6112 -0.8584
 9281SOL     OW39475   2.098   3.286  13.325  0.1406 -0.0968 -0.6763
 9281SOL    HW139476   2.109   3.343  13.401  2.5882 -2.0922  0.4640
 9281SOL    HW239477   2.041   3.218  13.360  0.0494 -0.7808 -2.1598
 9282SOL     OW39478   3.890   3.997   0.755  0.4423 -0.2188 -0.4502
 9282SOL    HW139479   3.822   4.062   0.734  1.6894  0.8658 -1.0705
 9282SOL    HW239480   3.831   3.927   0.784 -0.4315  0.5355 -0.4089
 9283SOL     OW39481   0.069   3.435  11.647 -0.1470  0.4373  0.4458
 9283SOL    HW139482   0.027   3.367  11.700 -0.4993  0.6237  0.4098
 9283SOL    HW239483   0.151   3.394  11.620 -0.5240  0.0770 -0.1691
 9284SOL     OW39484   0.696   3.278   6.495 -0.2792 -0.0040  0.2255
 9284SOL    HW139485   0.700   3.332   6.574  2.2682  1.2995 -0.7897
 9284SOL    HW239486   0.681   3.341   6.424  0.0001 -0.2980 -0.0977
 9285SOL     OW39487   0.622   1.274   4.731 -0.1842 -0.1970  0.1142
 9285SOL    HW139488   0.597   1.181   4.727  1.1347 -0.5216 -0.6911
 9285SOL    HW239489   0.542   1.321   4.708  1.2108  1.8176 -0.5643
 9286SOL     OW39490   2.657   0.916   8.394 -0.7656  0.0314 -0.7181
 9286SOL    HW139491   2.731   0.858   8.416 -1.7890 -1.8317 -2.2304
 9286SOL    HW239492   2.625   0.951   8.477 -0.1289 -0.6585 -0.1704
 9287SOL     OW39493   1.081   3.124   7.174 -0.4882  0.5712  0.1212
 9287SOL    HW139494   1.033   3.139   7.256  0.1875 -0.9851  0.8166
 9287SOL    HW239495   1.150   3.189   7.183  0.8624 -1.3993  3.9536
 9288SOL     OW39496   3.469   1.394   3.277 -0.3684 -0.3150  0.1886
 9288SOL    HW139497   3.540   1.381   3.340 -0.7926  0.7940  0.9127
 9288SOL    HW239498   3.426   1.476   3.302 -0.4841 -1.0059  2.2868
 9289SOL     OW39499   2.550   2.193  15.865  0.9996  0.0137 -0.6813
 9289SOL    HW139500   2.539   2.100  15.844  1.7327  0.0621 -1.2880
 9289SOL    HW239501   2.626   2.211  15.810  2.1551  0.8480  1.2060
 9290SOL     OW39502   4.367   1.800   8.025  0.1514  0.2482  0.2275
 9290SOL    HW139503   4.410   1.730   7.976  0.5831  0.9865 -0.4415
 9290SOL    HW239504   4.312   1.839   7.957 -0.5950 -2.1305 -0.5294
 9291SOL     OW39505   3.618   0.278  11.665  0.3374  0.1629  0.2404
 9291SOL    HW139506   3.668   0.311  11.590 -0.0029  0.1841  0.0224
 9291SOL    HW239507   3.532   0.315  11.641  0.4352 -0.7930 -1.6017
 9292SOL     OW39508   4.133   2.382  10.345 -0.2510  0.5145 -0.2905
 9292SOL    HW139509   4.095   2.334  10.271 -1.7478  1.0584  0.1319
 9292SOL    HW239510   4.056   2.380  10.401 -0.6479  3.2550 -0.7287
 9293SOL     OW39511   3.486   3.401   4.210 -0.0392 -0.0094 -0.0414
 9293SOL    HW139512   3.548   3.329   4.213  1.3138  1.1043 -1.3181
 9293SOL    HW239513   3.526   3.480   4.247  0.1154 -0.2471  0.2897
 9294SOL     OW39514   2.512   1.818   5.844  0.2386 -0.1778  0.1809
 9294SOL    HW139515   2.488   1.829   5.752  0.4210 -0.9044  0.0491
 9294SOL    HW239516   2.431   1.782   5.882 -0.2483 -1.2439 -1.9104
 9295SOL     OW39517   1.845   1.868   3.104  0.7063 -0.6436 -0.3163
 9295SOL    HW139518   1.883   1.833   3.186 -0.9653 -0.0399  0.7130
 9295SOL    HW239519   1.768   1.908   3.143  0.8327 -1.1368  0.4585
 9296SOL     OW39520   2.246   4.253   2.313 -0.0259  0.2185  0.5991
 9296SOL    HW139521   2.167   4.201   2.305 -0.8353  1.7906 -1.8022
 9296SOL    HW239522   2.222   4.308   2.387  1.0253  0.7840  0.5337
 9297SOL     OW39523   2.228   0.277   7.378  0.3444 -0.4151  0.3634
 9297SOL    HW139524   2.200   0.239   7.295  3.0251  1.1106 -1.2580
 9297SOL    HW239525   2.304   0.324   7.343  0.4561 -1.6269 -1.0345
 9298SOL     OW39526   2.447   2.371   4.972  0.1396  0.5845  0.8436
 9298SOL    HW139527   2.448   2.312   5.046  0.0210 -2.0135 -1.2324
 9298SOL    HW239528   2.523   2.338   4.923  0.3482  3.1632 -0.5920
 9299SOL     OW39529   3.503   0.549   3.207 -0.1190  0.0613  0.6266
 9299SOL    HW139530   3.575   0.606   3.233  1.0249 -1.0446 -0.0495
 9299SOL    HW239531   3.453   0.521   3.283 -0.3563 -0.2169  0.3691
 9300SOL     OW39532   0.053   3.653  10.335 -0.5974  0.3995  0.2204
 9300SOL    HW139533   0.022   3.577  10.287 -0.1009  2.2098 -2.9137
 9300SOL    HW239534   0.105   3.699  10.270  0.7425  2.4705  2.7340
 9301SOL     OW39535   1.539   4.484   8.254 -0.0054 -0.3792 -0.2425
 9301SOL    HW139536   1.566   4.547   8.187  0.6827 -0.3993  0.0191
 9301SOL    HW239537   1.520   4.405   8.204  0.6828 -1.2788  0.9352
 9302SOL     OW39538   0.379   2.504  16.595 -0.0902  0.2410 -0.1407
 9302SOL    HW139539   0.394   2.525  16.503 -1.6683 -0.6132 -0.6079
 9302SOL    HW239540   0.354   2.585  16.638  0.6673  1.1347 -1.3920
 9303SOL     OW39541   4.606   0.513   3.313  0.1678  0.1637  0.0348
 9303SOL    HW139542   4.630   0.434   3.363  1.3148  1.6637  1.8565
 9303SOL    HW239543   4.688   0.520   3.263  0.7145  2.5054  1.2434
 9304SOL     OW39544   1.959   0.922  10.984 -0.0876  0.4246 -0.0632
 9304SOL    HW139545   1.887   0.862  10.964 -0.2021  0.7000 -0.4759
 9304SOL    HW239546   1.914   0.978  11.047 -0.7510 -0.8877  0.6215
 9305SOL     OW39547   3.036   3.857   6.930  0.1156 -0.5736  0.5646
 9305SOL    HW139548   3.081   3.910   6.865 -0.0268 -0.6366  0.4152
 9305SOL    HW239549   2.998   3.926   6.985 -1.8075  0.6951 -2.3705
 9306SOL     OW39550   3.065   3.760   5.935  0.2586  0.4634  0.4151
 9306SOL    HW139551   3.149   3.782   5.895 -0.1798  0.9621 -0.2218
 9306SOL    HW239552   3.087   3.812   6.013  1.6042 -0.0972  0.4081
 9307SOL     OW39553   4.226   0.232   3.344  0.2768  0.2497 -0.5076
 9307SOL    HW139554   4.246   0.300   3.280  3.2441 -0.6583 -0.5503
 9307SOL    HW239555   4.160   0.194   3.285 -0.6736  3.2485 -1.3355
 9308SOL     OW39556   0.137   0.219   8.509 -0.1090 -0.1510 -0.0734
 9308SOL    HW139557   0.189   0.138   8.507  0.3868  0.2129 -2.5379
 9308SOL    HW239558   0.198   0.278   8.465  0.7682 -0.4260  0.7890
 9309SOL     OW39559   4.258   3.725  14.299  0.1075 -0.4291  0.0570
 9309SOL    HW139560   4.353   3.719  14.298  0.1271 -0.1690  0.2876
 9309SOL    HW239561   4.231   3.634  14.309  2.0798 -1.1565 -1.5405
 9310SOL     OW39562   2.544   4.268  11.471  0.1240  0.0820  0.2102
 9310SOL    HW139563   2.458   4.282  11.511  0.5590  3.4601 -0.0471
 9310SOL    HW239564   2.512   4.260  11.381  0.1881 -1.7609  0.3497
 9311SOL     OW39565   2.197   4.054  17.553 -0.1517  0.1991  0.1050
 9311SOL    HW139566   2.292   4.061  17.566 -0.0586 -0.9969  0.0604
 9311SOL    HW239567   2.162   4.136  17.589 -0.1523  0.4283 -0.4243
 9312SOL     OW39568   1.123   1.027   4.742  0.5789 -0.4219 -0.1401
 9312SOL    HW139569   1.216   1.050   4.735  0.5153 -0.0595  0.2226
 9312SOL    HW239570   1.097   1.011   4.652 -1.9781  0.5292  0.4126
 9313SOL     OW39571   2.156   1.185   3.274  0.4765 -0.2138  0.2254
 9313SOL    HW139572   2.217   1.223   3.211 -3.0814  2.1040 -1.8444
 9313SOL    HW239573   2.216   1.132   3.327 -0.0214  0.5018  1.5044
 9314SOL     OW39574   3.449   2.378   5.813 -0.9482 -0.5698 -0.2814
 9314SOL    HW139575   3.508   2.303   5.809 -0.2354 -0.1642  2.5802
 9314SOL    HW239576   3.383   2.351   5.877 -1.4349 -0.4829 -0.7405
 9315SOL     OW39577   4.177   1.871   4.568  0.7285  0.1055 -0.1387
 9315SOL    HW139578   4.232   1.928   4.622 -0.4060 -1.0294  2.1975
 9315SOL    HW239579   4.190   1.785   4.608 -0.2944 -0.2398 -0.5410
 9316SOL     OW39580   1.986   4.021  15.492 -0.2061  0.1899 -0.6090
 9316SOL    HW139581   1.999   4.115  15.480 -2.4933  0.6404  0.5276
 9316SOL    HW239582   2.074   3.985  15.483 -0.1353  0.1722  0.1558
 9317SOL     OW39583   3.582   1.340   6.186 -0.6821  0.3740  0.3701
 9317SOL    HW139584   3.502   1.342   6.238 -0.7844  1.0348  0.1879
 9317SOL    HW239585   3.651   1.364   6.249 -0.3523 -0.8540  0.4848
 9318SOL     OW39586   2.532   4.162   7.436 -0.4534 -0.2022 -0.1281
 9318SOL    HW139587   2.594   4.133   7.369  1.2167  1.1912  0.8231
 9318SOL    HW239588   2.572   4.122   7.513  1.5758  0.4434 -0.8331
 9319SOL     OW39589   2.956   1.211   7.144 -0.5418  0.3640  0.0797
 9319SOL    HW139590   2.899   1.157   7.199 -1.0807  1.6099  0.7514
 9319SOL    HW239591   2.944   1.297   7.185  0.3596  0.8269 -0.6222
 9320SOL     OW39592   4.623   0.331   2.181  0.4941 -0.2341 -0.0497
 9320SOL    HW139593   4.547   0.360   2.231 -0.4596  0.7117 -2.0565
 9320SOL    HW239594   4.586   0.349   2.094  0.9406  0.1729 -0.1570
 9321SOL     OW39595   0.436   2.030  15.051  0.2383 -0.5587 -0.1915
 9321SOL    HW139596   0.356   2.023  15.103 -0.1924  1.0491 -0.6557
 9321SOL    HW239597   0.401   2.070  14.971 -1.6070 -2.0453 -0.1333
 9322SOL     OW39598   3.423   1.013   5.324  0.3759 -0.4523  0.3151
 9322SOL    HW139599   3.433   1.012   5.229 -0.4093 -1.1126  0.2438
 9322SOL    HW239600   3.416   0.921   5.346 -1.3401 -0.0306  1.5058
 9323SOL     OW39601   1.837   1.876   0.914  1.0398  0.3060 -0.2384
 9323SOL    HW139602   1.833   1.786   0.945 -0.6452  0.1806 -0.8118
 9323SOL    HW239603   1.851   1.923   0.996  1.4982  1.8284 -1.1712
 9324SOL     OW39604   0.141   0.799  14.603  0.3539 -0.4726 -0.7266
 9324SOL    HW139605   0.054   0.770  14.575 -0.2111  0.4126  0.1048
 9324SOL    HW239606   0.117   0.857  14.676 -4.1273 -2.5821 -0.4893
 9325SOL     OW39607   3.959   0.506  11.668  0.0180  0.1069 -0.4696
 9325SOL    HW139608   4.052   0.514  11.689 -0.0030  0.5732 -0.5357
 9325SOL    HW239609   3.938   0.434  11.727 -0.0290 -1.0660 -1.9280
 9326SOL     OW39610   2.487   3.857   8.668  0.0914 -0.6910  0.6688
 9326SOL    HW139611   2.399   3.883   8.695  0.9739  4.2749 -1.2262
 9326SOL    HW239612   2.539   3.937   8.677  2.1751 -2.3708  3.3730
 9327SOL     OW39613   0.556   1.013   4.780 -0.0532 -0.2214 -0.2753
 9327SOL    HW139614   0.631   0.968   4.818 -2.2224 -3.2463  0.4363
 9327SOL    HW239615   0.526   0.948   4.717 -1.3275 -0.3068  0.4185
 9328SOL     OW39616   4.057   3.025   0.799  0.3714  0.5575 -0.2302
 9328SOL    HW139617   4.111   3.014   0.877 -1.2148  1.6154  1.0344
 9328SOL    HW239618   3.984   2.965   0.818  0.1120  1.5047  1.8204
 9329SOL     OW39619   3.155   3.935   8.830 -1.0349 -0.5247 -0.0541
 9329SOL    HW139620   3.133   3.858   8.777  0.5949  0.3406 -1.9687
 9329SOL    HW239621   3.207   3.893   8.898 -0.3285  0.6701  0.1322
 9330SOL     OW39622   1.388   2.977  12.179  0.0333  0.5086 -0.2571
 9330SOL    HW139623   1.307   3.005  12.137 -0.7643 -1.5827 -0.1354
 9330SOL    HW239624   1.364   2.944  12.266  2.3265 -2.0636 -0.5907
 9331SOL     OW39625   2.504   2.328   2.160 -0.8613 -0.0004 -0.2325
 9331SOL    HW139626   2.583   2.315   2.107 -0.4180 -0.1632  0.4781
 9331SOL    HW239627   2.535   2.334   2.250 -0.7654  1.1879 -0.3374
 9332SOL     OW39628   0.625   1.135   1.427  0.7709 -0.2688 -0.1708
 9332SOL    HW139629   0.667   1.179   1.501 -0.1515  0.6669 -0.2035
 9332SOL    HW239630   0.585   1.056   1.464  1.5926  0.2451  1.8000
 9333SOL     OW39631   3.342   1.689   5.157 -0.0425 -0.6043  0.3593
 9333SOL    HW139632   3.358   1.659   5.247 -2.4493 -0.0915  0.9530
 9333SOL    HW239633   3.429   1.705   5.122 -0.8034  1.2912 -0.6433
 9334SOL     OW39634   1.407   1.226  12.899 -0.0594 -0.1433  0.0784
 9334SOL    HW139635   1.341   1.160  12.879 -0.2986 -0.0965  0.7117
 9334SOL    HW239636   1.382   1.250  12.988 -0.2478  0.6671 -0.1933
 9335SOL     OW39637   4.672   3.216   8.291 -0.2954  0.2229 -0.0891
 9335SOL    HW139638   4.632   3.293   8.250 -0.2732  0.2777 -0.0076
 9335SOL    HW239639   4.600   3.153   8.281 -0.5079  0.0684  2.1846
 9336SOL     OW39640   2.057   3.288  12.809  0.4326  0.0481 -0.3125
 9336SOL    HW139641   2.032   3.355  12.745  3.2863 -0.8641 -2.4265
 9336SOL    HW239642   2.151   3.287  12.791  0.4049  0.8342 -0.4802
 9337SOL     OW39643   4.169   3.267   4.153 -0.1601  0.4558  0.0919
 9337SOL    HW139644   4.174   3.347   4.102 -0.2536 -1.4868 -2.9555
 9337SOL    HW239645   4.197   3.199   4.092 -1.2671 -0.2412  0.3463
 9338SOL     OW39646   1.959   0.452  11.648  0.2538 -0.1558 -0.4253
 9338SOL    HW139647   1.898   0.413  11.711  2.1792 -0.2330  1.3749
 9338SOL    HW239648   2.029   0.388  11.635  0.2523 -0.0038 -1.1698
 9339SOL     OW39649   4.730   0.027   8.847 -0.2905 -0.2648 -0.0062
 9339SOL    HW139650   4.709   4.715   8.930 -0.8550  1.0729  0.5710
 9339SOL    HW239651   4.650   0.002   8.800 -0.1540  0.1977 -0.4876
 9340SOL     OW39652   1.697   4.503   8.884 -0.1730  0.7956  0.6484
 9340SOL    HW139653   1.709   4.558   8.961  1.2987  0.0299  0.9804
 9340SOL    HW239654   1.673   4.414   8.907  1.1153  0.9735  2.6718
 9341SOL     OW39655   4.292   3.588   7.586  0.1337 -0.9607  0.0482
 9341SOL    HW139656   4.200   3.571   7.608 -0.3743  1.2208 -0.3539
 9341SOL    HW239657   4.314   3.676   7.616  0.9956 -1.0444 -0.3222
 9342SOL     OW39658   2.870   1.589   7.814 -0.1211 -0.1108  0.6226
 9342SOL    HW139659   2.808   1.559   7.746  1.3157  1.8705 -1.5639
 9342SOL    HW239660   2.821   1.657   7.861 -1.5851 -0.2204 -0.7069
 9343SOL     OW39661   4.606   0.791   7.217 -0.2208 -0.4286 -0.2720
 9343SOL    HW139662   4.581   0.852   7.286  2.3436 -0.8181  0.9981
 9343SOL    HW239663   4.532   0.732   7.236 -1.5716  1.1353 -0.6970
 9344SOL     OW39664   0.104   4.397   3.960  0.4888 -0.0809 -0.7623
 9344SOL    HW139665   0.197   4.379   3.944  1.2390  1.3795  1.8436
 9344SOL    HW239666   0.082   4.319   4.010  1.1284 -0.6125 -1.3091
 9345SOL     OW39667   0.494   3.031   8.465 -0.1208  0.2344 -0.2168
 9345SOL    HW139668   0.444   3.096   8.415 -1.4232  0.5811  1.5202
 9345SOL    HW239669   0.568   3.015   8.407 -0.7776 -0.0519 -0.9776
 9346SOL     OW39670   0.245   2.194   8.685  0.2513 -0.4060 -0.5696
 9346SOL    HW139671   0.181   2.154   8.743  1.5900 -2.2276 -0.3361
 9346SOL    HW239672   0.256   2.126   8.619  0.6680 -0.7676 -0.1244
 9347SOL     OW39673   1.918   2.706  16.827 -0.2591  0.5622  0.8073
 9347SOL    HW139674   1.900   2.709  16.733  1.9072  1.2619  0.4045
 9347SOL    HW239675   1.837   2.666  16.858 -1.2298  1.9837  0.1140
 9348SOL     OW39676   1.697   3.315  12.627 -0.2420 -0.5297 -0.2489
 9348SOL    HW139677   1.767   3.347  12.682 -0.5486  0.9073 -0.6878
 9348SOL    HW239678   1.730   3.348  12.544 -1.3493  0.9780 -0.0859
 9349SOL     OW39679   0.966   2.241   8.993 -0.1161 -0.6721  0.7843
 9349SOL    HW139680   0.899   2.301   8.963  1.3174  1.5722  2.0298
 9349SOL    HW239681   0.968   2.281   9.080 -3.3921 -0.4898  0.7795
 9350SOL     OW39682   0.357   3.863  12.353 -0.2437 -0.5206  0.2180
 9350SOL    HW139683   0.344   3.769  12.342 -0.1347 -0.3751 -1.1106
 9350SOL    HW239684   0.370   3.906  12.269 -0.0611  0.1276  0.5780
 9351SOL     OW39685   0.933   0.452   1.500  0.5769  0.3366  0.0388
 9351SOL    HW139686   0.885   0.531   1.525 -0.8145 -0.2117 -0.9205
 9351SOL    HW239687   0.949   0.406   1.582 -1.2499 -1.5345 -0.6433
 9352SOL     OW39688   4.352   0.167   9.486  0.2818 -0.0575  0.6567
 9352SOL    HW139689   4.304   0.168   9.403 -0.4524 -0.4787  1.0696
 9352SOL    HW239690   4.305   0.238   9.531 -1.0630 -0.8939  0.5637
 9353SOL     OW39691   0.483   3.090   8.106 -0.3164 -0.0862 -0.4714
 9353SOL    HW139692   0.569   3.049   8.097 -1.1004 -1.8725  0.1639
 9353SOL    HW239693   0.509   3.172   8.149  0.2520 -1.2421  1.3601
 9354SOL     OW39694   0.884   0.845   6.439 -0.1404  0.1628 -0.5052
 9354SOL    HW139695   0.934   0.790   6.500  1.6323  1.5219 -0.7429
 9354SOL    HW239696   0.884   0.936   6.467  2.9864 -0.2923  1.0360
 9355SOL     OW39697   0.189   3.600   5.897  0.0779 -0.6989  0.0189
 9355SOL    HW139698   0.237   3.638   5.824  2.0156 -2.5837  0.3007
 9355SOL    HW239699   0.119   3.555   5.850  1.3146 -1.6107 -0.9607
 9356SOL     OW39700   4.681   3.866   8.535 -0.1123 -0.3008 -0.5686
 9356SOL    HW139701   0.028   3.820   8.563  0.9560  0.6736 -1.9242
 9356SOL    HW239702   4.624   3.797   8.503 -2.4424  1.2506  0.1973
 9357SOL     OW39703   0.928   1.841   7.218 -0.0774  0.6029  0.2246
 9357SOL    HW139704   0.894   1.854   7.129  0.5200 -0.3528 -0.1535
 9357SOL    HW239705   1.015   1.805   7.201 -0.3928 -0.3064  0.5121
 9358SOL     OW39706   3.452   3.570   6.126 -0.0865 -0.4798 -0.2267
 9358SOL    HW139707   3.415   3.482   6.115  0.9390 -0.8974 -0.3366
 9358SOL    HW239708   3.426   3.622   6.049  1.4868 -0.5303 -0.7815
 9359SOL     OW39709   4.389   1.192   7.493 -0.1772 -0.1524 -0.1895
 9359SOL    HW139710   4.434   1.208   7.576 -2.3642  1.1324  0.7592
 9359SOL    HW239711   4.297   1.179   7.515 -0.4809  1.9668 -0.2688
 9360SOL     OW39712   0.910   1.046   3.081  0.5404  0.4410 -0.3224
 9360SOL    HW139713   0.935   0.988   3.152  3.0582  0.6352 -1.0599
 9360SOL    HW239714   0.995   1.077   3.050  1.1012 -0.6277  0.1892
 9361SOL     OW39715   1.740   1.056   9.628  0.2328 -0.0599  0.3645
 9361SOL    HW139716   1.801   1.001   9.677 -1.0422  0.0794  2.1011
 9361SOL    HW239717   1.753   1.142   9.668  1.4272  0.0374 -0.2193
 9362SOL     OW39718   1.229   3.491   5.387  0.2324  0.4610  0.6183
 9362SOL    HW139719   1.226   3.531   5.474  0.5683  1.8888 -0.0293
 9362SOL    HW239720   1.279   3.557   5.339  2.0217 -0.6988  0.9258
 9363SOL     OW39721   3.014   2.697   4.459  0.7179  0.1032  0.2618
 9363SOL    HW139722   2.974   2.662   4.538  0.0988 -3.4484 -1.6321
 9363SOL    HW239723   3.102   2.658   4.455 -0.7066 -2.9143 -2.0645
 9364SOL     OW39724   4.004   3.918  12.988 -0.4951 -0.7018 -0.3731
 9364SOL    HW139725   3.979   3.983  13.055  0.4501  0.9353 -1.5953
 9364SOL    HW239726   4.100   3.925  12.992 -0.6538  0.9420  0.6807
 9365SOL     OW39727   1.787   4.719   7.634  0.1127  0.2934  0.6443
 9365SOL    HW139728   1.699   4.718   7.672  0.1904  0.3452  0.8243
 9365SOL    HW239729   1.819   0.061   7.685  1.4731  0.3990 -0.3527
 9366SOL     OW39730   0.115   4.278   6.514  0.0594  0.6668 -0.5428
 9366SOL    HW139731   0.126   4.322   6.429  4.6587 -2.9388 -1.8102
 9366SOL    HW239732   0.207   4.290   6.539  0.1783 -1.4148  0.0036
 9367SOL     OW39733   2.852   3.845  12.729  0.0010  0.4251  0.1128
 9367SOL    HW139734   2.872   3.804  12.645 -3.3755 -0.0199 -0.5036
 9367SOL    HW239735   2.780   3.791  12.761  1.9989 -1.1562  1.9466
 9368SOL     OW39736   3.935   3.591   2.118  0.3897 -0.4649 -0.3118
 9368SOL    HW139737   3.853   3.616   2.076 -1.1222 -1.7951  1.8457
 9368SOL    HW239738   3.911   3.592   2.210 -1.3505 -1.2577 -0.7723
 9369SOL     OW39739   4.485   1.564   1.310 -0.3788 -0.3900 -0.3663
 9369SOL    HW139740   4.454   1.602   1.228  1.9552 -0.1377 -1.1243
 9369SOL    HW239741   4.425   1.615   1.366 -1.1745  0.1049 -1.6793
 9370SOL     OW39742   4.685   4.058   6.386  0.3124 -0.8928 -0.3178
 9370SOL    HW139743   4.725   4.130   6.435  1.0781 -2.3303  1.1857
 9370SOL    HW239744   4.710   4.078   6.296  2.6942 -1.5523  0.1847
 9371SOL     OW39745   1.708   2.038   8.843 -0.3237  0.2470 -0.1007
 9371SOL    HW139746   1.690   2.083   8.926  0.5241 -1.8321  1.1935
 9371SOL    HW239747   1.756   1.959   8.868 -0.9044 -0.0973 -0.0798
 9372SOL     OW39748   4.642   2.473   3.840 -0.2018  0.4590 -0.3366
 9372SOL    HW139749   4.575   2.404   3.835  1.1245 -0.8493 -0.2082
 9372SOL    HW239750   4.651   2.494   3.747  1.2839  0.4752 -0.1830
 9373SOL     OW39751   0.375   1.465   9.107 -0.0387  0.2185 -0.3618
 9373SOL    HW139752   0.317   1.415   9.049  0.8181 -0.0745 -0.9750
 9373SOL    HW239753   0.439   1.493   9.041  0.8148 -2.2115 -0.5732
 9374SOL     OW39754   3.949   2.750   2.014  0.3856  0.0453 -0.2238
 9374SOL    HW139755   3.895   2.677   2.042  1.6056 -0.2519  1.3789
 9374SOL    HW239756   4.013   2.712   1.954  0.7502  0.7911 -0.3177
 9375SOL     OW39757   2.947   4.719   2.197  0.3345 -0.3524  0.0643
 9375SOL    HW139758   2.871   4.668   2.168 -0.1112 -0.0188  0.6401
 9375SOL    HW239759   2.897   0.069   2.194 -0.2321 -0.6639  0.8994
 9376SOL     OW39760   3.663   1.733   6.703 -0.0537 -0.4423  0.4570
 9376SOL    HW139761   3.726   1.714   6.772  1.1576 -0.1274 -0.5582
 9376SOL    HW239762   3.583   1.738   6.755 -1.7203  0.7236 -2.2274
 9377SOL     OW39763   0.038   4.713  15.766 -0.1092 -0.2489 -0.2148
 9377SOL    HW139764   0.129   0.010  15.773  0.0512 -0.5046 -1.3484
 9377SOL    HW239765   0.036   4.636  15.710  0.9871  1.4176 -2.5049
 9378SOL     OW39766   0.290   3.625  12.228 -0.0326 -0.0374 -0.0127
 9378SOL    HW139767   0.195   3.619  12.229  0.1937 -4.3925 -1.7175
 9378SOL    HW239768   0.308   3.644  12.136  1.2076  1.0939  0.4696
 9379SOL     OW39769   0.988   2.574  10.287  0.8899  0.2283  0.1543
 9379SOL    HW139770   0.916   2.637  10.282  1.6989  1.0294 -1.7758
 9379SOL    HW239771   1.045   2.622  10.346  2.1084 -1.2413  0.1739
 9380SOL     OW39772   2.592   3.824   1.093 -0.5478  0.0162 -0.0539
 9380SOL    HW139773   2.599   3.744   1.041 -1.1983 -1.3293  1.9448
 9380SOL    HW239774   2.643   3.805   1.171 -0.6162 -0.1202 -0.0417
 9381SOL     OW39775   1.491   0.907   9.567 -0.2319  0.1101  0.2531
 9381SOL    HW139776   1.550   0.834   9.546  1.3674 -0.2293  5.8391
 9381SOL    HW239777   1.567   0.961   9.588  0.4433 -0.0111 -1.9111
 9382SOL     OW39778   2.461   1.239   7.165 -0.2099  0.7343  0.0031
 9382SOL    HW139779   2.390   1.210   7.108 -0.0893  0.9948 -0.2814
 9382SOL    HW239780   2.445   1.187   7.243  0.9440  1.0780  0.4761
 9383SOL     OW39781   4.141   3.819   2.185  0.3233  0.2547 -0.0615
 9383SOL    HW139782   4.149   3.804   2.279  0.4590  0.0466 -0.1075
 9383SOL    HW239783   4.057   3.777   2.167 -0.4132  2.3256 -1.4627
 9384SOL     OW39784   0.578   4.295   2.071 -0.4488 -0.2744  0.4466
 9384SOL    HW139785   0.495   4.296   2.025  0.1704  1.2685 -0.6379
 9384SOL    HW239786   0.623   4.367   2.028 -1.4850  0.7520  1.0707
 9385SOL     OW39787   3.268   4.548   8.457  0.3352  0.1183  0.5447
 9385SOL    HW139788   3.355   4.548   8.416  1.3836  1.4950  2.7798
 9385SOL    HW239789   3.291   4.572   8.546  3.0525  0.0953 -0.1412
 9386SOL     OW39790   3.555   0.685   6.081  0.1369  0.9267  0.0505
 9386SOL    HW139791   3.497   0.740   6.133 -1.3200 -1.2995  0.8038
 9386SOL    HW239792   3.506   0.603   6.073 -0.8508  1.7991 -2.7107
 9387SOL     OW39793   3.407   4.029   4.659 -0.4828 -0.1514 -0.0047
 9387SOL    HW139794   3.335   4.086   4.632  0.8041  1.6288  0.3283
 9387SOL    HW239795   3.481   4.079   4.625 -0.4462 -0.4370 -0.3427
 9388SOL     OW39796   1.534   2.348  16.872  0.8004 -0.2886  0.0859
 9388SOL    HW139797   1.508   2.407  16.802  0.1627 -1.1816 -0.4246
 9388SOL    HW239798   1.616   2.315  16.837  0.3189  0.7060 -1.9531
 9389SOL     OW39799   0.748   3.220   0.204 -0.1156 -0.1553  0.1373
 9389SOL    HW139800   0.677   3.184   0.150 -0.5619  1.0098 -0.0461
 9389SOL    HW239801   0.815   3.240   0.139 -0.6525 -2.4363 -1.0981
 9390SOL     OW39802   2.688   1.071   0.200 -0.3468  0.0876 -0.6654
 9390SOL    HW139803   2.669   0.985   0.162  0.0729 -0.8892  1.3525
 9390SOL    HW239804   2.774   1.053   0.239 -0.9581 -1.4728 -0.0357
 9391SOL     OW39805   3.561   1.084   3.537  0.0881  0.0849 -0.1086
 9391SOL    HW139806   3.520   1.170   3.548 -0.5751 -0.5770  2.6443
 9391SOL    HW239807   3.591   1.085   3.446 -1.3677 -1.9254 -0.6068
 9392SOL     OW39808   0.982   2.943   6.509  0.1636 -0.6011 -0.5776
 9392SOL    HW139809   1.012   2.947   6.599  0.3383 -1.0679 -0.6114
 9392SOL    HW239810   0.972   2.849   6.490  0.5613 -0.8521  0.4651
 9393SOL     OW39811   3.324   3.907   5.336 -0.1359 -0.3381  0.2544
 9393SOL    HW139812   3.279   3.863   5.408 -0.5023 -1.1468 -0.4674
 9393SOL    HW239813   3.338   3.991   5.378  1.2407 -0.3545 -0.1848
 9394SOL     OW39814   3.604   3.259   8.262  0.0549 -0.0126 -0.2449
 9394SOL    HW139815   3.554   3.189   8.220  1.5329 -1.2070 -0.0175
 9394SOL    HW239816   3.693   3.227   8.246  0.2298 -0.6341  1.8975
 9395SOL     OW39817   3.764   3.485   2.325  0.5423  0.3941 -0.3095
 9395SOL    HW139818   3.752   3.421   2.255  2.0496 -1.3924  1.0549
 9395SOL    HW239819   3.764   3.417   2.393 -1.8503  0.3041 -0.4221
 9396SOL     OW39820   4.336   4.432   6.700  0.2287 -0.6158 -0.4945
 9396SOL    HW139821   4.427   4.454   6.683  1.3339 -3.7909  1.3868
 9396SOL    HW239822   4.351   4.363   6.765 -1.8882  1.2672  1.9970
 9397SOL     OW39823   4.268   4.575   7.138 -0.3145 -0.5496  0.1257
 9397SOL    HW139824   4.189   4.524   7.122 -1.5313  1.2616  0.3810
 9397SOL    HW239825   4.266   4.623   7.055 -0.1242  0.5336  0.7469
 9398SOL     OW39826   4.159   3.524  15.349 -0.4022 -0.4731 -0.4501
 9398SOL    HW139827   4.146   3.542  15.256 -0.3122 -1.9252 -0.7428
 9398SOL    HW239828   4.231   3.462  15.344  0.1518  0.2315 -1.1020
 9399SOL     OW39829   0.016   4.379   7.052 -0.1154  0.0742  0.0919
 9399SOL    HW139830   0.019   4.321   7.127  1.4316 -0.8108 -0.6550
 9399SOL    HW239831   0.065   4.455   7.084  1.1165 -0.4470 -0.5596
 9400SOL     OW39832   2.279   1.916   2.852  0.1471  0.3532  0.2602
 9400SOL    HW139833   2.231   1.835   2.870  0.6772 -0.1497 -0.6083
 9400SOL    HW239834   2.217   1.983   2.822  1.4207  0.8776 -1.2415
 9401SOL     OW39835   0.820   0.882  12.505 -0.2094 -0.1582  0.2288
 9401SOL    HW139836   0.844   0.796  12.469 -0.6632  0.1259 -0.7606
 9401SOL    HW239837   0.725   0.872  12.505 -0.3409  1.0208 -1.3513
 9402SOL     OW39838   2.488   1.971  10.712 -0.4322  0.1286 -0.2171
 9402SOL    HW139839   2.567   1.923  10.685 -0.1814  0.2804  0.2593
 9402SOL    HW239840   2.503   1.990  10.804 -1.1301 -2.2387  0.3718
 9403SOL     OW39841   1.060   2.422   5.239 -0.3103  0.0184 -0.1369
 9403SOL    HW139842   1.036   2.331   5.223  0.3841 -0.2253  0.2229
 9403SOL    HW239843   1.097   2.441   5.153 -0.0758  0.5062  0.0685
 9404SOL     OW39844   2.114   3.655   1.739  0.7373 -0.0351  0.4043
 9404SOL    HW139845   2.046   3.719   1.758  0.6585  0.1944 -0.6318
 9404SOL    HW239846   2.148   3.695   1.659  0.9209 -2.4732 -0.7438
 9405SOL     OW39847   1.682   1.745   3.522 -0.5066  0.4247  0.3067
 9405SOL    HW139848   1.635   1.664   3.539  0.3124 -1.0080 -4.1574
 9405SOL    HW239849   1.773   1.722   3.542 -0.6060 -0.2854 -0.0418
 9406SOL     OW39850   4.598   3.586  17.671  0.0703 -0.1567  0.1711
 9406SOL    HW139851   4.578   3.515   0.004  2.0841  0.0921  1.1323
 9406SOL    HW239852   4.570   3.660  17.725 -0.2040 -0.6202  0.6629
 9407SOL     OW39853   3.672   0.652   8.279 -0.4647  0.0907 -0.2186
 9407SOL    HW139854   3.752   0.679   8.324 -1.0116  1.3288  0.0060
 9407SOL    HW239855   3.651   0.572   8.327  0.5124  2.6769  4.5474
 9408SOL     OW39856   3.217   0.440  12.968  0.2300 -0.1028  0.0008
 9408SOL    HW139857   3.227   0.402  13.055  2.0194  0.6822  0.1259
 9408SOL    HW239858   3.122   0.454  12.973  0.4721  1.2193  0.9671
 9409SOL     OW39859   0.705   0.651   6.489  0.0256 -0.0557  0.4936
 9409SOL    HW139860   0.768   0.717   6.459  0.4247 -1.0915 -0.8981
 9409SOL    HW239861   0.627   0.707   6.486  0.7797  1.2116  3.6451
 9410SOL     OW39862   4.108   3.171  12.269 -0.2325  0.2185 -0.8052
 9410SOL    HW139863   4.148   3.094  12.309 -2.1937 -0.3996 -0.0423
 9410SOL    HW239864   4.115   3.143  12.178  0.8618  0.0623 -0.6766
 9411SOL     OW39865   3.950   0.370   2.066  0.2074 -0.0211 -0.2196
 9411SOL    HW139866   4.020   0.345   2.127 -2.9432 -0.4491  3.2195
 9411SOL    HW239867   3.906   0.287   2.050  2.4506 -1.1152 -0.7770
 9412SOL     OW39868   1.404   4.200   8.686  0.4978 -0.5815 -0.3432
 9412SOL    HW139869   1.332   4.150   8.723  1.2877 -0.5253  1.2423
 9412SOL    HW239870   1.475   4.154   8.731  0.5041 -1.0098 -0.7924
 9413SOL     OW39871   2.110   3.910   5.905 -0.1133 -0.1749  0.3661
 9413SOL    HW139872   2.034   3.964   5.929  0.9179  0.7751  1.5343
 9413SOL    HW239873   2.074   3.826   5.932  1.2084 -0.5001  1.1123
 9414SOL     OW39874   3.286   2.774   8.617  0.2008 -0.1216 -0.3047
 9414SOL    HW139875   3.231   2.839   8.573  0.6198  0.7910  0.5244
 9414SOL    HW239876   3.231   2.735   8.685  1.1617  1.6590  1.4859
 9415SOL     OW39877   0.230   2.038   3.710  0.1608 -0.0566 -0.2043
 9415SOL    HW139878   0.269   1.976   3.648 -1.4639  0.5740 -1.8208
 9415SOL    HW239879   0.246   1.985   3.789  0.4839  1.1533  0.5520
 9416SOL     OW39880   3.249   2.898  16.508  0.1193  0.4047 -0.2443
 9416SOL    HW139881   3.280   2.834  16.573 -0.5956  1.1435  0.8283
 9416SOL    HW239882   3.181   2.937  16.564  1.0891  1.8765 -0.0981
 9417SOL     OW39883   4.629   2.478  10.653  0.1905 -0.0429  0.4828
 9417SOL    HW139884   4.661   2.493  10.564 -0.8463 -2.4111 -0.2678
 9417SOL    HW239885   4.630   2.383  10.668  1.5699 -0.2307 -0.6763
 9418SOL     OW39886   4.472   4.489   2.205 -0.2983  0.1908  0.0966
 9418SOL    HW139887   4.483   4.539   2.124  0.4401  1.2129  0.8212
 9418SOL    HW239888   4.525   4.411   2.191  0.9678  0.8551  1.1298
 9419SOL     OW39889   2.560   3.487   8.591  0.6368 -0.0768  0.1272
 9419SOL    HW139890   2.524   3.557   8.536 -0.0505  0.4779  1.2917
 9419SOL    HW239891   2.551   3.414   8.529 -0.3174 -0.2266  0.4515
 9420SOL     OW39892   0.841   2.766   7.155 -0.8264 -0.0124 -0.3539
 9420SOL    HW139893   0.849   2.794   7.246 -2.3650  0.4947 -0.3720
 9420SOL    HW239894   0.888   2.828   7.099 -1.2026  0.7214  0.1365
 9421SOL     OW39895   4.404   1.051   6.750  0.1847  0.1848 -0.0888
 9421SOL    HW139896   4.444   1.075   6.833 -1.0778  0.0529  0.5619
 9421SOL    HW239897   4.338   0.988   6.780  1.5255 -0.3877  1.6117
 9422SOL     OW39898   4.596   1.882   7.501 -0.3620 -0.0790  0.0856
 9422SOL    HW139899   4.544   1.902   7.423  2.1660  1.0772 -1.3086
 9422SOL    HW239900   4.687   1.893   7.475 -0.2858 -2.1788 -0.5395
 9423SOL     OW39901   2.223   1.101   3.610 -0.6351 -0.0161  0.3012
 9423SOL    HW139902   2.220   1.062   3.698 -1.1563 -2.2011 -0.6875
 9423SOL    HW239903   2.305   1.061   3.581 -0.7867  0.0689 -0.2365
 9424SOL     OW39904   2.921   1.022  10.272  0.1698 -0.4881 -0.1585
 9424SOL    HW139905   2.913   1.022  10.177 -1.0518  2.6376 -0.0450
 9424SOL    HW239906   2.959   0.934  10.278 -1.1251 -1.1454 -1.6719
 9425SOL     OW39907   4.168   1.576   4.957 -0.0933  0.4384 -0.1342
 9425SOL    HW139908   4.084   1.565   5.001 -1.5201  2.5822 -2.3022
 9425SOL    HW239909   4.221   1.512   5.005  0.0619  0.6867  0.0271
 9426SOL     OW39910   1.270   2.738  12.527  0.1179 -0.2453 -0.4150
 9426SOL    HW139911   1.192   2.763  12.577 -0.3972 -2.1888 -0.2760
 9426SOL    HW239912   1.289   2.823  12.487 -1.8643  1.1170  1.4897
 9427SOL     OW39913   1.329   1.001   9.109 -0.0372  0.0586  0.0191
 9427SOL    HW139914   1.302   0.978   9.020 -0.3876 -1.0722  0.4242
 9427SOL    HW239915   1.424   0.993   9.103 -0.0367 -1.1008  1.5452
 9428SOL     OW39916   4.167   2.892  13.169 -0.0837 -0.5019  0.3054
 9428SOL    HW139917   4.178   2.974  13.122  1.8740 -1.1230 -0.3105
 9428SOL    HW239918   4.162   2.904  13.264  0.1064 -0.1386  0.2653
 9429SOL     OW39919   4.222   4.542  16.156 -0.2371 -0.1122 -0.1037
 9429SOL    HW139920   4.151   4.540  16.221  1.6764  0.6514  2.0235
 9429SOL    HW239921   4.193   4.466  16.105 -1.3719 -0.2700  0.7549
 9430SOL     OW39922   0.611   3.781   7.652 -0.3087 -0.3071  0.0096
 9430SOL    HW139923   0.672   3.707   7.644 -0.7563 -1.0506  3.5533
 9430SOL    HW239924   0.536   3.740   7.695 -2.3347  1.6977 -1.6508
 9431SOL     OW39925   3.450   1.721   9.249 -0.2592 -0.0028  0.1796
 9431SOL    HW139926   3.456   1.637   9.203  2.4363  0.0209  0.4641
 9431SOL    HW239927   3.381   1.708   9.313  3.0190 -1.6803  3.3964
 9432SOL     OW39928   0.392   1.861   4.786  0.4656  0.1698  0.1675
 9432SOL    HW139929   0.359   1.862   4.876 -0.6756 -0.2999 -0.2419
 9432SOL    HW239930   0.380   1.952   4.759 -1.4599 -0.1893 -0.1840
 9433SOL     OW39931   2.811   0.698   4.192 -0.1023  0.2756 -0.0993
 9433SOL    HW139932   2.718   0.685   4.208 -0.3642  1.6197 -0.5435
 9433SOL    HW239933   2.846   0.622   4.240 -0.2182 -0.3807 -1.0721
 9434SOL     OW39934   2.752   2.863  16.850 -0.7223  0.2717  0.1154
 9434SOL    HW139935   2.795   2.777  16.842  1.2474  1.3417 -0.8126
 9434SOL    HW239936   2.707   2.885  16.768  0.5934 -1.0228 -0.9634
 9435SOL     OW39937   1.278   2.891   3.263 -0.1339  0.2520 -0.4272
 9435SOL    HW139938   1.360   2.855   3.299  0.4132  2.2807  0.3458
 9435SOL    HW239939   1.314   2.936   3.187 -1.8856  1.3840 -0.5881
 9436SOL     OW39940   3.953   1.844   2.211  0.0284  0.7060  0.3772
 9436SOL    HW139941   3.932   1.852   2.304  2.1138 -0.7075  0.9561
 9436SOL    HW239942   3.883   1.894   2.168 -0.6258  0.7462  1.4793
 9437SOL     OW39943   4.343   1.212   3.349 -0.1516  0.0175  0.7339
 9437SOL    HW139944   4.289   1.152   3.297  1.2155 -0.5419 -0.0575
 9437SOL    HW239945   4.281   1.282   3.369 -0.8729 -0.0961 -1.0498
 9438SOL     OW39946   3.532   0.990   2.759  0.6144  0.0076  0.5369
 9438SOL    HW139947   3.536   1.061   2.694  0.3495 -1.6782 -1.3174
 9438SOL    HW239948   3.610   1.017   2.806  0.4298  1.1383  0.2003
 9439SOL     OW39949   2.123   1.649   9.095 -0.4070  0.2059  0.5506
 9439SOL    HW139950   2.182   1.579   9.120  0.1821  0.2962 -0.5767
 9439SOL    HW239951   2.051   1.593   9.064 -0.2952 -0.3474  1.2948
 9440SOL     OW39952   0.360   1.971   5.433  0.3121  0.1521  0.3693
 9440SOL    HW139953   0.391   1.934   5.350 -0.8247 -1.0048  0.4517
 9440SOL    HW239954   0.275   2.003   5.405  0.5164  0.9666  0.7039
 9441SOL     OW39955   1.903   4.448  12.351  0.3971  0.6721 -0.9938
 9441SOL    HW139956   1.916   4.403  12.434 -0.3027  0.4810 -0.9879
 9441SOL    HW239957   1.896   4.543  12.361 -0.8890  0.3221  1.3389
 9442SOL     OW39958   0.561   3.537   3.626  0.1722 -0.5554 -0.3408
 9442SOL    HW139959   0.575   3.569   3.537  1.8709  0.6391  0.3701
 9442SOL    HW239960   0.529   3.619   3.663  1.4594 -0.2735  0.1300
 9443SOL     OW39961   4.503   2.436  15.805  0.4360  0.0604 -0.1041
 9443SOL    HW139962   4.463   2.355  15.773 -2.2429  0.7748  1.3522
 9443SOL    HW239963   4.420   2.476  15.832  0.2339 -0.6997  0.4004
 9444SOL     OW39964   3.011   4.685   8.751  0.0707 -0.0446  0.2086
 9444SOL    HW139965   3.027   4.593   8.730  1.3467  0.4797 -1.1081
 9444SOL    HW239966   2.916   4.670   8.751  0.2892 -1.3548 -0.2491
 9445SOL     OW39967   0.328   2.627   2.740  0.5256  0.1466 -0.5575
 9445SOL    HW139968   0.416   2.612   2.705  0.4314 -0.1317 -0.6779
 9445SOL    HW239969   0.324   2.562   2.811  1.7479  0.4971 -0.1671
 9446SOL     OW39970   4.357   0.526  17.484  0.7859 -0.1952 -0.3098
 9446SOL    HW139971   4.388   0.559  17.568  1.7999 -0.8691 -0.4234
 9446SOL    HW239972   4.265   0.512  17.508  0.3646  1.1983 -1.1175
 9447SOL     OW39973   1.124   1.144   2.982 -0.0468 -0.4333  0.1470
 9447SOL    HW139974   1.194   1.079   2.983  0.3937  0.0245 -2.4750
 9447SOL    HW239975   1.120   1.156   2.888  0.8735 -1.1443  0.0248
 9448SOL     OW39976   4.700   0.733  12.240 -0.7554 -0.1597 -0.4397
 9448SOL    HW139977   0.050   0.783  12.238 -0.7269 -0.1808  0.3093
 9448SOL    HW239978   4.670   0.749  12.151 -2.8171  3.8188  0.9697
 9449SOL     OW39979   4.538   1.803   0.178  0.5434 -0.1351 -0.7992
 9449SOL    HW139980   4.580   1.717   0.170  0.4880 -0.3657  1.5762
 9449SOL    HW239981   4.479   1.793   0.103 -0.2530  1.1378 -0.3361
 9450SOL     OW39982   1.048   3.257   1.213  0.4341  0.7923  0.4783
 9450SOL    HW139983   1.136   3.277   1.245  0.4741  2.8947 -0.9021
 9450SOL    HW239984   1.052   3.162   1.215 -1.0092  0.7225 -0.0444
 9451SOL     OW39985   4.573   2.690  11.027 -0.5398  0.1983 -0.4358
 9451SOL    HW139986   4.503   2.676  10.963 -0.9865 -0.1713  0.1380
 9451SOL    HW239987   4.627   2.749  10.974 -2.7626  0.3406 -2.5069
 9452SOL     OW39988   0.377   0.807  11.677  0.7439 -0.1317 -0.1845
 9452SOL    HW139989   0.374   0.876  11.743 -0.4727  0.1718 -0.5483
 9452SOL    HW239990   0.426   0.839  11.602  1.0855  2.9907  1.3590
 9453SOL     OW39991   3.300   3.886   4.904  0.3459 -0.5722  0.3165
 9453SOL    HW139992   3.243   3.816   4.872 -1.4152 -0.0142  2.2317
 9453SOL    HW239993   3.316   3.925   4.818  0.1080  0.0892  0.5682
 9454SOL     OW39994   2.573   2.599  16.326  0.5828  0.3115  0.3118
 9454SOL    HW139995   2.635   2.672  16.322 -1.2209  1.7783 -0.7920
 9454SOL    HW239996   2.608   2.547  16.254  0.6993 -0.9221  1.2692
 9455SOL     OW39997   1.206   1.799  14.435 -0.3391 -0.0342 -0.1507
 9455SOL    HW139998   1.289   1.800  14.389  0.1159 -1.6179  0.6309
 9455SOL    HW239999   1.175   1.717  14.396 -2.0249  0.6893 -0.3468
 9456SOL     OW40000   0.008   1.648   6.000 -0.5319 -0.4670 -0.0379
 9456SOL    HW140001   4.710   1.558   6.014 -0.0326 -0.9735 -2.2338
 9456SOL    HW240002   4.703   1.692   6.077 -0.1948 -1.0592  0.4634
 9457SOL     OW40003   3.535   4.332  13.267 -0.4208 -0.5226 -0.0832
 9457SOL    HW140004   3.608   4.290  13.222 -0.4212 -1.4194  0.7602
 9457SOL    HW240005   3.472   4.261  13.282 -0.1471 -1.0194 -1.2997
 9458SOL     OW40006   2.323   2.168   0.278 -0.4123  0.2937 -0.2104
 9458SOL    HW140007   2.247   2.218   0.307 -1.0365 -1.5186  1.2532
 9458SOL    HW240008   2.397   2.209   0.324 -0.2907 -0.7793  0.5382
 9459SOL     OW40009   1.277   3.046   4.013  0.6082 -0.7287  0.2404
 9459SOL    HW140010   1.328   3.059   4.093  0.6591  0.1503  0.0707
 9459SOL    HW240011   1.188   3.055   4.048  1.9816  2.7682  2.7744
 9460SOL     OW40012   0.218   1.336   2.469 -0.0449 -0.3043  0.0663
 9460SOL    HW140013   0.137   1.290   2.490 -1.0281  0.7698 -1.3646
 9460SOL    HW240014   0.280   1.263   2.464  0.6980  0.3714 -0.5228
 9461SOL     OW40015   3.978   3.994   4.730  0.0518 -0.0180  0.2812
 9461SOL    HW140016   3.900   3.960   4.687 -0.0937  0.2626  0.3285
 9461SOL    HW240017   3.956   4.086   4.724 -0.0379  0.0148  1.1305
 9462SOL     OW40018   1.949   0.227   1.542 -0.4512 -0.6359 -0.2637
 9462SOL    HW140019   1.952   0.297   1.608  1.0411  0.7966 -1.8780
 9462SOL    HW240020   1.998   0.264   1.469  0.0941  0.5289  0.6731
 9463SOL     OW40021   1.053   1.240   2.330  0.2797 -0.4803 -0.3559
 9463SOL    HW140022   1.101   1.315   2.296  2.2378 -0.3842  2.6376
 9463SOL    HW240023   0.995   1.272   2.399 -0.2175  0.3739 -1.1577
 9464SOL     OW40024   0.907   3.485  13.053 -0.0026 -0.1870 -0.2766
 9464SOL    HW140025   0.894   3.390  13.061  6.4136 -1.0480 -0.3384
 9464SOL    HW240026   0.990   3.503  13.096 -0.8092 -0.5408  1.4735
 9465SOL     OW40027   3.213   0.702   6.717 -0.1812 -0.2266  0.1988
 9465SOL    HW140028   3.122   0.722   6.695 -0.0436 -0.3014 -0.4547
 9465SOL    HW240029   3.252   0.789   6.716 -1.6199  0.4115 -0.6950
 9466SOL     OW40030   0.144   0.946  16.504 -0.0103  0.6836  0.2903
 9466SOL    HW140031   0.209   0.877  16.487  0.3517  0.7856  1.2852
 9466SOL    HW240032   0.063   0.897  16.516 -0.4437  0.7831 -2.2340
 9467SOL     OW40033   3.045   2.481   4.158  0.2556 -0.3488  0.2876
 9467SOL    HW140034   3.041   2.410   4.222 -0.5033 -1.7534 -1.2803
 9467SOL    HW240035   3.137   2.465   4.136  0.1197 -0.5999 -0.1160
 9468SOL     OW40036   1.506   3.198   3.939 -0.2316  0.1894 -0.5565
 9468SOL    HW140037   1.460   3.281   3.951  1.0179  0.7191  0.5285
 9468SOL    HW240038   1.437   3.134   3.951  0.8721 -1.1407 -1.3225
 9469SOL     OW40039   3.722   4.557   5.327 -0.3155  0.4909 -0.1521
 9469SOL    HW140040   3.648   4.562   5.267  0.7419 -0.1170 -1.5002
 9469SOL    HW240041   3.693   4.517   5.408 -0.2193  1.0452  0.1581
 9470SOL     OW40042   1.636   1.594   4.199 -0.1062 -0.4422 -0.0680
 9470SOL    HW140043   1.585   1.663   4.240 -1.9372 -0.3299 -2.5836
 9470SOL    HW240044   1.631   1.625   4.109  0.3910 -0.4521 -0.1020
 9471SOL     OW40045   3.767   4.151   1.553 -0.4048 -0.1755 -0.1873
 9471SOL    HW140046   3.859   4.161   1.578 -0.2282  0.1448 -0.9959
 9471SOL    HW240047   3.755   4.246   1.559  0.4440  0.0298 -1.8743
 9472SOL     OW40048   2.432   3.818   9.032 -0.0046 -0.0055  0.7103
 9472SOL    HW140049   2.385   3.817   9.115 -0.2436 -1.4351  0.5572
 9472SOL    HW240050   2.436   3.728   8.998  1.4688 -0.1581  1.2862
 9473SOL     OW40051   1.375   1.632   5.507  0.7929  0.1721 -0.0972
 9473SOL    HW140052   1.442   1.701   5.510  1.4377 -0.4415 -0.4614
 9473SOL    HW240053   1.429   1.559   5.477 -1.0322 -0.9838 -0.5218
 9474SOL     OW40054   1.584   0.550   4.282 -0.2255  0.3247 -0.2924
 9474SOL    HW140055   1.616   0.525   4.369 -1.2967 -0.8764 -0.2380
 9474SOL    HW240056   1.593   0.466   4.237  0.0298 -0.0189  0.3851
 9475SOL     OW40057   2.213   3.983   7.801 -0.4914 -0.1214  0.2556
 9475SOL    HW140058   2.269   4.017   7.731 -0.5529 -2.6621 -1.0315
 9475SOL    HW240059   2.248   3.894   7.798 -0.6637 -0.1421 -1.5041
 9476SOL     OW40060   1.486   2.310   2.415  0.6579 -0.2491  0.4732
 9476SOL    HW140061   1.400   2.320   2.456  1.5883  1.9071  1.9217
 9476SOL    HW240062   1.534   2.369   2.473 -0.5502  1.2326 -0.0544
 9477SOL     OW40063   0.911   1.335   6.898  0.0525  0.1069  0.1684
 9477SOL    HW140064   0.832   1.376   6.933  0.6353  0.3628  1.1931
 9477SOL    HW240065   0.933   1.269   6.965  1.4358  1.5902  1.1879
 9478SOL     OW40066   2.959   2.791  12.844 -0.2888  0.7098  0.6024
 9478SOL    HW140067   3.012   2.861  12.805  0.0876 -0.3104 -0.7108
 9478SOL    HW240068   2.946   2.822  12.933  0.6437  0.6567  0.7575
 9479SOL     OW40069   1.365   3.279   6.584 -0.6113  0.1083  0.2709
 9479SOL    HW140070   1.450   3.322   6.568 -1.8174  1.4251 -2.4511
 9479SOL    HW240071   1.310   3.296   6.508 -0.2181  1.2861  0.2487
 9480SOL     OW40072   1.997   2.091  11.140  0.6143  0.4881 -0.2678
 9480SOL    HW140073   2.002   2.088  11.236  2.2341  0.1569 -0.3499
 9480SOL    HW240074   2.002   2.182  11.112 -1.5277  1.6927  3.2677
 9481SOL     OW40075   0.486   0.488  17.501  0.6089 -0.2019  0.3990
 9481SOL    HW140076   0.497   0.471  17.407  1.4729 -1.9727  0.8363
 9481SOL    HW240077   0.395   0.458  17.504  0.6255 -0.2438  0.4670
 9482SOL     OW40078   3.760   4.568   8.465  0.1831  0.2089 -0.2118
 9482SOL    HW140079   3.802   4.576   8.379 -0.1630 -1.0698 -0.5111
 9482SOL    HW240080   3.840   4.568   8.516  0.6035 -0.5199 -0.8629
 9483SOL     OW40081   4.214   4.620   4.619  0.0734  1.0657 -0.1327
 9483SOL    HW140082   4.133   4.568   4.618  1.0048 -0.4278  2.2833
 9483SOL    HW240083   4.250   4.613   4.531  0.1404  0.7734 -0.0826
 9484SOL     OW40084   1.240   3.766   9.949 -0.5322  0.0392  0.2436
 9484SOL    HW140085   1.146   3.784   9.960 -1.1585 -1.9680 -1.9074
 9484SOL    HW240086   1.258   3.769   9.855  1.6218 -0.9185  0.6313
 9485SOL     OW40087   0.290   1.087   6.956 -0.7458  0.1279 -0.2968
 9485SOL    HW140088   0.314   1.018   6.895  0.0918  0.3411 -0.1981
 9485SOL    HW240089   0.214   1.052   7.005  0.3149 -0.6913  0.7684
 9486SOL     OW40090   4.365   3.152   0.111  0.8660  0.9827 -0.5080
 9486SOL    HW140091   4.320   3.156   0.195  0.1966 -0.3634 -0.7907
 9486SOL    HW240092   4.407   3.237   0.099 -0.5645  1.4285 -2.3045
 9487SOL     OW40093   2.555   2.330  12.121  0.4024  0.3925  0.0391
 9487SOL    HW140094   2.578   2.419  12.092  0.9535  0.0872 -0.4753
 9487SOL    HW240095   2.549   2.360  12.211 -0.8602  0.3017 -0.0134
 9488SOL     OW40096   0.193   0.600  10.207  0.5083 -0.0556  0.7349
 9488SOL    HW140097   0.159   0.680  10.247  1.4029  0.5544  0.2561
 9488SOL    HW240098   0.263   0.641  10.157 -0.5827 -1.5457 -2.0456
 9489SOL     OW40099   3.977   2.197   6.382  0.6085  0.3697 -0.4770
 9489SOL    HW140100   4.039   2.168   6.449  1.4636  1.4678 -0.8042
 9489SOL    HW240101   4.002   2.132   6.316 -0.7745 -0.5358 -0.1213
 9490SOL     OW40102   0.114   3.534   8.087 -0.7866 -0.1815  0.2292
 9490SOL    HW140103   0.033   3.562   8.045 -0.8649 -1.2516 -0.3337
 9490SOL    HW240104   0.085   3.537   8.179 -0.7704  3.6399  0.1189
 9491SOL     OW40105   3.810   1.142  16.187 -0.1992  0.3501 -0.7225
 9491SOL    HW140106   3.754   1.087  16.132 -0.2104  0.3136 -0.6750
 9491SOL    HW240107   3.781   1.120  16.276  1.6733  0.1276 -0.1648
 9492SOL     OW40108   4.517   1.902  15.054  0.1579 -0.8759  0.5185
 9492SOL    HW140109   4.431   1.884  15.094 -1.2601 -0.8899 -2.5247
 9492SOL    HW240110   4.483   1.927  14.969  2.2520 -0.7763 -0.2727
 9493SOL     OW40111   4.345   4.176   0.548 -0.2274  0.2444 -0.6357
 9493SOL    HW140112   4.312   4.096   0.591 -0.5446  0.1430 -1.0609
 9493SOL    HW240113   4.316   4.165   0.458  0.0483  2.0712 -0.9366
 9494SOL     OW40114   2.835   1.182  17.722  0.5514  0.3080  0.2951
 9494SOL    HW140115   2.794   1.161   0.077  1.1618 -0.1561  0.4795
 9494SOL    HW240116   2.879   1.098  17.706 -0.1138 -0.1904  1.1133
 9495SOL     OW40117   2.784   0.466   8.940  0.2401  0.4713 -0.3478
 9495SOL    HW140118   2.695   0.430   8.934  0.7659 -1.0719  1.2186
 9495SOL    HW240119   2.839   0.388   8.937  0.9298  0.9184  0.7310
 9496SOL     OW40120   1.400   1.977   7.991 -0.3869  0.3308 -0.1910
 9496SOL    HW140121   1.456   2.004   7.918  2.3787  2.2941  2.6716
 9496SOL    HW240122   1.435   2.029   8.063  0.0842  0.8785 -0.8080
 9497SOL     OW40123   2.783   0.580   3.581  0.4985 -0.3288  0.4970
 9497SOL    HW140124   2.838   0.587   3.503 -0.5950 -2.9435 -0.5275
 9497SOL    HW240125   2.830   0.525   3.644 -0.1320  0.4949  1.6793
 9498SOL     OW40126   0.350   3.139   9.483 -0.0691  0.5578  0.1646
 9498SOL    HW140127   0.407   3.112   9.411  0.0556 -0.2789  0.5814
 9498SOL    HW240128   0.372   3.230   9.504  0.3690  0.6942 -0.8806
 9499SOL     OW40129   3.743   4.128   3.314  0.0063 -0.2548  0.0300
 9499SOL    HW140130   3.769   4.216   3.342 -0.2636 -0.6360  1.4897
 9499SOL    HW240131   3.815   4.112   3.254 -1.6063  1.0683 -2.2752
 9500SOL     OW40132   0.917   3.209   0.985  0.6688 -1.0182  0.2958
 9500SOL    HW140133   0.986   3.249   0.933 -0.0064 -0.7831 -0.4261
 9500SOL    HW240134   0.958   3.229   1.069 -0.7738  2.2029  0.2510
 9501SOL     OW40135   0.427   4.234   8.537  0.3223 -0.0213 -0.1924
 9501SOL    HW140136   0.409   4.317   8.493 -0.5693  1.3017  2.6870
 9501SOL    HW240137   0.517   4.250   8.566  0.4929  1.1052 -1.3069
 9502SOL     OW40138   2.434   3.574  12.953 -0.1922 -0.0176 -0.2975
 9502SOL    HW140139   2.492   3.545  13.023 -1.8202 -0.2603  0.9591
 9502SOL    HW240140   2.368   3.615  13.009 -1.0211 -1.4284 -0.2244
 9503SOL     OW40141   2.419   3.553   5.320 -0.0634  0.1448  0.4083
 9503SOL    HW140142   2.439   3.615   5.249  2.1017  0.2022  1.0927
 9503SOL    HW240143   2.324   3.538   5.317 -0.4931  2.7561  0.9616
 9504SOL     OW40144   3.278   3.872  10.081 -0.1238  0.6193 -0.7627
 9504SOL    HW140145   3.204   3.864  10.140 -0.8800 -0.6242 -1.8916
 9504SOL    HW240146   3.348   3.831  10.132  0.1587  1.1073 -0.7504
 9505SOL     OW40147   1.104   4.011   4.641 -0.2231 -0.6474  0.1684
 9505SOL    HW140148   1.029   3.995   4.584  0.0287 -0.3904 -0.2400
 9505SOL    HW240149   1.148   3.927   4.653  0.6641 -0.0603  1.0402
 9506SOL     OW40150   4.112   0.517   0.954  0.6422 -0.0320  0.2739
 9506SOL    HW140151   4.019   0.493   0.959 -0.0228  2.2527 -0.8972
 9506SOL    HW240152   4.125   0.488   0.864 -1.8515 -0.6661  0.1101
 9507SOL     OW40153   4.599   3.063  16.025  0.1814  0.0392  0.5671
 9507SOL    HW140154   4.641   3.141  16.061 -0.5161 -0.5308  2.6256
 9507SOL    HW240155   4.629   3.074  15.935  0.8931 -0.5851  0.7340
 9508SOL     OW40156   0.494   0.925  15.676  0.0614 -0.7057  0.0778
 9508SOL    HW140157   0.496   0.956  15.766  2.4738 -3.1135  0.8493
 9508SOL    HW240158   0.469   1.005  15.630 -0.2948 -0.8347  0.0429
 9509SOL     OW40159   3.164   1.641   7.464 -0.2601  0.6520 -0.6970
 9509SOL    HW140160   3.070   1.626   7.476 -0.0300  1.4672  2.2647
 9509SOL    HW240161   3.194   1.640   7.555  0.4522 -1.2679 -0.9621
 9510SOL     OW40162   2.177   3.176   8.993 -0.1152  0.2931 -0.1300
 9510SOL    HW140163   2.139   3.225   8.920 -0.3794 -2.2038 -1.6599
 9510SOL    HW240164   2.100   3.144   9.040 -0.4969  0.1527 -0.8522
 9511SOL     OW40165   3.396   2.606   6.963 -0.1744 -0.1111 -0.8641
 9511SOL    HW140166   3.421   2.663   6.889  0.1406  1.4922  0.4708
 9511SOL    HW240167   3.478   2.576   7.002 -0.8707  1.2874  1.6941
 9512SOL     OW40168   2.144   1.106   8.272 -0.0769 -0.6332  0.0546
 9512SOL    HW140169   2.070   1.046   8.279 -0.1413 -0.5805 -0.1606
 9512SOL    HW240170   2.222   1.052   8.285  0.4433 -0.1853 -1.2135
 9513SOL     OW40171   3.315   2.110  16.663  0.0790 -0.1540 -0.3112
 9513SOL    HW140172   3.242   2.107  16.725  0.5965  2.6967  0.4459
 9513SOL    HW240173   3.315   2.019  16.635  1.2833 -0.1004 -0.4443
 9514SOL     OW40174   2.051   4.024  13.197 -0.3974 -0.9155  0.2549
 9514SOL    HW140175   1.991   4.074  13.252 -0.4661  0.5251 -1.1290
 9514SOL    HW240176   2.131   4.074  13.217  0.8415 -2.2026 -1.4682
 9515SOL     OW40177   3.144   4.500   5.774  0.1823  0.0867  0.1336
 9515SOL    HW140178   3.192   4.514   5.856 -0.0529 -2.5144  0.7146
 9515SOL    HW240179   3.098   4.584   5.773  0.1469  0.0770  1.1454
 9516SOL     OW40180   2.429   0.672   2.864 -0.0363  0.2433 -0.2189
 9516SOL    HW140181   2.490   0.741   2.889  1.7243 -1.0856 -0.8494
 9516SOL    HW240182   2.389   0.717   2.791  0.9312 -0.4867 -1.2005
 9517SOL     OW40183   3.811   2.219   2.376  0.1962 -0.3645 -0.0790
 9517SOL    HW140184   3.806   2.313   2.359 -0.9489 -0.1594  1.3896
 9517SOL    HW240185   3.844   2.215   2.466 -0.1297  1.3564  0.1262
 9518SOL     OW40186   0.332   1.899   6.693 -0.2375  0.1957 -0.3545
 9518SOL    HW140187   0.271   1.935   6.757  1.2095  1.8265  0.1082
 9518SOL    HW240188   0.338   1.812   6.731  1.0892  0.1700 -0.6242
 9519SOL     OW40189   3.642   3.993  14.476 -0.5149  0.4080  0.5441
 9519SOL    HW140190   3.727   4.021  14.443  0.0392 -0.2819  1.4045
 9519SOL    HW240191   3.594   4.067  14.514  1.0592  0.8598  1.6346
 9520SOL     OW40192   0.252   0.550   8.603 -0.3879  1.0664 -0.2854
 9520SOL    HW140193   0.284   0.498   8.677  1.0991  1.2286 -0.8016
 9520SOL    HW240194   0.173   0.588   8.640 -0.9652 -1.8350  1.4471
 9521SOL     OW40195   2.381   1.876   7.562 -0.2620  0.1563 -0.0953
 9521SOL    HW140196   2.337   1.914   7.639  1.6048  2.3247 -0.0784
 9521SOL    HW240197   2.470   1.908   7.577 -0.2461  0.3395 -0.5745
 9522SOL     OW40198   2.610   2.691   4.344  0.4513  0.8216  0.4824
 9522SOL    HW140199   2.676   2.652   4.286 -0.4836  0.1238 -0.1122
 9522SOL    HW240200   2.655   2.676   4.427 -0.8848 -0.7447  0.9192
 9523SOL     OW40201   0.488   1.595   8.395  0.3687 -0.5790 -0.1223
 9523SOL    HW140202   0.426   1.632   8.333  2.2486  1.0885 -1.0278
 9523SOL    HW240203   0.526   1.518   8.352 -1.7296 -0.1952 -2.5963
 9524SOL     OW40204   3.149   1.733   8.161 -0.6708 -0.8690 -0.2683
 9524SOL    HW140205   3.109   1.817   8.185  1.9416 -0.3010  2.1384
 9524SOL    HW240206   3.073   1.675   8.155 -0.7574 -0.3485 -4.2648
 9525SOL     OW40207   2.282   2.056  17.592  0.0203  0.0117 -0.3045
 9525SOL    HW140208   2.360   2.107  17.614 -0.0749  0.5289 -1.1595
 9525SOL    HW240209   2.269   2.019  17.680 -0.3969  0.4220 -0.1929
 9526SOL     OW40210   2.326   0.937  12.210  0.4521  0.2507 -0.7972
 9526SOL    HW140211   2.284   0.920  12.126 -0.5596  1.6127 -0.5632
 9526SOL    HW240212   2.418   0.918  12.189  0.1726 -1.2591 -0.6214
 9527SOL     OW40213   4.427   4.535   3.008  0.6080 -0.5584  0.1406
 9527SOL    HW140214   4.510   4.495   3.033  0.7899 -0.4888 -0.3569
 9527SOL    HW240215   4.450   4.547   2.916  3.8811 -1.4005  0.8584
 9528SOL     OW40216   4.480   1.695  15.640  0.7344 -0.5038  0.1495
 9528SOL    HW140217   4.412   1.665  15.581  1.0502  0.3229 -0.6321
 9528SOL    HW240218   4.555   1.703  15.581 -0.8095  1.6415 -1.5158
 9529SOL     OW40219   0.546   1.074  16.674  0.5714 -0.0587 -0.2008
 9529SOL    HW140220   0.580   1.164  16.675  0.8445 -0.1603 -0.3989
 9529SOL    HW240221   0.496   1.064  16.755 -1.3206  2.0946 -1.0978
 9530SOL     OW40222   4.442   3.197   2.802 -0.9447  0.5551  0.0367
 9530SOL    HW140223   4.533   3.182   2.777 -0.4345  1.4894  1.3405
 9530SOL    HW240224   4.410   3.192   2.712 -0.1656 -0.9644 -0.1723
 9531SOL     OW40225   3.974   0.796   6.561 -0.5673  0.3396 -0.4035
 9531SOL    HW140226   3.900   0.758   6.512 -1.3236  0.3278  0.7560
 9531SOL    HW240227   4.010   0.721   6.608 -3.7356 -1.5656 -0.9993
 9532SOL     OW40228   1.062   4.301   4.630  0.1727 -0.4308 -0.0763
 9532SOL    HW140229   1.080   4.208   4.644  4.2957  0.3902 -0.0846
 9532SOL    HW240230   1.064   4.312   4.535 -1.6909 -2.7286 -0.3691
 9533SOL     OW40231   3.895   2.404  17.126 -0.2376  0.1482  0.3296
 9533SOL    HW140232   3.893   2.308  17.123  0.6713  0.1977 -2.2783
 9533SOL    HW240233   3.977   2.424  17.081  0.1706 -0.0223  1.0056
 9534SOL     OW40234   3.524   4.002   7.018 -0.2041 -0.6777 -0.5974
 9534SOL    HW140235   3.575   4.059   6.961  0.9162  1.5363  2.6235
 9534SOL    HW240236   3.570   4.011   7.102 -0.6826 -0.9470 -0.2989
 9535SOL     OW40237   4.456   4.318   6.954  0.5046 -0.1419  0.0940
 9535SOL    HW140238   4.416   4.322   7.040  1.2433 -2.4874  0.5549
 9535SOL    HW240239   4.508   4.239   6.972 -1.6598 -1.3179  1.1472
 9536SOL     OW40240   2.248   0.238   1.711  0.2883 -0.4545  0.1569
 9536SOL    HW140241   2.219   0.293   1.638  1.5356 -1.9629 -1.4431
 9536SOL    HW240242   2.331   0.284   1.717 -0.8432  1.3217  2.2902
 9537SOL     OW40243   2.676   3.095   0.076  0.1065  0.1956 -0.5887
 9537SOL    HW140244   2.668   3.020   0.017  0.7862 -0.0264 -0.4033
 9537SOL    HW240245   2.674   3.050   0.161 -0.7748 -1.2970 -1.3937
 9538SOL     OW40246   4.558   1.556   0.732  0.0959 -0.4485  0.1666
 9538SOL    HW140247   4.502   1.486   0.765  0.7903 -0.8614  0.4516
 9538SOL    HW240248   4.577   1.508   0.651 -0.5266 -0.4092 -0.0045
 9539SOL     OW40249   1.557   4.576   8.672  0.2321 -0.2314 -0.7977
 9539SOL    HW140250   1.591   4.578   8.762 -2.4573  1.8297  0.2019
 9539SOL    HW240251   1.600   4.503   8.628  0.2656 -1.4275  1.1844
 9540SOL     OW40252   0.386   1.981   6.939  0.3259  0.6325  0.3105
 9540SOL    HW140253   0.470   2.014   6.907 -1.3903  1.8817 -2.9682
 9540SOL    HW240254   0.356   2.046   7.003 -0.4227  1.1306 -0.5293
 9541SOL     OW40255   0.397   0.149  17.380  0.1875  0.5126 -0.1446
 9541SOL    HW140256   0.311   0.153  17.339  0.2116  1.8320 -0.0450
 9541SOL    HW240257   0.408   0.054  17.372 -0.9051  0.3441  0.4449
 9542SOL     OW40258   1.596   2.105   4.456 -0.1062 -0.1029 -0.1223
 9542SOL    HW140259   1.505   2.130   4.467 -0.0698  0.2940 -0.7400
 9542SOL    HW240260   1.636   2.179   4.410 -0.9540 -0.5503 -1.5570
 9543SOL     OW40261   1.196   1.190   5.231 -0.8475 -0.4424  0.0908
 9543SOL    HW140262   1.145   1.209   5.153 -0.2096 -0.3386 -0.2953
 9543SOL    HW240263   1.249   1.117   5.199  1.5004  0.5220  1.7519
 9544SOL     OW40264   1.838   4.473  13.339 -0.5991 -0.4410 -0.7787
 9544SOL    HW140265   1.764   4.527  13.312 -1.1599 -1.0800 -0.5044
 9544SOL    HW240266   1.910   4.536  13.340 -1.7603  0.8997 -0.6274
 9545SOL     OW40267   3.373   3.723   2.599 -0.4356 -0.2805 -0.6537
 9545SOL    HW140268   3.402   3.711   2.508  0.2386 -0.8016 -0.3719
 9545SOL    HW240269   3.416   3.650   2.643 -1.5336  0.1618  1.1217
 9546SOL     OW40270   4.601   0.745   1.515 -0.3006 -0.0213 -0.5266
 9546SOL    HW140271   4.540   0.743   1.441 -0.5701  0.0178 -0.3022
 9546SOL    HW240272   4.591   0.836   1.542  1.9713  0.0655  0.0199
 9547SOL     OW40273   1.777   0.717   8.413 -0.1109 -0.8456  0.0862
 9547SOL    HW140274   1.802   0.637   8.458 -1.7914 -2.0342 -1.0822
 9547SOL    HW240275   1.802   0.781   8.480 -1.1794 -0.3505  0.0095
 9548SOL     OW40276   0.784   4.050   6.118 -0.1430 -0.1250 -0.0425
 9548SOL    HW140277   0.834   4.022   6.195  1.4463  3.1265  0.1035
 9548SOL    HW240278   0.721   4.115   6.146  0.2010  0.1117  0.1809
 9549SOL     OW40279   2.042   2.911  13.260  0.3580 -0.4218 -0.1916
 9549SOL    HW140280   2.125   2.953  13.235  0.5468 -1.0915 -0.7119
 9549SOL    HW240281   1.980   2.966  13.214  0.5788  0.3475  0.4396
 9550SOL     OW40282   2.124   4.236   0.210  0.1223 -0.7331 -0.6465
 9550SOL    HW140283   2.065   4.210   0.281 -0.9995  1.6328 -0.7325
 9550SOL    HW240284   2.077   4.287   0.145 -0.9057 -1.7538 -0.6995
 9551SOL     OW40285   0.412   1.457   2.680  0.2060 -0.0093 -0.4007
 9551SOL    HW140286   0.416   1.383   2.741  2.0194  0.5363  0.1547
 9551SOL    HW240287   0.410   1.539   2.729 -2.0171  0.1735 -0.8154
 9552SOL     OW40288   0.836   1.294   2.107 -0.1960  0.0135  0.4106
 9552SOL    HW140289   0.923   1.262   2.130  0.0501  0.2038 -0.2587
 9552SOL    HW240290   0.785   1.262   2.181 -0.5616 -2.7888 -1.0402
 9553SOL     OW40291   0.838   1.218   1.632  0.1352  0.0385 -0.4435
 9553SOL    HW140292   0.875   1.301   1.602  0.4897  0.1875  0.4016
 9553SOL    HW240293   0.804   1.239   1.719  2.4339 -0.1032  0.4952
 9554SOL     OW40294   0.462   3.255   9.732  0.2786  0.3514 -0.1178
 9554SOL    HW140295   0.481   3.345   9.708  0.4584  0.7322  1.4610
 9554SOL    HW240296   0.484   3.202   9.655 -0.5609 -1.2578  0.7474
 9555SOL     OW40297   3.610   0.920   8.348 -0.4397  0.6271 -0.1204
 9555SOL    HW140298   3.600   0.829   8.322  0.5527  0.6459 -0.5519
 9555SOL    HW240299   3.705   0.928   8.354 -0.6179  1.1818  1.9590
 9556SOL     OW40300   1.721   1.286   7.291 -0.5995 -0.2780 -0.9541
 9556SOL    HW140301   1.804   1.272   7.336 -0.8886 -0.9794 -0.6418
 9556SOL    HW240302   1.750   1.356   7.231  0.9592  0.4546  0.6524
 9557SOL     OW40303   2.571   2.379   2.420  0.5507  0.4925  0.9128
 9557SOL    HW140304   2.488   2.409   2.457 -1.2040 -1.0135 -1.8795
 9557SOL    HW240305   2.611   2.342   2.499 -0.7984  1.4719  2.0491
 9558SOL     OW40306   2.126   0.137   3.314  0.8265 -0.1779 -0.0335
 9558SOL    HW140307   2.043   0.090   3.322 -0.6603  2.4820 -0.0634
 9558SOL    HW240308   2.184   0.081   3.366  0.6776 -1.3812 -1.1515
 9559SOL     OW40309   4.255   4.431   3.517  0.2149 -0.7282  0.5505
 9559SOL    HW140310   4.185   4.435   3.452 -2.0135  1.7605  3.1004
 9559SOL    HW240311   4.333   4.420   3.462  1.1414  0.0760  1.6829
 9560SOL     OW40312   2.862   0.546   7.233  0.0557 -0.0159 -0.4694
 9560SOL    HW140313   2.805   0.556   7.157  1.1132 -0.9651 -1.3787
 9560SOL    HW240314   2.889   0.637   7.241 -2.2788  0.4995  1.5115
 9561SOL     OW40315   3.957   2.596  15.819 -0.5603 -0.0377 -0.3383
 9561SOL    HW140316   3.894   2.577  15.749 -1.0455  1.5888 -0.3496
 9561SOL    HW240317   3.891   2.633  15.877  0.8088  0.6612  0.7884
 9562SOL     OW40318   1.771   0.780   8.730 -0.2808 -0.0710 -0.2385
 9562SOL    HW140319   1.731   0.865   8.750  0.6841 -0.1665  2.0170
 9562SOL    HW240320   1.860   0.786   8.765  1.1916 -0.3627 -3.9459
 9563SOL     OW40321   0.833   4.023  16.449  0.5853 -0.2515  0.2927
 9563SOL    HW140322   0.831   3.989  16.360 -2.4665 -0.6437  0.5291
 9563SOL    HW240323   0.800   4.110  16.425  1.0704 -0.4954 -1.2238
 9564SOL     OW40324   3.100   2.872   2.771  0.2305  0.3098  0.0345
 9564SOL    HW140325   3.026   2.812   2.765 -0.0032  0.6156 -0.1469
 9564SOL    HW240326   3.058   2.942   2.820 -0.6417 -0.0872 -0.1416
 9565SOL     OW40327   1.383   2.187   3.375  0.4698  0.4169  0.1555
 9565SOL    HW140328   1.305   2.217   3.421 -0.4290  0.0652 -1.1585
 9565SOL    HW240329   1.443   2.190   3.450  0.9950  0.7161 -0.2736
 9566SOL     OW40330   4.266   4.240   5.878  0.0531  0.0421 -0.2395
 9566SOL    HW140331   4.294   4.159   5.920  1.6774  0.2428 -0.9566
 9566SOL    HW240332   4.259   4.213   5.786  0.4401  3.2128 -1.1931
 9567SOL     OW40333   0.793   0.112   6.510 -0.5480  0.3213 -0.1094
 9567SOL    HW140334   0.707   0.155   6.510 -0.9553 -0.4918 -1.8476
 9567SOL    HW240335   0.844   0.176   6.460  0.6630  0.5102  1.3789
 9568SOL     OW40336   3.211   3.556   5.850  0.3604 -0.0576 -0.1187
 9568SOL    HW140337   3.176   3.544   5.762  2.7164  1.2699 -1.2061
 9568SOL    HW240338   3.144   3.612   5.890  0.6874  1.4108 -1.6776
 9569SOL     OW40339   0.493   0.494   6.865  0.5635  0.2979  0.3283
 9569SOL    HW140340   0.419   0.521   6.812 -0.1139  1.1637  1.7275
 9569SOL    HW240341   0.566   0.551   6.839  0.0649  0.4369 -0.7735
 9570SOL     OW40342   1.417   4.732   4.945  0.3993 -0.1691  0.1131
 9570SOL    HW140343   1.476   0.073   4.965  0.1697 -0.1033  0.5429
 9570SOL    HW240344   1.462   4.671   5.004  0.6103 -0.6795 -0.5704
 9571SOL     OW40345   2.305   0.703   7.512 -0.1097  0.4616 -0.4073
 9571SOL    HW140346   2.365   0.720   7.584  1.2432 -1.0349 -1.1969
 9571SOL    HW240347   2.357   0.662   7.443 -0.1665 -0.7377  0.2590
   4.73217   4.73217  17.72827
